 Entering Gaussian System, Link 0=g16
 Initial command:
 /opt/sw/arch/manual/gaussian/G16_A03/g16/l1.exe "/scratch/1032084.jesse.materianova.be/Gau-3662.inp" -scrdir="/scratch/1032084.jesse.materianova.be/"
 Entering Link 1 = /opt/sw/arch/manual/gaussian/G16_A03/g16/l1.exe PID=      3663.
  
 Copyright (c) 1988,1990,1992,1993,1995,1998,2003,2009,2016,
            Gaussian, Inc.  All Rights Reserved.
  
 This is part of the Gaussian(R) 16 program.  It is based on
 the Gaussian(R) 09 system (copyright 2009, Gaussian, Inc.),
 the Gaussian(R) 03 system (copyright 2003, Gaussian, Inc.),
 the Gaussian(R) 98 system (copyright 1998, Gaussian, Inc.),
 the Gaussian(R) 94 system (copyright 1995, Gaussian, Inc.),
 the Gaussian 92(TM) system (copyright 1992, Gaussian, Inc.),
 the Gaussian 90(TM) system (copyright 1990, Gaussian, Inc.),
 the Gaussian 88(TM) system (copyright 1988, Gaussian, Inc.),
 the Gaussian 86(TM) system (copyright 1986, Carnegie Mellon
 University), and the Gaussian 82(TM) system (copyright 1983,
 Carnegie Mellon University). Gaussian is a federally registered
 trademark of Gaussian, Inc.
  
 This software contains proprietary and confidential information,
 including trade secrets, belonging to Gaussian, Inc.
  
 This software is provided under written license and may be
 used, copied, transmitted, or stored only in accord with that
 written license.
  
 The following legend is applicable only to US Government
 contracts under FAR:
  
                    RESTRICTED RIGHTS LEGEND
  
 Use, reproduction and disclosure by the US Government is
 subject to restrictions as set forth in subparagraphs (a)
 and (c) of the Commercial Computer Software - Restricted
 Rights clause in FAR 52.227-19.
  
 Gaussian, Inc.
 340 Quinnipiac St., Bldg. 40, Wallingford CT 06492
  
  
 ---------------------------------------------------------------
 Warning -- This program may not be used in any manner that
 competes with the business of Gaussian, Inc. or will provide
 assistance to any competitor of Gaussian, Inc.  The licensee
 of this program is prohibited from giving any competitor of
 Gaussian, Inc. access to this program.  By using this program,
 the user acknowledges that Gaussian, Inc. is engaged in the
 business of creating and licensing software in the field of
 computational chemistry and represents and warrants to the
 licensee that it is not a competitor of Gaussian, Inc. and that
 it will not use this program in any manner prohibited above.
 ---------------------------------------------------------------
  

 Cite this work as:
 Gaussian 16, Revision A.03,
 M. J. Frisch, G. W. Trucks, H. B. Schlegel, G. E. Scuseria, 
 M. A. Robb, J. R. Cheeseman, G. Scalmani, V. Barone, 
 G. A. Petersson, H. Nakatsuji, X. Li, M. Caricato, A. V. Marenich, 
 J. Bloino, B. G. Janesko, R. Gomperts, B. Mennucci, H. P. Hratchian, 
 J. V. Ortiz, A. F. Izmaylov, J. L. Sonnenberg, D. Williams-Young, 
 F. Ding, F. Lipparini, F. Egidi, J. Goings, B. Peng, A. Petrone, 
 T. Henderson, D. Ranasinghe, V. G. Zakrzewski, J. Gao, N. Rega, 
 G. Zheng, W. Liang, M. Hada, M. Ehara, K. Toyota, R. Fukuda, 
 J. Hasegawa, M. Ishida, T. Nakajima, Y. Honda, O. Kitao, H. Nakai, 
 T. Vreven, K. Throssell, J. A. Montgomery, Jr., J. E. Peralta, 
 F. Ogliaro, M. J. Bearpark, J. J. Heyd, E. N. Brothers, K. N. Kudin, 
 V. N. Staroverov, T. A. Keith, R. Kobayashi, J. Normand, 
 K. Raghavachari, A. P. Rendell, J. C. Burant, S. S. Iyengar, 
 J. Tomasi, M. Cossi, J. M. Millam, M. Klene, C. Adamo, R. Cammi, 
 J. W. Ochterski, R. L. Martin, K. Morokuma, O. Farkas, 
 J. B. Foresman, and D. J. Fox, Gaussian, Inc., Wallingford CT, 2016.
 
 ******************************************
 Gaussian 16:  EM64L-G16RevA.03 25-Dec-2016
                11-Jul-2024 
 ******************************************
 %nprocshared=3
 Will use up to    3 processors via shared memory.
 %mem=6GB
 %Chk=QHJABUZHRJTCAR-UHFFFAOYSA-N_conf_0_0.chk
 -------------------------------------------------------
 # opt=CalcFc B3LYP/6-31G** SCRF=(Solvent=water) scf=xqc
 -------------------------------------------------------
 1/10=4,18=20,19=15,26=3,38=1/1,3;
 2/9=110,12=2,17=6,18=5,40=1/2;
 3/5=1,6=6,7=101,11=2,25=1,30=1,70=2201,71=2,72=1,74=-5,140=1/1,2,3;
 4//1;
 5/5=2,8=3,13=1,38=5,53=1/2,8;
 8/6=4,10=90,11=11/1;
 11/6=1,8=1,9=11,15=111,16=1/1,2,10;
 10/6=1,13=1/2;
 6/7=2,8=2,9=2,10=2,28=1/1;
 7/10=1,18=20,25=1/1,2,3,16;
 1/10=4,18=20,19=15,26=3/3(2);
 2/9=110/2;
 99//99;
 2/9=110/2;
 3/5=1,6=6,7=101,11=2,25=1,30=1,70=2205,71=1,72=1,74=-5/1,2,3;
 4/5=5,16=3,69=1/1;
 5/5=2,8=3,13=1,38=5,53=1/2,8;
 7//1,2,3,16;
 1/18=20,19=15,26=3/3(-5);
 2/9=110/2;
 6/7=2,8=2,9=2,10=2,19=2,28=1/1;
 99/9=1/99;
 ----------------------------------
 QHJABUZHRJTCAR-UHFFFAOYSA-N_conf_0
 ----------------------------------
 Symbolic Z-matrix:
 Charge =  0 Multiplicity = 1
 N                    -2.52814   0.80363   1.04155 
 C                    -1.62102   0.03903   0.18481 
 C                    -0.27383  -0.18375   0.87339 
 C                     0.67938  -1.05459   0.04584 
 N                     1.00229  -0.52618  -1.2808 
 C                     1.83205   0.67077  -1.22243 
 H                    -2.63816   0.32662   1.93495 
 H                    -2.10802   1.70783   1.25285 
 H                    -2.08898  -0.9225   -0.05221 
 H                    -1.49179   0.58227  -0.75689 
 H                    -0.43759  -0.68505   1.83637 
 H                     0.19525   0.77984   1.10572 
 H                     0.21161  -2.03705  -0.09253 
 H                     1.60038  -1.23341   0.61424 
 H                     1.50584  -1.24316  -1.80451 
 H                     2.10025   0.97299  -2.23984 
 H                     2.76094   0.49105  -0.67167 
 H                     1.29955   1.51165  -0.76885 
 

 GradGradGradGradGradGradGradGradGradGradGradGradGradGradGradGradGradGrad
 Berny optimization.
 Initialization pass.
                           ----------------------------
                           !    Initial Parameters    !
                           ! (Angstroms and Degrees)  !
 --------------------------                            --------------------------
 ! Name  Definition              Value          Derivative Info.                !
 --------------------------------------------------------------------------------
 ! R1    R(1,2)                  1.4634         calculate D2E/DX2 analytically  !
 ! R2    R(1,7)                  1.0187         calculate D2E/DX2 analytically  !
 ! R3    R(1,8)                  1.0192         calculate D2E/DX2 analytically  !
 ! R4    R(2,3)                  1.5293         calculate D2E/DX2 analytically  !
 ! R5    R(2,9)                  1.0953         calculate D2E/DX2 analytically  !
 ! R6    R(2,10)                 1.0948         calculate D2E/DX2 analytically  !
 ! R7    R(3,4)                  1.5336         calculate D2E/DX2 analytically  !
 ! R8    R(3,11)                 1.0979         calculate D2E/DX2 analytically  !
 ! R9    R(3,12)                 1.0966         calculate D2E/DX2 analytically  !
 ! R10   R(4,5)                  1.4641         calculate D2E/DX2 analytically  !
 ! R11   R(4,13)                 1.0969         calculate D2E/DX2 analytically  !
 ! R12   R(4,14)                 1.0969         calculate D2E/DX2 analytically  !
 ! R13   R(5,6)                  1.4576         calculate D2E/DX2 analytically  !
 ! R14   R(5,15)                 1.0207         calculate D2E/DX2 analytically  !
 ! R15   R(6,16)                 1.0947         calculate D2E/DX2 analytically  !
 ! R16   R(6,17)                 1.0947         calculate D2E/DX2 analytically  !
 ! R17   R(6,18)                 1.0938         calculate D2E/DX2 analytically  !
 ! A1    A(2,1,7)              109.616          calculate D2E/DX2 analytically  !
 ! A2    A(2,1,8)              109.2321         calculate D2E/DX2 analytically  !
 ! A3    A(7,1,8)              106.1476         calculate D2E/DX2 analytically  !
 ! A4    A(1,2,3)              111.0131         calculate D2E/DX2 analytically  !
 ! A5    A(1,2,9)              108.6942         calculate D2E/DX2 analytically  !
 ! A6    A(1,2,10)             108.5106         calculate D2E/DX2 analytically  !
 ! A7    A(3,2,9)              110.2385         calculate D2E/DX2 analytically  !
 ! A8    A(3,2,10)             110.8302         calculate D2E/DX2 analytically  !
 ! A9    A(9,2,10)             107.4509         calculate D2E/DX2 analytically  !
 ! A10   A(2,3,4)              112.787          calculate D2E/DX2 analytically  !
 ! A11   A(2,3,11)             109.2714         calculate D2E/DX2 analytically  !
 ! A12   A(2,3,12)             110.1343         calculate D2E/DX2 analytically  !
 ! A13   A(4,3,11)             107.8628         calculate D2E/DX2 analytically  !
 ! A14   A(4,3,12)             110.3296         calculate D2E/DX2 analytically  !
 ! A15   A(11,3,12)            106.2111         calculate D2E/DX2 analytically  !
 ! A16   A(3,4,5)              114.9054         calculate D2E/DX2 analytically  !
 ! A17   A(3,4,13)             108.1564         calculate D2E/DX2 analytically  !
 ! A18   A(3,4,14)             109.5617         calculate D2E/DX2 analytically  !
 ! A19   A(5,4,13)             107.6394         calculate D2E/DX2 analytically  !
 ! A20   A(5,4,14)             110.071          calculate D2E/DX2 analytically  !
 ! A21   A(13,4,14)            106.1048         calculate D2E/DX2 analytically  !
 ! A22   A(4,5,6)              112.6841         calculate D2E/DX2 analytically  !
 ! A23   A(4,5,15)             108.6753         calculate D2E/DX2 analytically  !
 ! A24   A(6,5,15)             108.4533         calculate D2E/DX2 analytically  !
 ! A25   A(5,6,16)             109.2053         calculate D2E/DX2 analytically  !
 ! A26   A(5,6,17)             111.6142         calculate D2E/DX2 analytically  !
 ! A27   A(5,6,18)             111.7635         calculate D2E/DX2 analytically  !
 ! A28   A(16,6,17)            107.7583         calculate D2E/DX2 analytically  !
 ! A29   A(16,6,18)            107.004          calculate D2E/DX2 analytically  !
 ! A30   A(17,6,18)            109.3093         calculate D2E/DX2 analytically  !
 ! D1    D(7,1,2,3)            -56.2653         calculate D2E/DX2 analytically  !
 ! D2    D(7,1,2,9)             65.1467         calculate D2E/DX2 analytically  !
 ! D3    D(7,1,2,10)          -178.2924         calculate D2E/DX2 analytically  !
 ! D4    D(8,1,2,3)             59.6496         calculate D2E/DX2 analytically  !
 ! D5    D(8,1,2,9)           -178.9385         calculate D2E/DX2 analytically  !
 ! D6    D(8,1,2,10)           -62.3775         calculate D2E/DX2 analytically  !
 ! D7    D(1,2,3,4)            176.5049         calculate D2E/DX2 analytically  !
 ! D8    D(1,2,3,11)            56.5488         calculate D2E/DX2 analytically  !
 ! D9    D(1,2,3,12)           -59.7584         calculate D2E/DX2 analytically  !
 ! D10   D(9,2,3,4)             56.0029         calculate D2E/DX2 analytically  !
 ! D11   D(9,2,3,11)           -63.9531         calculate D2E/DX2 analytically  !
 ! D12   D(9,2,3,12)           179.7396         calculate D2E/DX2 analytically  !
 ! D13   D(10,2,3,4)           -62.8294         calculate D2E/DX2 analytically  !
 ! D14   D(10,2,3,11)          177.2145         calculate D2E/DX2 analytically  !
 ! D15   D(10,2,3,12)           60.9073         calculate D2E/DX2 analytically  !
 ! D16   D(2,3,4,5)             59.1036         calculate D2E/DX2 analytically  !
 ! D17   D(2,3,4,13)           -61.1523         calculate D2E/DX2 analytically  !
 ! D18   D(2,3,4,14)          -176.3878         calculate D2E/DX2 analytically  !
 ! D19   D(11,3,4,5)           179.8674         calculate D2E/DX2 analytically  !
 ! D20   D(11,3,4,13)           59.6115         calculate D2E/DX2 analytically  !
 ! D21   D(11,3,4,14)          -55.624          calculate D2E/DX2 analytically  !
 ! D22   D(12,3,4,5)           -64.525          calculate D2E/DX2 analytically  !
 ! D23   D(12,3,4,13)          175.2191         calculate D2E/DX2 analytically  !
 ! D24   D(12,3,4,14)           59.9835         calculate D2E/DX2 analytically  !
 ! D25   D(3,4,5,6)             69.2496         calculate D2E/DX2 analytically  !
 ! D26   D(3,4,5,15)          -170.5242         calculate D2E/DX2 analytically  !
 ! D27   D(13,4,5,6)          -170.2099         calculate D2E/DX2 analytically  !
 ! D28   D(13,4,5,15)          -49.9836         calculate D2E/DX2 analytically  !
 ! D29   D(14,4,5,6)           -54.9907         calculate D2E/DX2 analytically  !
 ! D30   D(14,4,5,15)           65.2356         calculate D2E/DX2 analytically  !
 ! D31   D(4,5,6,16)           175.8125         calculate D2E/DX2 analytically  !
 ! D32   D(4,5,6,17)            56.7723         calculate D2E/DX2 analytically  !
 ! D33   D(4,5,6,18)           -65.9901         calculate D2E/DX2 analytically  !
 ! D34   D(15,5,6,16)           55.4586         calculate D2E/DX2 analytically  !
 ! D35   D(15,5,6,17)          -63.5816         calculate D2E/DX2 analytically  !
 ! D36   D(15,5,6,18)          173.656          calculate D2E/DX2 analytically  !
 --------------------------------------------------------------------------------
 Trust Radius=3.00D-01 FncErr=1.00D-07 GrdErr=1.00D-06 EigMax=2.50D+02 EigMin=1.00D-04
 Number of steps in this run=     93 maximum allowed number of steps=    108.
 GradGradGradGradGradGradGradGradGradGradGradGradGradGradGradGradGradGrad

                          Input orientation:                          
 ---------------------------------------------------------------------
 Center     Atomic      Atomic             Coordinates (Angstroms)
 Number     Number       Type             X           Y           Z
 ---------------------------------------------------------------------
      1          7           0       -2.528143    0.803630    1.041548
      2          6           0       -1.621017    0.039027    0.184813
      3          6           0       -0.273835   -0.183752    0.873390
      4          6           0        0.679381   -1.054589    0.045835
      5          7           0        1.002293   -0.526182   -1.280800
      6          6           0        1.832046    0.670774   -1.222426
      7          1           0       -2.638158    0.326618    1.934950
      8          1           0       -2.108019    1.707827    1.252850
      9          1           0       -2.088985   -0.922496   -0.052208
     10          1           0       -1.491793    0.582271   -0.756885
     11          1           0       -0.437594   -0.685047    1.836374
     12          1           0        0.195251    0.779837    1.105723
     13          1           0        0.211614   -2.037047   -0.092527
     14          1           0        1.600377   -1.233412    0.614235
     15          1           0        1.505837   -1.243155   -1.804505
     16          1           0        2.100252    0.972994   -2.239840
     17          1           0        2.760940    0.491055   -0.671671
     18          1           0        1.299552    1.511648   -0.768855
 ---------------------------------------------------------------------
                    Distance matrix (angstroms):
                    1          2          3          4          5
     1  N    0.000000
     2  C    1.463383   0.000000
     3  C    2.466800   1.529271   0.000000
     4  C    3.838311   2.550910   1.533566   0.000000
     5  N    4.430088   3.057653   2.527112   1.464052   0.000000
     6  C    4.914721   3.781941   3.091504   2.431873   1.457601
     7  H    1.018730   2.044569   2.641479   4.059871   4.931653
     8  H    1.019178   2.040286   2.662009   4.105780   4.591756
     9  H    2.090137   1.095307   2.167313   2.773249   3.350000
    10  H    2.087435   1.094809   2.174399   2.835078   2.779140
    11  H    2.686690   2.156949   1.097931   2.142480   3.437337
    12  H    2.724253   2.166958   1.096596   2.173215   2.837692
    13  H    4.106317   2.783081   2.145544   1.096893   2.078432
    14  H    4.623506   3.490113   2.163704   1.096946   2.109274
    15  H    5.344375   3.921556   3.385364   2.035276   1.020723
    16  H    5.676110   4.538621   4.082468   3.369611   2.091124
    17  H    5.568412   4.487699   3.471661   2.690115   2.121001
    18  H    4.293028   3.407025   2.836704   2.762952   2.122074
                    6          7          8          9         10
     6  C    0.000000
     7  H    5.483630   0.000000
     8  H    4.767241   1.629124   0.000000
     9  H    4.391174   2.410533   2.936347   0.000000
    10  H    3.357450   2.936918   2.384460   1.765653   0.000000
    11  H    4.042991   2.423977   2.976015   2.519963   3.072852
    12  H    2.848030   2.986842   2.487541   3.075138   2.520805
    13  H    3.351831   4.221229   4.605955   2.556679   3.194338
    14  H    2.655734   4.705651   4.776077   3.761942   3.839035
    15  H    2.026908   5.798311   5.578143   4.011996   3.662714
    16  H    1.094715   6.348165   5.518008   5.091986   3.905715
    17  H    1.094748   5.997646   5.375042   5.089560   4.254564
    18  H    1.093776   4.921424   3.967028   4.233298   2.942021
                   11         12         13         14         15
    11  H    0.000000
    12  H    1.755057   0.000000
    13  H    2.443365   3.061194   0.000000
    14  H    2.438780   2.503819   1.753284   0.000000
    15  H    4.164662   3.778831   2.288263   2.420607   0.000000
    16  H    5.079889   3.854754   4.151898   3.641957   2.335415
    17  H    4.231325   3.134531   3.636725   2.444227   2.421999
    18  H    3.824965   2.295446   3.772832   3.088493   2.950265
                   16         17         18
    16  H    0.000000
    17  H    1.768595   0.000000
    18  H    1.759280   1.785136   0.000000
 Stoichiometry    C4H12N2
 Framework group  C1[X(C4H12N2)]
 Deg. of freedom    48
 Full point group                 C1      NOp   1
 Largest Abelian subgroup         C1      NOp   1
 Largest concise Abelian subgroup C1      NOp   1
                         Standard orientation:                         
 ---------------------------------------------------------------------
 Center     Atomic      Atomic             Coordinates (Angstroms)
 Number     Number       Type             X           Y           Z
 ---------------------------------------------------------------------
      1          7           0        2.713040   -0.527021   -0.049320
      2          6           0        1.416148   -0.061319   -0.541946
      3          6           0        0.551307    0.465567    0.603965
      4          6           0       -0.785078    1.043435    0.122335
      5          7           0       -1.636413    0.102338   -0.607745
      6          6           0       -2.174596   -0.948468    0.247104
      7          1           0        3.177708    0.226126    0.455321
      8          1           0        2.566214   -1.273929    0.628393
      9          1           0        1.584735    0.727405   -1.283019
     10          1           0        0.920035   -0.892224   -1.053881
     11          1           0        1.092978    1.262764    1.129817
     12          1           0        0.379757   -0.326670    1.342514
     13          1           0       -0.571824    1.886369   -0.546364
     14          1           0       -1.332679    1.462705    0.975350
     15          1           0       -2.416915    0.617371   -1.016931
     16          1           0       -2.858498   -1.572745   -0.336812
     17          1           0       -2.737657   -0.534102    1.089563
     18          1           0       -1.386927   -1.605573    0.626758
 ---------------------------------------------------------------------
 Rotational constants (GHZ):           7.0955439           1.6616831           1.5478419
 Standard basis: 6-31G(d,p) (6D, 7F)
 There are   150 symmetry adapted cartesian basis functions of A   symmetry.
 There are   150 symmetry adapted basis functions of A   symmetry.
   150 basis functions,   252 primitive gaussians,   150 cartesian basis functions
    25 alpha electrons       25 beta electrons
       nuclear repulsion energy       256.0810838679 Hartrees.
 NAtoms=   18 NActive=   18 NUniq=   18 SFac= 1.00D+00 NAtFMM=   60 NAOKFM=F Big=F
 Integral buffers will be    131072 words long.
 Raffenetti 2 integral format.
 Two-electron integral symmetry is turned on.
 Force inversion solution in PCM.
 ------------------------------------------------------------------------------
 Polarizable Continuum Model (PCM)
 =================================
 Model                : PCM.
 Atomic radii         : UFF (Universal Force Field).
 Polarization charges : Total charges.
 Charge compensation  : None.
 Solution method      : Matrix inversion.
 Cavity type          : Scaled VdW (van der Waals Surface) (Alpha=1.100).
 Cavity algorithm     : GePol (No added spheres)
                        Default sphere list used, NSphG=   18.
                        Lebedev-Laikov grids with approx.  5.0 points / Ang**2.
                        Smoothing algorithm: York/Karplus (Gamma=1.0000).
                        Polarization charges: spherical gaussians, with
                                              point-specific exponents (IZeta= 3).
                        Self-potential: point-specific (ISelfS= 7).
                        Self-field    : sphere-specific E.n sum rule (ISelfD= 2).
 1st derivatives      : Analytical E(r).r(x)/FMM algorithm (CHGder, D1EAlg=3).
                        Cavity 1st derivative terms included.
 2nd derivatives      : Analytical E(r).r(xy)/FMM algorithm (CHGder, D2EAlg=3).
                        Cavity 2nd derivative terms included.
 Solvent              : Water, Eps=  78.355300 Eps(inf)=   1.777849
 ------------------------------------------------------------------------------
 Spheres list:
 ISph  on   Nord     Re0    Alpha      Xe            Ye            Ze
    1   N      1    1.8300  1.100      2.713040     -0.527021     -0.049320
    2   C      2    1.9255  1.100      1.416148     -0.061319     -0.541946
    3   C      3    1.9255  1.100      0.551307      0.465567      0.603965
    4   C      4    1.9255  1.100     -0.785078      1.043435      0.122335
    5   N      5    1.8300  1.100     -1.636413      0.102338     -0.607745
    6   C      6    1.9255  1.100     -2.174596     -0.948468      0.247104
    7   H      7    1.4430  1.100      3.177708      0.226126      0.455321
    8   H      8    1.4430  1.100      2.566214     -1.273929      0.628393
    9   H      9    1.4430  1.100      1.584735      0.727405     -1.283019
   10   H     10    1.4430  1.100      0.920035     -0.892224     -1.053881
   11   H     11    1.4430  1.100      1.092978      1.262764      1.129817
   12   H     12    1.4430  1.100      0.379757     -0.326670      1.342514
   13   H     13    1.4430  1.100     -0.571824      1.886369     -0.546364
   14   H     14    1.4430  1.100     -1.332679      1.462705      0.975350
   15   H     15    1.4430  1.100     -2.416915      0.617371     -1.016931
   16   H     16    1.4430  1.100     -2.858498     -1.572745     -0.336812
   17   H     17    1.4430  1.100     -2.737657     -0.534102      1.089563
   18   H     18    1.4430  1.100     -1.386927     -1.605573      0.626758
 ------------------------------------------------------------------------------
 One-electron integrals computed using PRISM.
 NBasis=   150 RedAO= T EigKep=  3.72D-03  NBF=   150
 NBsUse=   150 1.00D-06 EigRej= -1.00D+00 NBFU=   150
 ExpMin= 1.61D-01 ExpMax= 4.17D+03 ExpMxC= 6.27D+02 IAcc=3 IRadAn=         5 AccDes= 0.00D+00
 Harris functional with IExCor=  402 and IRadAn=       5 diagonalized for initial guess.
 HarFok:  IExCor=  402 AccDes= 0.00D+00 IRadAn=         5 IDoV= 1 UseB2=F ITyADJ=14
 ICtDFT=  3500011 ScaDFX=  1.000000  1.000000  1.000000  1.000000
 FoFCou: FMM=F IPFlag=           0 FMFlag=      100000 FMFlg1=           0
         NFxFlg=           0 DoJE=T BraDBF=F KetDBF=T FulRan=T
         wScrn=  0.000000 ICntrl=       500 IOpCl=  0 I1Cent=   200000004 NGrid=           0
         NMat0=    1 NMatS0=      1 NMatT0=    0 NMatD0=    1 NMtDS0=    0 NMtDT0=    0
 Petite list used in FoFCou.
 Keep R1 ints in memory in canonical form, NReq=67061194.
 Requested convergence on RMS density matrix=1.00D-08 within  32 cycles.
 Requested convergence on MAX density matrix=1.00D-06.
 Requested convergence on             energy=1.00D-06.
 No special actions if energy rises.
 Inv3:  Mode=1 IEnd=     5394843.
 Iteration    1 A*A^-1 deviation from unit magnitude is 6.00D-15 for    458.
 Iteration    1 A*A^-1 deviation from orthogonality  is 3.38D-15 for   1155    140.
 Iteration    1 A^-1*A deviation from unit magnitude is 6.22D-15 for    458.
 Iteration    1 A^-1*A deviation from orthogonality  is 3.06D-12 for    971    935.
 Error on total polarization charges =  0.00806
 SCF Done:  E(RB3LYP) =  -269.157846372     A.U. after   11 cycles
            NFock= 11  Conv=0.21D-08     -V/T= 2.0096
 QCSCF skips out because SCF is already converged.
 DoSCS=F DFT=T ScalE2(SS,OS)=  1.000000  1.000000
 Range of M.O.s used for correlation:     1   150
 NBasis=   150 NAE=    25 NBE=    25 NFC=     0 NFV=     0
 NROrb=    150 NOA=    25 NOB=    25 NVA=   125 NVB=   125
 Symmetrizing basis deriv contribution to polar:
 IMax=3 JMax=2 DiffMx= 0.00D+00
 G2DrvN: will do    19 centers at a time, making    1 passes.
 Calling FoFCou, ICntrl=  3107 FMM=F I1Cent=   0 AccDes= 0.00D+00.
 NEqPCM:  Using equilibrium solvation (IEInf=0, Eps=  78.3553, EpsInf=   1.7778)
 G2PCM: DoFxE=T DoFxN=T DoGrad=T DoDP/DQ/DG/TGxP=FFFF NFrqRd=   0 IEInf=0 SqF1=F DoCFld=F IF1Alg=4.
 End of G2Drv F.D. properties file   721 does not exist.
 End of G2Drv F.D. properties file   722 does not exist.
 End of G2Drv F.D. properties file   788 does not exist.
          IDoAtm=111111111111111111
 NEqPCM:  Using equilibrium solvation (IEInf=0, Eps=  78.3553, EpsInf=   1.7778)
          Differentiating once with respect to nuclear coordinates.
 Keep R1 ints in memory in canonical form, NReq=69625218.
          There are    57 degrees of freedom in the 1st order CPHF.  IDoFFX=6 NUNeed=     0.
     51 vectors produced by pass  0 Test12= 5.48D-15 1.75D-09 XBig12= 7.25D-02 6.70D-02.
 AX will form    51 AO Fock derivatives at one time.
     51 vectors produced by pass  1 Test12= 5.48D-15 1.75D-09 XBig12= 1.09D-02 2.38D-02.
     51 vectors produced by pass  2 Test12= 5.48D-15 1.75D-09 XBig12= 1.65D-04 1.82D-03.
     51 vectors produced by pass  3 Test12= 5.48D-15 1.75D-09 XBig12= 4.51D-07 8.80D-05.
     51 vectors produced by pass  4 Test12= 5.48D-15 1.75D-09 XBig12= 4.10D-10 2.27D-06.
     18 vectors produced by pass  5 Test12= 5.48D-15 1.75D-09 XBig12= 2.36D-13 5.93D-08.
      1 vectors produced by pass  6 Test12= 5.48D-15 1.75D-09 XBig12= 1.65D-16 2.33D-09.
 InvSVY:  IOpt=1 It=  1 EMax= 3.33D-16
 Solved reduced A of dimension   274 with    57 vectors.
 End of Minotr F.D. properties file   721 does not exist.
 End of Minotr F.D. properties file   722 does not exist.
 End of Minotr F.D. properties file   788 does not exist.

 **********************************************************************

            Population analysis using the SCF density.

 **********************************************************************

 Orbital symmetries:
       Occupied  (A) (A) (A) (A) (A) (A) (A) (A) (A) (A) (A) (A)
                 (A) (A) (A) (A) (A) (A) (A) (A) (A) (A) (A) (A)
                 (A)
       Virtual   (A) (A) (A) (A) (A) (A) (A) (A) (A) (A) (A) (A)
                 (A) (A) (A) (A) (A) (A) (A) (A) (A) (A) (A) (A)
                 (A) (A) (A) (A) (A) (A) (A) (A) (A) (A) (A) (A)
                 (A) (A) (A) (A) (A) (A) (A) (A) (A) (A) (A) (A)
                 (A) (A) (A) (A) (A) (A) (A) (A) (A) (A) (A) (A)
                 (A) (A) (A) (A) (A) (A) (A) (A) (A) (A) (A) (A)
                 (A) (A) (A) (A) (A) (A) (A) (A) (A) (A) (A) (A)
                 (A) (A) (A) (A) (A) (A) (A) (A) (A) (A) (A) (A)
                 (A) (A) (A) (A) (A) (A) (A) (A) (A) (A) (A) (A)
                 (A) (A) (A) (A) (A) (A) (A) (A) (A) (A) (A) (A)
                 (A) (A) (A) (A) (A)
 The electronic state is 1-A.
 Alpha  occ. eigenvalues --  -14.31238 -14.30461 -10.19812 -10.19731 -10.19452
 Alpha  occ. eigenvalues --  -10.17244  -0.89479  -0.87230  -0.74715  -0.67402
 Alpha  occ. eigenvalues --   -0.62693  -0.56808  -0.50065  -0.47776  -0.45394
 Alpha  occ. eigenvalues --   -0.42860  -0.41215  -0.40108  -0.37916  -0.36960
 Alpha  occ. eigenvalues --   -0.35117  -0.33608  -0.32481  -0.23332  -0.21251
 Alpha virt. eigenvalues --    0.07998   0.09557   0.11867   0.13553   0.14734
 Alpha virt. eigenvalues --    0.16035   0.16520   0.17430   0.19298   0.20068
 Alpha virt. eigenvalues --    0.20844   0.22138   0.22622   0.23937   0.25766
 Alpha virt. eigenvalues --    0.26887   0.30118   0.51025   0.52853   0.53843
 Alpha virt. eigenvalues --    0.55687   0.56336   0.58531   0.61486   0.65683
 Alpha virt. eigenvalues --    0.67770   0.68234   0.70210   0.73415   0.73881
 Alpha virt. eigenvalues --    0.78649   0.79398   0.81985   0.83148   0.84948
 Alpha virt. eigenvalues --    0.86900   0.88826   0.89460   0.90072   0.92290
 Alpha virt. eigenvalues --    0.93469   0.93925   0.96234   0.96500   0.97680
 Alpha virt. eigenvalues --    1.00478   1.03611   1.12250   1.19911   1.29512
 Alpha virt. eigenvalues --    1.31454   1.36836   1.41319   1.43614   1.49819
 Alpha virt. eigenvalues --    1.53140   1.57562   1.64219   1.69818   1.72984
 Alpha virt. eigenvalues --    1.78421   1.80342   1.82518   1.86052   1.88130
 Alpha virt. eigenvalues --    1.93868   1.95980   1.97295   1.98815   2.01982
 Alpha virt. eigenvalues --    2.05541   2.08476   2.10209   2.11418   2.13268
 Alpha virt. eigenvalues --    2.15832   2.18864   2.22399   2.23355   2.25584
 Alpha virt. eigenvalues --    2.27260   2.29218   2.31627   2.34804   2.37516
 Alpha virt. eigenvalues --    2.41303   2.42076   2.48412   2.49811   2.54276
 Alpha virt. eigenvalues --    2.58875   2.63123   2.63883   2.69811   2.71097
 Alpha virt. eigenvalues --    2.72089   2.73601   2.74536   2.82932   2.85266
 Alpha virt. eigenvalues --    2.87122   2.90713   2.92382   2.92915   2.96364
 Alpha virt. eigenvalues --    2.96681   3.00251   3.19401   3.25143   3.30073
 Alpha virt. eigenvalues --    3.31987   3.33619   3.36826   3.39367   3.45248
 Alpha virt. eigenvalues --    3.48803   3.51842   3.55963   3.59596   3.98888
 Alpha virt. eigenvalues --    4.09705   4.36869   4.47335   4.56091   4.69781
          Condensed to atoms (all electrons):
               1          2          3          4          5          6
     1  N    6.773234   0.314485  -0.070641   0.006075   0.000113  -0.000008
     2  C    0.314485   4.792203   0.374814  -0.038286   0.000825  -0.000847
     3  C   -0.070641   0.374814   5.046944   0.323465  -0.059565  -0.004220
     4  C    0.006075  -0.038286   0.323465   4.851753   0.315260  -0.057212
     5  N    0.000113   0.000825  -0.059565   0.315260   6.810758   0.317109
     6  C   -0.000008  -0.000847  -0.004220  -0.057212   0.317109   4.810329
     7  H    0.346683  -0.045951  -0.002680   0.000026   0.000000  -0.000001
     8  H    0.347308  -0.045571  -0.002687   0.000097  -0.000001   0.000001
     9  H   -0.037717   0.387179  -0.048346  -0.000434  -0.000368   0.000052
    10  H   -0.035919   0.388536  -0.044356  -0.003798   0.010108   0.000237
    11  H   -0.001472  -0.038021   0.374240  -0.026936   0.003748  -0.000008
    12  H   -0.000065  -0.041050   0.378792  -0.032083  -0.004758   0.002939
    13  H    0.000076  -0.008649  -0.036166   0.385772  -0.038309   0.006304
    14  H   -0.000150   0.005782  -0.047028   0.365543  -0.055928  -0.008274
    15  H    0.000001   0.000046   0.005822  -0.034431   0.345358  -0.040665
    16  H   -0.000000  -0.000014   0.000142   0.005645  -0.032884   0.387467
    17  H    0.000001   0.000177  -0.001991  -0.006587  -0.054187   0.372174
    18  H   -0.000051   0.000237   0.003976  -0.005013  -0.039751   0.393383
               7          8          9         10         11         12
     1  N    0.346683   0.347308  -0.037717  -0.035919  -0.001472  -0.000065
     2  C   -0.045951  -0.045571   0.387179   0.388536  -0.038021  -0.041050
     3  C   -0.002680  -0.002687  -0.048346  -0.044356   0.374240   0.378792
     4  C    0.000026   0.000097  -0.000434  -0.003798  -0.026936  -0.032083
     5  N    0.000000  -0.000001  -0.000368   0.010108   0.003748  -0.004758
     6  C   -0.000001   0.000001   0.000052   0.000237  -0.000008   0.002939
     7  H    0.482687  -0.034318  -0.005094   0.006340   0.006168  -0.000414
     8  H   -0.034318   0.481789   0.006573  -0.005752  -0.000411   0.005562
     9  H   -0.005094   0.006573   0.630606  -0.036846  -0.005501   0.005870
    10  H    0.006340  -0.005752  -0.036846   0.612999   0.005682  -0.006035
    11  H    0.006168  -0.000411  -0.005501   0.005682   0.629666  -0.037408
    12  H   -0.000414   0.005562   0.005870  -0.006035  -0.037408   0.630229
    13  H    0.000012   0.000017   0.005457  -0.000340  -0.003902   0.005937
    14  H   -0.000012   0.000002  -0.000116   0.000166  -0.001201  -0.005614
    15  H    0.000000  -0.000000  -0.000045  -0.000165  -0.000184  -0.000033
    16  H    0.000000   0.000000   0.000001  -0.000073  -0.000001  -0.000131
    17  H   -0.000000  -0.000000  -0.000002   0.000088   0.000030  -0.000081
    18  H    0.000002  -0.000009  -0.000019  -0.000068  -0.000120   0.001617
              13         14         15         16         17         18
     1  N    0.000076  -0.000150   0.000001  -0.000000   0.000001  -0.000051
     2  C   -0.008649   0.005782   0.000046  -0.000014   0.000177   0.000237
     3  C   -0.036166  -0.047028   0.005822   0.000142  -0.001991   0.003976
     4  C    0.385772   0.365543  -0.034431   0.005645  -0.006587  -0.005013
     5  N   -0.038309  -0.055928   0.345358  -0.032884  -0.054187  -0.039751
     6  C    0.006304  -0.008274  -0.040665   0.387467   0.372174   0.393383
     7  H    0.000012  -0.000012   0.000000   0.000000  -0.000000   0.000002
     8  H    0.000017   0.000002  -0.000000   0.000000  -0.000000  -0.000009
     9  H    0.005457  -0.000116  -0.000045   0.000001  -0.000002  -0.000019
    10  H   -0.000340   0.000166  -0.000165  -0.000073   0.000088  -0.000068
    11  H   -0.003902  -0.001201  -0.000184  -0.000001   0.000030  -0.000120
    12  H    0.005937  -0.005614  -0.000033  -0.000131  -0.000081   0.001617
    13  H    0.639717  -0.044592  -0.005581  -0.000272  -0.000165   0.000023
    14  H   -0.044592   0.710126  -0.003270  -0.000155   0.015752  -0.001690
    15  H   -0.005581  -0.003270   0.483341  -0.004488  -0.004635   0.005881
    16  H   -0.000272  -0.000155  -0.004488   0.604799  -0.038496  -0.028693
    17  H   -0.000165   0.015752  -0.004635  -0.038496   0.677601  -0.046009
    18  H    0.000023  -0.001690   0.005881  -0.028693  -0.046009   0.598914
 Mulliken charges:
               1
     1  N   -0.641951
     2  C   -0.045896
     3  C   -0.190514
     4  C   -0.048855
     5  N   -0.517529
     6  C   -0.178760
     7  H    0.246552
     8  H    0.247400
     9  H    0.098750
    10  H    0.109197
    11  H    0.095633
    12  H    0.096725
    13  H    0.094661
    14  H    0.070661
    15  H    0.253048
    16  H    0.107156
    17  H    0.086331
    18  H    0.117390
 Sum of Mulliken charges =  -0.00000
 Mulliken charges with hydrogens summed into heavy atoms:
               1
     1  N   -0.147999
     2  C    0.162052
     3  C    0.001845
     4  C    0.116466
     5  N   -0.264481
     6  C    0.132117
 APT charges:
               1
     1  N   -1.043921
     2  C   -0.554822
     3  C   -0.625531
     4  C   -0.658119
     5  N   -0.880187
     6  C   -1.018769
     7  H    0.548134
     8  H    0.411034
     9  H    0.369462
    10  H    0.255955
    11  H    0.396070
    12  H    0.278326
    13  H    0.369697
    14  H    0.348618
    15  H    0.686995
    16  H    0.547152
    17  H    0.374002
    18  H    0.195905
 Sum of APT charges =  -0.00000
 APT charges with hydrogens summed into heavy atoms:
               1
     1  N   -0.084753
     2  C    0.070595
     3  C    0.048865
     4  C    0.060196
     5  N   -0.193193
     6  C    0.098289
 Electronic spatial extent (au):  <R**2>=            845.1113
 Charge=             -0.0000 electrons
 Dipole moment (field-independent basis, Debye):
    X=             -1.7179    Y=              1.0691    Z=              2.0450  Tot=              2.8768
 Quadrupole moment (field-independent basis, Debye-Ang):
   XX=            -40.4620   YY=            -37.5313   ZZ=            -40.8043
   XY=              1.8433   XZ=              5.1104   YZ=             -2.4181
 Traceless Quadrupole moment (field-independent basis, Debye-Ang):
   XX=             -0.8628   YY=              2.0679   ZZ=             -1.2051
   XY=              1.8433   XZ=              5.1104   YZ=             -2.4181
 Octapole moment (field-independent basis, Debye-Ang**2):
  XXX=            -27.8331  YYY=             -1.8330  ZZZ=              0.9805  XYY=              0.1027
  XXY=             11.4101  XXZ=             11.2005  XZZ=              1.1865  YZZ=              0.9270
  YYZ=              0.4509  XYZ=             -2.0318
 Hexadecapole moment (field-independent basis, Debye-Ang**3):
 XXXX=           -824.6047 YYYY=           -184.0072 ZZZZ=           -125.5684 XXXY=             28.8807
 XXXZ=             69.4591 YYYX=             -3.7594 YYYZ=             -4.8873 ZZZX=              6.6841
 ZZZY=             -3.7118 XXYY=           -158.3843 XXZZ=           -150.6650 YYZZ=            -49.2263
 XXYZ=            -13.3186 YYXZ=              9.2012 ZZXY=             -2.8124
 N-N= 2.560810838679D+02 E-N=-1.136506574005D+03  KE= 2.665930617220D+02
  Exact polarizability:   0.000   0.000   0.000   0.000   0.000   0.000
 Approx polarizability:  77.586   2.476  78.154   3.249  -2.108  73.810
 D2PCM: PCM CHGder 2nd derivatives, FixD1E=F FixD2E=F DoIter=F DoCFld=F I1PDM=0
 Calling FoFJK, ICntrl=    100147 FMM=F ISym2X=0 I1Cent= 0 IOpClX= 0 NMat=1 NMatS=1 NMatT=0.
 ***** Axes restored to original set *****
 -------------------------------------------------------------------
 Center     Atomic                   Forces (Hartrees/Bohr)
 Number     Number              X              Y              Z
 -------------------------------------------------------------------
      1        7          -0.013296688    0.004643359   -0.003104436
      2        6           0.002736656    0.006410601    0.011001835
      3        6           0.007153000   -0.006758687   -0.010691002
      4        6           0.003209625   -0.006727661    0.000075124
      5        7          -0.009107139    0.003141177   -0.003148586
      6        6           0.001924603   -0.002540975   -0.007765309
      7        1           0.001399604    0.000834905   -0.000206911
      8        1           0.000025298   -0.001571381    0.000982515
      9        1          -0.000064723   -0.001061175   -0.000797951
     10        1           0.000517982   -0.001323990   -0.000023320
     11        1          -0.000180342   -0.000167801   -0.000454631
     12        1          -0.001330709    0.001215018   -0.000137167
     13        1          -0.000223677   -0.000396035   -0.000983844
     14        1           0.003916745   -0.000880420    0.006560047
     15        1          -0.002108421    0.002265326    0.002606555
     16        1           0.000245748    0.000271354   -0.000106800
     17        1           0.005625475    0.004141657    0.004826440
     18        1          -0.000443036   -0.001495273    0.001367441
 -------------------------------------------------------------------
 Cartesian Forces:  Max     0.013296688 RMS     0.004269209
 FormGI is forming the generalized inverse of G from B-inverse, IUseBI=4.

 GradGradGradGradGradGradGradGradGradGradGradGradGradGradGradGradGradGrad
 Berny optimization.
 Internal  Forces:  Max     0.018187566 RMS     0.003450188
 Search for a local minimum.
 Step number   1 out of a maximum of   93
 All quantities printed in internal units (Hartrees-Bohrs-Radians)
 Mixed Optimization -- RFO/linear search
 Second derivative matrix not updated -- analytic derivatives used.
 ITU=  0
     Eigenvalues ---    0.00187   0.00286   0.00287   0.00317   0.00474
     Eigenvalues ---    0.02299   0.03283   0.03447   0.03946   0.04580
     Eigenvalues ---    0.04597   0.04800   0.05141   0.06256   0.06433
     Eigenvalues ---    0.06923   0.07848   0.08729   0.10242   0.10542
     Eigenvalues ---    0.12477   0.12998   0.13179   0.14644   0.16543
     Eigenvalues ---    0.17775   0.18064   0.18682   0.23000   0.24964
     Eigenvalues ---    0.25233   0.27702   0.29721   0.31747   0.32488
     Eigenvalues ---    0.32762   0.32882   0.33284   0.33541   0.33691
     Eigenvalues ---    0.33869   0.34114   0.36436   0.37866   0.38585
     Eigenvalues ---    0.43167   0.44067   0.44288
 RFO step:  Lambda=-4.31084698D-03 EMin= 1.86556464D-03
 Linear search not attempted -- first point.
 Iteration  1 RMS(Cart)=  0.04061932 RMS(Int)=  0.00083420
 Iteration  2 RMS(Cart)=  0.00145185 RMS(Int)=  0.00018083
 Iteration  3 RMS(Cart)=  0.00000192 RMS(Int)=  0.00018083
 Iteration  4 RMS(Cart)=  0.00000000 RMS(Int)=  0.00018083
 Variable       Old X    -DE/DX   Delta X   Delta X   Delta X     New X
                                 (Linear)    (Quad)   (Total)
    R1        2.76539   0.00803   0.00000   0.01313   0.01313   2.77852
    R2        1.92512  -0.00073   0.00000   0.00164   0.00164   1.92676
    R3        1.92597  -0.00118   0.00000   0.00052   0.00052   1.92649
    R4        2.88990   0.00528   0.00000   0.01047   0.01047   2.90038
    R5        2.06983   0.00113   0.00000   0.00533   0.00533   2.07516
    R6        2.06889  -0.00058   0.00000  -0.00056  -0.00056   2.06833
    R7        2.89802   0.00129   0.00000   0.00129   0.00129   2.89931
    R8        2.07479  -0.00030   0.00000   0.00126   0.00126   2.07604
    R9        2.07227   0.00047   0.00000   0.00315   0.00315   2.07542
   R10        2.76666   0.00324   0.00000   0.00796   0.00796   2.77461
   R11        2.07283   0.00057   0.00000   0.00045   0.00045   2.07328
   R12        2.07293   0.00683   0.00000   0.01756   0.01756   2.09049
   R13        2.75447   0.00444   0.00000   0.00889   0.00889   2.76335
   R14        1.92889  -0.00397   0.00000  -0.00728  -0.00728   1.92161
   R15        2.06871   0.00023   0.00000  -0.00114  -0.00114   2.06757
   R16        2.06877   0.00652   0.00000   0.01867   0.01867   2.08745
   R17        2.06694  -0.00036   0.00000   0.00119   0.00119   2.06813
    A1        1.91316  -0.00095   0.00000  -0.01441  -0.01457   1.89859
    A2        1.90646  -0.00005   0.00000  -0.00888  -0.00903   1.89743
    A3        1.85263  -0.00066   0.00000  -0.02147  -0.02182   1.83081
    A4        1.93754   0.01819   0.00000   0.07238   0.07226   2.00980
    A5        1.89707  -0.00537   0.00000  -0.01216  -0.01217   1.88490
    A6        1.89387  -0.00508   0.00000  -0.00499  -0.00490   1.88897
    A7        1.92402  -0.00501   0.00000  -0.01829  -0.01875   1.90528
    A8        1.93435  -0.00539   0.00000  -0.02435  -0.02494   1.90941
    A9        1.87537   0.00209   0.00000  -0.01513  -0.01576   1.85961
   A10        1.96850   0.00655   0.00000   0.02104   0.02104   1.98954
   A11        1.90715  -0.00176   0.00000  -0.00395  -0.00408   1.90306
   A12        1.92221  -0.00331   0.00000  -0.01604  -0.01609   1.90612
   A13        1.88256  -0.00207   0.00000   0.00087   0.00084   1.88340
   A14        1.92562  -0.00092   0.00000   0.00013   0.00024   1.92585
   A15        1.85373   0.00122   0.00000  -0.00317  -0.00324   1.85049
   A16        2.00548  -0.00619   0.00000  -0.02852  -0.02857   1.97691
   A17        1.88769   0.00197   0.00000   0.00838   0.00822   1.89591
   A18        1.91221  -0.00051   0.00000  -0.01280  -0.01258   1.89963
   A19        1.87866   0.00068   0.00000  -0.00633  -0.00647   1.87219
   A20        1.92110   0.00495   0.00000   0.03272   0.03258   1.95368
   A21        1.85188  -0.00054   0.00000   0.00915   0.00910   1.86098
   A22        1.96671   0.00477   0.00000   0.01538   0.01541   1.98212
   A23        1.89674  -0.00227   0.00000  -0.01470  -0.01466   1.88208
   A24        1.89287  -0.00142   0.00000  -0.00784  -0.00778   1.88509
   A25        1.90599   0.00036   0.00000   0.00303   0.00276   1.90875
   A26        1.94803   0.00729   0.00000   0.03848   0.03836   1.98639
   A27        1.95064  -0.00416   0.00000  -0.02448  -0.02436   1.92628
   A28        1.88074  -0.00147   0.00000   0.00591   0.00544   1.88618
   A29        1.86757   0.00097   0.00000   0.00744   0.00741   1.87498
   A30        1.90781  -0.00315   0.00000  -0.03044  -0.03021   1.87760
    D1       -0.98201   0.00060   0.00000   0.01829   0.01831  -0.96371
    D2        1.13702   0.00233   0.00000   0.03324   0.03323   1.17026
    D3       -3.11179  -0.00088   0.00000   0.00594   0.00563  -3.10616
    D4        1.04108  -0.00076   0.00000  -0.02061  -0.02039   1.02069
    D5       -3.12307   0.00097   0.00000  -0.00565  -0.00546  -3.12853
    D6       -1.08869  -0.00224   0.00000  -0.03295  -0.03307  -1.12176
    D7        3.08059  -0.00023   0.00000   0.01512   0.01523   3.09582
    D8        0.98696  -0.00063   0.00000   0.00315   0.00325   0.99022
    D9       -1.04298   0.00081   0.00000   0.01845   0.01846  -1.02453
   D10        0.97744  -0.00207   0.00000  -0.00484  -0.00460   0.97283
   D11       -1.11619  -0.00247   0.00000  -0.01681  -0.01658  -1.13277
   D12        3.13705  -0.00103   0.00000  -0.00152  -0.00138   3.13567
   D13       -1.09658   0.00193   0.00000   0.04095   0.04070  -1.05588
   D14        3.09298   0.00153   0.00000   0.02898   0.02873   3.12171
   D15        1.06303   0.00297   0.00000   0.04427   0.04393   1.10697
   D16        1.03155  -0.00131   0.00000   0.00032   0.00023   1.03178
   D17       -1.06731   0.00041   0.00000   0.02087   0.02085  -1.04646
   D18       -3.07855   0.00024   0.00000   0.01221   0.01230  -3.06625
   D19        3.13928  -0.00083   0.00000   0.00911   0.00906  -3.13485
   D20        1.04042   0.00089   0.00000   0.02966   0.02968   1.07010
   D21       -0.97082   0.00072   0.00000   0.02100   0.02113  -0.94969
   D22       -1.12617  -0.00104   0.00000   0.00590   0.00579  -1.12039
   D23        3.05815   0.00068   0.00000   0.02645   0.02641   3.08456
   D24        1.04691   0.00051   0.00000   0.01779   0.01786   1.06477
   D25        1.20863   0.00063   0.00000   0.06896   0.06875   1.27739
   D26       -2.97621   0.00032   0.00000   0.05887   0.05864  -2.91757
   D27       -2.97072  -0.00035   0.00000   0.05671   0.05676  -2.91396
   D28       -0.87238  -0.00066   0.00000   0.04663   0.04665  -0.82573
   D29       -0.95977   0.00198   0.00000   0.08119   0.08139  -0.87838
   D30        1.13858   0.00168   0.00000   0.07111   0.07128   1.20985
   D31        3.06851   0.00054   0.00000  -0.02813  -0.02796   3.04055
   D32        0.99086  -0.00237   0.00000  -0.06122  -0.06149   0.92937
   D33       -1.15174  -0.00057   0.00000  -0.03190  -0.03180  -1.18355
   D34        0.96794   0.00134   0.00000  -0.01407  -0.01390   0.95403
   D35       -1.10971  -0.00157   0.00000  -0.04716  -0.04743  -1.15714
   D36        3.03087   0.00024   0.00000  -0.01785  -0.01775   3.01312
         Item               Value     Threshold  Converged?
 Maximum Force            0.018188     0.000450     NO 
 RMS     Force            0.003450     0.000300     NO 
 Maximum Displacement     0.132792     0.001800     NO 
 RMS     Displacement     0.040504     0.001200     NO 
 Predicted change in Energy=-2.284864D-03
 GradGradGradGradGradGradGradGradGradGradGradGradGradGradGradGradGradGrad

                          Input orientation:                          
 ---------------------------------------------------------------------
 Center     Atomic      Atomic             Coordinates (Angstroms)
 Number     Number       Type             X           Y           Z
 ---------------------------------------------------------------------
      1          7           0       -2.584799    0.810162    1.024505
      2          6           0       -1.627843    0.035910    0.220365
      3          6           0       -0.261287   -0.197784    0.878821
      4          6           0        0.693638   -1.061529    0.044563
      5          7           0        0.982627   -0.494380   -1.278548
      6          6           0        1.869777    0.667280   -1.235638
      7          1           0       -2.695872    0.355481    1.930326
      8          1           0       -2.174284    1.719017    1.236036
      9          1           0       -2.086724   -0.934331   -0.011907
     10          1           0       -1.487711    0.551185   -0.735050
     11          1           0       -0.410250   -0.696692    1.846195
     12          1           0        0.201059    0.772183    1.105946
     13          1           0        0.229191   -2.042458   -0.115940
     14          1           0        1.616270   -1.239857    0.628272
     15          1           0        1.435567   -1.215478   -1.834329
     16          1           0        2.121217    0.969614   -2.256643
     17          1           0        2.812947    0.488203   -0.689222
     18          1           0        1.366478    1.513474   -0.757751
 ---------------------------------------------------------------------
                    Distance matrix (angstroms):
                    1          2          3          4          5
     1  N    0.000000
     2  C    1.470331   0.000000
     3  C    2.536905   1.534814   0.000000
     4  C    3.900213   2.573820   1.534250   0.000000
     5  N    4.442118   3.056551   2.507894   1.468262   0.000000
     6  C    4.997190   3.840823   3.124213   2.451734   1.462303
     7  H    1.019599   2.041269   2.709054   4.129503   4.954845
     8  H    1.019453   2.040352   2.731536   4.168455   4.603080
     9  H    2.089374   1.098129   2.160583   2.783842   3.349455
    10  H    2.089667   1.094515   2.160937   2.822574   2.736999
    11  H    2.770279   2.159296   1.098596   2.144190   3.427105
    12  H    2.787306   2.161304   1.098265   2.175240   2.810843
    13  H    4.166124   2.807363   2.152427   1.097130   2.077467
    14  H    4.691328   3.509735   2.161923   1.106240   2.143175
    15  H    5.332869   3.895153   3.358005   2.025931   1.016872
    16  H    5.739159   4.589425   4.107344   3.385125   2.096744
    17  H    5.672405   4.555495   3.518557   2.726092   2.159362
    18  H    4.391318   3.479349   2.873393   2.779759   2.109513
                    6          7          8          9         10
     6  C    0.000000
     7  H    5.564684   0.000000
     8  H    4.854869   1.616577   0.000000
     9  H    4.440335   2.409761   2.933476   0.000000
    10  H    3.396585   2.932948   2.391735   1.757416   0.000000
    11  H    4.068985   2.517581   3.052829   2.513877   3.062833
    12  H    2.877263   3.040634   2.560405   3.065247   2.507997
    13  H    3.359752   4.300385   4.664035   2.569480   3.171440
    14  H    2.678731   4.778600   4.846918   3.770323   3.834211
    15  H    2.022807   5.805974   5.573995   3.975776   3.588184
    16  H    1.094111   6.411881   5.586747   5.135233   3.938869
    17  H    1.104630   6.101371   5.485799   5.146759   4.301363
    18  H    1.094408   5.006935   4.068714   4.297980   3.012127
                   11         12         13         14         15
    11  H    0.000000
    12  H    1.754783   0.000000
    13  H    2.463725   3.068551   0.000000
    14  H    2.425933   2.505854   1.766921   0.000000
    15  H    4.149992   3.757662   2.256569   2.469343   0.000000
    16  H    5.100802   3.877240   4.151500   3.668715   2.328753
    17  H    4.268643   3.182017   3.661788   2.480729   2.472038
    18  H    3.849952   2.319715   3.788139   3.092618   2.934445
                   16         17         18
    16  H    0.000000
    17  H    1.779622   0.000000
    18  H    1.764112   1.774302   0.000000
 Stoichiometry    C4H12N2
 Framework group  C1[X(C4H12N2)]
 Deg. of freedom    48
 Full point group                 C1      NOp   1
 Largest Abelian subgroup         C1      NOp   1
 Largest concise Abelian subgroup C1      NOp   1
                         Standard orientation:                         
 ---------------------------------------------------------------------
 Center     Atomic      Atomic             Coordinates (Angstroms)
 Number     Number       Type             X           Y           Z
 ---------------------------------------------------------------------
      1          7           0        2.750940   -0.546321   -0.056225
      2          6           0        1.439152   -0.056857   -0.505122
      3          6           0        0.533604    0.493947    0.604946
      4          6           0       -0.801826    1.055316    0.099560
      5          7           0       -1.612874    0.064411   -0.618844
      6          6           0       -2.221151   -0.937743    0.255237
      7          1           0        3.222416    0.199600    0.454553
      8          1           0        2.606646   -1.284552    0.631874
      9          1           0        1.608093    0.727469   -1.254909
     10          1           0        0.926273   -0.875191   -1.020145
     11          1           0        1.061889    1.300866    1.130978
     12          1           0        0.359162   -0.291773    1.352208
     13          1           0       -0.595210    1.875446   -0.599290
     14          1           0       -1.349536    1.497185    0.953102
     15          1           0       -2.361019    0.561137   -1.095891
     16          1           0       -2.888524   -1.574863   -0.332784
     17          1           0       -2.804582   -0.507428    1.088690
     18          1           0       -1.450737   -1.582505    0.689369
 ---------------------------------------------------------------------
 Rotational constants (GHZ):           7.0523636           1.6290964           1.5165212
 Standard basis: 6-31G(d,p) (6D, 7F)
 There are   150 symmetry adapted cartesian basis functions of A   symmetry.
 There are   150 symmetry adapted basis functions of A   symmetry.
   150 basis functions,   252 primitive gaussians,   150 cartesian basis functions
    25 alpha electrons       25 beta electrons
       nuclear repulsion energy       254.7340593254 Hartrees.
 NAtoms=   18 NActive=   18 NUniq=   18 SFac= 1.00D+00 NAtFMM=   60 NAOKFM=F Big=F
 Integral buffers will be    131072 words long.
 Raffenetti 2 integral format.
 Two-electron integral symmetry is turned on.
 ------------------------------------------------------------------------------
 Polarizable Continuum Model (PCM)
 =================================
 Model                : PCM.
 Atomic radii         : UFF (Universal Force Field).
 Polarization charges : Total charges.
 Charge compensation  : None.
 Solution method      : Matrix inversion.
 Cavity type          : Scaled VdW (van der Waals Surface) (Alpha=1.100).
 Cavity algorithm     : GePol (No added spheres)
                        Default sphere list used, NSphG=   18.
                        Lebedev-Laikov grids with approx.  5.0 points / Ang**2.
                        Smoothing algorithm: York/Karplus (Gamma=1.0000).
                        Polarization charges: spherical gaussians, with
                                              point-specific exponents (IZeta= 3).
                        Self-potential: point-specific (ISelfS= 7).
                        Self-field    : sphere-specific E.n sum rule (ISelfD= 2).
 1st derivatives      : Analytical E(r).r(x)/FMM algorithm (CHGder, D1EAlg=3).
                        Cavity 1st derivative terms included.
 Solvent              : Water, Eps=  78.355300 Eps(inf)=   1.777849
 ------------------------------------------------------------------------------
 Spheres list:
 ISph  on   Nord     Re0    Alpha      Xe            Ye            Ze
    1   N      1    1.8300  1.100      2.750940     -0.546321     -0.056225
    2   C      2    1.9255  1.100      1.439152     -0.056857     -0.505122
    3   C      3    1.9255  1.100      0.533604      0.493947      0.604946
    4   C      4    1.9255  1.100     -0.801826      1.055316      0.099560
    5   N      5    1.8300  1.100     -1.612874      0.064411     -0.618844
    6   C      6    1.9255  1.100     -2.221151     -0.937743      0.255237
    7   H      7    1.4430  1.100      3.222416      0.199600      0.454553
    8   H      8    1.4430  1.100      2.606646     -1.284552      0.631874
    9   H      9    1.4430  1.100      1.608093      0.727469     -1.254909
   10   H     10    1.4430  1.100      0.926273     -0.875191     -1.020145
   11   H     11    1.4430  1.100      1.061889      1.300866      1.130978
   12   H     12    1.4430  1.100      0.359162     -0.291773      1.352208
   13   H     13    1.4430  1.100     -0.595210      1.875446     -0.599290
   14   H     14    1.4430  1.100     -1.349536      1.497185      0.953102
   15   H     15    1.4430  1.100     -2.361019      0.561137     -1.095891
   16   H     16    1.4430  1.100     -2.888524     -1.574863     -0.332784
   17   H     17    1.4430  1.100     -2.804582     -0.507428      1.088690
   18   H     18    1.4430  1.100     -1.450737     -1.582505      0.689369
 ------------------------------------------------------------------------------
 One-electron integrals computed using PRISM.
 NBasis=   150 RedAO= T EigKep=  3.87D-03  NBF=   150
 NBsUse=   150 1.00D-06 EigRej= -1.00D+00 NBFU=   150
 Initial guess from the checkpoint file:  "QHJABUZHRJTCAR-UHFFFAOYSA-N_conf_0_0.chk"
 B after Tr=    -0.000000    0.000000    0.000000
         Rot=    0.999947    0.009818    0.003032    0.000274 Ang=   1.18 deg.
 ExpMin= 1.61D-01 ExpMax= 4.17D+03 ExpMxC= 6.27D+02 IAcc=2 IRadAn=         4 AccDes= 0.00D+00
 Harris functional with IExCor=  402 and IRadAn=       4 diagonalized for initial guess.
 HarFok:  IExCor=  402 AccDes= 0.00D+00 IRadAn=         4 IDoV= 1 UseB2=F ITyADJ=14
 ICtDFT=  3500011 ScaDFX=  1.000000  1.000000  1.000000  1.000000
 FoFCou: FMM=F IPFlag=           0 FMFlag=      100000 FMFlg1=           0
         NFxFlg=           0 DoJE=T BraDBF=F KetDBF=T FulRan=T
         wScrn=  0.000000 ICntrl=       500 IOpCl=  0 I1Cent=   200000004 NGrid=           0
         NMat0=    1 NMatS0=      1 NMatT0=    0 NMatD0=    1 NMtDS0=    0 NMtDT0=    0
 Petite list used in FoFCou.
 Keep R1 ints in memory in canonical form, NReq=67061194.
 Requested convergence on RMS density matrix=1.00D-08 within  32 cycles.
 Requested convergence on MAX density matrix=1.00D-06.
 Requested convergence on             energy=1.00D-06.
 No special actions if energy rises.
 Inv3:  Mode=1 IEnd=     5419008.
 Iteration    1 A*A^-1 deviation from unit magnitude is 5.77D-15 for    403.
 Iteration    1 A*A^-1 deviation from orthogonality  is 5.02D-15 for   1223    849.
 Iteration    1 A^-1*A deviation from unit magnitude is 6.00D-15 for    578.
 Iteration    1 A^-1*A deviation from orthogonality  is 9.86D-14 for   1002    940.
 Error on total polarization charges =  0.00809
 SCF Done:  E(RB3LYP) =  -269.160189782     A.U. after    9 cycles
            NFock=  9  Conv=0.76D-08     -V/T= 2.0099
 QCSCF skips out because SCF is already converged.
 D1PCM: PCM CHGder 1st derivatives, ID1Alg=3 FixD1E=F DoIter=F DoCFld=F I1PDM=0.
 Calling FoFJK, ICntrl=      2127 FMM=F ISym2X=0 I1Cent= 0 IOpClX= 0 NMat=1 NMatS=1 NMatT=0.
 ***** Axes restored to original set *****
 -------------------------------------------------------------------
 Center     Atomic                   Forces (Hartrees/Bohr)
 Number     Number              X              Y              Z
 -------------------------------------------------------------------
      1        7          -0.001073928    0.000377128   -0.000319224
      2        6           0.000554117    0.000327206    0.001105909
      3        6           0.000336171   -0.000654032   -0.000464842
      4        6           0.000382882   -0.000567663   -0.000098154
      5        7          -0.000423516    0.000713860    0.000252654
      6        6           0.000487049   -0.000414069   -0.000524727
      7        1           0.000014243    0.000120857    0.000029012
      8        1          -0.000024909   -0.000025387    0.000118855
      9        1          -0.000110899    0.000058309   -0.000260674
     10        1          -0.000204144   -0.000332298   -0.000230874
     11        1           0.000187179    0.000030784    0.000013802
     12        1          -0.000053725    0.000021232    0.000010599
     13        1           0.000132793   -0.000076741   -0.000116057
     14        1           0.000013224    0.000165377    0.000452735
     15        1          -0.000427665   -0.000035161   -0.000275550
     16        1           0.000089264    0.000007823   -0.000000603
     17        1           0.000146207    0.000263965    0.000369674
     18        1          -0.000024344    0.000018811   -0.000062535
 -------------------------------------------------------------------
 Cartesian Forces:  Max     0.001105909 RMS     0.000355814

 GradGradGradGradGradGradGradGradGradGradGradGradGradGradGradGradGradGrad
 Berny optimization.
 Using GEDIIS/GDIIS optimizer.
 FormGI is forming the generalized inverse of G from B-inverse, IUseBI=4.
 Internal  Forces:  Max     0.001542906 RMS     0.000278342
 Search for a local minimum.
 Step number   2 out of a maximum of   93
 All quantities printed in internal units (Hartrees-Bohrs-Radians)
 Mixed Optimization -- En-DIIS/RFO-DIIS
 Update second derivatives using D2CorX and points    1    2
 DE= -2.34D-03 DEPred=-2.28D-03 R= 1.03D+00
 TightC=F SS=  1.41D+00  RLast= 2.45D-01 DXNew= 5.0454D-01 7.3520D-01
 Trust test= 1.03D+00 RLast= 2.45D-01 DXMaxT set to 5.05D-01
 ITU=  1  0
 Use linear search instead of GDIIS.
     Eigenvalues ---    0.00186   0.00286   0.00287   0.00317   0.00475
     Eigenvalues ---    0.02300   0.03296   0.03447   0.03947   0.04561
     Eigenvalues ---    0.04589   0.04807   0.05136   0.06260   0.06430
     Eigenvalues ---    0.06924   0.07847   0.08728   0.10241   0.10535
     Eigenvalues ---    0.12493   0.12993   0.13170   0.14625   0.16542
     Eigenvalues ---    0.17705   0.18032   0.18677   0.22931   0.24764
     Eigenvalues ---    0.25230   0.27582   0.29573   0.31775   0.32499
     Eigenvalues ---    0.32762   0.32886   0.33265   0.33542   0.33682
     Eigenvalues ---    0.33770   0.34114   0.36435   0.37183   0.38481
     Eigenvalues ---    0.43193   0.44064   0.44287
 RFO step:  Lambda=-2.22063210D-04 EMin= 1.86320073D-03
 Quartic linear search produced a step of  0.11558.
 Iteration  1 RMS(Cart)=  0.07049491 RMS(Int)=  0.00181602
 Iteration  2 RMS(Cart)=  0.00262472 RMS(Int)=  0.00002271
 Iteration  3 RMS(Cart)=  0.00000357 RMS(Int)=  0.00002261
 Iteration  4 RMS(Cart)=  0.00000000 RMS(Int)=  0.00002261
 Variable       Old X    -DE/DX   Delta X   Delta X   Delta X     New X
                                 (Linear)    (Quad)   (Total)
    R1        2.77852   0.00086   0.00152  -0.00010   0.00142   2.77994
    R2        1.92676  -0.00003   0.00019   0.00001   0.00020   1.92696
    R3        1.92649  -0.00001   0.00006   0.00010   0.00017   1.92665
    R4        2.90038   0.00065   0.00121  -0.00045   0.00076   2.90114
    R5        2.07516   0.00005   0.00062   0.00004   0.00066   2.07582
    R6        2.06833   0.00002  -0.00006   0.00022   0.00015   2.06849
    R7        2.89931   0.00019   0.00015   0.00107   0.00122   2.90053
    R8        2.07604  -0.00003   0.00015   0.00010   0.00025   2.07629
    R9        2.07542  -0.00000   0.00036   0.00007   0.00043   2.07585
   R10        2.77461   0.00040   0.00092  -0.00131  -0.00039   2.77423
   R11        2.07328   0.00003   0.00005  -0.00034  -0.00029   2.07299
   R12        2.09049   0.00022   0.00203  -0.00138   0.00065   2.09114
   R13        2.76335   0.00033   0.00103  -0.00123  -0.00020   2.76315
   R14        1.92161  -0.00002  -0.00084   0.00031  -0.00053   1.92108
   R15        2.06757   0.00002  -0.00013  -0.00008  -0.00021   2.06736
   R16        2.08745   0.00027   0.00216  -0.00120   0.00096   2.08841
   R17        2.06813   0.00000   0.00014   0.00055   0.00069   2.06882
    A1        1.89859   0.00011  -0.00168   0.00159  -0.00011   1.89848
    A2        1.89743   0.00009  -0.00104   0.00087  -0.00019   1.89724
    A3        1.83081  -0.00012  -0.00252   0.00056  -0.00200   1.82880
    A4        2.00980   0.00154   0.00835   0.00025   0.00858   2.01838
    A5        1.88490  -0.00048  -0.00141  -0.00085  -0.00226   1.88264
    A6        1.88897  -0.00051  -0.00057   0.00097   0.00041   1.88938
    A7        1.90528  -0.00032  -0.00217   0.00139  -0.00083   1.90444
    A8        1.90941  -0.00030  -0.00288   0.00053  -0.00244   1.90697
    A9        1.85961  -0.00004  -0.00182  -0.00256  -0.00446   1.85515
   A10        1.98954   0.00023   0.00243  -0.00303  -0.00061   1.98893
   A11        1.90306  -0.00001  -0.00047   0.00316   0.00267   1.90574
   A12        1.90612  -0.00006  -0.00186   0.00099  -0.00088   1.90524
   A13        1.88340  -0.00008   0.00010   0.00247   0.00256   1.88596
   A14        1.92585  -0.00010   0.00003  -0.00337  -0.00333   1.92252
   A15        1.85049   0.00000  -0.00037   0.00011  -0.00027   1.85022
   A16        1.97691  -0.00009  -0.00330   0.00012  -0.00319   1.97372
   A17        1.89591   0.00002   0.00095   0.00108   0.00201   1.89792
   A18        1.89963  -0.00014  -0.00145   0.00051  -0.00092   1.89871
   A19        1.87219  -0.00000  -0.00075   0.00274   0.00198   1.87417
   A20        1.95368   0.00020   0.00377  -0.00398  -0.00023   1.95345
   A21        1.86098   0.00002   0.00105  -0.00033   0.00071   1.86170
   A22        1.98212   0.00027   0.00178  -0.00193  -0.00015   1.98197
   A23        1.88208  -0.00010  -0.00169   0.00545   0.00375   1.88583
   A24        1.88509  -0.00012  -0.00090   0.00347   0.00257   1.88766
   A25        1.90875   0.00007   0.00032   0.00122   0.00151   1.91026
   A26        1.98639   0.00033   0.00443  -0.00441   0.00001   1.98640
   A27        1.92628  -0.00013  -0.00282   0.00271  -0.00009   1.92619
   A28        1.88618  -0.00005   0.00063   0.00107   0.00164   1.88782
   A29        1.87498  -0.00003   0.00086  -0.00099  -0.00013   1.87485
   A30        1.87760  -0.00020  -0.00349   0.00049  -0.00297   1.87462
    D1       -0.96371   0.00002   0.00212  -0.00204   0.00008  -0.96363
    D2        1.17026   0.00029   0.00384  -0.00071   0.00313   1.17338
    D3       -3.10616  -0.00026   0.00065  -0.00365  -0.00304  -3.10920
    D4        1.02069  -0.00002  -0.00236  -0.00011  -0.00244   1.01825
    D5       -3.12853   0.00025  -0.00063   0.00122   0.00061  -3.12792
    D6       -1.12176  -0.00030  -0.00382  -0.00172  -0.00556  -1.12732
    D7        3.09582   0.00010   0.00176   0.03281   0.03458   3.13040
    D8        0.99022   0.00005   0.00038   0.02939   0.02978   1.01999
    D9       -1.02453   0.00008   0.00213   0.02698   0.02912  -0.99541
   D10        0.97283  -0.00011  -0.00053   0.03268   0.03217   1.00500
   D11       -1.13277  -0.00016  -0.00192   0.02925   0.02737  -1.10540
   D12        3.13567  -0.00013  -0.00016   0.02685   0.02671  -3.12081
   D13       -1.05588   0.00028   0.00470   0.03467   0.03934  -1.01653
   D14        3.12171   0.00024   0.00332   0.03125   0.03453  -3.12694
   D15        1.10697   0.00027   0.00508   0.02884   0.03387   1.14084
   D16        1.03178   0.00001   0.00003   0.05946   0.05948   1.09126
   D17       -1.04646   0.00006   0.00241   0.05521   0.05762  -0.98883
   D18       -3.06625   0.00010   0.00142   0.05475   0.05618  -3.01006
   D19       -3.13485   0.00009   0.00105   0.06329   0.06433  -3.07052
   D20        1.07010   0.00014   0.00343   0.05904   0.06247   1.13256
   D21       -0.94969   0.00018   0.00244   0.05857   0.06103  -0.88866
   D22       -1.12039  -0.00000   0.00067   0.06301   0.06366  -1.05673
   D23        3.08456   0.00004   0.00305   0.05876   0.06180  -3.13682
   D24        1.06477   0.00008   0.00206   0.05829   0.06036   1.12513
   D25        1.27739   0.00028   0.00795   0.07303   0.08095   1.35834
   D26       -2.91757   0.00023   0.00678   0.07992   0.08667  -2.83090
   D27       -2.91396   0.00024   0.00656   0.07629   0.08285  -2.83110
   D28       -0.82573   0.00020   0.00539   0.08318   0.08858  -0.73715
   D29       -0.87838   0.00038   0.00941   0.07537   0.08479  -0.79358
   D30        1.20985   0.00033   0.00824   0.08226   0.09052   1.30037
   D31        3.04055  -0.00007  -0.00323  -0.01989  -0.02310   3.01744
   D32        0.92937  -0.00028  -0.00711  -0.01918  -0.02632   0.90306
   D33       -1.18355  -0.00015  -0.00368  -0.01874  -0.02241  -1.20596
   D34        0.95403  -0.00004  -0.00161  -0.02792  -0.02950   0.92453
   D35       -1.15714  -0.00024  -0.00548  -0.02720  -0.03272  -1.18986
   D36        3.01312  -0.00011  -0.00205  -0.02677  -0.02881   2.98432
         Item               Value     Threshold  Converged?
 Maximum Force            0.001543     0.000450     NO 
 RMS     Force            0.000278     0.000300     YES
 Maximum Displacement     0.265745     0.001800     NO 
 RMS     Displacement     0.070058     0.001200     NO 
 Predicted change in Energy=-1.282937D-04
 GradGradGradGradGradGradGradGradGradGradGradGradGradGradGradGradGradGrad

                          Input orientation:                          
 ---------------------------------------------------------------------
 Center     Atomic      Atomic             Coordinates (Angstroms)
 Number     Number       Type             X           Y           Z
 ---------------------------------------------------------------------
      1          7           0       -2.621871    0.786559    1.037269
      2          6           0       -1.666948   -0.007682    0.248989
      3          6           0       -0.274763   -0.182742    0.871932
      4          6           0        0.684872   -1.030075    0.025153
      5          7           0        0.975752   -0.434383   -1.284706
      6          6           0        1.943681    0.660061   -1.227037
      7          1           0       -2.698901    0.377797    1.968278
      8          1           0       -2.226728    1.713579    1.192053
      9          1           0       -2.111786   -0.997469    0.078416
     10          1           0       -1.565595    0.457428   -0.736679
     11          1           0       -0.376672   -0.663355    1.854695
     12          1           0        0.162021    0.806993    1.062534
     13          1           0        0.224804   -2.009462   -0.155120
     14          1           0        1.606639   -1.215019    0.608821
     15          1           0        1.355773   -1.162079   -1.884289
     16          1           0        2.205923    0.968372   -2.243407
     17          1           0        2.876695    0.402907   -0.693474
     18          1           0        1.507104    1.528569   -0.723429
 ---------------------------------------------------------------------
                    Distance matrix (angstroms):
                    1          2          3          4          5
     1  N    0.000000
     2  C    1.471082   0.000000
     3  C    2.544760   1.535215   0.000000
     4  C    3.906288   2.574189   1.534896   0.000000
     5  N    4.452546   3.085151   2.505633   1.468057   0.000000
     6  C    5.097779   3.957420   3.168198   2.451355   1.462197
     7  H    1.019705   2.041930   2.718938   4.148223   4.974396
     8  H    1.019540   2.040946   2.740197   4.167337   4.583006
     9  H    2.088622   1.098479   2.160579   2.797355   3.421704
    10  H    2.090679   1.094596   2.159559   2.803151   2.748473
    11  H    2.794880   2.161715   1.098726   2.146761   3.425978
    12  H    2.784082   2.161175   1.098492   2.173557   2.777177
    13  H    4.164503   2.783730   2.154370   1.096978   2.078644
    14  H    4.697891   3.507637   2.162058   1.106584   2.143095
    15  H    5.306067   3.875609   3.348806   2.028177   1.016591
    16  H    5.839819   4.707849   4.145383   3.384339   2.097653
    17  H    5.777274   4.658488   3.567235   2.715502   2.159675
    18  H    4.549624   3.657906   2.940887   2.789821   2.109632
                    6          7          8          9         10
     6  C    0.000000
     7  H    5.642985   0.000000
     8  H    4.934998   1.615484   0.000000
     9  H    4.571480   2.409904   2.933118   0.000000
    10  H    3.549159   2.933857   2.394789   1.754831   0.000000
    11  H    4.078302   2.547478   3.084090   2.505478   3.063480
    12  H    2.904831   3.031411   2.558279   3.065089   2.518733
    13  H    3.351104   4.330806   4.656814   2.557015   3.103109
    14  H    2.645732   4.787782   4.859171   3.762359   3.830211
    15  H    2.024304   5.801196   5.528797   3.987891   3.531884
    16  H    1.093999   6.491869   5.657394   5.281856   4.093365
    17  H    1.105139   6.178417   5.596248   5.238494   4.442835
    18  H    1.094772   5.124456   4.200571   4.485554   3.254074
                   11         12         13         14         15
    11  H    0.000000
    12  H    1.754888   0.000000
    13  H    2.492617   3.069046   0.000000
    14  H    2.406254   2.526126   1.767544   0.000000
    15  H    4.150915   3.739794   2.233198   2.506259   0.000000
    16  H    5.111436   3.890093   4.141650   3.641640   2.321754
    17  H    4.267843   3.258268   3.625173   2.434482   2.486046
    18  H    3.872967   2.349380   3.805908   3.051569   2.934294
                   16         17         18
    16  H    0.000000
    17  H    1.781005   0.000000
    18  H    1.764228   1.773074   0.000000
 Stoichiometry    C4H12N2
 Framework group  C1[X(C4H12N2)]
 Deg. of freedom    48
 Full point group                 C1      NOp   1
 Largest Abelian subgroup         C1      NOp   1
 Largest concise Abelian subgroup C1      NOp   1
                         Standard orientation:                         
 ---------------------------------------------------------------------
 Center     Atomic      Atomic             Coordinates (Angstroms)
 Number     Number       Type             X           Y           Z
 ---------------------------------------------------------------------
      1          7           0        2.774344   -0.557646   -0.059145
      2          6           0        1.482205   -0.010613   -0.500977
      3          6           0        0.538979    0.452259    0.618379
      4          6           0       -0.790525    1.030069    0.113941
      5          7           0       -1.599836    0.052636   -0.624187
      6          6           0       -2.303525   -0.894574    0.239314
      7          1           0        3.237594    0.131777    0.532373
      8          1           0        2.600025   -1.352397    0.555222
      9          1           0        1.685901    0.834686   -1.172270
     10          1           0        0.977865   -0.769651   -1.107312
     11          1           0        1.040790    1.224877    1.217082
     12          1           0        0.351779   -0.386849    1.302148
     13          1           0       -0.576971    1.861362   -0.569220
     14          1           0       -1.341589    1.458477    0.972616
     15          1           0       -2.292677    0.562381   -1.166023
     16          1           0       -2.979835   -1.505835   -0.365499
     17          1           0       -2.895747   -0.414185    1.039210
     18          1           0       -1.591501   -1.572420    0.721053
 ---------------------------------------------------------------------
 Rotational constants (GHZ):           7.2605424           1.5836827           1.4890163
 Standard basis: 6-31G(d,p) (6D, 7F)
 There are   150 symmetry adapted cartesian basis functions of A   symmetry.
 There are   150 symmetry adapted basis functions of A   symmetry.
   150 basis functions,   252 primitive gaussians,   150 cartesian basis functions
    25 alpha electrons       25 beta electrons
       nuclear repulsion energy       253.9778597757 Hartrees.
 NAtoms=   18 NActive=   18 NUniq=   18 SFac= 1.00D+00 NAtFMM=   60 NAOKFM=F Big=F
 Integral buffers will be    131072 words long.
 Raffenetti 2 integral format.
 Two-electron integral symmetry is turned on.
 ------------------------------------------------------------------------------
 Polarizable Continuum Model (PCM)
 =================================
 Model                : PCM.
 Atomic radii         : UFF (Universal Force Field).
 Polarization charges : Total charges.
 Charge compensation  : None.
 Solution method      : Matrix inversion.
 Cavity type          : Scaled VdW (van der Waals Surface) (Alpha=1.100).
 Cavity algorithm     : GePol (No added spheres)
                        Default sphere list used, NSphG=   18.
                        Lebedev-Laikov grids with approx.  5.0 points / Ang**2.
                        Smoothing algorithm: York/Karplus (Gamma=1.0000).
                        Polarization charges: spherical gaussians, with
                                              point-specific exponents (IZeta= 3).
                        Self-potential: point-specific (ISelfS= 7).
                        Self-field    : sphere-specific E.n sum rule (ISelfD= 2).
 1st derivatives      : Analytical E(r).r(x)/FMM algorithm (CHGder, D1EAlg=3).
                        Cavity 1st derivative terms included.
 Solvent              : Water, Eps=  78.355300 Eps(inf)=   1.777849
 ------------------------------------------------------------------------------
 Spheres list:
 ISph  on   Nord     Re0    Alpha      Xe            Ye            Ze
    1   N      1    1.8300  1.100      2.774344     -0.557646     -0.059145
    2   C      2    1.9255  1.100      1.482205     -0.010613     -0.500977
    3   C      3    1.9255  1.100      0.538979      0.452259      0.618379
    4   C      4    1.9255  1.100     -0.790525      1.030069      0.113941
    5   N      5    1.8300  1.100     -1.599836      0.052636     -0.624187
    6   C      6    1.9255  1.100     -2.303525     -0.894574      0.239314
    7   H      7    1.4430  1.100      3.237594      0.131777      0.532373
    8   H      8    1.4430  1.100      2.600025     -1.352397      0.555222
    9   H      9    1.4430  1.100      1.685901      0.834686     -1.172270
   10   H     10    1.4430  1.100      0.977865     -0.769651     -1.107312
   11   H     11    1.4430  1.100      1.040790      1.224877      1.217082
   12   H     12    1.4430  1.100      0.351779     -0.386849      1.302148
   13   H     13    1.4430  1.100     -0.576971      1.861362     -0.569220
   14   H     14    1.4430  1.100     -1.341589      1.458477      0.972616
   15   H     15    1.4430  1.100     -2.292677      0.562381     -1.166023
   16   H     16    1.4430  1.100     -2.979835     -1.505835     -0.365499
   17   H     17    1.4430  1.100     -2.895747     -0.414185      1.039210
   18   H     18    1.4430  1.100     -1.591501     -1.572420      0.721053
 ------------------------------------------------------------------------------
 One-electron integrals computed using PRISM.
 NBasis=   150 RedAO= T EigKep=  3.90D-03  NBF=   150
 NBsUse=   150 1.00D-06 EigRej= -1.00D+00 NBFU=   150
 Initial guess from the checkpoint file:  "QHJABUZHRJTCAR-UHFFFAOYSA-N_conf_0_0.chk"
 B after Tr=    -0.000000   -0.000000    0.000000
         Rot=    0.999886   -0.013803    0.003835    0.004695 Ang=  -1.73 deg.
 ExpMin= 1.61D-01 ExpMax= 4.17D+03 ExpMxC= 6.27D+02 IAcc=2 IRadAn=         4 AccDes= 0.00D+00
 Harris functional with IExCor=  402 and IRadAn=       4 diagonalized for initial guess.
[...]
 Alpha virt. eigenvalues --    4.09377   4.36264   4.47319   4.56131   4.69625
          Condensed to atoms (all electrons):
               1          2          3          4          5          6
     1  N    6.842704   0.320760  -0.032293   0.004722   0.000086  -0.000005
     2  C    0.320760   5.103832   0.367294  -0.002243   0.006819  -0.000950
     3  C   -0.032293   0.367294   5.415960   0.373953  -0.070351   0.001655
     4  C    0.004722  -0.002243   0.373953   5.585311   0.385019  -0.069602
     5  N    0.000086   0.006819  -0.070351   0.385019   7.662854   0.340008
     6  C   -0.000005  -0.000950   0.001655  -0.069602   0.340008   5.775044
     7  H    0.275826  -0.057471  -0.022518  -0.000920   0.000016   0.000003
     8  H    0.286364  -0.055508  -0.019661  -0.000198   0.000039  -0.000046
     9  H   -0.041439   0.259113  -0.059464  -0.024111  -0.002715   0.000272
    10  H   -0.039082   0.245647  -0.063009  -0.015302  -0.005140  -0.000554
    11  H   -0.011495  -0.053666   0.147325  -0.135974   0.000432   0.000208
    12  H   -0.009003  -0.054602   0.201572  -0.063430  -0.012437  -0.011113
    13  H    0.000086  -0.040545  -0.037159  -0.025462  -0.171660   0.011913
    14  H   -0.000113   0.000244  -0.051977   0.167018  -0.099522  -0.011247
    15  H    0.000016  -0.007836   0.012525  -0.144890  -0.526082  -0.077203
    16  H    0.000000  -0.000452  -0.000088   0.008777  -0.165410  -0.028048
    17  H    0.000001  -0.000155  -0.002757  -0.006987  -0.102280   0.149063
    18  H   -0.000100  -0.002375  -0.013037   0.002385  -0.093946   0.078445
               7          8          9         10         11         12
     1  N    0.275826   0.286364  -0.041439  -0.039082  -0.011495  -0.009003
     2  C   -0.057471  -0.055508   0.259113   0.245647  -0.053666  -0.054602
     3  C   -0.022518  -0.019661  -0.059464  -0.063009   0.147325   0.201572
     4  C   -0.000920  -0.000198  -0.024111  -0.015302  -0.135974  -0.063430
     5  N    0.000016   0.000039  -0.002715  -0.005140   0.000432  -0.012437
     6  C    0.000003  -0.000046   0.000272  -0.000554   0.000208  -0.011113
     7  H    0.532057  -0.008599   0.007826   0.012756   0.021459   0.005316
     8  H   -0.008599   0.519259   0.011371   0.006735   0.005203   0.015648
     9  H    0.007826   0.011371   0.705858   0.000803   0.016414   0.012747
    10  H    0.012756   0.006735   0.000803   0.720923   0.015720   0.012907
    11  H    0.021459   0.005203   0.016414   0.015720   0.843404   0.032528
    12  H    0.005316   0.015648   0.012747   0.012907   0.032528   0.726093
    13  H    0.000546   0.000220   0.031297   0.012017   0.042435   0.018927
    14  H    0.000111   0.000078   0.001771   0.001742   0.029326   0.017344
    15  H    0.000012   0.000025   0.002602   0.008421   0.002757   0.005763
    16  H    0.000001   0.000010   0.000049   0.001374   0.000137   0.002398
    17  H    0.000001   0.000008   0.000037   0.000383   0.000859   0.006161
    18  H    0.000048   0.000488   0.000351   0.006501   0.002621   0.033401
              13         14         15         16         17         18
     1  N    0.000086  -0.000113   0.000016   0.000000   0.000001  -0.000100
     2  C   -0.040545   0.000244  -0.007836  -0.000452  -0.000155  -0.002375
     3  C   -0.037159  -0.051977   0.012525  -0.000088  -0.002757  -0.013037
     4  C   -0.025462   0.167018  -0.144890   0.008777  -0.006987   0.002385
     5  N   -0.171660  -0.099522  -0.526082  -0.165410  -0.102280  -0.093946
     6  C    0.011913  -0.011247  -0.077203  -0.028048   0.149063   0.078445
     7  H    0.000546   0.000111   0.000012   0.000001   0.000001   0.000048
     8  H    0.000220   0.000078   0.000025   0.000010   0.000008   0.000488
     9  H    0.031297   0.001771   0.002602   0.000049   0.000037   0.000351
    10  H    0.012017   0.001742   0.008421   0.001374   0.000383   0.006501
    11  H    0.042435   0.029326   0.002757   0.000137   0.000859   0.002621
    12  H    0.018927   0.017344   0.005763   0.002398   0.006161   0.033401
    13  H    0.945720   0.058552   0.126667   0.002080   0.005158   0.003903
    14  H    0.058552   0.663372   0.059493   0.004879   0.025395   0.012413
    15  H    0.126667   0.059493   1.333405   0.109182   0.058882   0.038735
    16  H    0.002080   0.004879   0.109182   0.895974   0.057697   0.074637
    17  H    0.005158   0.025395   0.058882   0.057697   0.642342   0.041474
    18  H    0.003903   0.012413   0.038735   0.074637   0.041474   0.721539
 Mulliken charges:
               1
     1  N   -0.597034
     2  C   -0.027907
     3  C   -0.147971
     4  C   -0.038066
     5  N   -0.145727
     6  C   -0.157842
     7  H    0.233530
     8  H    0.238564
     9  H    0.077220
    10  H    0.077159
    11  H    0.040307
    12  H    0.059778
    13  H    0.015303
    14  H    0.121123
    15  H   -0.002476
    16  H    0.036802
    17  H    0.124718
    18  H    0.092518
 Sum of Mulliken charges =  -0.00000
 Mulliken charges with hydrogens summed into heavy atoms:
               1
     1  N   -0.124940
     2  C    0.126472
     3  C   -0.047886
     4  C    0.098361
     5  N   -0.148203
     6  C    0.096197
 Electronic spatial extent (au):  <R**2>=            881.6643
 Charge=             -0.0000 electrons
 Dipole moment (field-independent basis, Debye):
    X=             -1.0857    Y=             -0.0300    Z=              2.3039  Tot=              2.5471
 Quadrupole moment (field-independent basis, Debye-Ang):
   XX=            -46.0510   YY=            -41.4704   ZZ=            -42.4880
   XY=              1.6144   XZ=              1.6486   YZ=             -0.5675
 Traceless Quadrupole moment (field-independent basis, Debye-Ang):
   XX=             -2.7145   YY=              1.8661   ZZ=              0.8484
   XY=              1.6144   XZ=              1.6486   YZ=             -0.5675
 Octapole moment (field-independent basis, Debye-Ang**2):
  XXX=             -0.9744  YYY=             -5.6674  ZZZ=              3.0190  XYY=              3.8815
  XXY=              3.5664  XXZ=             23.9718  XZZ=              3.4846  YZZ=             -1.7607
  YYZ=              4.2545  XYZ=             -4.3328
 Hexadecapole moment (field-independent basis, Debye-Ang**3):
 XXXX=           -959.9614 YYYY=           -199.4296 ZZZZ=           -139.4154 XXXY=             26.1312
 XXXZ=             24.2478 YYYX=             -7.4289 YYYZ=              0.6554 ZZZX=             -5.2577
 ZZZY=              1.6000 XXYY=           -182.8128 XXZZ=           -174.5686 YYZZ=            -55.9934
 XXYZ=            -10.7285 YYXZ=             -0.7711 ZZXY=              0.5166
 N-N= 2.539307653459D+02 E-N=-1.130544165983D+03  KE= 2.666622216449D+02
 Evaluate density.
 Using the total density.
 Monte-Carlo method of calculating molar volume:
 based on  0.001 e/bohr**3 density envelope.
 Number of points per bohr**3 =   20 CutOff= 1.00D-04
 Using the CI density.
 There are       351 points.  Will hold       351 in memory.
 LenV=   805229664 MDV=   805306368.
 Box volume = 5447.892 fraction occupied=0.222
 Integrated density= 5.1608420289391269D+01 error= 1.6084202893912689D+00
 Molar volume = 1210.643 bohr**3/mol (108.036 cm**3/mol)
 Recommended a0 for SCRF calculation =  4.35 angstrom (  8.22 bohr)
 ******************************Gaussian NBO Version 3.1******************************
             N A T U R A L   A T O M I C   O R B I T A L   A N D
          N A T U R A L   B O N D   O R B I T A L   A N A L Y S I S
 ******************************Gaussian NBO Version 3.1******************************
       /RESON  / : Allow strongly delocalized NBO set

 Analyzing the CI density

 Job title: QHJABUZHRJTCAR-UHFFFAOYSA-N_conf_0                              

 Storage needed:     68640 in NPA ( 805304568 available)
 GSVD:  LWork=       11556 too small for GESVD, short by        9684 words or        9684 for optimal perf.


 NATURAL POPULATIONS:  Natural atomic orbital occupancies 
                                                          
   NAO  Atom  No  lang   Type(AO)    Occupancy
 --------------------------------------------
     1    N    1  S      Cor( 1S)     1.99968
     2    N    1  S      Val( 2S)     1.44438
     3    N    1  S      Ryd( 3S)     0.00052
     4    N    1  S      Ryd( 4S)     0.00002
     5    N    1  px     Val( 2p)     1.42245
     6    N    1  px     Ryd( 3p)     0.00344
     7    N    1  py     Val( 2p)     1.39000
     8    N    1  py     Ryd( 3p)     0.00202
     9    N    1  pz     Val( 2p)     1.60129
    10    N    1  pz     Ryd( 3p)     0.00443
    11    N    1  dxy    Ryd( 3d)     0.00060
    12    N    1  dxz    Ryd( 3d)     0.00106
    13    N    1  dyz    Ryd( 3d)     0.00139
    14    N    1  dx2y2  Ryd( 3d)     0.00055
    15    N    1  dz2    Ryd( 3d)     0.00084

    16    C    2  S      Cor( 1S)     1.99935
    17    C    2  S      Val( 2S)     1.03021
    18    C    2  S      Ryd( 3S)     0.00176
    19    C    2  S      Ryd( 4S)     0.00005
    20    C    2  px     Val( 2p)     0.93785
    21    C    2  px     Ryd( 3p)     0.00486
    22    C    2  py     Val( 2p)     1.17826
    23    C    2  py     Ryd( 3p)     0.00325
    24    C    2  pz     Val( 2p)     1.10958
    25    C    2  pz     Ryd( 3p)     0.00276
    26    C    2  dxy    Ryd( 3d)     0.00104
    27    C    2  dxz    Ryd( 3d)     0.00113
    28    C    2  dyz    Ryd( 3d)     0.00116
    29    C    2  dx2y2  Ryd( 3d)     0.00091
    30    C    2  dz2    Ryd( 3d)     0.00056

    31    C    3  S      Cor( 1S)     1.99931
    32    C    3  S      Val( 2S)     1.06227
    33    C    3  S      Ryd( 3S)     0.00114
    34    C    3  S      Ryd( 4S)     0.00003
    35    C    3  px     Val( 2p)     1.04134
    36    C    3  px     Ryd( 3p)     0.00295
    37    C    3  py     Val( 2p)     1.20978
    38    C    3  py     Ryd( 3p)     0.00324
    39    C    3  pz     Val( 2p)     1.16922
    40    C    3  pz     Ryd( 3p)     0.00335
    41    C    3  dxy    Ryd( 3d)     0.00061
    42    C    3  dxz    Ryd( 3d)     0.00066
    43    C    3  dyz    Ryd( 3d)     0.00103
    44    C    3  dx2y2  Ryd( 3d)     0.00052
    45    C    3  dz2    Ryd( 3d)     0.00025

    46    C    4  S      Cor( 1S)     1.99929
    47    C    4  S      Val( 2S)     1.04981
    48    C    4  S      Ryd( 3S)     0.00182
    49    C    4  S      Ryd( 4S)     0.00005
    50    C    4  px     Val( 2p)     1.03135
    51    C    4  px     Ryd( 3p)     0.00377
    52    C    4  py     Val( 2p)     1.07821
    53    C    4  py     Ryd( 3p)     0.00323
    54    C    4  pz     Val( 2p)     1.15123
    55    C    4  pz     Ryd( 3p)     0.00556
    56    C    4  dxy    Ryd( 3d)     0.00097
    57    C    4  dxz    Ryd( 3d)     0.00103
    58    C    4  dyz    Ryd( 3d)     0.00131
    59    C    4  dx2y2  Ryd( 3d)     0.00063
    60    C    4  dz2    Ryd( 3d)     0.00044

    61    N    5  S      Cor( 1S)     1.99937
    62    N    5  S      Val( 2S)     1.40996
    63    N    5  S      Ryd( 3S)     0.00545
    64    N    5  S      Ryd( 4S)     0.00013
    65    N    5  px     Val( 2p)     1.28209
    66    N    5  px     Ryd( 3p)     0.00269
    67    N    5  py     Val( 2p)     1.25460
    68    N    5  py     Ryd( 3p)     0.00181
    69    N    5  pz     Val( 2p)     1.28951
    70    N    5  pz     Ryd( 3p)     0.00043
    71    N    5  dxy    Ryd( 3d)     0.00080
    72    N    5  dxz    Ryd( 3d)     0.00065
    73    N    5  dyz    Ryd( 3d)     0.00077
    74    N    5  dx2y2  Ryd( 3d)     0.00048
    75    N    5  dz2    Ryd( 3d)     0.00063

    76    C    6  S      Cor( 1S)     1.99945
    77    C    6  S      Val( 2S)     1.13139
    78    C    6  S      Ryd( 3S)     0.00171
    79    C    6  S      Ryd( 4S)     0.00003
    80    C    6  px     Val( 2p)     1.16745
    81    C    6  px     Ryd( 3p)     0.00276
    82    C    6  py     Val( 2p)     1.11980
    83    C    6  py     Ryd( 3p)     0.00883
    84    C    6  pz     Val( 2p)     1.13341
    85    C    6  pz     Ryd( 3p)     0.00553
    86    C    6  dxy    Ryd( 3d)     0.00105
    87    C    6  dxz    Ryd( 3d)     0.00113
    88    C    6  dyz    Ryd( 3d)     0.00118
    89    C    6  dx2y2  Ryd( 3d)     0.00030
    90    C    6  dz2    Ryd( 3d)     0.00033

    91    H    7  S      Val( 1S)     0.61819
    92    H    7  S      Ryd( 2S)     0.01083
    93    H    7  px     Ryd( 2p)     0.00040
    94    H    7  py     Ryd( 2p)     0.00043
    95    H    7  pz     Ryd( 2p)     0.00057

    96    H    8  S      Val( 1S)     0.61755
    97    H    8  S      Ryd( 2S)     0.00832
    98    H    8  px     Ryd( 2p)     0.00036
    99    H    8  py     Ryd( 2p)     0.00048
   100    H    8  pz     Ryd( 2p)     0.00056

   101    H    9  S      Val( 1S)     0.77772
   102    H    9  S      Ryd( 2S)     0.01255
   103    H    9  px     Ryd( 2p)     0.00007
   104    H    9  py     Ryd( 2p)     0.00026
   105    H    9  pz     Ryd( 2p)     0.00020

   106    H   10  S      Val( 1S)     0.77950
   107    H   10  S      Ryd( 2S)     0.01262
   108    H   10  px     Ryd( 2p)     0.00013
   109    H   10  py     Ryd( 2p)     0.00021
   110    H   10  pz     Ryd( 2p)     0.00021

   111    H   11  S      Val( 1S)     0.78738
   112    H   11  S      Ryd( 2S)     0.02086
   113    H   11  px     Ryd( 2p)     0.00016
   114    H   11  py     Ryd( 2p)     0.00020
   115    H   11  pz     Ryd( 2p)     0.00018

   116    H   12  S      Val( 1S)     0.77027
   117    H   12  S      Ryd( 2S)     0.02157
   118    H   12  px     Ryd( 2p)     0.00012
   119    H   12  py     Ryd( 2p)     0.00025
   120    H   12  pz     Ryd( 2p)     0.00019

   121    H   13  S      Val( 1S)     0.79573
   122    H   13  S      Ryd( 2S)     0.03838
   123    H   13  px     Ryd( 2p)     0.00008
   124    H   13  py     Ryd( 2p)     0.00027
   125    H   13  pz     Ryd( 2p)     0.00016

   126    H   14  S      Val( 1S)     0.71862
   127    H   14  S      Ryd( 2S)     0.02225
   128    H   14  px     Ryd( 2p)     0.00015
   129    H   14  py     Ryd( 2p)     0.00015
   130    H   14  pz     Ryd( 2p)     0.00026

   131    H   15  S      Val( 1S)     0.72662
   132    H   15  S      Ryd( 2S)     0.09393
   133    H   15  px     Ryd( 2p)     0.00046
   134    H   15  py     Ryd( 2p)     0.00034
   135    H   15  pz     Ryd( 2p)     0.00030

   136    H   16  S      Val( 1S)     0.79615
   137    H   16  S      Ryd( 2S)     0.02944
   138    H   16  px     Ryd( 2p)     0.00017
   139    H   16  py     Ryd( 2p)     0.00018
   140    H   16  pz     Ryd( 2p)     0.00012

   141    H   17  S      Val( 1S)     0.73281
   142    H   17  S      Ryd( 2S)     0.01892
   143    H   17  px     Ryd( 2p)     0.00017
   144    H   17  py     Ryd( 2p)     0.00012
   145    H   17  pz     Ryd( 2p)     0.00023

   146    H   18  S      Val( 1S)     0.76563
   147    H   18  S      Ryd( 2S)     0.02195
   148    H   18  px     Ryd( 2p)     0.00021
   149    H   18  py     Ryd( 2p)     0.00020
   150    H   18  pz     Ryd( 2p)     0.00013


 Summary of Natural Population Analysis:                  
                                                          
                                       Natural Population 
                Natural  -----------------------------------------------
    Atom  No    Charge         Core      Valence    Rydberg      Total
 -----------------------------------------------------------------------
      N    1   -0.87268      1.99968     5.85812    0.01488     7.87268
      C    2   -0.27272      1.99935     4.25590    0.01747     6.27272
      C    3   -0.49569      1.99931     4.48260    0.01378     6.49569
      C    4   -0.32870      1.99929     4.31061    0.01880     6.32870
      N    5   -0.24937      1.99937     5.23616    0.01383     7.24937
      C    6   -0.57435      1.99945     4.55205    0.02285     6.57435
      H    7    0.36958      0.00000     0.61819    0.01223     0.63042
      H    8    0.37272      0.00000     0.61755    0.00972     0.62728
      H    9    0.20919      0.00000     0.77772    0.01309     0.79081
      H   10    0.20733      0.00000     0.77950    0.01317     0.79267
      H   11    0.19121      0.00000     0.78738    0.02140     0.80879
      H   12    0.20760      0.00000     0.77027    0.02213     0.79240
      H   13    0.16538      0.00000     0.79573    0.03889     0.83462
      H   14    0.25857      0.00000     0.71862    0.02281     0.74143
      H   15    0.17834      0.00000     0.72662    0.09504     0.82166
      H   16    0.17393      0.00000     0.79615    0.02991     0.82607
      H   17    0.24775      0.00000     0.73281    0.01944     0.75225
      H   18    0.21188      0.00000     0.76563    0.02249     0.78812
 =======================================================================
   * Total *   -0.00000     11.99645    37.58161    0.42194    50.00000

                                 Natural Population      
 --------------------------------------------------------
   Core                      11.99645 ( 99.9704% of  12)
   Valence                   37.58161 ( 98.8990% of  38)
   Natural Minimal Basis     49.57806 ( 99.1561% of  50)
   Natural Rydberg Basis      0.42194 (  0.8439% of  50)
 --------------------------------------------------------

    Atom  No          Natural Electron Configuration
 ----------------------------------------------------------------------------
      N    1      [core]2S( 1.44)2p( 4.41)3p( 0.01)
      C    2      [core]2S( 1.03)2p( 3.23)3p( 0.01)
      C    3      [core]2S( 1.06)2p( 3.42)3p( 0.01)
      C    4      [core]2S( 1.05)2p( 3.26)3p( 0.01)
      N    5      [core]2S( 1.41)2p( 3.83)3S( 0.01)
      C    6      [core]2S( 1.13)2p( 3.42)3p( 0.02)
      H    7            1S( 0.62)2S( 0.01)
      H    8            1S( 0.62)2S( 0.01)
      H    9            1S( 0.78)2S( 0.01)
      H   10            1S( 0.78)2S( 0.01)
      H   11            1S( 0.79)2S( 0.02)
      H   12            1S( 0.77)2S( 0.02)
      H   13            1S( 0.80)2S( 0.04)
      H   14            1S( 0.72)2S( 0.02)
      H   15            1S( 0.73)2S( 0.09)
      H   16            1S( 0.80)2S( 0.03)
      H   17            1S( 0.73)2S( 0.02)
      H   18            1S( 0.77)2S( 0.02)


 NBO analysis skipped by request.
 1\1\GINC-CN33\SP\RB3LYP TD-FC\6-31G(d,p)\C4H12N2\QDUEZ\11-Jul-2024\0\\
 # TD(NStates=10, Root=1) B3LYP/6-31G** SCRF=(Solvent=water) volume pop
 =NPA density=current Geom=AllCheck Guess=Read\\QHJABUZHRJTCAR-UHFFFAOY
 SA-N_conf_0\\0,1\N,0,-2.6232624275,0.7887372708,1.0319733214\C,0,-1.67
 11540645,-0.0201299493,0.2552390531\C,0,-0.2757202664,-0.1850155226,0.
 8738347627\C,0,0.6830158852,-1.0283954387,0.0219631021\N,0,0.973095307
 4,-0.4224905995,-1.2840182397\C,0,1.9513250323,0.6625922293,-1.2221641
 378\H,0,-2.6980475628,0.397076753,1.9704406318\H,0,-2.2275694582,1.718
 403643,1.1682903844\H,0,-2.1170586311,-1.0125045307,0.1039448797\H,0,-
 1.5725973093,0.4276446047,-0.7389300547\H,0,-0.3701707637,-0.662429051
 4,1.8587733571\H,0,0.1574392544,0.8076782366,1.0575000034\H,0,0.222300
 2372,-2.0065185917,-0.1639729663\H,0,1.6051560357,-1.2180084614,0.6027
 540539\H,0,1.3423241875,-1.147343101,-1.8935128077\H,0,2.2073747169,0.
 9805167279,-2.2371880735\H,0,2.8867175591,0.3911788726,-0.7002033223\H
 ,0,1.5268322678,1.5290069084,-0.7047239477\\Version=EM64L-G16RevA.03\S
 tate=1-A\HF=-269.1603397\RMSD=4.500e-10\Dipole=0.8064786,0.2535729,0.5
 38046\Quadrupole=-2.5859526,1.372342,1.2136106,1.0973759,0.1078481,-0.
 2852437\PG=C01 [X(C4H12N2)]\\@


 A successful marriage requires falling in love
 many times, always with the same person.
                           -- Mignon McLaughlin
 Job cpu time:       0 days  0 hours 30 minutes 10.7 seconds.
 Elapsed time:       0 days  0 hours 12 minutes 30.4 seconds.
 File lengths (MBytes):  RWF=    245 Int=      0 D2E=      0 Chk=     15 Scr=      1
 Normal termination of Gaussian 16 at Thu Jul 11 21:00:57 2024.
