 Entering Gaussian System, Link 0=g16
 Initial command:
 /opt/sw/arch/manual/gaussian/G16_A03/g16/l1.exe "/scratch/1380870/Gau-85320.inp" -scrdir="/scratch/1380870/"
 Entering Link 1 = /opt/sw/arch/manual/gaussian/G16_A03/g16/l1.exe PID=     85321.
  
 Copyright (c) 1988,1990,1992,1993,1995,1998,2003,2009,2016,
            Gaussian, Inc.  All Rights Reserved.
  
 This is part of the Gaussian(R) 16 program.  It is based on
 the Gaussian(R) 09 system (copyright 2009, Gaussian, Inc.),
 the Gaussian(R) 03 system (copyright 2003, Gaussian, Inc.),
 the Gaussian(R) 98 system (copyright 1998, Gaussian, Inc.),
 the Gaussian(R) 94 system (copyright 1995, Gaussian, Inc.),
 the Gaussian 92(TM) system (copyright 1992, Gaussian, Inc.),
 the Gaussian 90(TM) system (copyright 1990, Gaussian, Inc.),
 the Gaussian 88(TM) system (copyright 1988, Gaussian, Inc.),
 the Gaussian 86(TM) system (copyright 1986, Carnegie Mellon
 University), and the Gaussian 82(TM) system (copyright 1983,
 Carnegie Mellon University). Gaussian is a federally registered
 trademark of Gaussian, Inc.
  
 This software contains proprietary and confidential information,
 including trade secrets, belonging to Gaussian, Inc.
  
 This software is provided under written license and may be
 used, copied, transmitted, or stored only in accord with that
 written license.
  
 The following legend is applicable only to US Government
 contracts under FAR:
  
                    RESTRICTED RIGHTS LEGEND
  
 Use, reproduction and disclosure by the US Government is
 subject to restrictions as set forth in subparagraphs (a)
 and (c) of the Commercial Computer Software - Restricted
 Rights clause in FAR 52.227-19.
  
 Gaussian, Inc.
 340 Quinnipiac St., Bldg. 40, Wallingford CT 06492
  
  
 ---------------------------------------------------------------
 Warning -- This program may not be used in any manner that
 competes with the business of Gaussian, Inc. or will provide
 assistance to any competitor of Gaussian, Inc.  The licensee
 of this program is prohibited from giving any competitor of
 Gaussian, Inc. access to this program.  By using this program,
 the user acknowledges that Gaussian, Inc. is engaged in the
 business of creating and licensing software in the field of
 computational chemistry and represents and warrants to the
 licensee that it is not a competitor of Gaussian, Inc. and that
 it will not use this program in any manner prohibited above.
 ---------------------------------------------------------------
  

 Cite this work as:
 Gaussian 16, Revision A.03,
 M. J. Frisch, G. W. Trucks, H. B. Schlegel, G. E. Scuseria, 
 M. A. Robb, J. R. Cheeseman, G. Scalmani, V. Barone, 
 G. A. Petersson, H. Nakatsuji, X. Li, M. Caricato, A. V. Marenich, 
 J. Bloino, B. G. Janesko, R. Gomperts, B. Mennucci, H. P. Hratchian, 
 J. V. Ortiz, A. F. Izmaylov, J. L. Sonnenberg, D. Williams-Young, 
 F. Ding, F. Lipparini, F. Egidi, J. Goings, B. Peng, A. Petrone, 
 T. Henderson, D. Ranasinghe, V. G. Zakrzewski, J. Gao, N. Rega, 
 G. Zheng, W. Liang, M. Hada, M. Ehara, K. Toyota, R. Fukuda, 
 J. Hasegawa, M. Ishida, T. Nakajima, Y. Honda, O. Kitao, H. Nakai, 
 T. Vreven, K. Throssell, J. A. Montgomery, Jr., J. E. Peralta, 
 F. Ogliaro, M. J. Bearpark, J. J. Heyd, E. N. Brothers, K. N. Kudin, 
 V. N. Staroverov, T. A. Keith, R. Kobayashi, J. Normand, 
 K. Raghavachari, A. P. Rendell, J. C. Burant, S. S. Iyengar, 
 J. Tomasi, M. Cossi, J. M. Millam, M. Klene, C. Adamo, R. Cammi, 
 J. W. Ochterski, R. L. Martin, K. Morokuma, O. Farkas, 
 J. B. Foresman, and D. J. Fox, Gaussian, Inc., Wallingford CT, 2016.
 
 ******************************************
 Gaussian 16:  ES64L-G16RevA.03 25-Dec-2016
                18-Jul-2024 
 ******************************************
 %nprocshared=4
 Will use up to    4 processors via shared memory.
 %mem=8GB
 %Chk=IWBOPFCKHIJFMS-UHFFFAOYSA-N_conf_3_0.chk
 -------------------------------------------------------
 # opt=CalcFc B3LYP/6-31G** SCRF=(Solvent=water) scf=xqc
 -------------------------------------------------------
 1/10=4,18=20,19=15,26=3,38=1/1,3;
 2/9=110,12=2,17=6,18=5,40=1/2;
 3/5=1,6=6,7=101,11=2,25=1,30=1,70=2201,71=2,72=1,74=-5,140=1/1,2,3;
 4//1;
 5/5=2,8=3,13=1,38=5,53=1/2,8;
 8/6=4,10=90,11=11/1;
 11/6=1,8=1,9=11,15=111,16=1/1,2,10;
 10/6=1,13=1/2;
 6/7=2,8=2,9=2,10=2,28=1/1;
 7/10=1,18=20,25=1/1,2,3,16;
 1/10=4,18=20,19=15,26=3/3(2);
 2/9=110/2;
 99//99;
 2/9=110/2;
 3/5=1,6=6,7=101,11=2,25=1,30=1,70=2205,71=1,72=1,74=-5/1,2,3;
 4/5=5,16=3,69=1/1;
 5/5=2,8=3,13=1,38=5,53=1/2,8;
 7//1,2,3,16;
 1/18=20,19=15,26=3/3(-5);
 2/9=110/2;
 6/7=2,8=2,9=2,10=2,19=2,28=1/1;
 99/9=1/99;
 ----------------------------------
 IWBOPFCKHIJFMS-UHFFFAOYSA-N_conf_3
 ----------------------------------
 Symbolic Z-matrix:
 Charge =  0 Multiplicity = 1
 N                     4.33658   0.09997  -0.61848 
 C                     3.31862  -0.94971  -0.49613 
 C                     1.91157  -0.35136  -0.37363 
 O                     1.84074   0.41275   0.83783 
 C                     0.66273   1.2232    0.9219 
 C                    -0.60557   0.40817   1.19012 
 O                    -1.09986  -0.13586  -0.03826 
 C                    -2.25115  -0.97169   0.13763 
 C                    -3.5444   -0.1482    0.23243 
 N                    -3.76703   0.6333   -0.98557 
 H                     4.16362   0.77635   0.12935 
 H                     5.25365  -0.3015   -0.43298 
 H                     3.54002  -1.54156   0.39898 
 H                     3.37328  -1.60752  -1.3688 
 H                     1.6921    0.28292  -1.24042 
 H                     1.18625  -1.16939  -0.32897 
 H                     0.82718   1.89763   1.76869 
 H                     0.56871   1.83542   0.01779 
 H                    -0.38868  -0.4063    1.88997 
 H                    -1.36765   1.068     1.61554 
 H                    -2.30203  -1.63414  -0.73386 
 H                    -2.12927  -1.6086    1.02134 
 H                    -4.39777  -0.81488   0.3907 
 H                    -3.49193   0.53983   1.08164 
 H                    -2.88779   1.09007  -1.23803 
 H                    -4.4419    1.3731   -0.80248 
 

 GradGradGradGradGradGradGradGradGradGradGradGradGradGradGradGradGradGrad
 Berny optimization.
 Initialization pass.
                           ----------------------------
                           !    Initial Parameters    !
                           ! (Angstroms and Degrees)  !
 --------------------------                            --------------------------
 ! Name  Definition              Value          Derivative Info.                !
 --------------------------------------------------------------------------------
 ! R1    R(1,2)                  1.4673         calculate D2E/DX2 analytically  !
 ! R2    R(1,11)                 1.0231         calculate D2E/DX2 analytically  !
 ! R3    R(1,12)                 1.0181         calculate D2E/DX2 analytically  !
 ! R4    R(2,3)                  1.5339         calculate D2E/DX2 analytically  !
 ! R5    R(2,13)                 1.0957         calculate D2E/DX2 analytically  !
 ! R6    R(2,14)                 1.0942         calculate D2E/DX2 analytically  !
 ! R7    R(3,4)                  1.4341         calculate D2E/DX2 analytically  !
 ! R8    R(3,15)                 1.0963         calculate D2E/DX2 analytically  !
 ! R9    R(3,16)                 1.0942         calculate D2E/DX2 analytically  !
 ! R10   R(4,5)                  1.4323         calculate D2E/DX2 analytically  !
 ! R11   R(5,6)                  1.5313         calculate D2E/DX2 analytically  !
 ! R12   R(5,17)                 1.095          calculate D2E/DX2 analytically  !
 ! R13   R(5,18)                 1.0959         calculate D2E/DX2 analytically  !
 ! R14   R(6,7)                  1.4315         calculate D2E/DX2 analytically  !
 ! R15   R(6,19)                 1.0955         calculate D2E/DX2 analytically  !
 ! R16   R(6,20)                 1.0941         calculate D2E/DX2 analytically  !
 ! R17   R(7,8)                  1.4335         calculate D2E/DX2 analytically  !
 ! R18   R(8,9)                  1.5361         calculate D2E/DX2 analytically  !
 ! R19   R(8,21)                 1.0959         calculate D2E/DX2 analytically  !
 ! R20   R(8,22)                 1.0961         calculate D2E/DX2 analytically  !
 ! R21   R(9,10)                 1.4642         calculate D2E/DX2 analytically  !
 ! R22   R(9,23)                 1.0944         calculate D2E/DX2 analytically  !
 ! R23   R(9,24)                 1.0942         calculate D2E/DX2 analytically  !
 ! R24   R(10,25)                1.0225         calculate D2E/DX2 analytically  !
 ! R25   R(10,26)                1.018          calculate D2E/DX2 analytically  !
 ! A1    A(2,1,11)             107.1408         calculate D2E/DX2 analytically  !
 ! A2    A(2,1,12)             109.1235         calculate D2E/DX2 analytically  !
 ! A3    A(11,1,12)            106.2483         calculate D2E/DX2 analytically  !
 ! A4    A(1,2,3)              111.3455         calculate D2E/DX2 analytically  !
 ! A5    A(1,2,13)             108.3217         calculate D2E/DX2 analytically  !
 ! A6    A(1,2,14)             109.2028         calculate D2E/DX2 analytically  !
 ! A7    A(3,2,13)             109.3188         calculate D2E/DX2 analytically  !
 ! A8    A(3,2,14)             110.1226         calculate D2E/DX2 analytically  !
 ! A9    A(13,2,14)            108.4644         calculate D2E/DX2 analytically  !
 ! A10   A(2,3,4)              108.7005         calculate D2E/DX2 analytically  !
 ! A11   A(2,3,15)             110.2544         calculate D2E/DX2 analytically  !
 ! A12   A(2,3,16)             108.6448         calculate D2E/DX2 analytically  !
 ! A13   A(4,3,15)             110.4731         calculate D2E/DX2 analytically  !
 ! A14   A(4,3,16)             109.3375         calculate D2E/DX2 analytically  !
 ! A15   A(15,3,16)            109.3975         calculate D2E/DX2 analytically  !
 ! A16   A(3,4,5)              113.0603         calculate D2E/DX2 analytically  !
 ! A17   A(4,5,6)              112.974          calculate D2E/DX2 analytically  !
 ! A18   A(4,5,17)             105.6879         calculate D2E/DX2 analytically  !
 ! A19   A(4,5,18)             109.7686         calculate D2E/DX2 analytically  !
 ! A20   A(6,5,17)             108.4676         calculate D2E/DX2 analytically  !
 ! A21   A(6,5,18)             111.7631         calculate D2E/DX2 analytically  !
 ! A22   A(17,5,18)            107.8658         calculate D2E/DX2 analytically  !
 ! A23   A(5,6,7)              109.7529         calculate D2E/DX2 analytically  !
 ! A24   A(5,6,19)             110.0973         calculate D2E/DX2 analytically  !
 ! A25   A(5,6,20)             108.9063         calculate D2E/DX2 analytically  !
 ! A26   A(7,6,19)             109.5115         calculate D2E/DX2 analytically  !
 ! A27   A(7,6,20)             108.8039         calculate D2E/DX2 analytically  !
 ! A28   A(19,6,20)            109.7469         calculate D2E/DX2 analytically  !
 ! A29   A(6,7,8)              113.1789         calculate D2E/DX2 analytically  !
 ! A30   A(7,8,9)              111.7859         calculate D2E/DX2 analytically  !
 ! A31   A(7,8,21)             106.9883         calculate D2E/DX2 analytically  !
 ! A32   A(7,8,22)             110.3909         calculate D2E/DX2 analytically  !
 ! A33   A(9,8,21)             109.5151         calculate D2E/DX2 analytically  !
 ! A34   A(9,8,22)             110.8156         calculate D2E/DX2 analytically  !
 ! A35   A(21,8,22)            107.1607         calculate D2E/DX2 analytically  !
 ! A36   A(8,9,10)             111.273          calculate D2E/DX2 analytically  !
 ! A37   A(8,9,23)             109.8051         calculate D2E/DX2 analytically  !
 ! A38   A(8,9,24)             110.1583         calculate D2E/DX2 analytically  !
 ! A39   A(10,9,23)            109.0794         calculate D2E/DX2 analytically  !
 ! A40   A(10,9,24)            108.4987         calculate D2E/DX2 analytically  !
 ! A41   A(23,9,24)            107.9504         calculate D2E/DX2 analytically  !
 ! A42   A(9,10,25)            108.2455         calculate D2E/DX2 analytically  !
 ! A43   A(9,10,26)            109.8209         calculate D2E/DX2 analytically  !
 ! A44   A(25,10,26)           106.8485         calculate D2E/DX2 analytically  !
 ! D1    D(11,1,2,3)            49.4494         calculate D2E/DX2 analytically  !
 ! D2    D(11,1,2,13)          -70.7868         calculate D2E/DX2 analytically  !
 ! D3    D(11,1,2,14)          171.2687         calculate D2E/DX2 analytically  !
 ! D4    D(12,1,2,3)           164.0853         calculate D2E/DX2 analytically  !
 ! D5    D(12,1,2,13)           43.8491         calculate D2E/DX2 analytically  !
 ! D6    D(12,1,2,14)          -74.0954         calculate D2E/DX2 analytically  !
 ! D7    D(1,2,3,4)            -63.5347         calculate D2E/DX2 analytically  !
 ! D8    D(1,2,3,15)            57.6974         calculate D2E/DX2 analytically  !
 ! D9    D(1,2,3,16)           177.5733         calculate D2E/DX2 analytically  !
 ! D10   D(13,2,3,4)            56.1115         calculate D2E/DX2 analytically  !
 ! D11   D(13,2,3,15)          177.3435         calculate D2E/DX2 analytically  !
 ! D12   D(13,2,3,16)          -62.7806         calculate D2E/DX2 analytically  !
 ! D13   D(14,2,3,4)           175.1813         calculate D2E/DX2 analytically  !
 ! D14   D(14,2,3,15)          -63.5867         calculate D2E/DX2 analytically  !
 ! D15   D(14,2,3,16)           56.2893         calculate D2E/DX2 analytically  !
 ! D16   D(2,3,4,5)            168.5736         calculate D2E/DX2 analytically  !
 ! D17   D(15,3,4,5)            47.4758         calculate D2E/DX2 analytically  !
 ! D18   D(16,3,4,5)           -72.9703         calculate D2E/DX2 analytically  !
 ! D19   D(3,4,5,6)             73.0045         calculate D2E/DX2 analytically  !
 ! D20   D(3,4,5,17)          -168.5425         calculate D2E/DX2 analytically  !
 ! D21   D(3,4,5,18)           -52.467          calculate D2E/DX2 analytically  !
 ! D22   D(4,5,6,7)            -82.4844         calculate D2E/DX2 analytically  !
 ! D23   D(4,5,6,19)            38.1313         calculate D2E/DX2 analytically  !
 ! D24   D(4,5,6,20)           158.5029         calculate D2E/DX2 analytically  !
 ! D25   D(17,5,6,7)           160.6937         calculate D2E/DX2 analytically  !
 ! D26   D(17,5,6,19)          -78.6906         calculate D2E/DX2 analytically  !
 ! D27   D(17,5,6,20)           41.6811         calculate D2E/DX2 analytically  !
 ! D28   D(18,5,6,7)            41.9041         calculate D2E/DX2 analytically  !
 ! D29   D(18,5,6,19)          162.5198         calculate D2E/DX2 analytically  !
 ! D30   D(18,5,6,20)          -77.1086         calculate D2E/DX2 analytically  !
 ! D31   D(5,6,7,8)            176.9872         calculate D2E/DX2 analytically  !
 ! D32   D(19,6,7,8)            56.0175         calculate D2E/DX2 analytically  !
 ! D33   D(20,6,7,8)           -63.9373         calculate D2E/DX2 analytically  !
 ! D34   D(6,7,8,9)             82.4559         calculate D2E/DX2 analytically  !
 ! D35   D(6,7,8,21)          -157.6584         calculate D2E/DX2 analytically  !
 ! D36   D(6,7,8,22)           -41.3821         calculate D2E/DX2 analytically  !
 ! D37   D(7,8,9,10)            60.5217         calculate D2E/DX2 analytically  !
 ! D38   D(7,8,9,23)          -178.6117         calculate D2E/DX2 analytically  !
 ! D39   D(7,8,9,24)           -59.8514         calculate D2E/DX2 analytically  !
 ! D40   D(21,8,9,10)          -57.869          calculate D2E/DX2 analytically  !
 ! D41   D(21,8,9,23)           62.9977         calculate D2E/DX2 analytically  !
 ! D42   D(21,8,9,24)         -178.2421         calculate D2E/DX2 analytically  !
 ! D43   D(22,8,9,10)         -175.8796         calculate D2E/DX2 analytically  !
 ! D44   D(22,8,9,23)          -55.0129         calculate D2E/DX2 analytically  !
 ! D45   D(22,8,9,24)           63.7473         calculate D2E/DX2 analytically  !
 ! D46   D(8,9,10,25)          -46.1319         calculate D2E/DX2 analytically  !
 ! D47   D(8,9,10,26)         -162.4418         calculate D2E/DX2 analytically  !
 ! D48   D(23,9,10,25)        -167.4236         calculate D2E/DX2 analytically  !
 ! D49   D(23,9,10,26)          76.2665         calculate D2E/DX2 analytically  !
 ! D50   D(24,9,10,25)          75.2154         calculate D2E/DX2 analytically  !
 ! D51   D(24,9,10,26)         -41.0945         calculate D2E/DX2 analytically  !
 --------------------------------------------------------------------------------
 Trust Radius=3.00D-01 FncErr=1.00D-07 GrdErr=1.00D-06 EigMax=2.50D+02 EigMin=1.00D-04
 Number of steps in this run=    130 maximum allowed number of steps=    156.
 GradGradGradGradGradGradGradGradGradGradGradGradGradGradGradGradGradGrad

                          Input orientation:                          
 ---------------------------------------------------------------------
 Center     Atomic      Atomic             Coordinates (Angstroms)
 Number     Number       Type             X           Y           Z
 ---------------------------------------------------------------------
      1          7           0        4.336576    0.099973   -0.618478
      2          6           0        3.318616   -0.949708   -0.496127
      3          6           0        1.911566   -0.351365   -0.373629
      4          8           0        1.840737    0.412749    0.837828
      5          6           0        0.662734    1.223201    0.921905
      6          6           0       -0.605573    0.408171    1.190124
      7          8           0       -1.099863   -0.135856   -0.038263
      8          6           0       -2.251148   -0.971690    0.137628
      9          6           0       -3.544399   -0.148195    0.232428
     10          7           0       -3.767031    0.633303   -0.985566
     11          1           0        4.163620    0.776349    0.129347
     12          1           0        5.253649   -0.301504   -0.432983
     13          1           0        3.540017   -1.541555    0.398981
     14          1           0        3.373277   -1.607524   -1.368799
     15          1           0        1.692102    0.282915   -1.240418
     16          1           0        1.186246   -1.169388   -0.328970
     17          1           0        0.827176    1.897634    1.768685
     18          1           0        0.568707    1.835418    0.017793
     19          1           0       -0.388675   -0.406300    1.889967
     20          1           0       -1.367647    1.068000    1.615537
     21          1           0       -2.302031   -1.634143   -0.733855
     22          1           0       -2.129272   -1.608605    1.021338
     23          1           0       -4.397770   -0.814884    0.390696
     24          1           0       -3.491932    0.539833    1.081643
     25          1           0       -2.887786    1.090068   -1.238034
     26          1           0       -4.441896    1.373102   -0.802476
 ---------------------------------------------------------------------
                    Distance matrix (angstroms):
                    1          2          3          4          5
     1  N    0.000000
     2  C    1.467325   0.000000
     3  C    2.478776   1.533887   0.000000
     4  O    2.906521   2.412437   1.434055   0.000000
     5  C    4.139025   3.712958   2.391076   1.432337   0.000000
     6  C    5.271704   4.481801   3.059119   2.471551   1.531280
     7  O    5.472397   4.516077   3.037700   3.116991   2.423986
     8  C    6.717013   5.605747   4.239620   4.376126   3.731400
     9  C    7.930662   6.947964   5.493282   5.448015   4.478402
    10  N    8.129430   7.276804   5.795731   5.900887   4.858934
    11  H    1.023054   2.021020   2.568360   2.455593   3.617185
    12  H    1.018143   2.041692   3.342982   3.711211   5.023638
    13  H    2.089101   1.095682   2.159938   2.626680   4.024436
    14  H    2.099160   1.094196   2.169078   3.361456   4.539534
    15  H    2.722777   2.172297   1.096266   2.087595   2.572814
    16  H    3.408764   2.150164   1.094188   2.071940   2.750134
    17  H    4.609340   4.409536   3.289894   2.024520   1.094960
    18  H    4.196838   3.947537   2.595862   2.077138   1.095933
    19  H    5.373696   4.442156   3.227692   2.597714   2.167459
    20  H    6.202101   5.521896   4.089574   3.365697   2.151200
    21  H    6.862330   5.667155   4.419240   4.880828   4.437994
    22  H    6.885886   5.693535   4.455891   4.458758   3.977978
    23  H    8.839920   7.768349   6.372344   6.373851   5.481302
    24  H    8.023056   7.147843   5.666555   5.339752   4.213521
    25  H    7.318165   6.574994   5.085146   5.208348   4.158035
    26  H    8.872219   8.106469   6.597285   6.563867   5.390103
                    6          7          8          9         10
     6  C    0.000000
     7  O    1.431511   0.000000
     8  C    2.391585   1.433532   0.000000
     9  C    3.140609   2.459509   1.536109   0.000000
    10  N    3.844363   2.933048   2.476988   1.464176   0.000000
    11  H    4.899593   5.344574   6.648681   7.763954   8.009914
    12  H    6.121160   6.367917   7.556238   8.824507   9.085806
    13  H    4.649007   4.867819   5.825002   7.222060   7.748544
    14  H    5.142214   4.893374   5.857283   7.248987   7.493475
    15  H    3.347019   3.068487   4.361453   5.456746   5.476300
    16  H    2.829657   2.525667   3.474547   4.872064   5.311852
    17  H    2.146160   3.333710   4.513252   5.065192   5.503741
    18  H    2.188681   2.583251   3.980678   4.571480   4.609819
    19  H    1.095530   2.072921   2.619000   3.573884   4.556616
    20  H    1.094124   2.063015   2.669293   2.851381   3.565353
    21  H    3.278828   2.043018   1.095864   2.164537   2.711253
    22  H    2.533285   2.086008   1.096110   2.181229   3.425794
    23  H    4.063952   3.394300   2.167168   1.094424   2.095035
    24  H    2.891396   2.726305   2.171499   1.094213   2.087526
    25  H    3.401387   2.477702   2.559024   2.031427   1.022471
    26  H    4.429325   3.745685   3.343834   2.047162   1.017972
                   11         12         13         14         15
    11  H    0.000000
    12  H    1.632833   0.000000
    13  H    2.415422   2.272977   0.000000
    14  H    2.924369   2.473306   1.776851   0.000000
    15  H    2.868472   3.698393   3.071011   2.533099   0.000000
    16  H    3.586183   4.160266   2.491718   2.460957   1.787684
    17  H    3.882856   5.410842   4.589512   5.349072   3.522799
    18  H    3.749330   5.168977   4.514193   4.652107   2.292461
    19  H    5.022135   6.102696   4.352755   5.120037   3.821513
    20  H    5.734871   7.064952   5.689900   6.208144   4.258509
    21  H    6.954153   7.678200   5.951590   5.710778   4.459240
    22  H    6.788531   7.637479   5.703742   5.999233   4.826623
    23  H    8.711930   9.700098   7.970984   8.007076   6.399394
    24  H    7.718179   8.915555   7.365224   7.599138   5.686139
    25  H    7.189609   8.298647   7.135959   6.818725   4.650471
    26  H    8.676366   9.846036   8.581938   8.383423   6.245497
                   16         17         18         19         20
    16  H    0.000000
    17  H    3.733057   0.000000
    18  H    3.087145   1.770960   0.000000
    19  H    2.826015   2.607894   3.073583   0.000000
    20  H    3.912721   2.351382   2.625106   1.790882   0.000000
    21  H    3.542317   5.341170   4.565519   3.471739   3.700580
    22  H    3.606786   4.646808   4.488595   2.286861   2.845586
    23  H    5.641350   6.046211   5.641724   4.299720   3.771887
    24  H    5.176545   4.579339   4.393074   3.343465   2.253129
    25  H    4.746502   4.847006   3.752331   4.274232   3.233292
    26  H    6.193904   5.886350   5.098305   5.181131   3.923121
                   21         22         23         24         25
    21  H    0.000000
    22  H    1.763860   0.000000
    23  H    2.515536   2.484710   0.000000
    24  H    3.072144   2.544850   1.770087   0.000000
    25  H    2.831719   3.600409   2.926031   2.459401   0.000000
    26  H    3.691511   4.191075   2.492568   2.268628   1.638620
                   26
    26  H    0.000000
 Stoichiometry    C6H16N2O2
 Framework group  C1[X(C6H16N2O2)]
 Deg. of freedom    72
 Full point group                 C1      NOp   1
 Largest Abelian subgroup         C1      NOp   1
 Largest concise Abelian subgroup C1      NOp   1
                         Standard orientation:                         
 ---------------------------------------------------------------------
 Center     Atomic      Atomic             Coordinates (Angstroms)
 Number     Number       Type             X           Y           Z
 ---------------------------------------------------------------------
      1          7           0       -4.270033   -0.273301    0.602374
      2          6           0       -3.286626   -0.986917   -0.220247
      3          6           0       -1.857826   -0.522526    0.089080
      4          8           0       -1.738317    0.862627   -0.262464
      5          6           0       -0.531819    1.462656    0.223251
      6          6           0        0.712512    1.009937   -0.545842
      7          8           0        1.164935   -0.248912   -0.036102
      8          6           0        2.289905   -0.775906   -0.751459
      9          6           0        3.612210   -0.163390   -0.265700
     10          7           0        3.838895   -0.445650    1.153016
     11          1           0       -4.060097    0.724998    0.525147
     12          1           0       -5.196751   -0.401437    0.200638
     13          1           0       -3.511563   -0.789984   -1.274353
     14          1           0       -3.380038   -2.062282   -0.041001
     15          1           0       -1.632841   -0.669163    1.151943
     16          1           0       -1.160322   -1.111023   -0.514580
     17          1           0       -0.657252    2.540458    0.076456
     18          1           0       -0.433625    1.279058    1.299224
     19          1           0        0.480804    0.911034   -1.612011
     20          1           0        1.504564    1.751876   -0.406956
     21          1           0        2.301819   -1.857784   -0.577350
     22          1           0        2.162657   -0.623191   -1.829394
     23          1           0        4.444974   -0.568907   -0.848646
     24          1           0        3.599178    0.921708   -0.406032
     25          1           0        2.971319   -0.255986    1.659756
     26          1           0        4.542051    0.190444    1.523454
 ---------------------------------------------------------------------
 Rotational constants (GHZ):           3.2254806           0.4455392           0.4278265
 Standard basis: 6-31G(d,p) (6D, 7F)
 There are   230 symmetry adapted cartesian basis functions of A   symmetry.
 There are   230 symmetry adapted basis functions of A   symmetry.
   230 basis functions,   392 primitive gaussians,   230 cartesian basis functions
    41 alpha electrons       41 beta electrons
       nuclear repulsion energy       571.4562651215 Hartrees.
 NAtoms=   26 NActive=   26 NUniq=   26 SFac= 1.00D+00 NAtFMM=   60 NAOKFM=F Big=F
 Integral buffers will be    131072 words long.
 Raffenetti 2 integral format.
 Two-electron integral symmetry is turned on.
 Force inversion solution in PCM.
 ------------------------------------------------------------------------------
 Polarizable Continuum Model (PCM)
 =================================
 Model                : PCM.
 Atomic radii         : UFF (Universal Force Field).
 Polarization charges : Total charges.
 Charge compensation  : None.
 Solution method      : Matrix inversion.
 Cavity type          : Scaled VdW (van der Waals Surface) (Alpha=1.100).
 Cavity algorithm     : GePol (No added spheres)
                        Default sphere list used, NSphG=   26.
                        Lebedev-Laikov grids with approx.  5.0 points / Ang**2.
                        Smoothing algorithm: York/Karplus (Gamma=1.0000).
                        Polarization charges: spherical gaussians, with
                                              point-specific exponents (IZeta= 3).
                        Self-potential: point-specific (ISelfS= 7).
                        Self-field    : sphere-specific E.n sum rule (ISelfD= 2).
 1st derivatives      : Analytical E(r).r(x)/FMM algorithm (CHGder, D1EAlg=3).
                        Cavity 1st derivative terms included.
 2nd derivatives      : Analytical E(r).r(xy)/FMM algorithm (CHGder, D2EAlg=3).
                        Cavity 2nd derivative terms included.
 Solvent              : Water, Eps=  78.355300 Eps(inf)=   1.777849
 ------------------------------------------------------------------------------
 One-electron integrals computed using PRISM.
 NBasis=   230 RedAO= T EigKep=  3.90D-03  NBF=   230
 NBsUse=   230 1.00D-06 EigRej= -1.00D+00 NBFU=   230
 ExpMin= 1.61D-01 ExpMax= 5.48D+03 ExpMxC= 8.25D+02 IAcc=3 IRadAn=         5 AccDes= 0.00D+00
 Harris functional with IExCor=  402 and IRadAn=       5 diagonalized for initial guess.
 HarFok:  IExCor=  402 AccDes= 0.00D+00 IRadAn=         5 IDoV= 1 UseB2=F ITyADJ=14
 ICtDFT=  3500011 ScaDFX=  1.000000  1.000000  1.000000  1.000000
 FoFCou: FMM=F IPFlag=           0 FMFlag=      100000 FMFlg1=           0
         NFxFlg=           0 DoJE=T BraDBF=F KetDBF=T FulRan=T
         wScrn=  0.000000 ICntrl=       500 IOpCl=  0 I1Cent=   200000004 NGrid=           0
         NMat0=    1 NMatS0=      1 NMatT0=    0 NMatD0=    1 NMtDS0=    0 NMtDT0=    0
 Petite list used in FoFCou.
 Keep R1 ints in memory in canonical form, NReq=359027606.
 Requested convergence on RMS density matrix=1.00D-08 within  32 cycles.
 Requested convergence on MAX density matrix=1.00D-06.
 Requested convergence on             energy=1.00D-06.
 No special actions if energy rises.
 Inv3:  Mode=1 IEnd=    10614483.
 Iteration    1 A*A^-1 deviation from unit magnitude is 3.11D-15 for    244.
 Iteration    1 A*A^-1 deviation from orthogonality  is 1.82D-15 for   1283    493.
 Iteration    1 A^-1*A deviation from unit magnitude is 3.22D-15 for   1082.
 Iteration    1 A^-1*A deviation from orthogonality  is 1.67D-15 for   1650   1074.
 Error on total polarization charges =  0.00890
 SCF Done:  E(RB3LYP) =  -498.208207224     A.U. after   11 cycles
            NFock= 11  Conv=0.77D-08     -V/T= 2.0094
 QCSCF skips out because SCF is already converged.
 DoSCS=F DFT=T ScalE2(SS,OS)=  1.000000  1.000000
 Range of M.O.s used for correlation:     1   230
 NBasis=   230 NAE=    41 NBE=    41 NFC=     0 NFV=     0
 NROrb=    230 NOA=    41 NOB=    41 NVA=   189 NVB=   189
 Symmetrizing basis deriv contribution to polar:
 IMax=3 JMax=2 DiffMx= 0.00D+00
 G2DrvN: will do    27 centers at a time, making    1 passes.
 Calling FoFCou, ICntrl=  3107 FMM=F I1Cent=   0 AccDes= 0.00D+00.
 NEqPCM:  Using equilibrium solvation (IEInf=0, Eps=  78.3553, EpsInf=   1.7778)
 G2PCM: DoFxE=T DoFxN=T DoGrad=T DoDP/DQ/DG/TGxP=FFFF NFrqRd=   0 IEInf=0 SqF1=F DoCFld=F IF1Alg=4.
 End of G2Drv F.D. properties file   721 does not exist.
 End of G2Drv F.D. properties file   722 does not exist.
 End of G2Drv F.D. properties file   788 does not exist.
          IDoAtm=11111111111111111111111111
 NEqPCM:  Using equilibrium solvation (IEInf=0, Eps=  78.3553, EpsInf=   1.7778)
          Differentiating once with respect to nuclear coordinates.
 Keep R1 ints in memory in canonical form, NReq=362151689.
          There are    81 degrees of freedom in the 1st order CPHF.  IDoFFX=6 NUNeed=     0.
     75 vectors produced by pass  0 Test12= 9.57D-15 1.23D-09 XBig12= 8.74D-02 8.03D-02.
 AX will form    75 AO Fock derivatives at one time.
     75 vectors produced by pass  1 Test12= 9.57D-15 1.23D-09 XBig12= 6.97D-03 1.31D-02.
     75 vectors produced by pass  2 Test12= 9.57D-15 1.23D-09 XBig12= 5.96D-05 9.26D-04.
     75 vectors produced by pass  3 Test12= 9.57D-15 1.23D-09 XBig12= 1.69D-07 4.44D-05.
     75 vectors produced by pass  4 Test12= 9.57D-15 1.23D-09 XBig12= 1.40D-10 1.55D-06.
     34 vectors produced by pass  5 Test12= 9.57D-15 1.23D-09 XBig12= 7.80D-14 2.84D-08.
 InvSVY:  IOpt=1 It=  1 EMax= 2.22D-16
 Solved reduced A of dimension   409 with    81 vectors.
 End of Minotr F.D. properties file   721 does not exist.
 End of Minotr F.D. properties file   722 does not exist.
 End of Minotr F.D. properties file   788 does not exist.

 **********************************************************************

            Population analysis using the SCF density.

 **********************************************************************

 Orbital symmetries:
       Occupied  (A) (A) (A) (A) (A) (A) (A) (A) (A) (A) (A) (A)
                 (A) (A) (A) (A) (A) (A) (A) (A) (A) (A) (A) (A)
                 (A) (A) (A) (A) (A) (A) (A) (A) (A) (A) (A) (A)
                 (A) (A) (A) (A) (A)
       Virtual   (A) (A) (A) (A) (A) (A) (A) (A) (A) (A) (A) (A)
                 (A) (A) (A) (A) (A) (A) (A) (A) (A) (A) (A) (A)
                 (A) (A) (A) (A) (A) (A) (A) (A) (A) (A) (A) (A)
                 (A) (A) (A) (A) (A) (A) (A) (A) (A) (A) (A) (A)
                 (A) (A) (A) (A) (A) (A) (A) (A) (A) (A) (A) (A)
                 (A) (A) (A) (A) (A) (A) (A) (A) (A) (A) (A) (A)
                 (A) (A) (A) (A) (A) (A) (A) (A) (A) (A) (A) (A)
                 (A) (A) (A) (A) (A) (A) (A) (A) (A) (A) (A) (A)
                 (A) (A) (A) (A) (A) (A) (A) (A) (A) (A) (A) (A)
                 (A) (A) (A) (A) (A) (A) (A) (A) (A) (A) (A) (A)
                 (A) (A) (A) (A) (A) (A) (A) (A) (A) (A) (A) (A)
                 (A) (A) (A) (A) (A) (A) (A) (A) (A) (A) (A) (A)
                 (A) (A) (A) (A) (A) (A) (A) (A) (A) (A) (A) (A)
                 (A) (A) (A) (A) (A) (A) (A) (A) (A) (A) (A) (A)
                 (A) (A) (A) (A) (A) (A) (A) (A) (A) (A) (A) (A)
                 (A) (A) (A) (A) (A) (A) (A) (A) (A)
 The electronic state is 1-A.
 Alpha  occ. eigenvalues --  -19.15287 -19.14988 -14.30544 -14.30468 -10.23348
 Alpha  occ. eigenvalues --  -10.23137 -10.23086 -10.22458 -10.20357 -10.20283
 Alpha  occ. eigenvalues --   -1.03472  -1.02006  -0.87259  -0.87149  -0.76260
 Alpha  occ. eigenvalues --   -0.72306  -0.69224  -0.62709  -0.59127  -0.58549
 Alpha  occ. eigenvalues --   -0.50889  -0.49270  -0.49208  -0.48269  -0.47275
 Alpha  occ. eigenvalues --   -0.45900  -0.43640  -0.42709  -0.41636  -0.39581
 Alpha  occ. eigenvalues --   -0.38856  -0.38349  -0.37558  -0.36285  -0.34754
 Alpha  occ. eigenvalues --   -0.32319  -0.31130  -0.26837  -0.25053  -0.23123
 Alpha  occ. eigenvalues --   -0.22923
 Alpha virt. eigenvalues --    0.07834   0.09287   0.10710   0.11939   0.12423
 Alpha virt. eigenvalues --    0.12815   0.13159   0.14469   0.15087   0.16273
 Alpha virt. eigenvalues --    0.17129   0.17267   0.18124   0.18568   0.18972
 Alpha virt. eigenvalues --    0.20211   0.20863   0.22191   0.22958   0.23972
 Alpha virt. eigenvalues --    0.24283   0.25061   0.25743   0.26744   0.27931
 Alpha virt. eigenvalues --    0.50543   0.51819   0.52143   0.53455   0.54241
 Alpha virt. eigenvalues --    0.55530   0.56722   0.57068   0.59432   0.59701
 Alpha virt. eigenvalues --    0.61856   0.64193   0.64704   0.65815   0.68016
 Alpha virt. eigenvalues --    0.70574   0.71308   0.73045   0.74020   0.77237
 Alpha virt. eigenvalues --    0.78793   0.80343   0.80679   0.82092   0.82924
 Alpha virt. eigenvalues --    0.84928   0.85358   0.86727   0.87463   0.88234
 Alpha virt. eigenvalues --    0.89335   0.89855   0.90748   0.91875   0.92566
 Alpha virt. eigenvalues --    0.93523   0.94053   0.94912   0.97729   0.98210
 Alpha virt. eigenvalues --    1.03167   1.04152   1.07651   1.10990   1.11764
 Alpha virt. eigenvalues --    1.15447   1.18461   1.20067   1.22751   1.27521
 Alpha virt. eigenvalues --    1.31629   1.32166   1.33401   1.37289   1.44200
 Alpha virt. eigenvalues --    1.44994   1.48575   1.49880   1.53041   1.55645
 Alpha virt. eigenvalues --    1.58050   1.60414   1.61443   1.69214   1.72351
 Alpha virt. eigenvalues --    1.74661   1.75847   1.77437   1.78814   1.80463
 Alpha virt. eigenvalues --    1.85977   1.86562   1.87737   1.89147   1.90567
 Alpha virt. eigenvalues --    1.92678   1.94661   1.96700   1.98724   1.98866
 Alpha virt. eigenvalues --    1.99741   2.00424   2.01081   2.03532   2.04522
 Alpha virt. eigenvalues --    2.05236   2.06933   2.07857   2.09739   2.12384
 Alpha virt. eigenvalues --    2.16183   2.17653   2.18437   2.20346   2.22091
 Alpha virt. eigenvalues --    2.24265   2.27488   2.28779   2.29494   2.31800
 Alpha virt. eigenvalues --    2.32352   2.34934   2.36600   2.38147   2.39326
 Alpha virt. eigenvalues --    2.42054   2.43627   2.46104   2.47378   2.48581
 Alpha virt. eigenvalues --    2.55638   2.57515   2.59804   2.60383   2.62640
 Alpha virt. eigenvalues --    2.63646   2.66094   2.67207   2.68358   2.69710
 Alpha virt. eigenvalues --    2.71568   2.75367   2.75795   2.77886   2.79037
 Alpha virt. eigenvalues --    2.80927   2.82402   2.84752   2.88829   2.90725
 Alpha virt. eigenvalues --    2.92261   2.94439   2.96278   2.96962   2.98534
 Alpha virt. eigenvalues --    2.99511   3.01763   3.04380   3.25661   3.27510
 Alpha virt. eigenvalues --    3.29671   3.30143   3.30650   3.31330   3.31463
 Alpha virt. eigenvalues --    3.32734   3.37688   3.39414   3.43631   3.50474
 Alpha virt. eigenvalues --    3.51078   3.52489   3.55945   3.56268   3.91440
 Alpha virt. eigenvalues --    3.96866   3.97072   4.08494   4.37936   4.40468
 Alpha virt. eigenvalues --    4.42740   4.59197   4.62625   4.67270
          Condensed to atoms (all electrons):
               1          2          3          4          5          6
     1  N    6.824158   0.288850  -0.040909  -0.004748   0.000123   0.000002
     2  C    0.288850   4.855400   0.360281  -0.044519   0.003587  -0.000305
     3  C   -0.040909   0.360281   4.764110   0.232572  -0.033732  -0.007102
     4  O   -0.004748  -0.044519   0.232572   8.256683   0.253380  -0.049103
     5  C    0.000123   0.003587  -0.033732   0.253380   4.757400   0.351907
     6  C    0.000002  -0.000305  -0.007102  -0.049103   0.351907   4.839548
     7  O   -0.000001   0.000317   0.000520   0.001202  -0.040956   0.222000
     8  C    0.000000  -0.000004  -0.000216  -0.000134   0.004416  -0.031283
     9  C   -0.000000   0.000000   0.000012  -0.000000  -0.000068  -0.005897
    10  N   -0.000000   0.000000  -0.000000   0.000000  -0.000022   0.000316
    11  H    0.339042  -0.046142  -0.014248   0.019201  -0.000317   0.000061
    12  H    0.340958  -0.032861   0.004987   0.000047   0.000011  -0.000000
    13  H   -0.056933   0.376160  -0.034260  -0.000829  -0.000089  -0.000050
    14  H   -0.044113   0.377673  -0.026736   0.002815  -0.000154   0.000013
    15  H    0.000031  -0.034731   0.358609  -0.040148  -0.009465  -0.002346
    16  H    0.003822  -0.038339   0.372430  -0.040456  -0.003819   0.005625
    17  H    0.000014  -0.000227   0.005811  -0.034882   0.382154  -0.039449
    18  H   -0.000067   0.000358  -0.011659  -0.036780   0.363875  -0.048373
    19  H    0.000000  -0.000122  -0.000026   0.000455  -0.032917   0.361299
    20  H   -0.000000   0.000014   0.000293   0.003308  -0.029232   0.352220
    21  H    0.000000  -0.000003   0.000007   0.000003  -0.000235   0.005176
    22  H    0.000000   0.000001   0.000037  -0.000028   0.000231  -0.010972
    23  H    0.000000  -0.000000  -0.000000   0.000000   0.000001   0.000204
    24  H   -0.000000  -0.000000  -0.000001   0.000000  -0.000076   0.000439
    25  H    0.000000  -0.000000  -0.000001  -0.000000  -0.000136   0.000158
    26  H   -0.000000   0.000000   0.000000  -0.000000  -0.000002  -0.000018
               7          8          9         10         11         12
     1  N   -0.000001   0.000000  -0.000000  -0.000000   0.339042   0.340958
     2  C    0.000317  -0.000004   0.000000   0.000000  -0.046142  -0.032861
     3  C    0.000520  -0.000216   0.000012  -0.000000  -0.014248   0.004987
     4  O    0.001202  -0.000134  -0.000000   0.000000   0.019201   0.000047
     5  C   -0.040956   0.004416  -0.000068  -0.000022  -0.000317   0.000011
     6  C    0.222000  -0.031283  -0.005897   0.000316   0.000061  -0.000000
     7  O    8.261648   0.241239  -0.046875  -0.006877  -0.000001   0.000000
     8  C    0.241239   4.751998   0.362019  -0.044479   0.000000  -0.000000
     9  C   -0.046875   0.362019   4.866751   0.298483  -0.000000   0.000000
    10  N   -0.006877  -0.044479   0.298483   6.821139  -0.000000   0.000000
    11  H   -0.000001   0.000000  -0.000000  -0.000000   0.481305  -0.032857
    12  H    0.000000  -0.000000   0.000000   0.000000  -0.032857   0.476922
    13  H   -0.000001   0.000000  -0.000000  -0.000000  -0.002201  -0.006776
    14  H   -0.000001   0.000000  -0.000000  -0.000000   0.006775  -0.001320
    15  H    0.000654  -0.000049  -0.000001  -0.000000  -0.000611  -0.000123
    16  H    0.006511   0.001099   0.000039   0.000001   0.000654  -0.000227
    17  H    0.002737  -0.000185   0.000010  -0.000000  -0.000059  -0.000001
    18  H    0.000785  -0.000179  -0.000043  -0.000012   0.000007  -0.000001
    19  H   -0.040292  -0.010214  -0.001421  -0.000007   0.000002  -0.000000
    20  H   -0.041509  -0.002718   0.003691   0.000567  -0.000001  -0.000000
    21  H   -0.037102   0.382125  -0.047721   0.000973  -0.000000  -0.000000
    22  H   -0.031855   0.368717  -0.045059   0.003577   0.000000   0.000000
    23  H    0.003241  -0.024491   0.368735  -0.046651   0.000000  -0.000000
    24  H   -0.004674  -0.033648   0.381384  -0.057192  -0.000000   0.000000
    25  H    0.019611  -0.014176  -0.045028   0.336622  -0.000000  -0.000000
    26  H    0.000019   0.004730  -0.032993   0.343260   0.000000   0.000000
              13         14         15         16         17         18
     1  N   -0.056933  -0.044113   0.000031   0.003822   0.000014  -0.000067
     2  C    0.376160   0.377673  -0.034731  -0.038339  -0.000227   0.000358
     3  C   -0.034260  -0.026736   0.358609   0.372430   0.005811  -0.011659
     4  O   -0.000829   0.002815  -0.040148  -0.040456  -0.034882  -0.036780
     5  C   -0.000089  -0.000154  -0.009465  -0.003819   0.382154   0.363875
     6  C   -0.000050   0.000013  -0.002346   0.005625  -0.039449  -0.048373
     7  O   -0.000001  -0.000001   0.000654   0.006511   0.002737   0.000785
     8  C    0.000000   0.000000  -0.000049   0.001099  -0.000185  -0.000179
     9  C   -0.000000  -0.000000  -0.000001   0.000039   0.000010  -0.000043
    10  N   -0.000000  -0.000000  -0.000000   0.000001  -0.000000  -0.000012
    11  H   -0.002201   0.006775  -0.000611   0.000654  -0.000059   0.000007
    12  H   -0.006776  -0.001320  -0.000123  -0.000227  -0.000001  -0.000001
    13  H    0.674460  -0.045047   0.007331  -0.003542   0.000005   0.000043
    14  H   -0.045047   0.626448  -0.003139  -0.000424   0.000003   0.000009
    15  H    0.007331  -0.003139   0.665567  -0.048694   0.000106   0.015061
    16  H   -0.003542  -0.000424  -0.048694   0.644061  -0.000234  -0.001812
    17  H    0.000005   0.000003   0.000106  -0.000234   0.602035  -0.033428
    18  H    0.000043   0.000009   0.015061  -0.001812  -0.033428   0.637350
    19  H    0.000030   0.000002   0.000387  -0.001277   0.000029   0.006307
    20  H   -0.000000  -0.000000   0.000044  -0.000012  -0.000870   0.000368
    21  H    0.000000  -0.000000   0.000005  -0.000181   0.000004   0.000003
    22  H   -0.000000   0.000000  -0.000002  -0.000021   0.000009   0.000039
    23  H    0.000000  -0.000000  -0.000000  -0.000001  -0.000000   0.000001
    24  H    0.000000  -0.000000   0.000000  -0.000001   0.000009   0.000004
    25  H    0.000000   0.000000   0.000006  -0.000008  -0.000001   0.000286
    26  H   -0.000000   0.000000  -0.000000   0.000000   0.000000   0.000000
              19         20         21         22         23         24
     1  N    0.000000  -0.000000   0.000000   0.000000   0.000000  -0.000000
     2  C   -0.000122   0.000014  -0.000003   0.000001  -0.000000  -0.000000
     3  C   -0.000026   0.000293   0.000007   0.000037  -0.000000  -0.000001
     4  O    0.000455   0.003308   0.000003  -0.000028   0.000000   0.000000
     5  C   -0.032917  -0.029232  -0.000235   0.000231   0.000001  -0.000076
     6  C    0.361299   0.352220   0.005176  -0.010972   0.000204   0.000439
     7  O   -0.040292  -0.041509  -0.037102  -0.031855   0.003241  -0.004674
     8  C   -0.010214  -0.002718   0.382125   0.368717  -0.024491  -0.033648
     9  C   -0.001421   0.003691  -0.047721  -0.045059   0.368735   0.381384
    10  N   -0.000007   0.000567   0.000973   0.003577  -0.046651  -0.057192
    11  H    0.000002  -0.000001  -0.000000   0.000000   0.000000  -0.000000
    12  H   -0.000000  -0.000000  -0.000000   0.000000  -0.000000   0.000000
    13  H    0.000030  -0.000000   0.000000  -0.000000   0.000000   0.000000
    14  H    0.000002  -0.000000  -0.000000   0.000000  -0.000000  -0.000000
    15  H    0.000387   0.000044   0.000005  -0.000002  -0.000000   0.000000
    16  H   -0.001277  -0.000012  -0.000181  -0.000021  -0.000001  -0.000001
    17  H    0.000029  -0.000870   0.000004   0.000009  -0.000000   0.000009
    18  H    0.006307   0.000368   0.000003   0.000039   0.000001   0.000004
    19  H    0.645291  -0.047947   0.000301   0.012854   0.000057   0.000106
    20  H   -0.047947   0.658544  -0.000283  -0.001827  -0.000427   0.002812
    21  H    0.000301  -0.000283   0.619711  -0.035780  -0.002962   0.006430
    22  H    0.012854  -0.001827  -0.035780   0.638980   0.000373  -0.002056
    23  H    0.000057  -0.000427  -0.002962   0.000373   0.636524  -0.046314
    24  H    0.000106   0.002812   0.006430  -0.002056  -0.046314   0.666588
    25  H    0.000154  -0.000785  -0.000044   0.000685   0.006946  -0.001515
    26  H    0.000000   0.000013  -0.000084  -0.000227  -0.000879  -0.006809
              25         26
     1  N    0.000000  -0.000000
     2  C   -0.000000   0.000000
     3  C   -0.000001   0.000000
     4  O   -0.000000  -0.000000
     5  C   -0.000136  -0.000002
     6  C    0.000158  -0.000018
     7  O    0.019611   0.000019
     8  C   -0.014176   0.004730
     9  C   -0.045028  -0.032993
    10  N    0.336622   0.343260
    11  H   -0.000000   0.000000
    12  H   -0.000000   0.000000
    13  H    0.000000  -0.000000
    14  H    0.000000   0.000000
    15  H    0.000006  -0.000000
    16  H   -0.000008   0.000000
    17  H   -0.000001   0.000000
    18  H    0.000286   0.000000
    19  H    0.000154   0.000000
    20  H   -0.000785   0.000013
    21  H   -0.000044  -0.000084
    22  H    0.000685  -0.000227
    23  H    0.006946  -0.000879
    24  H   -0.001515  -0.006809
    25  H    0.480841  -0.032514
    26  H   -0.032514   0.472335
 Mulliken charges:
               1
     1  N   -0.650229
     2  C   -0.065387
     3  C    0.069222
     4  O   -0.518039
     5  C    0.034134
     6  C    0.055930
     7  O   -0.510341
     8  C    0.045432
     9  C   -0.056016
    10  N   -0.649698
    11  H    0.249393
    12  H    0.251239
    13  H    0.091699
    14  H    0.107197
    15  H    0.091508
    16  H    0.104804
    17  H    0.116410
    18  H    0.107858
    19  H    0.106945
    20  H    0.103738
    21  H    0.109656
    22  H    0.102323
    23  H    0.105642
    24  H    0.094511
    25  H    0.248900
    26  H    0.253169
 Sum of Mulliken charges =  -0.00000
 Mulliken charges with hydrogens summed into heavy atoms:
               1
     1  N   -0.149597
     2  C    0.133510
     3  C    0.265534
     4  O   -0.518039
     5  C    0.258401
     6  C    0.266613
     7  O   -0.510341
     8  C    0.257411
     9  C    0.144137
    10  N   -0.147629
 APT charges:
               1
     1  N   -1.402586
     2  C   -0.632338
     3  C   -0.275825
     4  O   -0.437640
     5  C   -0.644328
     6  C   -0.523169
     7  O   -0.448580
     8  C   -0.614033
     9  C   -0.789348
    10  N   -0.951333
    11  H    0.236987
    12  H    1.018256
    13  H    0.409932
    14  H    0.484980
    15  H    0.240865
    16  H    0.173037
    17  H    0.524032
    18  H    0.283067
    19  H    0.314595
    20  H    0.426863
    21  H    0.411638
    22  H    0.343464
    23  H    0.694549
    24  H    0.282754
    25  H   -0.009008
    26  H    0.883172
 Sum of APT charges =  -0.00000
 APT charges with hydrogens summed into heavy atoms:
               1
     1  N   -0.147342
     2  C    0.262574
     3  C    0.138077
     4  O   -0.437640
     5  C    0.162770
     6  C    0.218289
     7  O   -0.448580
     8  C    0.141068
     9  C    0.187955
    10  N   -0.077169
 Electronic spatial extent (au):  <R**2>=           2679.5390
 Charge=             -0.0000 electrons
 Dipole moment (field-independent basis, Debye):
    X=              1.3731    Y=              2.2887    Z=             -2.1546  Tot=              3.4301
 Quadrupole moment (field-independent basis, Debye-Ang):
   XX=            -62.0637   YY=            -60.7109   ZZ=            -63.5496
   XY=              7.2815   XZ=              2.7105   YZ=              4.8549
 Traceless Quadrupole moment (field-independent basis, Debye-Ang):
   XX=              0.0444   YY=              1.3971   ZZ=             -1.4415
   XY=              7.2815   XZ=              2.7105   YZ=              4.8549
 Octapole moment (field-independent basis, Debye-Ang**2):
  XXX=            -19.4400  YYY=              8.0304  ZZZ=             -0.2320  XYY=             -8.8647
  XXY=             30.1737  XXZ=            -36.1693  XZZ=             14.8931  YZZ=              5.1767
  YYZ=             -2.0687  XYZ=              5.8787
 Hexadecapole moment (field-independent basis, Debye-Ang**3):
 XXXX=          -2637.2772 YYYY=           -332.9589 ZZZZ=           -219.5498 XXXY=             98.6997
 XXXZ=            116.9884 YYYX=              3.3392 YYYZ=              3.8704 ZZZX=             30.0765
 ZZZY=              6.8941 XXYY=           -553.0656 XXZZ=           -558.1107 YYZZ=           -101.7637
 XXYZ=             74.3518 YYXZ=            -10.7592 ZZXY=              4.6706
 N-N= 5.714562651215D+02 E-N=-2.304526695562D+03  KE= 4.935897378536D+02
  Exact polarizability:   0.000   0.000   0.000   0.000   0.000   0.000
 Approx polarizability: 118.368   0.584 113.896   0.176   1.443 108.841
 D2PCM: PCM CHGder 2nd derivatives, FixD1E=F FixD2E=F DoIter=F DoCFld=F I1PDM=0
 Calling FoFJK, ICntrl=    100147 FMM=F ISym2X=0 I1Cent= 0 IOpClX= 0 NMat=1 NMatS=1 NMatT=0.
 ***** Axes restored to original set *****
 -------------------------------------------------------------------
 Center     Atomic                   Forces (Hartrees/Bohr)
 Number     Number              X              Y              Z
 -------------------------------------------------------------------
      1        7          -0.001206569    0.010438097   -0.004584714
      2        6           0.003309448    0.008016441    0.009283655
      3        6           0.009767072   -0.009320518    0.004511023
      4        8          -0.001180717    0.003315429   -0.005894659
      5        6           0.005109327   -0.008773006    0.006585415
      6        6          -0.001140831    0.006386218   -0.012013039
      7        8          -0.000799534   -0.004579915    0.000065785
      8        6          -0.004655325    0.004291647   -0.002224464
      9        6           0.003059626    0.007144430   -0.000384738
     10        7           0.003089266   -0.003615113   -0.012901946
     11        1           0.002186683   -0.003315666   -0.001888352
     12        1          -0.000763499    0.001033624    0.000234220
     13        1          -0.007756457   -0.008417972    0.001573048
     14        1          -0.002795693   -0.000957333   -0.000517715
     15        1          -0.000933160    0.001105039   -0.001333194
     16        1          -0.002045353    0.000313517   -0.003790180
     17        1           0.000236958   -0.000671539    0.000266391
     18        1          -0.004371997    0.000248887   -0.001694665
     19        1           0.001137342    0.000727828    0.003619208
     20        1          -0.000425634    0.001499558    0.005291778
     21        1           0.001148062    0.002286475   -0.001370313
     22        1          -0.000763681    0.000252375    0.002332879
     23        1           0.000306186   -0.002334713    0.001698325
     24        1           0.001295778   -0.004777592    0.010284422
     25        1          -0.003783178    0.000296577    0.002873130
     26        1           0.001975878   -0.000592776   -0.000021302
 -------------------------------------------------------------------
 Cartesian Forces:  Max     0.012901946 RMS     0.004565580
 FormGI is forming the generalized inverse of G from B-inverse, IUseBI=4.

 GradGradGradGradGradGradGradGradGradGradGradGradGradGradGradGradGradGrad
 Berny optimization.
 Internal  Forces:  Max     0.010123359 RMS     0.003234817
 Search for a local minimum.
 Step number   1 out of a maximum of  130
 All quantities printed in internal units (Hartrees-Bohrs-Radians)
 Mixed Optimization -- RFO/linear search
 Second derivative matrix not updated -- analytic derivatives used.
 ITU=  0
     Eigenvalues ---    0.00167   0.00211   0.00250   0.00288   0.00345
     Eigenvalues ---    0.00386   0.00409   0.00717   0.00744   0.03270
     Eigenvalues ---    0.03569   0.04346   0.04347   0.04659   0.04714
     Eigenvalues ---    0.04801   0.04902   0.04956   0.05005   0.05576
     Eigenvalues ---    0.06118   0.06311   0.06880   0.08173   0.08203
     Eigenvalues ---    0.09647   0.09702   0.10121   0.10159   0.11616
     Eigenvalues ---    0.11703   0.12401   0.12947   0.13064   0.13255
     Eigenvalues ---    0.15033   0.15287   0.16620   0.16765   0.20937
     Eigenvalues ---    0.21817   0.22128   0.23180   0.23907   0.24376
     Eigenvalues ---    0.25259   0.25689   0.28111   0.28442   0.29063
     Eigenvalues ---    0.31153   0.31460   0.32180   0.32396   0.33082
     Eigenvalues ---    0.33173   0.33249   0.33373   0.33442   0.33483
     Eigenvalues ---    0.33880   0.34332   0.35635   0.36003   0.36995
     Eigenvalues ---    0.37259   0.40490   0.43160   0.43335   0.44459
     Eigenvalues ---    0.44524   0.45801
 RFO step:  Lambda=-7.99311310D-03 EMin= 1.67398824D-03
 Linear search not attempted -- first point.
 Iteration  1 RMS(Cart)=  0.05639457 RMS(Int)=  0.00179212
 Iteration  2 RMS(Cart)=  0.00269565 RMS(Int)=  0.00025376
 Iteration  3 RMS(Cart)=  0.00000527 RMS(Int)=  0.00025372
 Iteration  4 RMS(Cart)=  0.00000000 RMS(Int)=  0.00025372
 Variable       Old X    -DE/DX   Delta X   Delta X   Delta X     New X
                                 (Linear)    (Quad)   (Total)
    R1        2.77284   0.00650   0.00000   0.00336   0.00336   2.77620
    R2        1.93329  -0.00394   0.00000  -0.00820  -0.00820   1.92509
    R3        1.92401  -0.00105   0.00000  -0.00071  -0.00071   1.92330
    R4        2.89863  -0.00942   0.00000  -0.02902  -0.02902   2.86961
    R5        2.07054   0.00426   0.00000   0.01312   0.01312   2.08366
    R6        2.06773   0.00085   0.00000   0.00438   0.00438   2.07211
    R7        2.70997  -0.00236   0.00000  -0.00895  -0.00895   2.70102
    R8        2.07164   0.00188   0.00000   0.00839   0.00839   2.08003
    R9        2.06771   0.00097   0.00000   0.00378   0.00378   2.07149
   R10        2.70673  -0.00228   0.00000  -0.02201  -0.02201   2.68471
   R11        2.89370  -0.00457   0.00000  -0.01606  -0.01606   2.87764
   R12        2.06918  -0.00017   0.00000  -0.00016  -0.00016   2.06902
   R13        2.07101   0.00191   0.00000   0.00863   0.00863   2.07964
   R14        2.70516   0.00001   0.00000  -0.01219  -0.01219   2.69297
   R15        2.07025   0.00200   0.00000   0.00919   0.00919   2.07944
   R16        2.06759   0.00326   0.00000   0.01114   0.01114   2.07873
   R17        2.70898  -0.00303   0.00000  -0.00795  -0.00795   2.70103
   R18        2.90282  -0.00699   0.00000  -0.02032  -0.02032   2.88251
   R19        2.07088  -0.00035   0.00000  -0.00158  -0.00158   2.06930
   R20        2.07135   0.00165   0.00000   0.00567   0.00567   2.07702
   R21        2.76689   0.00608   0.00000   0.00802   0.00802   2.77492
   R22        2.06816   0.00143   0.00000   0.00514   0.00514   2.07330
   R23        2.06776   0.00504   0.00000   0.01511   0.01511   2.08288
   R24        1.93219  -0.00383   0.00000  -0.00647  -0.00647   1.92572
   R25        1.92369  -0.00174   0.00000  -0.00088  -0.00088   1.92281
    A1        1.86996   0.00043   0.00000  -0.00079  -0.00079   1.86917
    A2        1.90456   0.00060   0.00000   0.00311   0.00311   1.90767
    A3        1.85438  -0.00115   0.00000  -0.01140  -0.01140   1.84298
    A4        1.94335  -0.00555   0.00000  -0.01801  -0.01818   1.92517
    A5        1.89057   0.00969   0.00000   0.08498   0.08493   1.97550
    A6        1.90595   0.00185   0.00000   0.00185   0.00105   1.90700
    A7        1.90797  -0.00323   0.00000  -0.01699  -0.01735   1.89063
    A8        1.92200  -0.00096   0.00000  -0.02936  -0.02985   1.89216
    A9        1.89306  -0.00154   0.00000  -0.02081  -0.02205   1.87101
   A10        1.89718  -0.00642   0.00000  -0.02043  -0.02061   1.87658
   A11        1.92430   0.00113   0.00000  -0.00312  -0.00334   1.92096
   A12        1.89621   0.00307   0.00000   0.03238   0.03239   1.92860
   A13        1.92812   0.00082   0.00000  -0.01112  -0.01133   1.91679
   A14        1.90830   0.00373   0.00000   0.02593   0.02595   1.93425
   A15        1.90935  -0.00226   0.00000  -0.02249  -0.02238   1.88696
   A16        1.97327   0.01012   0.00000   0.03906   0.03906   2.01233
   A17        1.97177   0.00758   0.00000   0.02804   0.02813   1.99990
   A18        1.84460  -0.00256   0.00000   0.00077   0.00070   1.84530
   A19        1.91582   0.00029   0.00000   0.01489   0.01522   1.93104
   A20        1.89312  -0.00149   0.00000  -0.00404  -0.00433   1.88879
   A21        1.95063  -0.00581   0.00000  -0.04330  -0.04342   1.90722
   A22        1.88261   0.00198   0.00000   0.00507   0.00464   1.88726
   A23        1.91555  -0.00097   0.00000  -0.00249  -0.00252   1.91303
   A24        1.92156  -0.00187   0.00000  -0.01190  -0.01199   1.90957
   A25        1.90077  -0.00040   0.00000  -0.00364  -0.00386   1.89692
   A26        1.91134   0.00168   0.00000   0.01105   0.01104   1.92238
   A27        1.89899   0.00292   0.00000   0.03718   0.03713   1.93612
   A28        1.91544  -0.00132   0.00000  -0.02978  -0.03011   1.88534
   A29        1.97535   0.00420   0.00000   0.02066   0.02066   1.99601
   A30        1.95103   0.00315   0.00000   0.01344   0.01346   1.96449
   A31        1.86730  -0.00272   0.00000  -0.02313  -0.02310   1.84419
   A32        1.92668   0.00019   0.00000   0.00187   0.00188   1.92856
   A33        1.91140  -0.00037   0.00000  -0.00396  -0.00392   1.90748
   A34        1.93410  -0.00208   0.00000  -0.00781  -0.00782   1.92627
   A35        1.87031   0.00176   0.00000   0.01932   0.01933   1.88964
   A36        1.94208  -0.00824   0.00000  -0.02693  -0.02706   1.91502
   A37        1.91646   0.00004   0.00000  -0.02844  -0.02886   1.88760
   A38        1.92262  -0.00199   0.00000  -0.01037  -0.01039   1.91223
   A39        1.90379   0.00270   0.00000   0.00643   0.00540   1.90919
   A40        1.89366   0.00994   0.00000   0.08156   0.08147   1.97513
   A41        1.88409  -0.00215   0.00000  -0.02081  -0.02193   1.86215
   A42        1.88924  -0.00131   0.00000  -0.01731  -0.01746   1.87178
   A43        1.91674  -0.00039   0.00000  -0.00565  -0.00579   1.91095
   A44        1.86486  -0.00081   0.00000  -0.02032  -0.02064   1.84422
    D1        0.86305   0.00165   0.00000   0.07012   0.07026   0.93331
    D2       -1.23546   0.00278   0.00000   0.04728   0.04740  -1.18806
    D3        2.98920  -0.00193   0.00000   0.02274   0.02248   3.01168
    D4        2.86383   0.00083   0.00000   0.05792   0.05806   2.92189
    D5        0.76531   0.00196   0.00000   0.03508   0.03520   0.80051
    D6       -1.29321  -0.00275   0.00000   0.01054   0.01028  -1.28293
    D7       -1.10889  -0.00109   0.00000  -0.00999  -0.00979  -1.11868
    D8        1.00701  -0.00346   0.00000  -0.03864  -0.03834   0.96867
    D9        3.09924  -0.00365   0.00000  -0.04798  -0.04775   3.05149
   D10        0.97933   0.00538   0.00000   0.07331   0.07297   1.05230
   D11        3.09523   0.00300   0.00000   0.04466   0.04443   3.13966
   D12       -1.09573   0.00282   0.00000   0.03532   0.03502  -1.06071
   D13        3.05749   0.00092   0.00000   0.01964   0.01964   3.07713
   D14       -1.10980  -0.00145   0.00000  -0.00902  -0.00891  -1.11871
   D15        0.98243  -0.00164   0.00000  -0.01835  -0.01832   0.96411
   D16        2.94216  -0.00148   0.00000  -0.01111  -0.01100   2.93117
   D17        0.82861   0.00072   0.00000   0.01273   0.01255   0.84116
   D18       -1.27357   0.00063   0.00000   0.03095   0.03101  -1.24256
   D19        1.27417   0.00024   0.00000   0.04375   0.04382   1.31799
   D20       -2.94162   0.00096   0.00000   0.05473   0.05479  -2.88683
   D21       -0.91572   0.00204   0.00000   0.06834   0.06820  -0.84752
   D22       -1.43962   0.00056   0.00000   0.05177   0.05188  -1.38775
   D23        0.66552   0.00084   0.00000   0.05634   0.05638   0.72189
   D24        2.76640  -0.00218   0.00000   0.01022   0.01042   2.77682
   D25        2.80463   0.00023   0.00000   0.03691   0.03701   2.84165
   D26       -1.37341   0.00051   0.00000   0.04148   0.04151  -1.33190
   D27        0.72747  -0.00251   0.00000  -0.00464  -0.00445   0.72303
   D28        0.73136   0.00223   0.00000   0.05925   0.05901   0.79038
   D29        2.83651   0.00251   0.00000   0.06381   0.06351   2.90002
   D30       -1.34580  -0.00051   0.00000   0.01770   0.01755  -1.32824
   D31        3.08901  -0.00079   0.00000  -0.01631  -0.01642   3.07259
   D32        0.97769   0.00107   0.00000  -0.00704  -0.00697   0.97072
   D33       -1.11592  -0.00010   0.00000   0.00012   0.00016  -1.11576
   D34        1.43913   0.00002   0.00000  -0.01905  -0.01901   1.42012
   D35       -2.75166  -0.00033   0.00000  -0.03080  -0.03082  -2.78247
   D36       -0.72225   0.00033   0.00000  -0.01994  -0.01997  -0.74222
   D37        1.05630   0.00152   0.00000   0.01002   0.00976   1.06607
   D38       -3.11736  -0.00043   0.00000  -0.01849  -0.01840  -3.13577
   D39       -1.04460  -0.00426   0.00000  -0.06794  -0.06775  -1.11236
   D40       -1.01000   0.00319   0.00000   0.03299   0.03273  -0.97727
   D41        1.09952   0.00124   0.00000   0.00449   0.00457   1.10408
   D42       -3.11091  -0.00259   0.00000  -0.04497  -0.04478   3.12749
   D43       -3.06968   0.00251   0.00000   0.01643   0.01616  -3.05352
   D44       -0.96016   0.00055   0.00000  -0.01208  -0.01201  -0.97216
   D45        1.11260  -0.00328   0.00000  -0.06153  -0.06135   1.05125
   D46       -0.80515  -0.00226   0.00000  -0.09276  -0.09270  -0.89785
   D47       -2.83514  -0.00034   0.00000  -0.05560  -0.05572  -2.89087
   D48       -2.92209   0.00118   0.00000  -0.04422  -0.04380  -2.96589
   D49        1.33110   0.00309   0.00000  -0.00706  -0.00682   1.32428
   D50        1.31276  -0.00335   0.00000  -0.06880  -0.06900   1.24375
   D51       -0.71723  -0.00144   0.00000  -0.03164  -0.03203  -0.74926
         Item               Value     Threshold  Converged?
 Maximum Force            0.010123     0.000450     NO 
 RMS     Force            0.003235     0.000300     NO 
 Maximum Displacement     0.245074     0.001800     NO 
 RMS     Displacement     0.056235     0.001200     NO 
 Predicted change in Energy=-4.479207D-03
 GradGradGradGradGradGradGradGradGradGradGradGradGradGradGradGradGradGrad

                          Input orientation:                          
 ---------------------------------------------------------------------
 Center     Atomic      Atomic             Coordinates (Angstroms)
 Number     Number       Type             X           Y           Z
 ---------------------------------------------------------------------
      1          7           0        4.329146    0.141803   -0.573169
      2          6           0        3.344469   -0.945526   -0.493225
      3          6           0        1.937442   -0.378337   -0.426021
      4          8           0        1.829569    0.361719    0.792023
      5          6           0        0.676295    1.183950    0.902726
      6          6           0       -0.613552    0.429878    1.196903
      7          8           0       -1.113508   -0.149661   -0.005168
      8          6           0       -2.278703   -0.958634    0.170483
      9          6           0       -3.558634   -0.132387    0.246684
     10          7           0       -3.741633    0.614352   -1.004378
     11          1           0        4.145322    0.770265    0.207233
     12          1           0        5.260175   -0.234648   -0.407877
     13          1           0        3.494747   -1.604132    0.378234
     14          1           0        3.423106   -1.571440   -1.390103
     15          1           0        1.757096    0.286907   -1.284206
     16          1           0        1.196258   -1.185309   -0.458658
     17          1           0        0.874583    1.862293    1.738959
     18          1           0        0.543464    1.790269   -0.006025
     19          1           0       -0.416380   -0.354981    1.942547
     20          1           0       -1.342335    1.132627    1.627089
     21          1           0       -2.320963   -1.610908   -0.708058
     22          1           0       -2.177474   -1.590443    1.064135
     23          1           0       -4.401717   -0.820341    0.386884
     24          1           0       -3.527144    0.515556    1.137777
     25          1           0       -2.872004    1.112533   -1.188827
     26          1           0       -4.447624    1.334593   -0.869660
 ---------------------------------------------------------------------
                    Distance matrix (angstroms):
                    1          2          3          4          5
     1  N    0.000000
     2  C    1.469103   0.000000
     3  C    2.452029   1.518533   0.000000
     4  O    2.856571   2.378166   1.429318   0.000000
     5  C    4.075250   3.688156   2.407654   1.420690   0.000000
     6  C    5.257986   4.518207   3.129643   2.477381   1.522783
     7  O    5.479969   4.554685   3.088317   3.091719   2.409602
     8  C    6.740004   5.662220   4.297492   4.359764   3.722749
     9  C    7.935012   6.990099   5.542551   5.438223   4.483052
    10  N    8.096093   7.273742   5.794119   5.859110   4.845572
    11  H    1.018716   2.018896   2.568078   2.423138   3.562161
    12  H    1.017767   2.045132   3.325888   3.682998   4.974139
    13  H    2.156311   1.102627   2.138831   2.609331   3.999020
    14  H    2.103209   1.096514   2.135451   3.322370   4.515995
    15  H    2.672466   2.159698   1.100707   2.078840   2.599132
    16  H    3.404310   2.161828   1.096185   2.087721   2.781566
    17  H    4.498893   4.355092   3.291995   2.015045   1.094876
    18  H    4.167792   3.945576   2.611977   2.081274   1.100498
    19  H    5.394038   4.519481   3.339332   2.623291   2.154872
    20  H    6.163487   5.548024   4.153939   3.369363   2.145274
    21  H    6.878528   5.708415   4.442161   4.834090   4.403341
    22  H    6.929470   5.773486   4.541178   4.465577   3.983378
    23  H    8.836028   7.797028   6.406334   6.355339   5.483564
    24  H    8.049120   7.212072   5.753800   5.370064   4.262734
    25  H    7.292319   6.585134   5.092674   5.156770   4.119480
    26  H    8.862412   8.127567   6.625708   6.565883   5.423891
                    6          7          8          9         10
     6  C    0.000000
     7  O    1.425060   0.000000
     8  C    2.398798   1.429325   0.000000
     9  C    3.145244   2.458123   1.525357   0.000000
    10  N    3.829433   2.913619   2.448417   1.468422   0.000000
    11  H    4.872596   5.342908   6.652709   7.756756   7.981000
    12  H    6.125160   6.386958   7.595613   8.843658   9.061410
    13  H    4.656773   4.847524   5.813136   7.206491   7.694054
    14  H    5.195430   4.951805   5.943197   7.314003   7.500664
    15  H    3.434576   3.172837   4.467120   5.547649   5.515572
    16  H    2.936856   2.571622   3.538722   4.920889   5.283877
    17  H    2.135459   3.323017   4.512312   5.085179   5.512958
    18  H    2.153226   2.551252   3.943634   4.537364   4.554288
    19  H    1.100394   2.078879   2.640617   3.577605   4.547668
    20  H    1.100018   2.088274   2.715117   2.901337   3.598591
    21  H    3.272452   2.021694   1.095026   2.151601   2.656669
    22  H    2.558354   2.085973   1.099111   2.168353   3.403889
    23  H    4.070549   3.378733   2.138491   1.097145   2.104678
    24  H    2.915451   2.752177   2.160439   1.102211   2.155132
    25  H    3.355343   2.467081   2.547441   2.020390   1.019048
    26  H    4.448516   3.750558   3.323402   2.046597   1.017507
                   11         12         13         14         15
    11  H    0.000000
    12  H    1.622069   0.000000
    13  H    2.467843   2.368585   0.000000
    14  H    2.925176   2.475197   1.770090   0.000000
    15  H    2.856859   3.648498   3.059276   2.498051   0.000000
    16  H    3.600646   4.173938   2.481703   2.444492   1.778620
    17  H    3.773121   5.314084   4.553343   5.298729   3.521392
    18  H    3.749569   5.148703   4.514387   4.637791   2.316625
    19  H    5.008654   6.145100   4.393674   5.227618   3.943090
    20  H    5.679936   7.042987   5.696213   6.254987   4.335591
    21  H    6.951301   7.710892   5.916296   5.784555   4.534779
    22  H    6.803305   7.702183   5.713557   6.114748   4.951766
    23  H    8.695641   9.712201   7.935272   8.059138   6.476845
    24  H    7.732886   8.953705   7.374072   7.684512   5.817343
    25  H    7.163029   8.279922   7.097285   6.846359   4.703118
    26  H    8.678529   9.844649   8.560058   8.406205   6.306191
                   16         17         18         19         20
    16  H    0.000000
    17  H    3.771057   0.000000
    18  H    3.079786   1.777582   0.000000
    19  H    3.009291   2.573779   3.052922   0.000000
    20  H    4.020898   2.336590   2.579882   1.780416   0.000000
    21  H    3.551645   5.316252   4.501756   3.497213   3.733311
    22  H    3.723587   4.657448   4.469671   2.323667   2.903357
    23  H    5.673224   6.071571   5.605754   4.303435   3.835624
    24  H    5.268024   4.642233   4.416223   3.329015   2.322411
    25  H    4.729057   4.813625   3.677467   4.241366   3.204633
    26  H    6.194532   5.950567   5.085712   5.197509   3.989657
                   21         22         23         24         25
    21  H    0.000000
    22  H    1.778110   0.000000
    23  H    2.480611   2.449282   0.000000
    24  H    3.063304   2.502451   1.764465   0.000000
    25  H    2.819914   3.586682   2.925558   2.489714   0.000000
    26  H    3.636589   4.177197   2.494945   2.355400   1.622885
                   26
    26  H    0.000000
 Stoichiometry    C6H16N2O2
 Framework group  C1[X(C6H16N2O2)]
 Deg. of freedom    72
 Full point group                 C1      NOp   1
 Largest Abelian subgroup         C1      NOp   1
 Largest concise Abelian subgroup C1      NOp   1
                         Standard orientation:                         
 ---------------------------------------------------------------------
 Center     Atomic      Atomic             Coordinates (Angstroms)
 Number     Number       Type             X           Y           Z
 ---------------------------------------------------------------------
      1          7           0       -4.261574   -0.220132    0.586248
      2          6           0       -3.311870   -0.970767   -0.246143
      3          6           0       -1.885807   -0.575269    0.094253
      4          8           0       -1.728458    0.803627   -0.247563
      5          6           0       -0.546642    1.419966    0.244166
      6          6           0        0.723418    1.044754   -0.507522
      7          8           0        1.179063   -0.232316   -0.069030
      8          6           0        2.320307   -0.725262   -0.774393
      9          6           0        3.628104   -0.135221   -0.256481
     10          7           0        3.809783   -0.496019    1.155284
     11          1           0       -4.041044    0.768201    0.475131
     12          1           0       -5.200907   -0.334688    0.211574
     13          1           0       -3.465780   -0.816578   -1.327033
     14          1           0       -3.429612   -2.043445   -0.051608
     15          1           0       -1.701359   -0.716538    1.170161
     16          1           0       -1.172486   -1.197624   -0.458438
     17          1           0       -0.705138    2.497486    0.131995
     18          1           0       -0.412660    1.203124    1.314738
     19          1           0        0.515887    1.022613   -1.587942
     20          1           0        1.483715    1.817971   -0.322795
     21          1           0        2.322880   -1.808251   -0.612499
     22          1           0        2.216751   -0.538311   -1.852525
     23          1           0        4.450742   -0.555287   -0.848544
     24          1           0        3.636409    0.953147   -0.430419
     25          1           0        2.953445   -0.240487    1.645026
     26          1           0        4.541785    0.082037    1.561909
 ---------------------------------------------------------------------
 Rotational constants (GHZ):           3.2797987           0.4442026           0.4276213
 Standard basis: 6-31G(d,p) (6D, 7F)
 There are   230 symmetry adapted cartesian basis functions of A   symmetry.
 There are   230 symmetry adapted basis functions of A   symmetry.
   230 basis functions,   392 primitive gaussians,   230 cartesian basis functions
    41 alpha electrons       41 beta electrons
       nuclear repulsion energy       572.0719278431 Hartrees.
 NAtoms=   26 NActive=   26 NUniq=   26 SFac= 1.00D+00 NAtFMM=   60 NAOKFM=F Big=F
 Integral buffers will be    131072 words long.
 Raffenetti 2 integral format.
 Two-electron integral symmetry is turned on.
 ------------------------------------------------------------------------------
 Polarizable Continuum Model (PCM)
 =================================
 Model                : PCM.
 Atomic radii         : UFF (Universal Force Field).
 Polarization charges : Total charges.
 Charge compensation  : None.
 Solution method      : Matrix inversion.
 Cavity type          : Scaled VdW (van der Waals Surface) (Alpha=1.100).
 Cavity algorithm     : GePol (No added spheres)
                        Default sphere list used, NSphG=   26.
                        Lebedev-Laikov grids with approx.  5.0 points / Ang**2.
                        Smoothing algorithm: York/Karplus (Gamma=1.0000).
                        Polarization charges: spherical gaussians, with
                                              point-specific exponents (IZeta= 3).
                        Self-potential: point-specific (ISelfS= 7).
                        Self-field    : sphere-specific E.n sum rule (ISelfD= 2).
 1st derivatives      : Analytical E(r).r(x)/FMM algorithm (CHGder, D1EAlg=3).
                        Cavity 1st derivative terms included.
 Solvent              : Water, Eps=  78.355300 Eps(inf)=   1.777849
 ------------------------------------------------------------------------------
 One-electron integrals computed using PRISM.
 NBasis=   230 RedAO= T EigKep=  3.85D-03  NBF=   230
 NBsUse=   230 1.00D-06 EigRej= -1.00D+00 NBFU=   230
 Initial guess from the checkpoint file:  "IWBOPFCKHIJFMS-UHFFFAOYSA-N_conf_3_0.chk"
 B after Tr=    -0.000000    0.000000   -0.000000
         Rot=    0.999929   -0.011898    0.001134    0.000235 Ang=  -1.37 deg.
 ExpMin= 1.61D-01 ExpMax= 5.48D+03 ExpMxC= 8.25D+02 IAcc=2 IRadAn=         4 AccDes= 0.00D+00
 Harris functional with IExCor=  402 and IRadAn=       4 diagonalized for initial guess.
 HarFok:  IExCor=  402 AccDes= 0.00D+00 IRadAn=         4 IDoV= 1 UseB2=F ITyADJ=14
 ICtDFT=  3500011 ScaDFX=  1.000000  1.000000  1.000000  1.000000
 FoFCou: FMM=F IPFlag=           0 FMFlag=      100000 FMFlg1=           0
         NFxFlg=           0 DoJE=T BraDBF=F KetDBF=T FulRan=T
         wScrn=  0.000000 ICntrl=       500 IOpCl=  0 I1Cent=   200000004 NGrid=           0
         NMat0=    1 NMatS0=      1 NMatT0=    0 NMatD0=    1 NMtDS0=    0 NMtDT0=    0
 Petite list used in FoFCou.
 Keep R1 ints in memory in canonical form, NReq=359027606.
 Requested convergence on RMS density matrix=1.00D-08 within  32 cycles.
 Requested convergence on MAX density matrix=1.00D-06.
 Requested convergence on             energy=1.00D-06.
 No special actions if energy rises.
 Inv3:  Mode=1 IEnd=    10490700.
 Iteration    1 A*A^-1 deviation from unit magnitude is 3.33D-15 for   1485.
 Iteration    1 A*A^-1 deviation from orthogonality  is 1.72D-15 for   1400    544.
 Iteration    1 A^-1*A deviation from unit magnitude is 3.33D-15 for   1485.
 Iteration    1 A^-1*A deviation from orthogonality  is 1.67D-15 for   1768    230.
 Error on total polarization charges =  0.00901
 SCF Done:  E(RB3LYP) =  -498.212697432     A.U. after    9 cycles
            NFock=  9  Conv=0.79D-08     -V/T= 2.0093
 QCSCF skips out because SCF is already converged.
 D1PCM: PCM CHGder 1st derivatives, ID1Alg=3 FixD1E=F DoIter=F DoCFld=F I1PDM=0.
 Calling FoFJK, ICntrl=      2127 FMM=F ISym2X=0 I1Cent= 0 IOpClX= 0 NMat=1 NMatS=1 NMatT=0.
 ***** Axes restored to original set *****
 -------------------------------------------------------------------
 Center     Atomic                   Forces (Hartrees/Bohr)
 Number     Number              X              Y              Z
 -------------------------------------------------------------------
      1        7          -0.000386662    0.001118174   -0.000569344
      2        6           0.001244945    0.000333298    0.001236163
      3        6           0.000299919   -0.000328613   -0.000116033
      4        8          -0.000467723   -0.000186935   -0.000450156
      5        6           0.000347295   -0.000142907    0.000539331
      6        6          -0.000372040    0.000327864   -0.000975353
      7        8           0.000311966   -0.000658931   -0.000091094
      8        6          -0.000369827   -0.000771773   -0.000005656
      9        6           0.000020136    0.001593060    0.000068581
     10        7           0.000692763   -0.000659558   -0.001275337
     11        1           0.000471109   -0.000296649    0.000317843
     12        1           0.000063011    0.000004647   -0.000398009
     13        1          -0.000889489   -0.000763379   -0.000211293
     14        1          -0.000054409   -0.000265281    0.000059690
     15        1          -0.000072586    0.000009479   -0.000078166
     16        1          -0.000118287    0.000083325   -0.000355139
     17        1           0.000243407   -0.000022673    0.000011375
     18        1          -0.000399093    0.000267078    0.000026588
     19        1          -0.000172745    0.000369780    0.000695325
     20        1           0.000013416    0.000069886    0.000207839
     21        1          -0.000036307    0.000144700   -0.000114881
     22        1           0.000124652    0.000135120    0.000199498
     23        1          -0.000062479   -0.000039463    0.000222172
     24        1           0.000168513   -0.000877535    0.000873564
     25        1          -0.000361354    0.000732818    0.000345403
[...]
 Sum of Mulliken charges =  -0.00000
 Mulliken charges with hydrogens summed into heavy atoms:
               1
     1  N   -0.142611
     2  C    0.123674
     3  C    0.251210
     4  O   -0.511632
     5  C    0.227873
     6  C    0.132814
     7  O   -0.450001
     8  C    0.243185
     9  C    0.107712
    10  N    0.017777
 Electronic spatial extent (au):  <R**2>=           2680.9131
 Charge=              0.0000 electrons
 Dipole moment (field-independent basis, Debye):
    X=              3.4462    Y=             -0.7318    Z=             -1.4433  Tot=              3.8072
 Quadrupole moment (field-independent basis, Debye-Ang):
   XX=            -54.8043   YY=            -61.8427   ZZ=            -65.9416
   XY=             -0.9090   XZ=              4.0920   YZ=              1.0972
 Traceless Quadrupole moment (field-independent basis, Debye-Ang):
   XX=              6.0585   YY=             -0.9798   ZZ=             -5.0787
   XY=             -0.9090   XZ=              4.0920   YZ=              1.0972
 Octapole moment (field-independent basis, Debye-Ang**2):
  XXX=            -10.3313  YYY=             -2.2933  ZZZ=             -3.8447  XYY=             -9.0855
  XXY=             -8.2340  XXZ=            -34.5852  XZZ=              8.4607  YZZ=             -0.8489
  YYZ=             -0.9334  XYZ=             -4.0727
 Hexadecapole moment (field-independent basis, Debye-Ang**3):
 XXXX=          -2720.8806 YYYY=           -350.3402 ZZZZ=           -247.0755 XXXY=            -25.1442
 XXXZ=            106.5998 YYYX=            -19.3241 YYYZ=             -0.9936 ZZZX=              7.3455
 ZZZY=             -1.6125 XXYY=           -540.2316 XXZZ=           -577.2232 YYZZ=           -102.2317
 XXYZ=              7.8946 YYXZ=             -5.0221 ZZXY=             -9.7962
 N-N= 5.717769615910D+02 E-N=-2.304342316703D+03  KE= 4.938015304309D+02
 Evaluate density.
 Using the total density.
 Monte-Carlo method of calculating molar volume:
 based on  0.001 e/bohr**3 density envelope.
 Number of points per bohr**3 =   20 CutOff= 1.00D-04
 Using the CI density.
 There are       390 points.  Will hold       390 in memory.
 LenV=  1073597434 MDV=  1073741824.
 Box volume = 7457.985 fraction occupied=0.203
 Integrated density= 4.7084270627402425D+01 error=-3.4915729372597575D+01
 Molar volume = 1510.720 bohr**3/mol (134.815 cm**3/mol)
 Recommended a0 for SCRF calculation =  4.65 angstrom (  8.78 bohr)
 ******************************Gaussian NBO Version 3.1******************************
             N A T U R A L   A T O M I C   O R B I T A L   A N D
          N A T U R A L   B O N D   O R B I T A L   A N A L Y S I S
 ******************************Gaussian NBO Version 3.1******************************
       /RESON  / : Allow strongly delocalized NBO set

 Analyzing the CI density

 Job title: IWBOPFCKHIJFMS-UHFFFAOYSA-N_conf_3                              

 Storage needed:    160984 in NPA (1073738184 available)
 GSVD:  LWork=       29146 too small for GESVD, short by       17399 words or       17399 for optimal perf.


 NATURAL POPULATIONS:  Natural atomic orbital occupancies 
                                                          
   NAO  Atom  No  lang   Type(AO)    Occupancy
 --------------------------------------------
     1    N    1  S      Cor( 1S)     1.99968
     2    N    1  S      Val( 2S)     1.44844
     3    N    1  S      Ryd( 3S)     0.00064
     4    N    1  S      Ryd( 4S)     0.00001
     5    N    1  px     Val( 2p)     1.32191
     6    N    1  px     Ryd( 3p)     0.00260
     7    N    1  py     Val( 2p)     1.35570
     8    N    1  py     Ryd( 3p)     0.00217
     9    N    1  pz     Val( 2p)     1.79149
    10    N    1  pz     Ryd( 3p)     0.00552
    11    N    1  dxy    Ryd( 3d)     0.00009
    12    N    1  dxz    Ryd( 3d)     0.00131
    13    N    1  dyz    Ryd( 3d)     0.00116
    14    N    1  dx2y2  Ryd( 3d)     0.00064
    15    N    1  dz2    Ryd( 3d)     0.00138

    16    C    2  S      Cor( 1S)     1.99934
    17    C    2  S      Val( 2S)     1.02980
    18    C    2  S      Ryd( 3S)     0.00191
    19    C    2  S      Ryd( 4S)     0.00004
    20    C    2  px     Val( 2p)     0.96173
    21    C    2  px     Ryd( 3p)     0.00181
    22    C    2  py     Val( 2p)     1.12733
    23    C    2  py     Ryd( 3p)     0.00261
    24    C    2  pz     Val( 2p)     1.15383
    25    C    2  pz     Ryd( 3p)     0.00283
    26    C    2  dxy    Ryd( 3d)     0.00073
    27    C    2  dxz    Ryd( 3d)     0.00092
    28    C    2  dyz    Ryd( 3d)     0.00057
    29    C    2  dx2y2  Ryd( 3d)     0.00114
    30    C    2  dz2    Ryd( 3d)     0.00149

    31    C    3  S      Cor( 1S)     1.99925
    32    C    3  S      Val( 2S)     1.03051
    33    C    3  S      Ryd( 3S)     0.00263
    34    C    3  S      Ryd( 4S)     0.00005
    35    C    3  px     Val( 2p)     1.10094
    36    C    3  px     Ryd( 3p)     0.00329
    37    C    3  py     Val( 2p)     0.79791
    38    C    3  py     Ryd( 3p)     0.00354
    39    C    3  pz     Val( 2p)     1.17512
    40    C    3  pz     Ryd( 3p)     0.00235
    41    C    3  dxy    Ryd( 3d)     0.00141
    42    C    3  dxz    Ryd( 3d)     0.00054
    43    C    3  dyz    Ryd( 3d)     0.00132
    44    C    3  dx2y2  Ryd( 3d)     0.00153
    45    C    3  dz2    Ryd( 3d)     0.00138

    46    O    4  S      Cor( 1S)     1.99979
    47    O    4  S      Val( 2S)     1.62100
    48    O    4  S      Ryd( 3S)     0.00179
    49    O    4  S      Ryd( 4S)     0.00006
    50    O    4  px     Val( 2p)     1.65726
    51    O    4  px     Ryd( 3p)     0.00229
    52    O    4  py     Val( 2p)     1.48089
    53    O    4  py     Ryd( 3p)     0.00126
    54    O    4  pz     Val( 2p)     1.83584
    55    O    4  pz     Ryd( 3p)     0.00257
    56    O    4  dxy    Ryd( 3d)     0.00091
    57    O    4  dxz    Ryd( 3d)     0.00103
    58    O    4  dyz    Ryd( 3d)     0.00077
    59    O    4  dx2y2  Ryd( 3d)     0.00087
    60    O    4  dz2    Ryd( 3d)     0.00111

    61    C    5  S      Cor( 1S)     1.99924
    62    C    5  S      Val( 2S)     1.02286
    63    C    5  S      Ryd( 3S)     0.00197
    64    C    5  S      Ryd( 4S)     0.00006
    65    C    5  px     Val( 2p)     0.84062
    66    C    5  px     Ryd( 3p)     0.00495
    67    C    5  py     Val( 2p)     1.12185
    68    C    5  py     Ryd( 3p)     0.00425
    69    C    5  pz     Val( 2p)     1.12075
    70    C    5  pz     Ryd( 3p)     0.00238
    71    C    5  dxy    Ryd( 3d)     0.00116
    72    C    5  dxz    Ryd( 3d)     0.00126
    73    C    5  dyz    Ryd( 3d)     0.00057
    74    C    5  dx2y2  Ryd( 3d)     0.00183
    75    C    5  dz2    Ryd( 3d)     0.00143

    76    C    6  S      Cor( 1S)     1.99925
    77    C    6  S      Val( 2S)     1.03802
    78    C    6  S      Ryd( 3S)     0.00299
    79    C    6  S      Ryd( 4S)     0.00005
    80    C    6  px     Val( 2p)     1.08311
    81    C    6  px     Ryd( 3p)     0.00287
    82    C    6  py     Val( 2p)     0.84633
    83    C    6  py     Ryd( 3p)     0.00969
    84    C    6  pz     Val( 2p)     1.18170
    85    C    6  pz     Ryd( 3p)     0.00232
    86    C    6  dxy    Ryd( 3d)     0.00158
    87    C    6  dxz    Ryd( 3d)     0.00067
    88    C    6  dyz    Ryd( 3d)     0.00112
    89    C    6  dx2y2  Ryd( 3d)     0.00145
    90    C    6  dz2    Ryd( 3d)     0.00129

    91    O    7  S      Cor( 1S)     1.99980
    92    O    7  S      Val( 2S)     1.64076
    93    O    7  S      Ryd( 3S)     0.00235
    94    O    7  S      Ryd( 4S)     0.00028
    95    O    7  px     Val( 2p)     1.60338
    96    O    7  px     Ryd( 3p)     0.00206
    97    O    7  py     Val( 2p)     1.53812
    98    O    7  py     Ryd( 3p)     0.00137
    99    O    7  pz     Val( 2p)     1.77719
   100    O    7  pz     Ryd( 3p)     0.00270
   101    O    7  dxy    Ryd( 3d)     0.00092
   102    O    7  dxz    Ryd( 3d)     0.00103
   103    O    7  dyz    Ryd( 3d)     0.00095
   104    O    7  dx2y2  Ryd( 3d)     0.00088
   105    O    7  dz2    Ryd( 3d)     0.00112

   106    C    8  S      Cor( 1S)     1.99928
   107    C    8  S      Val( 2S)     1.02918
   108    C    8  S      Ryd( 3S)     0.00206
   109    C    8  S      Ryd( 4S)     0.00005
   110    C    8  px     Val( 2p)     0.81265
   111    C    8  px     Ryd( 3p)     0.00609
   112    C    8  py     Val( 2p)     1.17884
   113    C    8  py     Ryd( 3p)     0.00378
   114    C    8  pz     Val( 2p)     1.11185
   115    C    8  pz     Ryd( 3p)     0.00400
   116    C    8  dxy    Ryd( 3d)     0.00092
   117    C    8  dxz    Ryd( 3d)     0.00149
   118    C    8  dyz    Ryd( 3d)     0.00060
   119    C    8  dx2y2  Ryd( 3d)     0.00169
   120    C    8  dz2    Ryd( 3d)     0.00143

   121    C    9  S      Cor( 1S)     1.99926
   122    C    9  S      Val( 2S)     1.06485
   123    C    9  S      Ryd( 3S)     0.00192
   124    C    9  S      Ryd( 4S)     0.00004
   125    C    9  px     Val( 2p)     1.16160
   126    C    9  px     Ryd( 3p)     0.00163
   127    C    9  py     Val( 2p)     1.19035
   128    C    9  py     Ryd( 3p)     0.00246
   129    C    9  pz     Val( 2p)     0.94129
   130    C    9  pz     Ryd( 3p)     0.00764
   131    C    9  dxy    Ryd( 3d)     0.00050
   132    C    9  dxz    Ryd( 3d)     0.00097
   133    C    9  dyz    Ryd( 3d)     0.00071
   134    C    9  dx2y2  Ryd( 3d)     0.00081
   135    C    9  dz2    Ryd( 3d)     0.00140

   136    N   10  S      Cor( 1S)     1.99937
   137    N   10  S      Val( 2S)     1.50193
   138    N   10  S      Ryd( 3S)     0.01387
   139    N   10  S      Ryd( 4S)     0.00002
   140    N   10  px     Val( 2p)     1.42803
   141    N   10  px     Ryd( 3p)     0.00086
   142    N   10  py     Val( 2p)     1.15215
   143    N   10  py     Ryd( 3p)     0.00000
   144    N   10  pz     Val( 2p)     1.31345
   145    N   10  pz     Ryd( 3p)     0.00242
   146    N   10  dxy    Ryd( 3d)     0.00081
   147    N   10  dxz    Ryd( 3d)     0.00061
   148    N   10  dyz    Ryd( 3d)     0.00080
   149    N   10  dx2y2  Ryd( 3d)     0.00000
   150    N   10  dz2    Ryd( 3d)     0.00028

   151    H   11  S      Val( 1S)     0.60926
   152    H   11  S      Ryd( 2S)     0.00349
   153    H   11  px     Ryd( 2p)     0.00033
   154    H   11  py     Ryd( 2p)     0.00055
   155    H   11  pz     Ryd( 2p)     0.00056

   156    H   12  S      Val( 1S)     0.60953
   157    H   12  S      Ryd( 2S)     0.00185
   158    H   12  px     Ryd( 2p)     0.00051
   159    H   12  py     Ryd( 2p)     0.00031
   160    H   12  pz     Ryd( 2p)     0.00057

   161    H   13  S      Val( 1S)     0.78896
   162    H   13  S      Ryd( 2S)     0.00280
   163    H   13  px     Ryd( 2p)     0.00010
   164    H   13  py     Ryd( 2p)     0.00007
   165    H   13  pz     Ryd( 2p)     0.00039

   166    H   14  S      Val( 1S)     0.76478
   167    H   14  S      Ryd( 2S)     0.00150
   168    H   14  px     Ryd( 2p)     0.00009
   169    H   14  py     Ryd( 2p)     0.00037
   170    H   14  pz     Ryd( 2p)     0.00010

   171    H   15  S      Val( 1S)     0.79445
   172    H   15  S      Ryd( 2S)     0.00346
   173    H   15  px     Ryd( 2p)     0.00011
   174    H   15  py     Ryd( 2p)     0.00006
   175    H   15  pz     Ryd( 2p)     0.00041

   176    H   16  S      Val( 1S)     0.78151
   177    H   16  S      Ryd( 2S)     0.00498
   178    H   16  px     Ryd( 2p)     0.00032
   179    H   16  py     Ryd( 2p)     0.00016
   180    H   16  pz     Ryd( 2p)     0.00014

   181    H   17  S      Val( 1S)     0.77495
   182    H   17  S      Ryd( 2S)     0.00464
   183    H   17  px     Ryd( 2p)     0.00009
   184    H   17  py     Ryd( 2p)     0.00039
   185    H   17  pz     Ryd( 2p)     0.00009

   186    H   18  S      Val( 1S)     0.78950
   187    H   18  S      Ryd( 2S)     0.00670
   188    H   18  px     Ryd( 2p)     0.00010
   189    H   18  py     Ryd( 2p)     0.00009
   190    H   18  pz     Ryd( 2p)     0.00039

   191    H   19  S      Val( 1S)     0.79214
   192    H   19  S      Ryd( 2S)     0.01156
   193    H   19  px     Ryd( 2p)     0.00011
   194    H   19  py     Ryd( 2p)     0.00008
   195    H   19  pz     Ryd( 2p)     0.00039

   196    H   20  S      Val( 1S)     0.82964
   197    H   20  S      Ryd( 2S)     0.03412
   198    H   20  px     Ryd( 2p)     0.00027
   199    H   20  py     Ryd( 2p)     0.00022
   200    H   20  pz     Ryd( 2p)     0.00012

   201    H   21  S      Val( 1S)     0.75313
   202    H   21  S      Ryd( 2S)     0.00395
   203    H   21  px     Ryd( 2p)     0.00007
   204    H   21  py     Ryd( 2p)     0.00041
   205    H   21  pz     Ryd( 2p)     0.00010

   206    H   22  S      Val( 1S)     0.79303
   207    H   22  S      Ryd( 2S)     0.01274
   208    H   22  px     Ryd( 2p)     0.00012
   209    H   22  py     Ryd( 2p)     0.00009
   210    H   22  pz     Ryd( 2p)     0.00038

   211    H   23  S      Val( 1S)     0.76123
   212    H   23  S      Ryd( 2S)     0.02127
   213    H   23  px     Ryd( 2p)     0.00024
   214    H   23  py     Ryd( 2p)     0.00010
   215    H   23  pz     Ryd( 2p)     0.00019

   216    H   24  S      Val( 1S)     0.72430
   217    H   24  S      Ryd( 2S)     0.03643
   218    H   24  px     Ryd( 2p)     0.00012
   219    H   24  py     Ryd( 2p)     0.00038
   220    H   24  pz     Ryd( 2p)     0.00006

   221    H   25  S      Val( 1S)     0.67340
   222    H   25  S      Ryd( 2S)     0.06358
   223    H   25  px     Ryd( 2p)     0.00060
   224    H   25  py     Ryd( 2p)     0.00030
   225    H   25  pz     Ryd( 2p)     0.00037

   226    H   26  S      Val( 1S)     0.69886
   227    H   26  S      Ryd( 2S)     0.07448
   228    H   26  px     Ryd( 2p)     0.00054
   229    H   26  py     Ryd( 2p)     0.00035
   230    H   26  pz     Ryd( 2p)     0.00033


 Summary of Natural Population Analysis:                  
                                                          
                                       Natural Population 
                Natural  -----------------------------------------------
    Atom  No    Charge         Core      Valence    Rydberg      Total
 -----------------------------------------------------------------------
      N    1   -0.93274      1.99968     5.91754    0.01553     7.93274
      C    2   -0.28606      1.99934     4.27268    0.01404     6.28606
      C    3   -0.12177      1.99925     4.10448    0.01804     6.12177
      O    4   -0.60745      1.99979     6.59499    0.01266     8.60745
      C    5   -0.12519      1.99924     4.10608    0.01987     6.12519
      C    6   -0.17246      1.99925     4.14917    0.02403     6.17246
      O    7   -0.57291      1.99980     6.55946    0.01365     8.57291
      C    8   -0.15390      1.99928     4.13250    0.02211     6.15390
      C    9   -0.37545      1.99926     4.35809    0.01809     6.37545
      N   10   -0.41459      1.99937     5.39556    0.01966     7.41459
      H   11    0.38581      0.00000     0.60926    0.00492     0.61419
      H   12    0.38722      0.00000     0.60953    0.00325     0.61278
      H   13    0.20768      0.00000     0.78896    0.00336     0.79232
      H   14    0.23316      0.00000     0.76478    0.00206     0.76684
      H   15    0.20151      0.00000     0.79445    0.00404     0.79849
      H   16    0.21289      0.00000     0.78151    0.00560     0.78711
      H   17    0.21983      0.00000     0.77495    0.00522     0.78017
      H   18    0.20323      0.00000     0.78950    0.00728     0.79677
      H   19    0.19572      0.00000     0.79214    0.01213     0.80428
      H   20    0.13563      0.00000     0.82964    0.03473     0.86437
      H   21    0.24234      0.00000     0.75313    0.00453     0.75766
      H   22    0.19364      0.00000     0.79303    0.01333     0.80636
      H   23    0.21697      0.00000     0.76123    0.02181     0.78303
      H   24    0.23871      0.00000     0.72430    0.03699     0.76129
      H   25    0.26175      0.00000     0.67340    0.06485     0.73825
      H   26    0.22544      0.00000     0.69886    0.07570     0.77456
 =======================================================================
   * Total *   -0.00099     19.99428    61.52923    0.47749    82.00099

                                 Natural Population      
 --------------------------------------------------------
   Core                      19.99428 ( 99.9714% of  20)
   Valence                   61.52923 ( 99.2407% of  62)
   Natural Minimal Basis     81.52350 ( 99.4189% of  82)
   Natural Rydberg Basis      0.47749 (  0.5823% of  82)
 --------------------------------------------------------

    Atom  No          Natural Electron Configuration
 ----------------------------------------------------------------------------
      N    1      [core]2S( 1.45)2p( 4.47)3p( 0.01)
      C    2      [core]2S( 1.03)2p( 3.24)3p( 0.01)
      C    3      [core]2S( 1.03)2p( 3.07)3p( 0.01)3d( 0.01)
      O    4      [core]2S( 1.62)2p( 4.97)3p( 0.01)
      C    5      [core]2S( 1.02)2p( 3.08)3p( 0.01)3d( 0.01)
      C    6      [core]2S( 1.04)2p( 3.11)3p( 0.01)3d( 0.01)
      O    7      [core]2S( 1.64)2p( 4.92)3p( 0.01)
      C    8      [core]2S( 1.03)2p( 3.10)3p( 0.01)3d( 0.01)
      C    9      [core]2S( 1.06)2p( 3.29)3p( 0.01)
      N   10      [core]2S( 1.50)2p( 3.89)3S( 0.01)
      H   11            1S( 0.61)
      H   12            1S( 0.61)
      H   13            1S( 0.79)
      H   14            1S( 0.76)
      H   15            1S( 0.79)
      H   16            1S( 0.78)
      H   17            1S( 0.77)
      H   18            1S( 0.79)2S( 0.01)
      H   19            1S( 0.79)2S( 0.01)
      H   20            1S( 0.83)2S( 0.03)
      H   21            1S( 0.75)
      H   22            1S( 0.79)2S( 0.01)
      H   23            1S( 0.76)2S( 0.02)
      H   24            1S( 0.72)2S( 0.04)
      H   25            1S( 0.67)2S( 0.06)
      H   26            1S( 0.70)2S( 0.07)


 NBO analysis skipped by request.
 1\1\GINC-DRG2-W002\SP\RB3LYP TD-FC\6-31G(d,p)\C6H16N2O2\QDUEZ\18-Jul-2
 024\0\\# TD(NStates=10, Root=1) B3LYP/6-31G** SCRF=(Solvent=water) vol
 ume pop=NPA density=current Geom=AllCheck Guess=Read\\IWBOPFCKHIJFMS-U
 HFFFAOYSA-N_conf_3\\0,1\N,0,4.3664671928,0.1090755933,-0.4584482134\C,
 0,3.3299953687,-0.9272331913,-0.5547447715\C,0,1.9477889234,-0.2985116
 334,-0.5125682108\O,0,1.7920552382,0.3158283926,0.7686280463\C,0,0.676
 0270856,1.1845496313,0.9009354047\C,0,-0.6350383665,0.4777764685,1.210
 850698\O,0,-1.1020710304,-0.1984490981,0.0483174863\C,0,-2.2780817546,
 -0.984801035,0.2541825299\C,0,-3.5531260453,-0.1468902654,0.2589514677
 \N,0,-3.7036968658,0.5365568833,-1.0317711439\H,0,4.2282500863,0.59872
 34448,0.4237481697\H,0,5.279327723,-0.3353359152,-0.3858288767\H,0,3.3
 873379263,-1.6909532855,0.2392507925\H,0,3.4381351607,-1.4523995316,-1
 .5112599807\H,0,1.8583402648,0.462466216,-1.3030831322\H,0,1.17298829,
 -1.0558816833,-0.6790335071\H,0,0.906430403,1.8510775901,1.7394444279\
 H,0,0.5548896426,1.8027916634,-0.0012907349\H,0,-0.4811673366,-0.23876
 85698,2.0324782894\H,0,-1.3620697253,1.2295190597,1.5543742688\H,0,-2.
 3115828044,-1.6882175522,-0.5839035535\H,0,-2.1953053016,-1.5587926661
 ,1.1885466984\H,0,-4.4024194887,-0.8255062614,0.4063764631\H,0,-3.5432
 129548,0.5338908057,1.1265637141\H,0,-2.8798319342,1.1191327271,-1.171
 4884025\H,0,-4.4904296971,1.1803522125,-0.982926917\\Version=ES64L-G16
 RevA.03\State=1-A\HF=-498.2132049\RMSD=1.900e-09\Dipole=-1.3680702,-0.
 5753233,0.2025482\Quadrupole=4.5175758,-1.4731832,-3.0443926,-1.921901
 8,2.4185119,1.5652176\PG=C01 [X(C6H16N2O2)]\\@


 EXPERIENCE IS THE FRUIT OF THE TREE OF ERRORS.
 Job cpu time:       0 days  0 hours 28 minutes 14.8 seconds.
 Elapsed time:       0 days  0 hours  9 minutes 33.9 seconds.
 File lengths (MBytes):  RWF=    497 Int=      0 D2E=      0 Chk=     31 Scr=      1
 Normal termination of Gaussian 16 at Thu Jul 18 02:49:48 2024.
