 Entering Gaussian System, Link 0=g16
 Initial command:
 /opt/sw/arch/manual/gaussian/G16_A03/g16/l1.exe "/scratch/1380871/Gau-38473.inp" -scrdir="/scratch/1380871/"
 Entering Link 1 = /opt/sw/arch/manual/gaussian/G16_A03/g16/l1.exe PID=     38474.
  
 Copyright (c) 1988,1990,1992,1993,1995,1998,2003,2009,2016,
            Gaussian, Inc.  All Rights Reserved.
  
 This is part of the Gaussian(R) 16 program.  It is based on
 the Gaussian(R) 09 system (copyright 2009, Gaussian, Inc.),
 the Gaussian(R) 03 system (copyright 2003, Gaussian, Inc.),
 the Gaussian(R) 98 system (copyright 1998, Gaussian, Inc.),
 the Gaussian(R) 94 system (copyright 1995, Gaussian, Inc.),
 the Gaussian 92(TM) system (copyright 1992, Gaussian, Inc.),
 the Gaussian 90(TM) system (copyright 1990, Gaussian, Inc.),
 the Gaussian 88(TM) system (copyright 1988, Gaussian, Inc.),
 the Gaussian 86(TM) system (copyright 1986, Carnegie Mellon
 University), and the Gaussian 82(TM) system (copyright 1983,
 Carnegie Mellon University). Gaussian is a federally registered
 trademark of Gaussian, Inc.
  
 This software contains proprietary and confidential information,
 including trade secrets, belonging to Gaussian, Inc.
  
 This software is provided under written license and may be
 used, copied, transmitted, or stored only in accord with that
 written license.
  
 The following legend is applicable only to US Government
 contracts under FAR:
  
                    RESTRICTED RIGHTS LEGEND
  
 Use, reproduction and disclosure by the US Government is
 subject to restrictions as set forth in subparagraphs (a)
 and (c) of the Commercial Computer Software - Restricted
 Rights clause in FAR 52.227-19.
  
 Gaussian, Inc.
 340 Quinnipiac St., Bldg. 40, Wallingford CT 06492
  
  
 ---------------------------------------------------------------
 Warning -- This program may not be used in any manner that
 competes with the business of Gaussian, Inc. or will provide
 assistance to any competitor of Gaussian, Inc.  The licensee
 of this program is prohibited from giving any competitor of
 Gaussian, Inc. access to this program.  By using this program,
 the user acknowledges that Gaussian, Inc. is engaged in the
 business of creating and licensing software in the field of
 computational chemistry and represents and warrants to the
 licensee that it is not a competitor of Gaussian, Inc. and that
 it will not use this program in any manner prohibited above.
 ---------------------------------------------------------------
  

 Cite this work as:
 Gaussian 16, Revision A.03,
 M. J. Frisch, G. W. Trucks, H. B. Schlegel, G. E. Scuseria, 
 M. A. Robb, J. R. Cheeseman, G. Scalmani, V. Barone, 
 G. A. Petersson, H. Nakatsuji, X. Li, M. Caricato, A. V. Marenich, 
 J. Bloino, B. G. Janesko, R. Gomperts, B. Mennucci, H. P. Hratchian, 
 J. V. Ortiz, A. F. Izmaylov, J. L. Sonnenberg, D. Williams-Young, 
 F. Ding, F. Lipparini, F. Egidi, J. Goings, B. Peng, A. Petrone, 
 T. Henderson, D. Ranasinghe, V. G. Zakrzewski, J. Gao, N. Rega, 
 G. Zheng, W. Liang, M. Hada, M. Ehara, K. Toyota, R. Fukuda, 
 J. Hasegawa, M. Ishida, T. Nakajima, Y. Honda, O. Kitao, H. Nakai, 
 T. Vreven, K. Throssell, J. A. Montgomery, Jr., J. E. Peralta, 
 F. Ogliaro, M. J. Bearpark, J. J. Heyd, E. N. Brothers, K. N. Kudin, 
 V. N. Staroverov, T. A. Keith, R. Kobayashi, J. Normand, 
 K. Raghavachari, A. P. Rendell, J. C. Burant, S. S. Iyengar, 
 J. Tomasi, M. Cossi, J. M. Millam, M. Klene, C. Adamo, R. Cammi, 
 J. W. Ochterski, R. L. Martin, K. Morokuma, O. Farkas, 
 J. B. Foresman, and D. J. Fox, Gaussian, Inc., Wallingford CT, 2016.
 
 ******************************************
 Gaussian 16:  ES64L-G16RevA.03 25-Dec-2016
                18-Jul-2024 
 ******************************************
 %nprocshared=4
 Will use up to    4 processors via shared memory.
 %mem=8GB
 %Chk=IWBOPFCKHIJFMS-UHFFFAOYSA-N_conf_4_0.chk
 -------------------------------------------------------
 # opt=CalcFc B3LYP/6-31G** SCRF=(Solvent=water) scf=xqc
 -------------------------------------------------------
 1/10=4,18=20,19=15,26=3,38=1/1,3;
 2/9=110,12=2,17=6,18=5,40=1/2;
 3/5=1,6=6,7=101,11=2,25=1,30=1,70=2201,71=2,72=1,74=-5,140=1/1,2,3;
 4//1;
 5/5=2,8=3,13=1,38=5,53=1/2,8;
 8/6=4,10=90,11=11/1;
 11/6=1,8=1,9=11,15=111,16=1/1,2,10;
 10/6=1,13=1/2;
 6/7=2,8=2,9=2,10=2,28=1/1;
 7/10=1,18=20,25=1/1,2,3,16;
 1/10=4,18=20,19=15,26=3/3(2);
 2/9=110/2;
 99//99;
 2/9=110/2;
 3/5=1,6=6,7=101,11=2,25=1,30=1,70=2205,71=1,72=1,74=-5/1,2,3;
 4/5=5,16=3,69=1/1;
 5/5=2,8=3,13=1,38=5,53=1/2,8;
 7//1,2,3,16;
 1/18=20,19=15,26=3/3(-5);
 2/9=110/2;
 6/7=2,8=2,9=2,10=2,19=2,28=1/1;
 99/9=1/99;
 ----------------------------------
 IWBOPFCKHIJFMS-UHFFFAOYSA-N_conf_4
 ----------------------------------
 Symbolic Z-matrix:
 Charge =  0 Multiplicity = 1
 N                     4.30301   1.16901   2.22389 
 C                     3.70397   0.06567   1.47405 
 C                     2.47549   0.48594   0.6577 
 O                     1.97429  -0.65334  -0.04219 
 C                     0.8231   -0.35894  -0.8334 
 C                    -0.46399  -0.43828  -0.01448 
 O                    -1.57813  -0.14774  -0.8581 
 C                    -2.81677  -0.24413  -0.14638 
 C                    -3.97099   0.10338  -1.0949 
 N                    -4.00371  -0.7746   -2.27058 
 H                     3.61106   1.57878   2.84922 
 H                     4.58659   1.90816   1.58185 
 H                     3.42429  -0.73216   2.1711 
 H                     4.45716  -0.36933   0.80727 
 H                     2.75463   1.26241  -0.06473 
 H                     1.70396   0.88376   1.32593 
 H                     0.77779  -1.10495  -1.63508 
 H                     0.92128   0.61446  -1.32955 
 H                    -0.56609  -1.44183   0.41509 
 H                    -0.43645   0.27699   0.81472 
 H                    -2.93825  -1.26232   0.24144 
 H                    -2.81159   0.45921   0.69399 
 H                    -3.85623   1.13347  -1.44985 
 H                    -4.92576   0.03428  -0.56394 
 H                    -4.06346  -1.74407  -1.9613 
 H                    -3.0852   -0.70386  -2.71722 
 

 GradGradGradGradGradGradGradGradGradGradGradGradGradGradGradGradGradGrad
 Berny optimization.
 Initialization pass.
                           ----------------------------
                           !    Initial Parameters    !
                           ! (Angstroms and Degrees)  !
 --------------------------                            --------------------------
 ! Name  Definition              Value          Derivative Info.                !
 --------------------------------------------------------------------------------
 ! R1    R(1,2)                  1.4623         calculate D2E/DX2 analytically  !
 ! R2    R(1,11)                 1.0187         calculate D2E/DX2 analytically  !
 ! R3    R(1,12)                 1.0193         calculate D2E/DX2 analytically  !
 ! R4    R(2,3)                  1.5337         calculate D2E/DX2 analytically  !
 ! R5    R(2,13)                 1.0957         calculate D2E/DX2 analytically  !
 ! R6    R(2,14)                 1.096          calculate D2E/DX2 analytically  !
 ! R7    R(3,4)                  1.4279         calculate D2E/DX2 analytically  !
 ! R8    R(3,15)                 1.0967         calculate D2E/DX2 analytically  !
 ! R9    R(3,16)                 1.0955         calculate D2E/DX2 analytically  !
 ! R10   R(4,5)                  1.4276         calculate D2E/DX2 analytically  !
 ! R11   R(5,6)                  1.5276         calculate D2E/DX2 analytically  !
 ! R12   R(5,17)                 1.096          calculate D2E/DX2 analytically  !
 ! R13   R(5,18)                 1.097          calculate D2E/DX2 analytically  !
 ! R14   R(6,7)                  1.4274         calculate D2E/DX2 analytically  !
 ! R15   R(6,19)                 1.0964         calculate D2E/DX2 analytically  !
 ! R16   R(6,20)                 1.0954         calculate D2E/DX2 analytically  !
 ! R17   R(7,8)                  1.4318         calculate D2E/DX2 analytically  !
 ! R18   R(8,9)                  1.5339         calculate D2E/DX2 analytically  !
 ! R19   R(8,21)                 1.0963         calculate D2E/DX2 analytically  !
 ! R20   R(8,22)                 1.0959         calculate D2E/DX2 analytically  !
 ! R21   R(9,10)                 1.4677         calculate D2E/DX2 analytically  !
 ! R22   R(9,23)                 1.0956         calculate D2E/DX2 analytically  !
 ! R23   R(9,24)                 1.0947         calculate D2E/DX2 analytically  !
 ! R24   R(10,25)                1.0194         calculate D2E/DX2 analytically  !
 ! R25   R(10,26)                1.0238         calculate D2E/DX2 analytically  !
 ! A1    A(2,1,11)             109.8774         calculate D2E/DX2 analytically  !
 ! A2    A(2,1,12)             109.7616         calculate D2E/DX2 analytically  !
 ! A3    A(11,1,12)            106.495          calculate D2E/DX2 analytically  !
 ! A4    A(1,2,3)              113.2227         calculate D2E/DX2 analytically  !
 ! A5    A(1,2,13)             109.131          calculate D2E/DX2 analytically  !
 ! A6    A(1,2,14)             109.2634         calculate D2E/DX2 analytically  !
 ! A7    A(3,2,13)             109.4927         calculate D2E/DX2 analytically  !
 ! A8    A(3,2,14)             109.5973         calculate D2E/DX2 analytically  !
 ! A9    A(13,2,14)            105.8692         calculate D2E/DX2 analytically  !
 ! A10   A(2,3,4)              108.8689         calculate D2E/DX2 analytically  !
 ! A11   A(2,3,15)             109.9231         calculate D2E/DX2 analytically  !
 ! A12   A(2,3,16)             109.8134         calculate D2E/DX2 analytically  !
 ! A13   A(4,3,15)             109.3513         calculate D2E/DX2 analytically  !
 ! A14   A(4,3,16)             109.9697         calculate D2E/DX2 analytically  !
 ! A15   A(15,3,16)            108.9035         calculate D2E/DX2 analytically  !
 ! A16   A(3,4,5)              112.9644         calculate D2E/DX2 analytically  !
 ! A17   A(4,5,6)              111.8151         calculate D2E/DX2 analytically  !
 ! A18   A(4,5,17)             107.3592         calculate D2E/DX2 analytically  !
 ! A19   A(4,5,18)             111.1924         calculate D2E/DX2 analytically  !
 ! A20   A(6,5,17)             108.7804         calculate D2E/DX2 analytically  !
 ! A21   A(6,5,18)             111.3442         calculate D2E/DX2 analytically  !
 ! A22   A(17,5,18)            106.0726         calculate D2E/DX2 analytically  !
 ! A23   A(5,6,7)              109.2839         calculate D2E/DX2 analytically  !
 ! A24   A(5,6,19)             109.6361         calculate D2E/DX2 analytically  !
 ! A25   A(5,6,20)             110.5312         calculate D2E/DX2 analytically  !
 ! A26   A(7,6,19)             110.193          calculate D2E/DX2 analytically  !
 ! A27   A(7,6,20)             109.5178         calculate D2E/DX2 analytically  !
 ! A28   A(19,6,20)            107.6637         calculate D2E/DX2 analytically  !
 ! A29   A(6,7,8)              111.5772         calculate D2E/DX2 analytically  !
 ! A30   A(7,8,9)              109.1676         calculate D2E/DX2 analytically  !
 ! A31   A(7,8,21)             109.5257         calculate D2E/DX2 analytically  !
 ! A32   A(7,8,22)             109.505          calculate D2E/DX2 analytically  !
 ! A33   A(9,8,21)             110.2304         calculate D2E/DX2 analytically  !
 ! A34   A(9,8,22)             109.4122         calculate D2E/DX2 analytically  !
 ! A35   A(21,8,22)            108.9857         calculate D2E/DX2 analytically  !
 ! A36   A(8,9,10)             112.1233         calculate D2E/DX2 analytically  !
 ! A37   A(8,9,23)             109.545          calculate D2E/DX2 analytically  !
 ! A38   A(8,9,24)             110.0037         calculate D2E/DX2 analytically  !
 ! A39   A(10,9,23)            107.7744         calculate D2E/DX2 analytically  !
 ! A40   A(10,9,24)            109.3497         calculate D2E/DX2 analytically  !
 ! A41   A(23,9,24)            107.931          calculate D2E/DX2 analytically  !
 ! A42   A(9,10,25)            109.0987         calculate D2E/DX2 analytically  !
 ! A43   A(9,10,26)            106.7456         calculate D2E/DX2 analytically  !
 ! A44   A(25,10,26)           104.5163         calculate D2E/DX2 analytically  !
 ! D1    D(11,1,2,3)            57.7135         calculate D2E/DX2 analytically  !
 ! D2    D(11,1,2,13)          -64.5064         calculate D2E/DX2 analytically  !
 ! D3    D(11,1,2,14)         -179.8358         calculate D2E/DX2 analytically  !
 ! D4    D(12,1,2,3)           -59.0755         calculate D2E/DX2 analytically  !
 ! D5    D(12,1,2,13)          178.7046         calculate D2E/DX2 analytically  !
 ! D6    D(12,1,2,14)           63.3753         calculate D2E/DX2 analytically  !
 ! D7    D(1,2,3,4)            179.5238         calculate D2E/DX2 analytically  !
 ! D8    D(1,2,3,15)            59.7654         calculate D2E/DX2 analytically  !
 ! D9    D(1,2,3,16)           -60.0276         calculate D2E/DX2 analytically  !
 ! D10   D(13,2,3,4)           -58.4582         calculate D2E/DX2 analytically  !
 ! D11   D(13,2,3,15)         -178.2166         calculate D2E/DX2 analytically  !
 ! D12   D(13,2,3,16)           61.9903         calculate D2E/DX2 analytically  !
 ! D13   D(14,2,3,4)            57.259          calculate D2E/DX2 analytically  !
 ! D14   D(14,2,3,15)          -62.4995         calculate D2E/DX2 analytically  !
 ! D15   D(14,2,3,16)          177.7075         calculate D2E/DX2 analytically  !
 ! D16   D(2,3,4,5)            179.9457         calculate D2E/DX2 analytically  !
 ! D17   D(15,3,4,5)           -59.9416         calculate D2E/DX2 analytically  !
 ! D18   D(16,3,4,5)            59.5935         calculate D2E/DX2 analytically  !
 ! D19   D(3,4,5,6)            -85.264          calculate D2E/DX2 analytically  !
 ! D20   D(3,4,5,17)           155.4973         calculate D2E/DX2 analytically  !
 ! D21   D(3,4,5,18)            39.8832         calculate D2E/DX2 analytically  !
 ! D22   D(4,5,6,7)           -179.462          calculate D2E/DX2 analytically  !
 ! D23   D(4,5,6,19)           -58.5903         calculate D2E/DX2 analytically  !
 ! D24   D(4,5,6,20)            59.9409         calculate D2E/DX2 analytically  !
 ! D25   D(17,5,6,7)           -61.0662         calculate D2E/DX2 analytically  !
 ! D26   D(17,5,6,19)           59.8055         calculate D2E/DX2 analytically  !
 ! D27   D(17,5,6,20)          178.3368         calculate D2E/DX2 analytically  !
 ! D28   D(18,5,6,7)            55.4749         calculate D2E/DX2 analytically  !
 ! D29   D(18,5,6,19)          176.3465         calculate D2E/DX2 analytically  !
 ! D30   D(18,5,6,20)          -65.1222         calculate D2E/DX2 analytically  !
 ! D31   D(5,6,7,8)            178.4239         calculate D2E/DX2 analytically  !
 ! D32   D(19,6,7,8)            57.892          calculate D2E/DX2 analytically  !
 ! D33   D(20,6,7,8)           -60.362          calculate D2E/DX2 analytically  !
 ! D34   D(6,7,8,9)            178.9457         calculate D2E/DX2 analytically  !
 ! D35   D(6,7,8,21)           -60.2774         calculate D2E/DX2 analytically  !
 ! D36   D(6,7,8,22)            59.1824         calculate D2E/DX2 analytically  !
 ! D37   D(7,8,9,10)            58.1096         calculate D2E/DX2 analytically  !
 ! D38   D(7,8,9,23)           -61.4942         calculate D2E/DX2 analytically  !
 ! D39   D(7,8,9,24)          -179.9778         calculate D2E/DX2 analytically  !
 ! D40   D(21,8,9,10)          -62.2358         calculate D2E/DX2 analytically  !
 ! D41   D(21,8,9,23)          178.1603         calculate D2E/DX2 analytically  !
 ! D42   D(21,8,9,24)           59.6767         calculate D2E/DX2 analytically  !
 ! D43   D(22,8,9,10)          177.9302         calculate D2E/DX2 analytically  !
 ! D44   D(22,8,9,23)           58.3264         calculate D2E/DX2 analytically  !
 ! D45   D(22,8,9,24)          -60.1572         calculate D2E/DX2 analytically  !
 ! D46   D(8,9,10,25)           56.5736         calculate D2E/DX2 analytically  !
 ! D47   D(8,9,10,26)          -55.8335         calculate D2E/DX2 analytically  !
 ! D48   D(23,9,10,25)         177.2081         calculate D2E/DX2 analytically  !
 ! D49   D(23,9,10,26)          64.8011         calculate D2E/DX2 analytically  !
 ! D50   D(24,9,10,25)         -65.7118         calculate D2E/DX2 analytically  !
 ! D51   D(24,9,10,26)        -178.1189         calculate D2E/DX2 analytically  !
 --------------------------------------------------------------------------------
 Trust Radius=3.00D-01 FncErr=1.00D-07 GrdErr=1.00D-06 EigMax=2.50D+02 EigMin=1.00D-04
 Number of steps in this run=    130 maximum allowed number of steps=    156.
 GradGradGradGradGradGradGradGradGradGradGradGradGradGradGradGradGradGrad

                          Input orientation:                          
 ---------------------------------------------------------------------
 Center     Atomic      Atomic             Coordinates (Angstroms)
 Number     Number       Type             X           Y           Z
 ---------------------------------------------------------------------
      1          7           0        4.303009    1.169007    2.223893
      2          6           0        3.703969    0.065673    1.474050
      3          6           0        2.475485    0.485943    0.657698
      4          8           0        1.974286   -0.653343   -0.042194
      5          6           0        0.823099   -0.358942   -0.833403
      6          6           0       -0.463986   -0.438275   -0.014482
      7          8           0       -1.578129   -0.147735   -0.858100
      8          6           0       -2.816771   -0.244132   -0.146375
      9          6           0       -3.970993    0.103383   -1.094903
     10          7           0       -4.003714   -0.774596   -2.270578
     11          1           0        3.611061    1.578779    2.849220
     12          1           0        4.586587    1.908160    1.581849
     13          1           0        3.424295   -0.732159    2.171101
     14          1           0        4.457163   -0.369330    0.807267
     15          1           0        2.754633    1.262413   -0.064725
     16          1           0        1.703961    0.883763    1.325925
     17          1           0        0.777793   -1.104947   -1.635082
     18          1           0        0.921283    0.614464   -1.329554
     19          1           0       -0.566092   -1.441829    0.415086
     20          1           0       -0.436454    0.276989    0.814717
     21          1           0       -2.938249   -1.262316    0.241437
     22          1           0       -2.811593    0.459207    0.693994
     23          1           0       -3.856226    1.133472   -1.449846
     24          1           0       -4.925762    0.034282   -0.563942
     25          1           0       -4.063457   -1.744071   -1.961301
     26          1           0       -3.085197   -0.703858   -2.717216
 ---------------------------------------------------------------------
                    Distance matrix (angstroms):
                    1          2          3          4          5
     1  N    0.000000
     2  C    1.462347   0.000000
     3  C    2.501877   1.533698   0.000000
     4  O    3.725461   2.409934   1.427943   0.000000
     5  C    4.877649   3.715381   2.380671   1.427556   0.000000
     6  C    5.506171   4.454384   3.153806   2.447895   1.527584
     7  O    6.769068   5.777978   4.373898   3.679809   2.410625
     8  C    7.635863   6.726203   5.402547   4.809630   3.705920
     9  C    8.978256   8.093577   6.691416   6.084996   4.823426
    10  N    9.642588   8.610265   7.221065   6.380978   5.053351
    11  H    1.018696   2.046756   2.699369   4.002708   5.008913
    12  H    1.019305   2.045823   2.708044   4.002864   5.013685
    13  H    2.095079   1.095734   2.162036   2.647151   3.991561
    14  H    2.096919   1.095961   2.163541   2.639493   3.987272
    15  H    2.764773   2.168238   1.096688   2.068712   2.636376
    16  H    2.764555   2.165928   1.095462   2.075456   2.642524
    17  H    5.699974   4.427139   3.266486   2.042752   1.096023
    18  H    4.936656   3.988071   2.526110   2.091278   1.096961
    19  H    5.813467   4.650526   3.609205   2.698952   2.158987
    20  H    5.024339   4.197913   2.923646   2.722403   2.169603
    21  H    7.891596   6.884907   5.704227   4.958256   4.014861
    22  H    7.311770   6.573880   5.287270   4.968338   4.026573
    23  H    8.948225   8.175934   6.704595   6.258519   4.950089
    24  H    9.707206   8.867167   7.514976   6.953827   5.768590
    25  H    9.797940   8.683876   7.388496   6.428608   5.202803
    26  H    9.083379   8.015714   6.612629   5.723344   4.352298
                    6          7          8          9         10
     6  C    0.000000
     7  O    1.427383   0.000000
     8  C    2.364463   1.431810   0.000000
     9  C    3.709421   2.417630   1.533852   0.000000
    10  N    4.211028   2.876023   2.490474   1.467695   0.000000
    11  H    5.373574   6.607024   7.322132   8.672972   9.472882
    12  H    5.793299   6.941453   7.901191   9.146278   9.789363
    13  H    4.470108   5.877232   6.675310   8.127435   8.654803
    14  H    4.989763   6.264767   7.337249   8.653065   9.012426
    15  H    3.640655   4.625017   5.772078   6.902076   7.395299
    16  H    2.871318   4.075054   4.886393   6.218883   6.947125
    17  H    2.147745   2.659008   3.984738   4.929789   4.834852
    18  H    2.180974   2.655236   4.013745   4.924493   5.202943
    19  H    1.096392   2.078437   2.610607   4.032505   4.413075
    20  H    1.095414   2.069331   2.619385   4.021164   4.832207
    21  H    2.620404   2.073933   1.096290   2.171980   2.771877
    22  H    2.611259   2.073357   1.095871   2.161243   3.425216
    23  H    4.004741   2.679810   2.162705   1.095554   2.082325
    24  H    4.520250   3.365458   2.167883   1.094659   2.101681
    25  H    4.295509   3.153124   2.664206   2.042616   1.019364
    26  H    3.774395   2.456998   2.625380   2.016971   1.023798
                   11         12         13         14         15
    11  H    0.000000
    12  H    1.632903   0.000000
    13  H    2.415607   2.944388   0.000000
    14  H    2.946284   2.409084   1.748858   0.000000
    15  H    3.053627   2.546419   3.070128   2.514273   0.000000
    16  H    2.537815   3.069921   2.507005   3.069099   1.783591
    17  H    5.944641   5.825321   4.650803   4.477049   3.460970
    18  H    5.062308   4.856374   4.509218   4.246917   2.319655
    19  H    5.700674   6.255706   4.417059   5.151423   4.309334
    20  H    4.713410   5.336679   4.214681   4.936119   3.453623
    21  H    7.600382   8.274767   6.669830   7.470590   6.235134
    22  H    6.866507   7.590838   6.518243   7.316702   5.674827
    23  H    8.627898   9.004021   8.342530   8.744450   6.755637
    24  H    9.322686   9.929784   8.819939   9.491175   7.793971
    25  H    9.647832  10.035733   8.612034   9.063986   7.689102
    26  H    9.001973   9.173923   8.140634   8.331932   6.708617
                   16         17         18         19         20
    16  H    0.000000
    17  H    3.685148   0.000000
    18  H    2.781488   1.752231   0.000000
    19  H    3.375077   2.474410   3.079675   0.000000
    20  H    2.282736   3.063602   2.560319   1.769420   0.000000
    21  H    5.227990   4.165940   4.570154   2.385269   2.992840
    22  H    4.579281   4.555750   4.248908   2.955334   2.385176
    23  H    6.219561   5.149656   4.807123   4.575492   4.190065
    24  H    6.945966   5.914027   5.925429   4.705754   4.702499
    25  H    7.139641   4.894139   5.550624   4.239118   4.994608
    26  H    6.465568   4.031697   4.440210   4.086785   4.522439
                   21         22         23         24         25
    21  H    0.000000
    22  H    1.784513   0.000000
    23  H    3.072933   2.478293   0.000000
    24  H    2.505994   2.496532   1.771144   0.000000
    25  H    2.519967   3.670447   2.929980   2.420480   0.000000
    26  H    3.014481   3.614406   2.361460   2.927305   1.615686
                   26
    26  H    0.000000
 Stoichiometry    C6H16N2O2
 Framework group  C1[X(C6H16N2O2)]
 Deg. of freedom    72
 Full point group                 C1      NOp   1
 Largest Abelian subgroup         C1      NOp   1
 Largest concise Abelian subgroup C1      NOp   1
                         Standard orientation:                         
 ---------------------------------------------------------------------
 Center     Atomic      Atomic             Coordinates (Angstroms)
 Number     Number       Type             X           Y           Z
 ---------------------------------------------------------------------
      1          7           0        4.913458    0.881762   -0.221527
      2          6           0        3.962842   -0.068102    0.355141
      3          6           0        2.582393   -0.022351   -0.311566
      4          8           0        1.736080   -0.988679    0.312120
      5          6           0        0.421583   -1.019299   -0.243828
      6          6           0       -0.490366    0.025168    0.397224
      7          8           0       -1.789579   -0.060803   -0.187648
      8          6           0       -2.696681    0.875347    0.404692
      9          6           0       -4.063703    0.754485   -0.280395
     10          7           0       -4.614139   -0.602391   -0.180207
     11          1           0        4.541675    1.827815   -0.154428
     12          1           0        5.034464    0.688136   -1.214930
     13          1           0        3.858163    0.134471    1.426887
     14          1           0        4.373755   -1.081362    0.280406
     15          1           0        2.675078   -0.255572   -1.379153
     16          1           0        2.150660    0.978592   -0.203134
     17          1           0        0.007752   -2.015547   -0.050179
     18          1           0        0.449791   -0.908975   -1.334863
     19          1           0       -0.549385   -0.150722    1.477804
     20          1           0       -0.086823    1.032243    0.245945
     21          1           0       -2.790208    0.666723    1.476878
     22          1           0       -2.311291    1.892559    0.271701
     23          1           0       -3.963333    0.996985   -1.344048
     24          1           0       -4.768580    1.465434    0.162300
     25          1           0       -4.672639   -0.866872    0.802508
     26          1           0       -3.912730   -1.235144   -0.574937
 ---------------------------------------------------------------------
 Rotational constants (GHZ):           4.6812695           0.3362075           0.3242143
 Standard basis: 6-31G(d,p) (6D, 7F)
 There are   230 symmetry adapted cartesian basis functions of A   symmetry.
 There are   230 symmetry adapted basis functions of A   symmetry.
   230 basis functions,   392 primitive gaussians,   230 cartesian basis functions
    41 alpha electrons       41 beta electrons
       nuclear repulsion energy       548.6387110019 Hartrees.
 NAtoms=   26 NActive=   26 NUniq=   26 SFac= 1.00D+00 NAtFMM=   60 NAOKFM=F Big=F
 Integral buffers will be    131072 words long.
 Raffenetti 2 integral format.
 Two-electron integral symmetry is turned on.
 Force inversion solution in PCM.
 ------------------------------------------------------------------------------
 Polarizable Continuum Model (PCM)
 =================================
 Model                : PCM.
 Atomic radii         : UFF (Universal Force Field).
 Polarization charges : Total charges.
 Charge compensation  : None.
 Solution method      : Matrix inversion.
 Cavity type          : Scaled VdW (van der Waals Surface) (Alpha=1.100).
 Cavity algorithm     : GePol (No added spheres)
                        Default sphere list used, NSphG=   26.
                        Lebedev-Laikov grids with approx.  5.0 points / Ang**2.
                        Smoothing algorithm: York/Karplus (Gamma=1.0000).
                        Polarization charges: spherical gaussians, with
                                              point-specific exponents (IZeta= 3).
                        Self-potential: point-specific (ISelfS= 7).
                        Self-field    : sphere-specific E.n sum rule (ISelfD= 2).
 1st derivatives      : Analytical E(r).r(x)/FMM algorithm (CHGder, D1EAlg=3).
                        Cavity 1st derivative terms included.
 2nd derivatives      : Analytical E(r).r(xy)/FMM algorithm (CHGder, D2EAlg=3).
                        Cavity 2nd derivative terms included.
 Solvent              : Water, Eps=  78.355300 Eps(inf)=   1.777849
 ------------------------------------------------------------------------------
 One-electron integrals computed using PRISM.
 NBasis=   230 RedAO= T EigKep=  3.41D-03  NBF=   230
 NBsUse=   230 1.00D-06 EigRej= -1.00D+00 NBFU=   230
 ExpMin= 1.61D-01 ExpMax= 5.48D+03 ExpMxC= 8.25D+02 IAcc=3 IRadAn=         5 AccDes= 0.00D+00
 Harris functional with IExCor=  402 and IRadAn=       5 diagonalized for initial guess.
 HarFok:  IExCor=  402 AccDes= 0.00D+00 IRadAn=         5 IDoV= 1 UseB2=F ITyADJ=14
 ICtDFT=  3500011 ScaDFX=  1.000000  1.000000  1.000000  1.000000
 FoFCou: FMM=F IPFlag=           0 FMFlag=      100000 FMFlg1=           0
         NFxFlg=           0 DoJE=T BraDBF=F KetDBF=T FulRan=T
         wScrn=  0.000000 ICntrl=       500 IOpCl=  0 I1Cent=   200000004 NGrid=           0
         NMat0=    1 NMatS0=      1 NMatT0=    0 NMatD0=    1 NMtDS0=    0 NMtDT0=    0
 Petite list used in FoFCou.
 Keep R1 ints in memory in canonical form, NReq=359027606.
 Requested convergence on RMS density matrix=1.00D-08 within  32 cycles.
 Requested convergence on MAX density matrix=1.00D-06.
 Requested convergence on             energy=1.00D-06.
 No special actions if energy rises.
 Inv3:  Mode=1 IEnd=    10990188.
 Iteration    1 A*A^-1 deviation from unit magnitude is 2.89D-15 for    625.
 Iteration    1 A*A^-1 deviation from orthogonality  is 1.89D-15 for   1685     98.
 Iteration    1 A^-1*A deviation from unit magnitude is 2.89D-15 for    625.
 Iteration    1 A^-1*A deviation from orthogonality  is 1.87D-15 for   1840    236.
 Error on total polarization charges =  0.00922
 SCF Done:  E(RB3LYP) =  -498.211488607     A.U. after   11 cycles
            NFock= 11  Conv=0.66D-08     -V/T= 2.0093
 QCSCF skips out because SCF is already converged.
 DoSCS=F DFT=T ScalE2(SS,OS)=  1.000000  1.000000
 Range of M.O.s used for correlation:     1   230
 NBasis=   230 NAE=    41 NBE=    41 NFC=     0 NFV=     0
 NROrb=    230 NOA=    41 NOB=    41 NVA=   189 NVB=   189
 Symmetrizing basis deriv contribution to polar:
 IMax=3 JMax=2 DiffMx= 0.00D+00
 G2DrvN: will do    27 centers at a time, making    1 passes.
 Calling FoFCou, ICntrl=  3107 FMM=F I1Cent=   0 AccDes= 0.00D+00.
 NEqPCM:  Using equilibrium solvation (IEInf=0, Eps=  78.3553, EpsInf=   1.7778)
 G2PCM: DoFxE=T DoFxN=T DoGrad=T DoDP/DQ/DG/TGxP=FFFF NFrqRd=   0 IEInf=0 SqF1=F DoCFld=F IF1Alg=4.
 End of G2Drv F.D. properties file   721 does not exist.
 End of G2Drv F.D. properties file   722 does not exist.
 End of G2Drv F.D. properties file   788 does not exist.
          IDoAtm=11111111111111111111111111
 NEqPCM:  Using equilibrium solvation (IEInf=0, Eps=  78.3553, EpsInf=   1.7778)
          Differentiating once with respect to nuclear coordinates.
 Keep R1 ints in memory in canonical form, NReq=362407229.
          There are    81 degrees of freedom in the 1st order CPHF.  IDoFFX=6 NUNeed=     0.
     75 vectors produced by pass  0 Test12= 9.57D-15 1.23D-09 XBig12= 8.55D-02 6.19D-02.
 AX will form    75 AO Fock derivatives at one time.
     75 vectors produced by pass  1 Test12= 9.57D-15 1.23D-09 XBig12= 6.36D-03 2.02D-02.
     75 vectors produced by pass  2 Test12= 9.57D-15 1.23D-09 XBig12= 1.06D-04 1.46D-03.
     75 vectors produced by pass  3 Test12= 9.57D-15 1.23D-09 XBig12= 7.12D-07 1.01D-04.
     75 vectors produced by pass  4 Test12= 9.57D-15 1.23D-09 XBig12= 7.62D-10 3.62D-06.
     34 vectors produced by pass  5 Test12= 9.57D-15 1.23D-09 XBig12= 5.35D-13 1.01D-07.
      3 vectors produced by pass  6 Test12= 9.57D-15 1.23D-09 XBig12= 3.57D-16 1.67D-09.
 InvSVY:  IOpt=1 It=  1 EMax= 2.78D-16
 Solved reduced A of dimension   412 with    81 vectors.
 End of Minotr F.D. properties file   721 does not exist.
 End of Minotr F.D. properties file   722 does not exist.
 End of Minotr F.D. properties file   788 does not exist.

 **********************************************************************

            Population analysis using the SCF density.

 **********************************************************************

 Orbital symmetries:
       Occupied  (A) (A) (A) (A) (A) (A) (A) (A) (A) (A) (A) (A)
                 (A) (A) (A) (A) (A) (A) (A) (A) (A) (A) (A) (A)
                 (A) (A) (A) (A) (A) (A) (A) (A) (A) (A) (A) (A)
                 (A) (A) (A) (A) (A)
       Virtual   (A) (A) (A) (A) (A) (A) (A) (A) (A) (A) (A) (A)
                 (A) (A) (A) (A) (A) (A) (A) (A) (A) (A) (A) (A)
                 (A) (A) (A) (A) (A) (A) (A) (A) (A) (A) (A) (A)
                 (A) (A) (A) (A) (A) (A) (A) (A) (A) (A) (A) (A)
                 (A) (A) (A) (A) (A) (A) (A) (A) (A) (A) (A) (A)
                 (A) (A) (A) (A) (A) (A) (A) (A) (A) (A) (A) (A)
                 (A) (A) (A) (A) (A) (A) (A) (A) (A) (A) (A) (A)
                 (A) (A) (A) (A) (A) (A) (A) (A) (A) (A) (A) (A)
                 (A) (A) (A) (A) (A) (A) (A) (A) (A) (A) (A) (A)
                 (A) (A) (A) (A) (A) (A) (A) (A) (A) (A) (A) (A)
                 (A) (A) (A) (A) (A) (A) (A) (A) (A) (A) (A) (A)
                 (A) (A) (A) (A) (A) (A) (A) (A) (A) (A) (A) (A)
                 (A) (A) (A) (A) (A) (A) (A) (A) (A) (A) (A) (A)
                 (A) (A) (A) (A) (A) (A) (A) (A) (A) (A) (A) (A)
                 (A) (A) (A) (A) (A) (A) (A) (A) (A) (A) (A) (A)
                 (A) (A) (A) (A) (A) (A) (A) (A) (A)
 The electronic state is 1-A.
 Alpha  occ. eigenvalues --  -19.15259 -19.15175 -14.31503 -14.30925 -10.23148
 Alpha  occ. eigenvalues --  -10.22961 -10.22670 -10.22608 -10.20674 -10.20672
 Alpha  occ. eigenvalues --   -1.03423  -1.02535  -0.88015  -0.87623  -0.76302
 Alpha  occ. eigenvalues --   -0.72183  -0.68602  -0.62117  -0.60119  -0.59864
 Alpha  occ. eigenvalues --   -0.51046  -0.50012  -0.49444  -0.48209  -0.46693
 Alpha  occ. eigenvalues --   -0.45666  -0.44706  -0.43122  -0.41606  -0.40353
 Alpha  occ. eigenvalues --   -0.39232  -0.37993  -0.36579  -0.35558  -0.34561
 Alpha  occ. eigenvalues --   -0.32792  -0.31593  -0.26249  -0.25620  -0.24011
 Alpha  occ. eigenvalues --   -0.23748
 Alpha virt. eigenvalues --    0.07688   0.08308   0.09194   0.11044   0.12797
 Alpha virt. eigenvalues --    0.13244   0.13319   0.14369   0.14837   0.15815
 Alpha virt. eigenvalues --    0.17324   0.17397   0.18234   0.19344   0.19548
 Alpha virt. eigenvalues --    0.19712   0.21343   0.21913   0.22867   0.24451
 Alpha virt. eigenvalues --    0.24718   0.25944   0.27032   0.27697   0.29858
 Alpha virt. eigenvalues --    0.49178   0.51603   0.53214   0.54160   0.55378
 Alpha virt. eigenvalues --    0.56002   0.56898   0.57222   0.58984   0.59491
 Alpha virt. eigenvalues --    0.60607   0.62843   0.64502   0.66921   0.67666
 Alpha virt. eigenvalues --    0.69526   0.70997   0.72907   0.74198   0.75682
 Alpha virt. eigenvalues --    0.77597   0.78417   0.78894   0.79954   0.81391
 Alpha virt. eigenvalues --    0.82742   0.85050   0.86538   0.87509   0.88605
 Alpha virt. eigenvalues --    0.88795   0.89428   0.90426   0.91385   0.92266
 Alpha virt. eigenvalues --    0.92647   0.93692   0.95012   0.95633   0.96561
 Alpha virt. eigenvalues --    0.98908   1.01596   1.08788   1.10201   1.14364
 Alpha virt. eigenvalues --    1.15742   1.21580   1.22742   1.29085   1.31317
 Alpha virt. eigenvalues --    1.33983   1.34120   1.35017   1.37313   1.39949
 Alpha virt. eigenvalues --    1.41429   1.44952   1.47135   1.50015   1.55010
 Alpha virt. eigenvalues --    1.57443   1.60694   1.63600   1.65125   1.68709
 Alpha virt. eigenvalues --    1.72005   1.73225   1.74240   1.82375   1.83671
 Alpha virt. eigenvalues --    1.85836   1.86179   1.88308   1.89969   1.92221
 Alpha virt. eigenvalues --    1.92918   1.93978   1.95411   1.96170   1.97930
 Alpha virt. eigenvalues --    1.99483   2.00076   2.01653   2.02511   2.04169
 Alpha virt. eigenvalues --    2.05101   2.06656   2.07416   2.09069   2.11684
 Alpha virt. eigenvalues --    2.13593   2.16747   2.19920   2.21865   2.24629
 Alpha virt. eigenvalues --    2.25803   2.26312   2.27015   2.28797   2.29220
 Alpha virt. eigenvalues --    2.29877   2.32748   2.35088   2.36178   2.38185
 Alpha virt. eigenvalues --    2.41562   2.43722   2.46264   2.48381   2.50177
 Alpha virt. eigenvalues --    2.52761   2.54419   2.60611   2.62035   2.65425
 Alpha virt. eigenvalues --    2.65773   2.68650   2.68908   2.70480   2.71126
 Alpha virt. eigenvalues --    2.72865   2.74911   2.75889   2.78813   2.79336
 Alpha virt. eigenvalues --    2.83057   2.85207   2.86299   2.87278   2.89155
 Alpha virt. eigenvalues --    2.91125   2.92389   2.96577   2.97597   2.97979
 Alpha virt. eigenvalues --    3.00749   3.01911   3.07677   3.22914   3.23857
 Alpha virt. eigenvalues --    3.25756   3.29390   3.29869   3.31904   3.32016
 Alpha virt. eigenvalues --    3.35096   3.36553   3.38313   3.40459   3.47570
 Alpha virt. eigenvalues --    3.50127   3.54749   3.58358   3.58567   3.88088
 Alpha virt. eigenvalues --    3.96959   4.01098   4.12162   4.35991   4.38132
 Alpha virt. eigenvalues --    4.41576   4.58473   4.60622   4.65413
          Condensed to atoms (all electrons):
               1          2          3          4          5          6
     1  N    6.750054   0.308603  -0.058290   0.002541  -0.000106   0.000000
     2  C    0.308603   4.839583   0.371384  -0.034439   0.003602   0.000035
     3  C   -0.058290   0.371384   4.829667   0.198272  -0.026541  -0.006860
     4  O    0.002541  -0.034439   0.198272   8.286240   0.226456  -0.036650
     5  C   -0.000106   0.003602  -0.026541   0.226456   4.780665   0.354424
     6  C    0.000000   0.000035  -0.006860  -0.036650   0.354424   4.806048
     7  O   -0.000000  -0.000000   0.000057   0.001122  -0.031694   0.205619
     8  C    0.000000  -0.000000  -0.000005  -0.000041   0.003729  -0.022625
     9  C   -0.000000   0.000000   0.000000   0.000000  -0.000200   0.003880
    10  N   -0.000000   0.000000  -0.000000  -0.000000   0.000007   0.000322
    11  H    0.347884  -0.045379  -0.003277   0.000002   0.000005  -0.000002
    12  H    0.347711  -0.045378  -0.003139   0.000001  -0.000001  -0.000000
    13  H   -0.033999   0.381303  -0.045013   0.004804  -0.000247  -0.000001
    14  H   -0.033478   0.380582  -0.044412   0.005055   0.000019   0.000004
    15  H    0.002780  -0.038269   0.366037  -0.036597  -0.011357  -0.000948
    16  H    0.002695  -0.039805   0.362358  -0.040897  -0.000014   0.002557
    17  H    0.000002  -0.000200   0.004725  -0.031587   0.380761  -0.045713
    18  H    0.000006   0.000057  -0.010298  -0.029588   0.364735  -0.048548
    19  H    0.000000  -0.000021   0.000020   0.004170  -0.036865   0.363513
    20  H    0.000004  -0.000131   0.001258   0.001300  -0.039601   0.370554
    21  H    0.000000  -0.000000   0.000001   0.000001   0.000081  -0.007674
    22  H   -0.000000   0.000000  -0.000002   0.000004   0.000103  -0.008058
    23  H   -0.000000  -0.000000  -0.000000   0.000000   0.000000  -0.000042
    24  H    0.000000  -0.000000  -0.000000  -0.000000   0.000002  -0.000131
    25  H    0.000000  -0.000000  -0.000000  -0.000000  -0.000000  -0.000036
    26  H    0.000000   0.000000   0.000000   0.000000   0.000006  -0.000589
               7          8          9         10         11         12
     1  N   -0.000000   0.000000  -0.000000  -0.000000   0.347884   0.347711
     2  C   -0.000000  -0.000000   0.000000   0.000000  -0.045379  -0.045378
     3  C    0.000057  -0.000005   0.000000  -0.000000  -0.003277  -0.003139
     4  O    0.001122  -0.000041   0.000000  -0.000000   0.000002   0.000001
     5  C   -0.031694   0.003729  -0.000200   0.000007   0.000005  -0.000001
     6  C    0.205619  -0.022625   0.003880   0.000322  -0.000002  -0.000000
     7  O    8.294453   0.232403  -0.043563  -0.006052   0.000000   0.000000
     8  C    0.232403   4.803532   0.367726  -0.061169   0.000000   0.000000
     9  C   -0.043563   0.367726   4.832626   0.322836  -0.000000   0.000000
    10  N   -0.006052  -0.061169   0.322836   6.768725   0.000000  -0.000000
    11  H    0.000000   0.000000  -0.000000   0.000000   0.471959  -0.033147
    12  H    0.000000   0.000000   0.000000  -0.000000  -0.033147   0.472507
    13  H    0.000000   0.000000   0.000000  -0.000000  -0.005191   0.006375
    14  H   -0.000000   0.000000  -0.000000   0.000000   0.006336  -0.005457
    15  H    0.000017  -0.000000   0.000000  -0.000000  -0.000559   0.005325
    16  H   -0.000210   0.000004  -0.000000  -0.000000   0.005469  -0.000568
    17  H    0.005124  -0.000132   0.000001  -0.000009   0.000000   0.000000
    18  H    0.005765  -0.000094   0.000020  -0.000000   0.000001   0.000001
    19  H   -0.037162  -0.007308   0.000319  -0.000050   0.000000  -0.000000
    20  H   -0.036878  -0.006986  -0.000072  -0.000001  -0.000005   0.000001
    21  H   -0.042445   0.364068  -0.034384  -0.005535   0.000000  -0.000000
    22  H   -0.040008   0.349280  -0.031526   0.005943  -0.000000   0.000000
    23  H    0.000921  -0.042343   0.383715  -0.042686   0.000000   0.000000
    24  H    0.002562  -0.038443   0.379022  -0.036048   0.000000  -0.000000
    25  H   -0.000280  -0.002260  -0.045911   0.343367  -0.000000   0.000000
    26  H    0.015781  -0.008993  -0.048262   0.343889  -0.000000   0.000000
              13         14         15         16         17         18
     1  N   -0.033999  -0.033478   0.002780   0.002695   0.000002   0.000006
     2  C    0.381303   0.380582  -0.038269  -0.039805  -0.000200   0.000057
     3  C   -0.045013  -0.044412   0.366037   0.362358   0.004725  -0.010298
     4  O    0.004804   0.005055  -0.036597  -0.040897  -0.031587  -0.029588
     5  C   -0.000247   0.000019  -0.011357  -0.000014   0.380761   0.364735
     6  C   -0.000001   0.000004  -0.000948   0.002557  -0.045713  -0.048548
     7  O    0.000000  -0.000000   0.000017  -0.000210   0.005124   0.005765
     8  C    0.000000   0.000000  -0.000000   0.000004  -0.000132  -0.000094
     9  C    0.000000  -0.000000   0.000000  -0.000000   0.000001   0.000020
    10  N   -0.000000   0.000000  -0.000000  -0.000000  -0.000009  -0.000000
    11  H   -0.005191   0.006336  -0.000559   0.005469   0.000000   0.000001
    12  H    0.006375  -0.005457   0.005325  -0.000568   0.000000   0.000001
    13  H    0.619420  -0.038685   0.006526  -0.007989   0.000017   0.000041
    14  H   -0.038685   0.618630  -0.007897   0.006581  -0.000009  -0.000014
    15  H    0.006526  -0.007897   0.665083  -0.057050   0.000459   0.012410
    16  H   -0.007989   0.006581  -0.057050   0.672651  -0.000279  -0.001872
    17  H    0.000017  -0.000009   0.000459  -0.000279   0.621316  -0.041914
    18  H    0.000041  -0.000014   0.012410  -0.001872  -0.041914   0.647978
    19  H    0.000008   0.000003   0.000048  -0.000090  -0.009588   0.006873
    20  H    0.000037  -0.000003   0.000310   0.002150   0.006558  -0.007649
    21  H   -0.000000   0.000000  -0.000000  -0.000001  -0.000047   0.000035
    22  H    0.000000  -0.000000   0.000000   0.000001   0.000037  -0.000041
    23  H   -0.000000   0.000000  -0.000000  -0.000000  -0.000000   0.000004
    24  H   -0.000000   0.000000  -0.000000   0.000000  -0.000000   0.000000
    25  H    0.000000   0.000000  -0.000000   0.000000   0.000001  -0.000000
    26  H    0.000000  -0.000000   0.000000  -0.000000   0.000092   0.000005
              19         20         21         22         23         24
     1  N    0.000000   0.000004   0.000000  -0.000000  -0.000000   0.000000
     2  C   -0.000021  -0.000131  -0.000000   0.000000  -0.000000  -0.000000
     3  C    0.000020   0.001258   0.000001  -0.000002  -0.000000  -0.000000
     4  O    0.004170   0.001300   0.000001   0.000004   0.000000  -0.000000
     5  C   -0.036865  -0.039601   0.000081   0.000103   0.000000   0.000002
     6  C    0.363513   0.370554  -0.007674  -0.008058  -0.000042  -0.000131
     7  O   -0.037162  -0.036878  -0.042445  -0.040008   0.000921   0.002562
     8  C   -0.007308  -0.006986   0.364068   0.349280  -0.042343  -0.038443
     9  C    0.000319  -0.000072  -0.034384  -0.031526   0.383715   0.379022
    10  N   -0.000050  -0.000001  -0.005535   0.005943  -0.042686  -0.036048
    11  H    0.000000  -0.000005   0.000000  -0.000000   0.000000   0.000000
    12  H   -0.000000   0.000001  -0.000000   0.000000   0.000000  -0.000000
    13  H    0.000008   0.000037  -0.000000   0.000000  -0.000000  -0.000000
    14  H    0.000003  -0.000003   0.000000  -0.000000   0.000000   0.000000
    15  H    0.000048   0.000310  -0.000000   0.000000  -0.000000  -0.000000
    16  H   -0.000090   0.002150  -0.000001   0.000001  -0.000000   0.000000
    17  H   -0.009588   0.006558  -0.000047   0.000037  -0.000000  -0.000000
    18  H    0.006873  -0.007649   0.000035  -0.000041   0.000004   0.000000
    19  H    0.664510  -0.057513   0.013206  -0.002848   0.000038   0.000017
    20  H   -0.057513   0.659381  -0.002721   0.012677  -0.000051   0.000000
    21  H    0.013206  -0.002721   0.662423  -0.051185   0.006132  -0.001103
    22  H   -0.002848   0.012677  -0.051185   0.677550  -0.004312   0.001583
    23  H    0.000038  -0.000051   0.006132  -0.004312   0.614617  -0.031402
    24  H    0.000017   0.000000  -0.001103   0.001583  -0.031402   0.607898
    25  H    0.000004   0.000001   0.005246   0.000028   0.006657  -0.004887
    26  H    0.000023   0.000053  -0.000019   0.000589  -0.004990   0.006525
              25         26
     1  N    0.000000   0.000000
     2  C   -0.000000   0.000000
     3  C   -0.000000   0.000000
     4  O   -0.000000   0.000000
     5  C   -0.000000   0.000006
     6  C   -0.000036  -0.000589
     7  O   -0.000280   0.015781
     8  C   -0.002260  -0.008993
     9  C   -0.045911  -0.048262
    10  N    0.343367   0.343889
    11  H   -0.000000  -0.000000
    12  H    0.000000   0.000000
    13  H    0.000000   0.000000
    14  H    0.000000  -0.000000
    15  H   -0.000000   0.000000
    16  H    0.000000  -0.000000
    17  H    0.000001   0.000092
    18  H   -0.000000   0.000005
    19  H    0.000004   0.000023
    20  H    0.000001   0.000053
    21  H    0.005246  -0.000019
    22  H    0.000028   0.000589
    23  H    0.006657  -0.004990
    24  H   -0.004887   0.006525
    25  H    0.483538  -0.033577
    26  H   -0.033577   0.476584
 Mulliken charges:
               1
     1  N   -0.636408
     2  C   -0.081526
     3  C    0.064060
     4  O   -0.520169
     5  C    0.032031
     6  C    0.070921
     7  O   -0.525532
     8  C    0.069657
     9  C   -0.086227
    10  N   -0.633538
    11  H    0.255902
    12  H    0.255769
    13  H    0.112594
    14  H    0.112744
    15  H    0.093682
    16  H    0.094307
    17  H    0.110383
    18  H    0.102086
    19  H    0.098695
    20  H    0.097327
    21  H    0.093920
    22  H    0.090185
    23  H    0.113743
    24  H    0.114402
    25  H    0.248109
    26  H    0.252883
 Sum of Mulliken charges =  -0.00000
 Mulliken charges with hydrogens summed into heavy atoms:
               1
     1  N   -0.124736
     2  C    0.143812
     3  C    0.252048
     4  O   -0.520169
     5  C    0.244501
     6  C    0.266942
     7  O   -0.525532
     8  C    0.253762
     9  C    0.141918
    10  N   -0.132546
 APT charges:
               1
     1  N   -0.769327
     2  C   -0.789750
     3  C   -0.309743
     4  O   -0.403919
     5  C   -0.554244
     6  C   -0.358103
     7  O   -0.459739
     8  C   -0.443603
     9  C   -0.994782
    10  N   -0.393146
    11  H    0.274687
    12  H    0.536874
    13  H    0.309788
    14  H    0.519668
    15  H    0.337746
    16  H    0.128090
    17  H    0.403541
    18  H    0.298194
    19  H    0.328588
    20  H    0.250292
    21  H    0.334226
    22  H    0.266357
    23  H    0.322337
    24  H    0.728568
    25  H    0.451652
    26  H   -0.014252
 Sum of APT charges =  -0.00000
 APT charges with hydrogens summed into heavy atoms:
               1
     1  N    0.042235
     2  C    0.039706
     3  C    0.156092
     4  O   -0.403919
     5  C    0.147491
     6  C    0.220778
     7  O   -0.459739
     8  C    0.156980
     9  C    0.056123
    10  N    0.044254
 Electronic spatial extent (au):  <R**2>=           3368.3747
 Charge=             -0.0000 electrons
 Dipole moment (field-independent basis, Debye):
    X=              0.2503    Y=              2.2216    Z=             -0.1093  Tot=              2.2383
 Quadrupole moment (field-independent basis, Debye-Ang):
   XX=            -86.9544   YY=            -59.7134   ZZ=            -60.2759
   XY=             -1.3020   XZ=            -13.8423   YZ=             -0.1961
 Traceless Quadrupole moment (field-independent basis, Debye-Ang):
   XX=            -17.9732   YY=              9.2678   ZZ=              8.7053
   XY=             -1.3020   XZ=            -13.8423   YZ=             -0.1961
 Octapole moment (field-independent basis, Debye-Ang**2):
  XXX=             -0.1889  YYY=              1.9147  ZZZ=             -1.9116  XYY=             -1.6187
  XXY=             17.8538  XXZ=              1.8805  XZZ=              4.1144  YZZ=             -0.6339
  YYZ=             -1.6524  XYZ=              1.7527
 Hexadecapole moment (field-independent basis, Debye-Ang**3):
 XXXX=          -5163.1183 YYYY=           -273.0087 ZZZZ=           -143.1066 XXXY=           -171.4591
 XXXZ=           -318.5994 YYYX=             36.7899 YYYZ=             -2.1411 ZZZX=            -17.6744
 ZZZY=             -3.5165 XXYY=           -657.6592 XXZZ=           -621.0163 YYZZ=            -73.6195
 XXYZ=            -38.3831 YYXZ=             -9.8011 ZZXY=             10.0449
 N-N= 5.486387110019D+02 E-N=-2.258442380376D+03  KE= 4.936158272397D+02
  Exact polarizability:   0.000   0.000   0.000   0.000   0.000   0.000
 Approx polarizability: 117.037   2.339 114.227  -3.285  -0.303 110.851
 D2PCM: PCM CHGder 2nd derivatives, FixD1E=F FixD2E=F DoIter=F DoCFld=F I1PDM=0
 Calling FoFJK, ICntrl=    100147 FMM=F ISym2X=0 I1Cent= 0 IOpClX= 0 NMat=1 NMatS=1 NMatT=0.
 ***** Axes restored to original set *****
 -------------------------------------------------------------------
 Center     Atomic                   Forces (Hartrees/Bohr)
 Number     Number              X              Y              Z
 -------------------------------------------------------------------
      1        7           0.003916077   -0.000426956    0.001797860
      2        6          -0.003308024    0.001229061   -0.001325991
      3        6           0.002563952   -0.009388534    0.000048107
      4        8          -0.004483269    0.001640351   -0.002913989
      5        6           0.000790340   -0.005657336   -0.004638341
      6        6          -0.003752792    0.002964148   -0.003052468
      7        8           0.000060229   -0.000546046    0.002311893
      8        6          -0.000902093    0.008934596   -0.003439420
      9        6           0.010071705   -0.008239253   -0.003399157
     10        7           0.000517868    0.001619793   -0.007130437
     11        1           0.000216533    0.000320222   -0.001181901
     12        1          -0.001302004   -0.000347540    0.001008743
     13        1          -0.001406274    0.000749395    0.000765352
     14        1          -0.000067713    0.001563796   -0.001186848
     15        1           0.000335408    0.003695291   -0.000333753
     16        1          -0.000007845    0.003767819    0.002047034
     17        1           0.001000302   -0.001436163    0.001294476
     18        1          -0.000919535    0.002895591    0.002229912
     19        1           0.001068702   -0.002423277    0.001177568
     20        1           0.000530529    0.001574306    0.003152387
     21        1          -0.001194060   -0.002423058    0.002279209
     22        1           0.000559370    0.000111212    0.005083725
     23        1          -0.000281979    0.000757287    0.001497161
     24        1           0.000778984    0.000227708    0.001801141
     25        1          -0.000956943   -0.000042558    0.000787465
     26        1          -0.003827468   -0.001119853    0.001320273
 -------------------------------------------------------------------
 Cartesian Forces:  Max     0.010071705 RMS     0.003051564
 FormGI is forming the generalized inverse of G from B-inverse, IUseBI=4.

 GradGradGradGradGradGradGradGradGradGradGradGradGradGradGradGradGradGrad
 Berny optimization.
 Internal  Forces:  Max     0.012046618 RMS     0.002417935
 Search for a local minimum.
 Step number   1 out of a maximum of  130
 All quantities printed in internal units (Hartrees-Bohrs-Radians)
 Mixed Optimization -- RFO/linear search
 Second derivative matrix not updated -- analytic derivatives used.
 ITU=  0
     Eigenvalues ---    0.00140   0.00241   0.00294   0.00322   0.00340
     Eigenvalues ---    0.00369   0.00452   0.00513   0.00691   0.03198
     Eigenvalues ---    0.03808   0.04413   0.04453   0.04473   0.04532
     Eigenvalues ---    0.04689   0.04758   0.04946   0.05043   0.05505
     Eigenvalues ---    0.06322   0.06421   0.06556   0.08136   0.08151
     Eigenvalues ---    0.09589   0.09970   0.10182   0.10586   0.11421
     Eigenvalues ---    0.11492   0.12143   0.12822   0.14477   0.14583
     Eigenvalues ---    0.14980   0.15165   0.16754   0.17103   0.18772
     Eigenvalues ---    0.18787   0.21362   0.22654   0.23213   0.24510
     Eigenvalues ---    0.24689   0.25204   0.27269   0.28013   0.28734
     Eigenvalues ---    0.30776   0.31601   0.32606   0.32697   0.32744
     Eigenvalues ---    0.32917   0.33166   0.33301   0.33387   0.33530
     Eigenvalues ---    0.33694   0.33831   0.35400   0.35873   0.36897
     Eigenvalues ---    0.37088   0.39427   0.41586   0.43046   0.44079
     Eigenvalues ---    0.44145   0.44422
 RFO step:  Lambda=-3.60920574D-03 EMin= 1.40070418D-03
 Linear search not attempted -- first point.
 Iteration  1 RMS(Cart)=  0.09329128 RMS(Int)=  0.00246042
 Iteration  2 RMS(Cart)=  0.00399169 RMS(Int)=  0.00012711
 Iteration  3 RMS(Cart)=  0.00000780 RMS(Int)=  0.00012699
 Iteration  4 RMS(Cart)=  0.00000000 RMS(Int)=  0.00012699
 Variable       Old X    -DE/DX   Delta X   Delta X   Delta X     New X
                                 (Linear)    (Quad)   (Total)
    R1        2.76343   0.00165   0.00000   0.00567   0.00567   2.76911
    R2        1.92506  -0.00075   0.00000   0.00013   0.00013   1.92519
    R3        1.92621  -0.00125   0.00000  -0.00110  -0.00110   1.92511
    R4        2.89827  -0.00247   0.00000  -0.00844  -0.00844   2.88983
    R5        2.07064   0.00030   0.00000   0.00065   0.00065   2.07128
    R6        2.07107   0.00006   0.00000   0.00019   0.00019   2.07126
    R7        2.69842   0.00205   0.00000  -0.00586  -0.00586   2.69256
    R8        2.07244   0.00292   0.00000   0.01047   0.01047   2.08291
    R9        2.07012   0.00262   0.00000   0.00981   0.00981   2.07993
   R10        2.69769  -0.00414   0.00000  -0.01359  -0.01359   2.68410
   R11        2.88671  -0.00104   0.00000   0.00153   0.00153   2.88824
   R12        2.07118  -0.00001   0.00000  -0.00183  -0.00183   2.06935
   R13        2.07296   0.00148   0.00000   0.00487   0.00487   2.07783
   R14        2.69736  -0.00457   0.00000  -0.01891  -0.01891   2.67846
   R15        2.07188   0.00258   0.00000   0.00892   0.00892   2.08080
   R16        2.07003   0.00343   0.00000   0.01064   0.01064   2.08067
   R17        2.70573  -0.00470   0.00000  -0.01754  -0.01754   2.68819
   R18        2.89856  -0.00311   0.00000  -0.01463  -0.01463   2.88393
   R19        2.07169   0.00319   0.00000   0.01202   0.01202   2.08371
   R20        2.07090   0.00397   0.00000   0.01195   0.01195   2.08285
   R21        2.77354   0.00384   0.00000  -0.00055  -0.00055   2.77299
   R22        2.07030   0.00020   0.00000   0.00215   0.00215   2.07245
   R23        2.06861   0.00018   0.00000   0.00231   0.00231   2.07091
   R24        1.92632   0.00033   0.00000   0.00086   0.00086   1.92717
   R25        1.93470  -0.00409   0.00000  -0.00911  -0.00911   1.92559
    A1        1.91772  -0.00034   0.00000  -0.00746  -0.00753   1.91020
    A2        1.91570  -0.00000   0.00000  -0.00589  -0.00596   1.90974
    A3        1.85869  -0.00061   0.00000  -0.01565  -0.01579   1.84290
    A4        1.97611   0.00530   0.00000   0.02612   0.02621   2.00232
    A5        1.90469  -0.00157   0.00000  -0.00703  -0.00696   1.89773
    A6        1.90701  -0.00167   0.00000  -0.00867  -0.00857   1.89843
    A7        1.91101  -0.00195   0.00000  -0.01216  -0.01217   1.89884
    A8        1.91283  -0.00218   0.00000  -0.01480  -0.01478   1.89806
    A9        1.84777   0.00184   0.00000   0.01592   0.01584   1.86361
   A10        1.90012  -0.00210   0.00000  -0.01156  -0.01152   1.88860
   A11        1.91852   0.00018   0.00000   0.00298   0.00299   1.92151
   A12        1.91661  -0.00083   0.00000  -0.00228  -0.00226   1.91434
   A13        1.90854   0.00138   0.00000   0.01290   0.01290   1.92144
   A14        1.91933   0.00266   0.00000   0.02341   0.02341   1.94274
   A15        1.90072  -0.00127   0.00000  -0.02518  -0.02527   1.87545
   A16        1.97160   0.00627   0.00000   0.02769   0.02769   1.99929
   A17        1.95154  -0.00014   0.00000   0.00434   0.00428   1.95582
   A18        1.87377  -0.00088   0.00000  -0.00752  -0.00753   1.86625
   A19        1.94067   0.00076   0.00000  -0.00010  -0.00023   1.94044
   A20        1.89858   0.00093   0.00000   0.00429   0.00434   1.90291
   A21        1.94332  -0.00235   0.00000  -0.02753  -0.02754   1.91578
   A22        1.85132   0.00186   0.00000   0.02874   0.02883   1.88014
   A23        1.90736  -0.00674   0.00000  -0.03283  -0.03282   1.87454
   A24        1.91351   0.00029   0.00000  -0.00071  -0.00069   1.91282
   A25        1.92913   0.00176   0.00000   0.00588   0.00598   1.93511
   A26        1.92323   0.00288   0.00000   0.01364   0.01347   1.93670
   A27        1.91145   0.00270   0.00000   0.01767   0.01765   1.92909
   A28        1.87909  -0.00073   0.00000  -0.00282  -0.00293   1.87616
   A29        1.94739   0.00486   0.00000   0.03182   0.03182   1.97921
   A30        1.90533  -0.00653   0.00000  -0.02100  -0.02095   1.88438
   A31        1.91158   0.00277   0.00000   0.01022   0.01018   1.92176
   A32        1.91122   0.00157   0.00000   0.01431   0.01440   1.92562
   A33        1.92388   0.00038   0.00000   0.00055   0.00057   1.92445
   A34        1.90960   0.00412   0.00000   0.02006   0.02013   1.92974
   A35        1.90216  -0.00228   0.00000  -0.02390  -0.02389   1.87827
   A36        1.95692   0.01205   0.00000   0.05163   0.05155   2.00848
   A37        1.91192  -0.00384   0.00000  -0.01831  -0.01903   1.89289
   A38        1.91993  -0.00468   0.00000  -0.02414  -0.02443   1.89550
   A39        1.88102  -0.00236   0.00000   0.00805   0.00806   1.88908
   A40        1.90851  -0.00295   0.00000  -0.00552  -0.00520   1.90331
   A41        1.88375   0.00150   0.00000  -0.01338  -0.01388   1.86987
   A42        1.90413  -0.00139   0.00000  -0.00611  -0.00611   1.89803
   A43        1.86306   0.00180   0.00000   0.01369   0.01369   1.87675
   A44        1.82415   0.00007   0.00000   0.00646   0.00646   1.83062
    D1        1.00729  -0.00032   0.00000  -0.00711  -0.00706   1.00023
    D2       -1.12585  -0.00028   0.00000  -0.00417  -0.00414  -1.12999
    D3       -3.13873  -0.00070   0.00000  -0.01454  -0.01450   3.12995
    D4       -1.03106   0.00062   0.00000   0.01970   0.01967  -1.01139
    D5        3.11898   0.00066   0.00000   0.02264   0.02260   3.14158
    D6        1.10611   0.00024   0.00000   0.01227   0.01223   1.11833
    D7        3.13328  -0.00041   0.00000  -0.00307  -0.00308   3.13020
    D8        1.04310  -0.00092   0.00000  -0.01354  -0.01353   1.02957
    D9       -1.04768   0.00104   0.00000   0.01707   0.01705  -1.03063
   D10       -1.02029  -0.00021   0.00000  -0.00304  -0.00308  -1.02337
   D11       -3.11047  -0.00073   0.00000  -0.01351  -0.01354  -3.12400
   D12        1.08194   0.00124   0.00000   0.01710   0.01704   1.09898
   D13        0.99936  -0.00033   0.00000   0.00087   0.00092   1.00027
   D14       -1.09082  -0.00085   0.00000  -0.00960  -0.00954  -1.10036
   D15        3.10158   0.00112   0.00000   0.02101   0.02104   3.12262
   D16        3.14064  -0.00011   0.00000   0.01492   0.01491  -3.12763
   D17       -1.04618  -0.00033   0.00000   0.01929   0.01923  -1.02695
   D18        1.04010   0.00060   0.00000   0.01064   0.01071   1.05081
   D19       -1.48814   0.00083   0.00000   0.01210   0.01211  -1.47603
   D20        2.71394   0.00033   0.00000   0.00909   0.00910   2.72304
   D21        0.69609  -0.00180   0.00000  -0.02092  -0.02094   0.67515
   D22       -3.13220   0.00015   0.00000   0.01146   0.01146  -3.12074
   D23       -1.02259  -0.00033   0.00000   0.00729   0.00737  -1.01522
   D24        1.04617   0.00003   0.00000   0.00696   0.00699   1.05315
   D25       -1.06581  -0.00042   0.00000   0.00754   0.00753  -1.05828
   D26        1.04380  -0.00090   0.00000   0.00336   0.00344   1.04724
   D27        3.11256  -0.00054   0.00000   0.00303   0.00305   3.11562
   D28        0.96822   0.00106   0.00000   0.02932   0.02922   0.99743
   D29        3.07783   0.00058   0.00000   0.02514   0.02513   3.10295
   D30       -1.13660   0.00094   0.00000   0.02481   0.02474  -1.11186
   D31        3.11408  -0.00055   0.00000   0.00811   0.00812   3.12221
   D32        1.01041   0.00155   0.00000   0.02128   0.02144   1.03185
   D33       -1.05352  -0.00092   0.00000   0.00580   0.00562  -1.04790
   D34        3.12319   0.00162   0.00000   0.06039   0.06040  -3.09959
   D35       -1.05204  -0.00025   0.00000   0.05435   0.05431  -0.99773
   D36        1.03293  -0.00040   0.00000   0.04003   0.04006   1.07299
   D37        1.01420   0.00021   0.00000   0.02826   0.02832   1.04253
   D38       -1.07328  -0.00196   0.00000  -0.00259  -0.00230  -1.07558
   D39       -3.14121   0.00135   0.00000   0.03939   0.03915  -3.10206
   D40       -1.08622   0.00068   0.00000   0.02857   0.02858  -1.05764
   D41        3.10948  -0.00150   0.00000  -0.00228  -0.00205   3.10744
   D42        1.04156   0.00182   0.00000   0.03970   0.03941   1.08096
   D43        3.10547   0.00067   0.00000   0.04509   0.04510  -3.13262
   D44        1.01799  -0.00151   0.00000   0.01424   0.01447   1.03246
   D45       -1.04994   0.00181   0.00000   0.05622   0.05593  -0.99401
   D46        0.98740   0.00022   0.00000   0.05322   0.05307   1.04047
   D47       -0.97448  -0.00011   0.00000   0.04178   0.04163  -0.93285
   D48        3.09287   0.00128   0.00000   0.06749   0.06778  -3.12254
   D49        1.13099   0.00095   0.00000   0.05605   0.05634   1.18733
   D50       -1.14689   0.00015   0.00000   0.05309   0.05294  -1.09394
   D51       -3.10876  -0.00018   0.00000   0.04165   0.04151  -3.06726
         Item               Value     Threshold  Converged?
 Maximum Force            0.012047     0.000450     NO 
 RMS     Force            0.002418     0.000300     NO 
 Maximum Displacement     0.335786     0.001800     NO 
 RMS     Displacement     0.093293     0.001200     NO 
 Predicted change in Energy=-1.910256D-03
 GradGradGradGradGradGradGradGradGradGradGradGradGradGradGradGradGradGrad

                          Input orientation:                          
 ---------------------------------------------------------------------
 Center     Atomic      Atomic             Coordinates (Angstroms)
 Number     Number       Type             X           Y           Z
 ---------------------------------------------------------------------
      1          7           0        4.397471    1.084010    2.208320
      2          6           0        3.727531    0.048261    1.417340
      3          6           0        2.470726    0.517065    0.683029
      4          8           0        1.944340   -0.586849   -0.048038
      5          6           0        0.775700   -0.293299   -0.800062
      6          6           0       -0.492873   -0.399063    0.045822
      7          8           0       -1.592724   -0.116166   -0.802267
      8          6           0       -2.850842   -0.204280   -0.144267
      9          6           0       -3.942090    0.061884   -1.177391
     10          7           0       -3.966044   -0.869782   -2.310838
     11          1           0        3.742921    1.468270    2.887872
     12          1           0        4.650974    1.862347    1.601917
     13          1           0        3.460037   -0.782800    2.080037
     14          1           0        4.437381   -0.348820    0.682633
     15          1           0        2.719234    1.342298   -0.004095
     16          1           0        1.738578    0.901411    1.409442
     17          1           0        0.726004   -1.027008   -1.611445
     18          1           0        0.836816    0.705670   -1.255375
     19          1           0       -0.571642   -1.412881    0.468221
     20          1           0       -0.462790    0.309146    0.888340
     21          1           0       -2.978690   -1.206845    0.296593
     22          1           0       -2.906450    0.530227    0.675635
     23          1           0       -3.808037    1.076967   -1.570288
     24          1           0       -4.914680    0.036699   -0.673021
     25          1           0       -4.108716   -1.814915   -1.955318
     26          1           0       -3.032134   -0.881548   -2.718259
 ---------------------------------------------------------------------
                    Distance matrix (angstroms):
                    1          2          3          4          5
     1  N    0.000000
     2  C    1.465348   0.000000
     3  C    2.521961   1.529231   0.000000
     4  O    3.728374   2.393839   1.424840   0.000000
     5  C    4.905565   3.707673   2.393608   1.420362   0.000000
     6  C    5.548997   4.460153   3.166739   2.446237   1.528392
     7  O    6.810763   5.767044   4.372495   3.647084   2.375040
     8  C    7.728674   6.765898   5.433585   4.811381   3.686435
     9  C    9.058480   8.096660   6.692725   6.028794   4.746165
    10  N    9.705075   8.598442   7.233159   6.335057   5.009882
    11  H    1.018765   2.044291   2.717463   4.009735   5.050582
    12  H    1.018723   2.043948   2.721695   4.005844   5.043219
    13  H    2.092897   1.096076   2.149423   2.620007   3.967398
    14  H    2.093398   1.096063   2.148834   2.608791   3.950870
    15  H    2.788902   2.170638   1.102227   2.079423   2.661967
    16  H    2.782312   2.164223   1.100654   2.093205   2.690051
    17  H    5.703216   4.397603   3.269989   2.030351   1.095053
    18  H    4.981826   3.991468   2.542172   2.086834   1.099539
    19  H    5.827049   4.638820   3.609271   2.697966   2.162715
    20  H    5.095577   4.231630   2.948033   2.733841   2.178875
    21  H    7.956788   6.914099   5.728642   4.973871   4.016549
    22  H    7.483519   6.692691   5.377197   5.030082   4.051433
    23  H    9.033731   8.171226   6.694310   6.178622   4.845774
    24  H    9.803833   8.891431   7.524217   6.915603   5.701356
    25  H    9.904285   8.732297   7.462443   6.464158   5.244754
    26  H    9.128725   7.978771   6.618636   5.655282   4.304081
                    6          7          8          9         10
     6  C    0.000000
     7  O    1.417377   0.000000
     8  C    2.373625   1.422530   0.000000
     9  C    3.688607   2.385779   1.526110   0.000000
    10  N    4.223546   2.911421   2.525985   1.467406   0.000000
    11  H    5.431954   6.678074   7.447752   8.807025   9.587555
    12  H    5.830486   6.976990   7.974795   9.209070   9.850238
    13  H    4.462150   5.855124   6.716354   8.131163   8.627516
    14  H    4.971464   6.214597   7.336406   8.593248   8.935872
    15  H    3.654102   4.621383   5.782500   6.883991   7.409946
    16  H    2.920627   4.126099   4.969844   6.298135   7.037068
    17  H    2.150932   2.619332   3.952634   4.813023   4.746491
    18  H    2.163705   2.604494   3.957448   4.822706   5.163673
    19  H    1.101115   2.082839   2.651530   4.030247   4.420417
    20  H    1.101045   2.077449   2.651919   4.053876   4.888496
    21  H    2.625774   2.077974   1.102651   2.170355   2.808411
    22  H    2.661879   2.080360   1.102195   2.173845   3.464360
    23  H    3.972504   2.630786   2.142745   1.096692   2.088831
    24  H    4.501000   3.327982   2.144080   1.095880   2.098587
    25  H    4.368469   3.247382   2.730622   2.038457   1.019816
    26  H    3.784281   2.515697   2.667769   2.022958   1.018978
                   11         12         13         14         15
    11  H    0.000000
    12  H    1.622818   0.000000
    13  H    2.408306   2.940022   0.000000
    14  H    2.940607   2.404155   1.759624   0.000000
    15  H    3.070387   2.565413   3.067318   2.506692   0.000000
    16  H    2.554305   3.072864   2.499937   3.061840   1.775994
    17  H    5.964232   5.837762   4.600176   4.415547   3.488575
    18  H    5.117958   4.904062   4.496866   4.222782   2.348296
    19  H    5.724613   6.268023   4.387413   5.125282   4.317866
    20  H    4.798927   5.391865   4.242766   4.948425   3.462531
    21  H    7.684467   8.326800   6.694602   7.475516   6.249391
    22  H    7.070222   7.729631   6.650454   7.396257   5.724492
    23  H    8.777544   9.068328   8.343171   8.665762   6.717784
    24  H    9.470132  10.000503   8.853631   9.457667   7.773589
    25  H    9.792037  10.144375   8.639177   9.063332   7.771497
    26  H    9.102292   9.231632   8.073517   8.224568   6.737241
                   16         17         18         19         20
    16  H    0.000000
    17  H    3.724227   0.000000
    18  H    2.820060   1.772354   0.000000
    19  H    3.402788   2.481491   3.072914   0.000000
    20  H    2.338450   3.073673   2.538054   1.775873   0.000000
    21  H    5.285433   4.171056   4.541410   2.421939   2.996356
    22  H    4.717259   4.566228   4.215640   3.044670   2.462842
    23  H    6.298774   4.998593   4.670299   4.563893   4.221975
    24  H    7.024971   5.816307   5.819482   4.718653   4.725610
    25  H    7.272612   4.910556   5.594779   4.306514   5.088300
    26  H    6.555650   3.920433   4.430357   4.060787   4.585502
                   21         22         23         24         25
    21  H    0.000000
    22  H    1.779414   0.000000
    23  H    3.064125   2.481120   0.000000
    24  H    2.496920   2.468893   1.764059   0.000000
    25  H    2.591873   3.723849   2.932855   2.392141   0.000000
    26  H    3.032821   3.677965   2.399092   2.927483   1.616255
                   26
    26  H    0.000000
 Stoichiometry    C6H16N2O2
 Framework group  C1[X(C6H16N2O2)]
 Deg. of freedom    72
 Full point group                 C1      NOp   1
 Largest Abelian subgroup         C1      NOp   1
 Largest concise Abelian subgroup C1      NOp   1
                         Standard orientation:                         
 ---------------------------------------------------------------------
 Center     Atomic      Atomic             Coordinates (Angstroms)
 Number     Number       Type             X           Y           Z
 ---------------------------------------------------------------------
      1          7           0        4.985480    0.776259   -0.181063
      2          6           0        3.959975   -0.126847    0.348073
      3          6           0        2.589212    0.001937   -0.317488
      4          8           0        1.710012   -0.942003    0.287619
      5          6           0        0.393867   -0.949253   -0.246364
      6          6           0       -0.493332    0.114850    0.399039
      7          8           0       -1.781187    0.002497   -0.182136
      8          6           0       -2.723500    0.926022    0.349595
      9          6           0       -4.071250    0.658285   -0.314405
     10          7           0       -4.607581   -0.692313   -0.110656
     11          1           0        4.666338    1.739842   -0.094247
     12          1           0        5.096890    0.613738   -1.180549
     13          1           0        3.849387    0.057337    1.422888
     14          1           0        4.309215   -1.159979    0.238416
     15          1           0        2.672815   -0.197297   -1.398331
     16          1           0        2.214841    1.030195   -0.199299
     17          1           0       -0.028161   -1.938594   -0.040843
     18          1           0        0.406931   -0.810903   -1.337086
     19          1           0       -0.536240   -0.050265    1.486858
     20          1           0       -0.081425    1.122379    0.233153
     21          1           0       -2.803990    0.798897    1.441932
     22          1           0       -2.395951    1.960727    0.157421
     23          1           0       -3.966445    0.826825   -1.392989
     24          1           0       -4.796142    1.390973    0.057957
     25          1           0       -4.725383   -0.850735    0.889869
     26          1           0       -3.888405   -1.354671   -0.397685
 ---------------------------------------------------------------------
 Rotational constants (GHZ):           4.9384252           0.3337780           0.3226444
 Standard basis: 6-31G(d,p) (6D, 7F)
 There are   230 symmetry adapted cartesian basis functions of A   symmetry.
 There are   230 symmetry adapted basis functions of A   symmetry.
   230 basis functions,   392 primitive gaussians,   230 cartesian basis functions
    41 alpha electrons       41 beta electrons
       nuclear repulsion energy       548.7382991164 Hartrees.
 NAtoms=   26 NActive=   26 NUniq=   26 SFac= 1.00D+00 NAtFMM=   60 NAOKFM=F Big=F
 Integral buffers will be    131072 words long.
 Raffenetti 2 integral format.
 Two-electron integral symmetry is turned on.
 ------------------------------------------------------------------------------
 Polarizable Continuum Model (PCM)
 =================================
 Model                : PCM.
 Atomic radii         : UFF (Universal Force Field).
 Polarization charges : Total charges.
 Charge compensation  : None.
 Solution method      : Matrix inversion.
 Cavity type          : Scaled VdW (van der Waals Surface) (Alpha=1.100).
 Cavity algorithm     : GePol (No added spheres)
                        Default sphere list used, NSphG=   26.
                        Lebedev-Laikov grids with approx.  5.0 points / Ang**2.
                        Smoothing algorithm: York/Karplus (Gamma=1.0000).
                        Polarization charges: spherical gaussians, with
                                              point-specific exponents (IZeta= 3).
                        Self-potential: point-specific (ISelfS= 7).
                        Self-field    : sphere-specific E.n sum rule (ISelfD= 2).
 1st derivatives      : Analytical E(r).r(x)/FMM algorithm (CHGder, D1EAlg=3).
                        Cavity 1st derivative terms included.
 Solvent              : Water, Eps=  78.355300 Eps(inf)=   1.777849
 ------------------------------------------------------------------------------
 One-electron integrals computed using PRISM.
 NBasis=   230 RedAO= T EigKep=  3.37D-03  NBF=   230
 NBsUse=   230 1.00D-06 EigRej= -1.00D+00 NBFU=   230
 Initial guess from the checkpoint file:  "IWBOPFCKHIJFMS-UHFFFAOYSA-N_conf_4_0.chk"
 B after Tr=    -0.000000   -0.000000   -0.000000
         Rot=    0.999916    0.012899    0.000422    0.001002 Ang=   1.48 deg.
 ExpMin= 1.61D-01 ExpMax= 5.48D+03 ExpMxC= 8.25D+02 IAcc=2 IRadAn=         4 AccDes= 0.00D+00
 Harris functional with IExCor=  402 and IRadAn=       4 diagonalized for initial guess.
 HarFok:  IExCor=  402 AccDes= 0.00D+00 IRadAn=         4 IDoV= 1 UseB2=F ITyADJ=14
 ICtDFT=  3500011 ScaDFX=  1.000000  1.000000  1.000000  1.000000
 FoFCou: FMM=F IPFlag=           0 FMFlag=      100000 FMFlg1=           0
         NFxFlg=           0 DoJE=T BraDBF=F KetDBF=T FulRan=T
         wScrn=  0.000000 ICntrl=       500 IOpCl=  0 I1Cent=   200000004 NGrid=           0
         NMat0=    1 NMatS0=      1 NMatT0=    0 NMatD0=    1 NMtDS0=    0 NMtDT0=    0
 Petite list used in FoFCou.
 Keep R1 ints in memory in canonical form, NReq=359027606.
 Requested convergence on RMS density matrix=1.00D-08 within  32 cycles.
 Requested convergence on MAX density matrix=1.00D-06.
 Requested convergence on             energy=1.00D-06.
 No special actions if energy rises.
 Inv3:  Mode=1 IEnd=    10967232.
 Iteration    1 A*A^-1 deviation from unit magnitude is 2.89D-15 for    553.
 Iteration    1 A*A^-1 deviation from orthogonality  is 2.00D-15 for   1790    624.
 Iteration    1 A^-1*A deviation from unit magnitude is 3.11D-15 for    242.
 Iteration    1 A^-1*A deviation from orthogonality  is 1.78D-15 for   1627   1006.
 Error on total polarization charges =  0.00931
 SCF Done:  E(RB3LYP) =  -498.213400379     A.U. after    9 cycles
            NFock=  9  Conv=0.93D-08     -V/T= 2.0093
 QCSCF skips out because SCF is already converged.
 D1PCM: PCM CHGder 1st derivatives, ID1Alg=3 FixD1E=F DoIter=F DoCFld=F I1PDM=0.
 Calling FoFJK, ICntrl=      2127 FMM=F ISym2X=0 I1Cent= 0 IOpClX= 0 NMat=1 NMatS=1 NMatT=0.
 ***** Axes restored to original set *****
 -------------------------------------------------------------------
 Center     Atomic                   Forces (Hartrees/Bohr)
 Number     Number              X              Y              Z
 -------------------------------------------------------------------
      1        7           0.000159374   -0.000067767    0.000030756
      2        6           0.000015135   -0.000031669   -0.000010798
      3        6           0.000034860   -0.000382270   -0.000116584
      4        8          -0.000053046   -0.000021729    0.000062415
      5        6           0.000094239   -0.000083796   -0.000342722
      6        6           0.000109035   -0.000156660   -0.000096849
      7        8           0.000025500    0.000230213    0.000040382
      8        6          -0.000096922    0.000378683   -0.000063167
      9        6           0.000482712   -0.000379569    0.000016516
     10        7          -0.000019548    0.000038589   -0.000352332
     11        1           0.000028405    0.000037259   -0.000024686
     12        1          -0.000094496    0.000049014    0.000042326
     13        1          -0.000047243    0.000029662    0.000039906
     14        1           0.000027598    0.000056010   -0.000015759
     15        1          -0.000023137    0.000170512    0.000034417
     16        1           0.000020076    0.000196657    0.000106637
     17        1          -0.000015594   -0.000061745    0.000047012
     18        1           0.000023153    0.000102998    0.000166287
     19        1           0.000085263   -0.000034126    0.000092455
     20        1           0.000006021    0.000056257    0.000042608
     21        1           0.000084563   -0.000107128    0.000078564
     22        1          -0.000168932   -0.000073341    0.000199309
     23        1          -0.000340241    0.000058934   -0.000048966
     24        1          -0.000025844    0.000155922    0.000044928
[...]
               1
     1  N   -0.063497
     2  C    0.092404
     3  C    0.227761
     4  O   -0.503530
     5  C    0.243901
     6  C    0.261689
     7  O   -0.517771
     8  C    0.250496
     9  C    0.139123
    10  N   -0.130574
 Electronic spatial extent (au):  <R**2>=           3394.1928
 Charge=              0.0000 electrons
 Dipole moment (field-independent basis, Debye):
    X=              1.5659    Y=              1.2007    Z=              1.6611  Tot=              2.5794
 Quadrupole moment (field-independent basis, Debye-Ang):
   XX=            -72.4458   YY=            -64.7473   ZZ=            -64.3625
   XY=             -5.5578   XZ=             -5.4533   YZ=             -0.1811
 Traceless Quadrupole moment (field-independent basis, Debye-Ang):
   XX=             -5.2606   YY=              2.4379   ZZ=              2.8227
   XY=             -5.5578   XZ=             -5.4533   YZ=             -0.1811
 Octapole moment (field-independent basis, Debye-Ang**2):
  XXX=             84.6636  YYY=            -12.0205  ZZZ=              5.6954  XYY=            -19.5504
  XXY=             15.1668  XXZ=             45.9632  XZZ=            -16.1783  YZZ=             -3.9541
  YYZ=              0.3304  XYZ=              4.8724
 Hexadecapole moment (field-independent basis, Debye-Ang**3):
 XXXX=          -4560.5394 YYYY=           -298.6064 ZZZZ=           -154.7494 XXXY=           -191.5646
 XXXZ=            -85.3781 YYYX=            -24.7560 YYYZ=             -1.3652 ZZZX=             13.3929
 ZZZY=             -1.3311 XXYY=           -758.9034 XXZZ=           -720.1903 YYZZ=            -78.0845
 XXYZ=            -25.8473 YYXZ=             -4.1097 ZZXY=             -5.2798
 N-N= 5.483513262960D+02 E-N=-2.256724629692D+03  KE= 4.938146725234D+02
 Evaluate density.
 Using the total density.
 Monte-Carlo method of calculating molar volume:
 based on  0.001 e/bohr**3 density envelope.
 Number of points per bohr**3 =   20 CutOff= 1.00D-04
 Using the CI density.
 There are       380 points.  Will hold       380 in memory.
 LenV=  1073599774 MDV=  1073741824.
 Box volume = 6901.779 fraction occupied=0.245
 Integrated density= 5.0512196749812375D+01 error=-3.1487803250187625D+01
 Molar volume = 1689.120 bohr**3/mol (150.735 cm**3/mol)
 Recommended a0 for SCRF calculation =  4.80 angstrom (  9.08 bohr)
 ******************************Gaussian NBO Version 3.1******************************
             N A T U R A L   A T O M I C   O R B I T A L   A N D
          N A T U R A L   B O N D   O R B I T A L   A N A L Y S I S
 ******************************Gaussian NBO Version 3.1******************************
       /RESON  / : Allow strongly delocalized NBO set

 Analyzing the CI density

 Job title: IWBOPFCKHIJFMS-UHFFFAOYSA-N_conf_4                              

 Storage needed:    160984 in NPA (1073738184 available)
 GSVD:  LWork=       29146 too small for GESVD, short by       17399 words or       17399 for optimal perf.


 NATURAL POPULATIONS:  Natural atomic orbital occupancies 
                                                          
   NAO  Atom  No  lang   Type(AO)    Occupancy
 --------------------------------------------
     1    N    1  S      Cor( 1S)     1.99934
     2    N    1  S      Val( 2S)     1.51054
     3    N    1  S      Ryd( 3S)     0.02018
     4    N    1  S      Ryd( 4S)     0.00001
     5    N    1  px     Val( 2p)     1.11795
     6    N    1  px     Ryd( 3p)     0.00000
     7    N    1  py     Val( 2p)     1.36276
     8    N    1  py     Ryd( 3p)     0.00334
     9    N    1  pz     Val( 2p)     1.36171
    10    N    1  pz     Ryd( 3p)     0.00306
    11    N    1  dxy    Ryd( 3d)     0.00056
    12    N    1  dxz    Ryd( 3d)     0.00000
    13    N    1  dyz    Ryd( 3d)     0.00003
    14    N    1  dx2y2  Ryd( 3d)     0.00028
    15    N    1  dz2    Ryd( 3d)     0.00092

    16    C    2  S      Cor( 1S)     1.99936
    17    C    2  S      Val( 2S)     1.05996
    18    C    2  S      Ryd( 3S)     0.00194
    19    C    2  S      Ryd( 4S)     0.00003
    20    C    2  px     Val( 2p)     0.96353
    21    C    2  px     Ryd( 3p)     0.00749
    22    C    2  py     Val( 2p)     1.14133
    23    C    2  py     Ryd( 3p)     0.00831
    24    C    2  pz     Val( 2p)     1.21591
    25    C    2  pz     Ryd( 3p)     0.00391
    26    C    2  dxy    Ryd( 3d)     0.00128
    27    C    2  dxz    Ryd( 3d)     0.00066
    28    C    2  dyz    Ryd( 3d)     0.00056
    29    C    2  dx2y2  Ryd( 3d)     0.00067
    30    C    2  dz2    Ryd( 3d)     0.00119

    31    C    3  S      Cor( 1S)     1.99916
    32    C    3  S      Val( 2S)     1.03939
    33    C    3  S      Ryd( 3S)     0.00308
    34    C    3  S      Ryd( 4S)     0.00005
    35    C    3  px     Val( 2p)     0.92728
    36    C    3  px     Ryd( 3p)     0.01386
    37    C    3  py     Val( 2p)     1.01930
    38    C    3  py     Ryd( 3p)     0.00292
    39    C    3  pz     Val( 2p)     1.13742
    40    C    3  pz     Ryd( 3p)     0.00269
    41    C    3  dxy    Ryd( 3d)     0.00137
    42    C    3  dxz    Ryd( 3d)     0.00112
    43    C    3  dyz    Ryd( 3d)     0.00084
    44    C    3  dx2y2  Ryd( 3d)     0.00158
    45    C    3  dz2    Ryd( 3d)     0.00146

    46    O    4  S      Cor( 1S)     1.99978
    47    O    4  S      Val( 2S)     1.62291
    48    O    4  S      Ryd( 3S)     0.00266
    49    O    4  S      Ryd( 4S)     0.00007
    50    O    4  px     Val( 2p)     1.41119
    51    O    4  px     Ryd( 3p)     0.00123
    52    O    4  py     Val( 2p)     1.74040
    53    O    4  py     Ryd( 3p)     0.00252
    54    O    4  pz     Val( 2p)     1.81831
    55    O    4  pz     Ryd( 3p)     0.00268
    56    O    4  dxy    Ryd( 3d)     0.00084
    57    O    4  dxz    Ryd( 3d)     0.00077
    58    O    4  dyz    Ryd( 3d)     0.00113
    59    O    4  dx2y2  Ryd( 3d)     0.00077
    60    O    4  dz2    Ryd( 3d)     0.00122

    61    C    5  S      Cor( 1S)     1.99928
    62    C    5  S      Val( 2S)     1.03045
    63    C    5  S      Ryd( 3S)     0.00201
    64    C    5  S      Ryd( 4S)     0.00005
    65    C    5  px     Val( 2p)     0.77589
    66    C    5  px     Ryd( 3p)     0.00560
    67    C    5  py     Val( 2p)     1.16603
    68    C    5  py     Ryd( 3p)     0.00329
    69    C    5  pz     Val( 2p)     1.13604
    70    C    5  pz     Ryd( 3p)     0.00310
    71    C    5  dxy    Ryd( 3d)     0.00150
    72    C    5  dxz    Ryd( 3d)     0.00140
    73    C    5  dyz    Ryd( 3d)     0.00041
    74    C    5  dx2y2  Ryd( 3d)     0.00148
    75    C    5  dz2    Ryd( 3d)     0.00146

    76    C    6  S      Cor( 1S)     1.99930
    77    C    6  S      Val( 2S)     1.03646
    78    C    6  S      Ryd( 3S)     0.00290
    79    C    6  S      Ryd( 4S)     0.00005
    80    C    6  px     Val( 2p)     0.77852
    81    C    6  px     Ryd( 3p)     0.00269
    82    C    6  py     Val( 2p)     1.16686
    83    C    6  py     Ryd( 3p)     0.00211
    84    C    6  pz     Val( 2p)     1.13188
    85    C    6  pz     Ryd( 3p)     0.00243
    86    C    6  dxy    Ryd( 3d)     0.00144
    87    C    6  dxz    Ryd( 3d)     0.00145
    88    C    6  dyz    Ryd( 3d)     0.00043
    89    C    6  dx2y2  Ryd( 3d)     0.00140
    90    C    6  dz2    Ryd( 3d)     0.00155

    91    O    7  S      Cor( 1S)     1.99978
    92    O    7  S      Val( 2S)     1.62043
    93    O    7  S      Ryd( 3S)     0.00202
    94    O    7  S      Ryd( 4S)     0.00007
    95    O    7  px     Val( 2p)     1.40510
    96    O    7  px     Ryd( 3p)     0.00125
    97    O    7  py     Val( 2p)     1.75650
    98    O    7  py     Ryd( 3p)     0.00227
    99    O    7  pz     Val( 2p)     1.81152
   100    O    7  pz     Ryd( 3p)     0.00242
   101    O    7  dxy    Ryd( 3d)     0.00081
   102    O    7  dxz    Ryd( 3d)     0.00078
   103    O    7  dyz    Ryd( 3d)     0.00124
   104    O    7  dx2y2  Ryd( 3d)     0.00084
   105    O    7  dz2    Ryd( 3d)     0.00119

   106    C    8  S      Cor( 1S)     1.99927
   107    C    8  S      Val( 2S)     1.03516
   108    C    8  S      Ryd( 3S)     0.00262
   109    C    8  S      Ryd( 4S)     0.00005
   110    C    8  px     Val( 2p)     0.91582
   111    C    8  px     Ryd( 3p)     0.00150
   112    C    8  py     Val( 2p)     1.02234
   113    C    8  py     Ryd( 3p)     0.00276
   114    C    8  pz     Val( 2p)     1.13840
   115    C    8  pz     Ryd( 3p)     0.00199
   116    C    8  dxy    Ryd( 3d)     0.00144
   117    C    8  dxz    Ryd( 3d)     0.00110
   118    C    8  dyz    Ryd( 3d)     0.00068
   119    C    8  dx2y2  Ryd( 3d)     0.00148
   120    C    8  dz2    Ryd( 3d)     0.00156

   121    C    9  S      Cor( 1S)     1.99935
   122    C    9  S      Val( 2S)     1.02767
   123    C    9  S      Ryd( 3S)     0.00144
   124    C    9  S      Ryd( 4S)     0.00004
   125    C    9  px     Val( 2p)     1.08034
   126    C    9  px     Ryd( 3p)     0.00413
   127    C    9  py     Val( 2p)     0.96649
   128    C    9  py     Ryd( 3p)     0.00367
   129    C    9  pz     Val( 2p)     1.20066
   130    C    9  pz     Ryd( 3p)     0.00227
   131    C    9  dxy    Ryd( 3d)     0.00152
   132    C    9  dxz    Ryd( 3d)     0.00049
   133    C    9  dyz    Ryd( 3d)     0.00072
   134    C    9  dx2y2  Ryd( 3d)     0.00086
   135    C    9  dz2    Ryd( 3d)     0.00124

   136    N   10  S      Cor( 1S)     1.99971
   137    N   10  S      Val( 2S)     1.44611
   138    N   10  S      Ryd( 3S)     0.00034
   139    N   10  S      Ryd( 4S)     0.00001
   140    N   10  px     Val( 2p)     1.68599
   141    N   10  px     Ryd( 3p)     0.00515
   142    N   10  py     Val( 2p)     1.29049
   143    N   10  py     Ryd( 3p)     0.00248
   144    N   10  pz     Val( 2p)     1.48721
   145    N   10  pz     Ryd( 3p)     0.00281
   146    N   10  dxy    Ryd( 3d)     0.00133
   147    N   10  dxz    Ryd( 3d)     0.00089
   148    N   10  dyz    Ryd( 3d)     0.00021
   149    N   10  dx2y2  Ryd( 3d)     0.00082
   150    N   10  dz2    Ryd( 3d)     0.00142

   151    H   11  S      Val( 1S)     0.73429
   152    H   11  S      Ryd( 2S)     0.08433
   153    H   11  px     Ryd( 2p)     0.00025
   154    H   11  py     Ryd( 2p)     0.00068
   155    H   11  pz     Ryd( 2p)     0.00021

   156    H   12  S      Val( 1S)     0.73122
   157    H   12  S      Ryd( 2S)     0.08349
   158    H   12  px     Ryd( 2p)     0.00015
   159    H   12  py     Ryd( 2p)     0.00022
   160    H   12  pz     Ryd( 2p)     0.00077

   161    H   13  S      Val( 1S)     0.74109
   162    H   13  S      Ryd( 2S)     0.01610
   163    H   13  px     Ryd( 2p)     0.00007
   164    H   13  py     Ryd( 2p)     0.00008
   165    H   13  pz     Ryd( 2p)     0.00038

   166    H   14  S      Val( 1S)     0.73807
   167    H   14  S      Ryd( 2S)     0.01488
   168    H   14  px     Ryd( 2p)     0.00009
   169    H   14  py     Ryd( 2p)     0.00035
   170    H   14  pz     Ryd( 2p)     0.00008

   171    H   15  S      Val( 1S)     0.78503
   172    H   15  S      Ryd( 2S)     0.01430
   173    H   15  px     Ryd( 2p)     0.00015
   174    H   15  py     Ryd( 2p)     0.00007
   175    H   15  pz     Ryd( 2p)     0.00040

   176    H   16  S      Val( 1S)     0.78635
   177    H   16  S      Ryd( 2S)     0.01661
   178    H   16  px     Ryd( 2p)     0.00019
   179    H   16  py     Ryd( 2p)     0.00034
   180    H   16  pz     Ryd( 2p)     0.00010

   181    H   17  S      Val( 1S)     0.76595
   182    H   17  S      Ryd( 2S)     0.00201
   183    H   17  px     Ryd( 2p)     0.00011
   184    H   17  py     Ryd( 2p)     0.00036
   185    H   17  pz     Ryd( 2p)     0.00010

   186    H   18  S      Val( 1S)     0.78745
   187    H   18  S      Ryd( 2S)     0.00318
   188    H   18  px     Ryd( 2p)     0.00007
   189    H   18  py     Ryd( 2p)     0.00011
   190    H   18  pz     Ryd( 2p)     0.00041

   191    H   19  S      Val( 1S)     0.79061
   192    H   19  S      Ryd( 2S)     0.00282
   193    H   19  px     Ryd( 2p)     0.00007
   194    H   19  py     Ryd( 2p)     0.00011
   195    H   19  pz     Ryd( 2p)     0.00041

   196    H   20  S      Val( 1S)     0.79382
   197    H   20  S      Ryd( 2S)     0.00196
   198    H   20  px     Ryd( 2p)     0.00011
   199    H   20  py     Ryd( 2p)     0.00038
   200    H   20  pz     Ryd( 2p)     0.00010

   201    H   21  S      Val( 1S)     0.79449
   202    H   21  S      Ryd( 2S)     0.00259
   203    H   21  px     Ryd( 2p)     0.00009
   204    H   21  py     Ryd( 2p)     0.00008
   205    H   21  pz     Ryd( 2p)     0.00042

   206    H   22  S      Val( 1S)     0.78812
   207    H   22  S      Ryd( 2S)     0.00246
   208    H   22  px     Ryd( 2p)     0.00012
   209    H   22  py     Ryd( 2p)     0.00037
   210    H   22  pz     Ryd( 2p)     0.00011

   211    H   23  S      Val( 1S)     0.76780
   212    H   23  S      Ryd( 2S)     0.00207
   213    H   23  px     Ryd( 2p)     0.00010
   214    H   23  py     Ryd( 2p)     0.00005
   215    H   23  pz     Ryd( 2p)     0.00039

   216    H   24  S      Val( 1S)     0.76076
   217    H   24  S      Ryd( 2S)     0.00119
   218    H   24  px     Ryd( 2p)     0.00024
   219    H   24  py     Ryd( 2p)     0.00021
   220    H   24  pz     Ryd( 2p)     0.00011

   221    H   25  S      Val( 1S)     0.61350
   222    H   25  S      Ryd( 2S)     0.00153
   223    H   25  px     Ryd( 2p)     0.00049
   224    H   25  py     Ryd( 2p)     0.00029
   225    H   25  pz     Ryd( 2p)     0.00065

   226    H   26  S      Val( 1S)     0.60819
   227    H   26  S      Ryd( 2S)     0.00250
   228    H   26  px     Ryd( 2p)     0.00065
   229    H   26  py     Ryd( 2p)     0.00041
   230    H   26  pz     Ryd( 2p)     0.00039


 Summary of Natural Population Analysis:                  
                                                          
                                       Natural Population 
                Natural  -----------------------------------------------
    Atom  No    Charge         Core      Valence    Rydberg      Total
 -----------------------------------------------------------------------
      N    1   -0.38066      1.99934     5.35295    0.02837     7.38066
      C    2   -0.40613      1.99936     4.38073    0.02604     6.40613
      C    3   -0.15150      1.99916     4.12338    0.02896     6.15150
      O    4   -0.60647      1.99978     6.59280    0.01388     8.60647
      C    5   -0.12801      1.99928     4.10842    0.02031     6.12801
      C    6   -0.12945      1.99930     4.11371    0.01644     6.12945
      O    7   -0.60623      1.99978     6.59356    0.01290     8.60623
      C    8   -0.12616      1.99927     4.11171    0.01518     6.12616
      C    9   -0.29091      1.99935     4.27516    0.01639     6.29091
      N   10   -0.92496      1.99971     5.90980    0.01545     7.92496
      H   11    0.18024      0.00000     0.73429    0.08547     0.81976
      H   12    0.18415      0.00000     0.73122    0.08463     0.81585
      H   13    0.24228      0.00000     0.74109    0.01663     0.75772
      H   14    0.24652      0.00000     0.73807    0.01541     0.75348
      H   15    0.20004      0.00000     0.78503    0.01493     0.79996
      H   16    0.19641      0.00000     0.78635    0.01724     0.80359
      H   17    0.23147      0.00000     0.76595    0.00258     0.76853
      H   18    0.20877      0.00000     0.78745    0.00377     0.79123
      H   19    0.20598      0.00000     0.79061    0.00340     0.79402
      H   20    0.20363      0.00000     0.79382    0.00256     0.79637
      H   21    0.20234      0.00000     0.79449    0.00317     0.79766
      H   22    0.20883      0.00000     0.78812    0.00305     0.79117
      H   23    0.22958      0.00000     0.76780    0.00261     0.77042
      H   24    0.23750      0.00000     0.76076    0.00174     0.76250
      H   25    0.38354      0.00000     0.61350    0.00296     0.61646
      H   26    0.38787      0.00000     0.60819    0.00394     0.61213
 =======================================================================
   * Total *   -0.00132     19.99433    61.54897    0.45802    82.00132

                                 Natural Population      
 --------------------------------------------------------
   Core                      19.99433 ( 99.9716% of  20)
   Valence                   61.54897 ( 99.2725% of  62)
   Natural Minimal Basis     81.54330 ( 99.4430% of  82)
   Natural Rydberg Basis      0.45802 (  0.5586% of  82)
 --------------------------------------------------------

    Atom  No          Natural Electron Configuration
 ----------------------------------------------------------------------------
      N    1      [core]2S( 1.51)2p( 3.84)3S( 0.02)3p( 0.01)
      C    2      [core]2S( 1.06)2p( 3.32)3p( 0.02)
      C    3      [core]2S( 1.04)2p( 3.08)3p( 0.02)3d( 0.01)
      O    4      [core]2S( 1.62)2p( 4.97)3p( 0.01)
      C    5      [core]2S( 1.03)2p( 3.08)3p( 0.01)3d( 0.01)
      C    6      [core]2S( 1.04)2p( 3.08)3p( 0.01)3d( 0.01)
      O    7      [core]2S( 1.62)2p( 4.97)3p( 0.01)
      C    8      [core]2S( 1.04)2p( 3.08)3p( 0.01)3d( 0.01)
      C    9      [core]2S( 1.03)2p( 3.25)3p( 0.01)
      N   10      [core]2S( 1.45)2p( 4.46)3p( 0.01)
      H   11            1S( 0.73)2S( 0.08)
      H   12            1S( 0.73)2S( 0.08)
      H   13            1S( 0.74)2S( 0.02)
      H   14            1S( 0.74)2S( 0.01)
      H   15            1S( 0.79)2S( 0.01)
      H   16            1S( 0.79)2S( 0.02)
      H   17            1S( 0.77)
      H   18            1S( 0.79)
      H   19            1S( 0.79)
      H   20            1S( 0.79)
      H   21            1S( 0.79)
      H   22            1S( 0.79)
      H   23            1S( 0.77)
      H   24            1S( 0.76)
      H   25            1S( 0.61)
      H   26            1S( 0.61)


 NBO analysis skipped by request.
 1\1\GINC-DRG2-W008\SP\RB3LYP TD-FC\6-31G(d,p)\C6H16N2O2\QDUEZ\18-Jul-2
 024\0\\# TD(NStates=10, Root=1) B3LYP/6-31G** SCRF=(Solvent=water) vol
 ume pop=NPA density=current Geom=AllCheck Guess=Read\\IWBOPFCKHIJFMS-U
 HFFFAOYSA-N_conf_4\\0,1\N,0,4.4236066485,1.0470395859,2.2117793482\C,0
 ,3.763825271,0.0412464233,1.3747026404\C,0,2.458210005,0.5045943521,0.
 7263632618\O,0,1.9401872161,-0.5720839474,-0.0496022539\C,0,0.77550611
 23,-0.2584242709,-0.7991384113\C,0,-0.4982084381,-0.3575442477,0.04050
 46791\O,0,-1.5936063353,-0.091898648,-0.8196414509\C,0,-2.8559868822,-
 0.15522748,-0.1658055517\C,0,-3.9419988699,0.0488874636,-1.2182775468\
 N,0,-3.9737198646,-0.9554939917,-2.2879202654\H,0,3.7857606305,1.34723
 45638,2.9472344794\H,0,4.6108300137,1.8801963729,1.6562014703\H,0,3.55
 91229706,-0.8451693912,1.9860492334\H,0,4.457523259,-0.2709674677,0.58
 56338592\H,0,2.6451910485,1.3803944361,0.0834596308\H,0,1.7471504119,0
 .8158630148,1.5072156642\H,0,0.7193460796,-0.9853853082,-1.6160615617\
 H,0,0.8498403042,0.7443326618,-1.2445330951\H,0,-0.5743658331,-1.36554
 3567,0.4774191658\H,0,-0.477931557,0.363506159,0.8723491398\H,0,-2.979
 5134247,-1.1350537905,0.3248447854\H,0,-2.9228985768,0.6191893341,0.61
 58801297\H,0,-3.8007273074,1.0357081353,-1.6760561781\H,0,-4.916156088
 7,0.0661069719,-0.7166143402\H,0,-4.1704836848,-1.8671477125,-1.875980
 5658\H,0,-3.030503108,-1.0343596519,-2.6654690624\\Version=ES64L-G16Re
 vA.03\State=1-A\HF=-498.2134584\RMSD=4.931e-09\Dipole=0.3358473,-0.225
 4634,0.9306975\Quadrupole=0.4006951,2.341983,-2.7426781,0.7117219,-6.1
 369235,-0.521204\PG=C01 [X(C6H16N2O2)]\\@


 CHEMISTRY BEGAN BY SAYING IT WOULD CHANGE THE BASER
 METALS INTO GOLD.  BY NOT DOING THAT IT HAS DONE MUCH
 GREATER THINGS.  --  RALPH WALDO EMERSON
 Job cpu time:       0 days  0 hours 25 minutes 34.4 seconds.
 Elapsed time:       0 days  0 hours  8 minutes 40.3 seconds.
 File lengths (MBytes):  RWF=    499 Int=      0 D2E=      0 Chk=     31 Scr=      1
 Normal termination of Gaussian 16 at Thu Jul 18 02:51:12 2024.
