 Entering Gaussian System, Link 0=g16
 Initial command:
 /opt/sw/arch/manual/gaussian/G16_A03/g16/l1.exe "/scratch/1380917/Gau-119390.inp" -scrdir="/scratch/1380917/"
 Entering Link 1 = /opt/sw/arch/manual/gaussian/G16_A03/g16/l1.exe PID=    119391.
  
 Copyright (c) 1988,1990,1992,1993,1995,1998,2003,2009,2016,
            Gaussian, Inc.  All Rights Reserved.
  
 This is part of the Gaussian(R) 16 program.  It is based on
 the Gaussian(R) 09 system (copyright 2009, Gaussian, Inc.),
 the Gaussian(R) 03 system (copyright 2003, Gaussian, Inc.),
 the Gaussian(R) 98 system (copyright 1998, Gaussian, Inc.),
 the Gaussian(R) 94 system (copyright 1995, Gaussian, Inc.),
 the Gaussian 92(TM) system (copyright 1992, Gaussian, Inc.),
 the Gaussian 90(TM) system (copyright 1990, Gaussian, Inc.),
 the Gaussian 88(TM) system (copyright 1988, Gaussian, Inc.),
 the Gaussian 86(TM) system (copyright 1986, Carnegie Mellon
 University), and the Gaussian 82(TM) system (copyright 1983,
 Carnegie Mellon University). Gaussian is a federally registered
 trademark of Gaussian, Inc.
  
 This software contains proprietary and confidential information,
 including trade secrets, belonging to Gaussian, Inc.
  
 This software is provided under written license and may be
 used, copied, transmitted, or stored only in accord with that
 written license.
  
 The following legend is applicable only to US Government
 contracts under FAR:
  
                    RESTRICTED RIGHTS LEGEND
  
 Use, reproduction and disclosure by the US Government is
 subject to restrictions as set forth in subparagraphs (a)
 and (c) of the Commercial Computer Software - Restricted
 Rights clause in FAR 52.227-19.
  
 Gaussian, Inc.
 340 Quinnipiac St., Bldg. 40, Wallingford CT 06492
  
  
 ---------------------------------------------------------------
 Warning -- This program may not be used in any manner that
 competes with the business of Gaussian, Inc. or will provide
 assistance to any competitor of Gaussian, Inc.  The licensee
 of this program is prohibited from giving any competitor of
 Gaussian, Inc. access to this program.  By using this program,
 the user acknowledges that Gaussian, Inc. is engaged in the
 business of creating and licensing software in the field of
 computational chemistry and represents and warrants to the
 licensee that it is not a competitor of Gaussian, Inc. and that
 it will not use this program in any manner prohibited above.
 ---------------------------------------------------------------
  

 Cite this work as:
 Gaussian 16, Revision A.03,
 M. J. Frisch, G. W. Trucks, H. B. Schlegel, G. E. Scuseria, 
 M. A. Robb, J. R. Cheeseman, G. Scalmani, V. Barone, 
 G. A. Petersson, H. Nakatsuji, X. Li, M. Caricato, A. V. Marenich, 
 J. Bloino, B. G. Janesko, R. Gomperts, B. Mennucci, H. P. Hratchian, 
 J. V. Ortiz, A. F. Izmaylov, J. L. Sonnenberg, D. Williams-Young, 
 F. Ding, F. Lipparini, F. Egidi, J. Goings, B. Peng, A. Petrone, 
 T. Henderson, D. Ranasinghe, V. G. Zakrzewski, J. Gao, N. Rega, 
 G. Zheng, W. Liang, M. Hada, M. Ehara, K. Toyota, R. Fukuda, 
 J. Hasegawa, M. Ishida, T. Nakajima, Y. Honda, O. Kitao, H. Nakai, 
 T. Vreven, K. Throssell, J. A. Montgomery, Jr., J. E. Peralta, 
 F. Ogliaro, M. J. Bearpark, J. J. Heyd, E. N. Brothers, K. N. Kudin, 
 V. N. Staroverov, T. A. Keith, R. Kobayashi, J. Normand, 
 K. Raghavachari, A. P. Rendell, J. C. Burant, S. S. Iyengar, 
 J. Tomasi, M. Cossi, J. M. Millam, M. Klene, C. Adamo, R. Cammi, 
 J. W. Ochterski, R. L. Martin, K. Morokuma, O. Farkas, 
 J. B. Foresman, and D. J. Fox, Gaussian, Inc., Wallingford CT, 2016.
 
 ******************************************
 Gaussian 16:  ES64L-G16RevA.03 25-Dec-2016
                18-Jul-2024 
 ******************************************
 %nprocshared=7
 Will use up to    7 processors via shared memory.
 %mem=14GB
 %Chk=LACZRKUWKHQVKS-UHFFFAOYSA-N_conf_0_0.chk
 -------------------------------------------------------
 # opt=CalcFc B3LYP/6-31G** SCRF=(Solvent=water) scf=xqc
 -------------------------------------------------------
 1/10=4,18=20,19=15,26=3,38=1/1,3;
 2/9=110,12=2,17=6,18=5,40=1/2;
 3/5=1,6=6,7=101,11=2,25=1,30=1,70=2201,71=2,72=1,74=-5,140=1/1,2,3;
 4//1;
 5/5=2,8=3,13=1,38=5,53=1/2,8;
 8/6=4,10=90,11=11/1;
 11/6=1,8=1,9=11,15=111,16=1/1,2,10;
 10/6=1,13=1/2;
 6/7=2,8=2,9=2,10=2,28=1/1;
 7/10=1,18=20,25=1/1,2,3,16;
 1/10=4,18=20,19=15,26=3/3(2);
 2/9=110/2;
 99//99;
 2/9=110/2;
 3/5=1,6=6,7=101,11=2,25=1,30=1,70=2205,71=1,72=1,74=-5/1,2,3;
 4/5=5,16=3,69=1/1;
 5/5=2,8=3,13=1,38=5,53=1/2,8;
 7//1,2,3,16;
 1/18=20,19=15,26=3/3(-5);
 2/9=110/2;
 6/7=2,8=2,9=2,10=2,19=2,28=1/1;
 99/9=1/99;
 ----------------------------------
 LACZRKUWKHQVKS-UHFFFAOYSA-N_conf_0
 ----------------------------------
 Symbolic Z-matrix:
 Charge =  0 Multiplicity = 1
 N                    -5.08122   3.65317   1.81143 
 C                    -4.47375   2.59778   1.12634 
 C                    -3.40565   2.84259   0.26234 
 C                    -2.87006   1.81621  -0.51809 
 C                    -3.42249   0.53374  -0.45913 
 O                    -2.9394   -0.4848   -1.25033 
 C                    -1.58812  -0.74123  -1.18637 
 C                    -0.90128  -0.87275   0.02395 
 C                     0.46321  -1.16956   0.01843 
 C                     1.13311  -1.33392  -1.19736 
 O                     2.46856  -1.66073  -1.27175 
 C                     3.33553  -0.93056  -0.48921 
 C                     3.36574   0.46514  -0.558 
 C                     4.28152   1.18147   0.21478 
 C                     5.15376   0.52068   1.08069 
 N                     6.14547   1.23284   1.76012 
 C                     5.16882  -0.87713   1.07981 
 C                     4.25587  -1.61922   0.30754 
 C                     4.26662  -3.12219   0.33933 
 F                     4.48613  -3.6856   -0.88075 
 F                     5.23495  -3.63468   1.15455 
 F                     3.09657  -3.6477    0.79956 
 C                     0.43576  -1.2483   -2.40323 
 C                    -0.92764  -0.95145  -2.39756 
 C                    -4.54467   0.28359   0.33732 
 C                    -5.17772  -1.07971   0.36063 
 F                    -6.26644  -1.15158   1.18187 
 F                    -4.3284   -2.04714   0.80683 
 F                    -5.61844  -1.49009  -0.86048 
 C                    -5.06716   1.33222   1.11712 
 H                    -5.6265    3.37168   2.6205 
 H                    -4.46069   4.43007   2.0168 
 H                    -2.9824    3.84069   0.18363 
 H                    -2.03762   2.0298   -1.18357 
 H                    -1.4202   -0.76683   0.97262 
 H                     0.98674  -1.28939   0.96262 
 H                     2.69435   1.00045  -1.22445 
 H                     4.31062   2.26474   0.12893 
 H                     5.90334   2.19871   1.95948 
 H                     6.52479   0.75579   2.5722 
 H                     5.90464  -1.40165   1.68789 
 H                     0.95223  -1.4152   -3.34471 
 H                    -1.47403  -0.88608  -3.33473 
 H                    -5.95443   1.15608   1.72378 
 

 GradGradGradGradGradGradGradGradGradGradGradGradGradGradGradGradGradGrad
 Berny optimization.
 Initialization pass.
                           ----------------------------
                           !    Initial Parameters    !
                           ! (Angstroms and Degrees)  !
 --------------------------                            --------------------------
 ! Name  Definition              Value          Derivative Info.                !
 --------------------------------------------------------------------------------
 ! R1    R(1,2)                  1.3972         calculate D2E/DX2 analytically  !
 ! R2    R(1,31)                 1.0155         calculate D2E/DX2 analytically  !
 ! R3    R(1,32)                 1.0153         calculate D2E/DX2 analytically  !
 ! R4    R(2,3)                  1.3954         calculate D2E/DX2 analytically  !
 ! R5    R(2,30)                 1.3978         calculate D2E/DX2 analytically  !
 ! R6    R(3,4)                  1.3962         calculate D2E/DX2 analytically  !
 ! R7    R(3,33)                 1.087          calculate D2E/DX2 analytically  !
 ! R8    R(4,5)                  1.3976         calculate D2E/DX2 analytically  !
 ! R9    R(4,34)                 1.0869         calculate D2E/DX2 analytically  !
 ! R10   R(5,6)                  1.3772         calculate D2E/DX2 analytically  !
 ! R11   R(5,25)                 1.3986         calculate D2E/DX2 analytically  !
 ! R12   R(6,7)                  1.3769         calculate D2E/DX2 analytically  !
 ! R13   R(7,8)                  1.3978         calculate D2E/DX2 analytically  !
 ! R14   R(7,24)                 1.3955         calculate D2E/DX2 analytically  !
 ! R15   R(8,9)                  1.3964         calculate D2E/DX2 analytically  !
 ! R16   R(8,35)                 1.0865         calculate D2E/DX2 analytically  !
 ! R17   R(9,10)                 1.3978         calculate D2E/DX2 analytically  !
 ! R18   R(9,36)                 1.0862         calculate D2E/DX2 analytically  !
 ! R19   R(10,11)                1.3769         calculate D2E/DX2 analytically  !
 ! R20   R(10,23)                1.3956         calculate D2E/DX2 analytically  !
 ! R21   R(11,12)                1.3774         calculate D2E/DX2 analytically  !
 ! R22   R(12,13)                1.3977         calculate D2E/DX2 analytically  !
 ! R23   R(12,18)                1.3986         calculate D2E/DX2 analytically  !
 ! R24   R(13,14)                1.3961         calculate D2E/DX2 analytically  !
 ! R25   R(13,37)                1.087          calculate D2E/DX2 analytically  !
 ! R26   R(14,15)                1.3954         calculate D2E/DX2 analytically  !
 ! R27   R(14,38)                1.0871         calculate D2E/DX2 analytically  !
 ! R28   R(15,16)                1.3972         calculate D2E/DX2 analytically  !
 ! R29   R(15,17)                1.3979         calculate D2E/DX2 analytically  !
 ! R30   R(16,39)                1.0155         calculate D2E/DX2 analytically  !
 ! R31   R(16,40)                1.0154         calculate D2E/DX2 analytically  !
 ! R32   R(17,18)                1.4073         calculate D2E/DX2 analytically  !
 ! R33   R(17,41)                1.0892         calculate D2E/DX2 analytically  !
 ! R34   R(18,19)                1.5033         calculate D2E/DX2 analytically  !
 ! R35   R(19,20)                1.3617         calculate D2E/DX2 analytically  !
 ! R36   R(19,21)                1.3656         calculate D2E/DX2 analytically  !
 ! R37   R(19,22)                1.3627         calculate D2E/DX2 analytically  !
 ! R38   R(23,24)                1.3954         calculate D2E/DX2 analytically  !
 ! R39   R(23,42)                1.0867         calculate D2E/DX2 analytically  !
 ! R40   R(24,43)                1.0868         calculate D2E/DX2 analytically  !
 ! R41   R(25,26)                1.5033         calculate D2E/DX2 analytically  !
 ! R42   R(25,30)                1.4074         calculate D2E/DX2 analytically  !
 ! R43   R(26,27)                1.3656         calculate D2E/DX2 analytically  !
 ! R44   R(26,28)                1.3625         calculate D2E/DX2 analytically  !
 ! R45   R(26,29)                1.3615         calculate D2E/DX2 analytically  !
 ! R46   R(30,44)                1.0892         calculate D2E/DX2 analytically  !
 ! A1    A(2,1,31)             114.503          calculate D2E/DX2 analytically  !
 ! A2    A(2,1,32)             114.2961         calculate D2E/DX2 analytically  !
 ! A3    A(31,1,32)            112.2814         calculate D2E/DX2 analytically  !
 ! A4    A(1,2,3)              120.2554         calculate D2E/DX2 analytically  !
 ! A5    A(1,2,30)             120.1686         calculate D2E/DX2 analytically  !
 ! A6    A(3,2,30)             118.6657         calculate D2E/DX2 analytically  !
 ! A7    A(2,3,4)              120.713          calculate D2E/DX2 analytically  !
 ! A8    A(2,3,33)             120.2621         calculate D2E/DX2 analytically  !
 ! A9    A(4,3,33)             119.0238         calculate D2E/DX2 analytically  !
 ! A10   A(3,4,5)              119.9567         calculate D2E/DX2 analytically  !
 ! A11   A(3,4,34)             119.4426         calculate D2E/DX2 analytically  !
 ! A12   A(5,4,34)             120.5878         calculate D2E/DX2 analytically  !
 ! A13   A(4,5,6)              121.0463         calculate D2E/DX2 analytically  !
 ! A14   A(4,5,25)             120.3493         calculate D2E/DX2 analytically  !
 ! A15   A(6,5,25)             118.4439         calculate D2E/DX2 analytically  !
 ! A16   A(5,6,7)              117.0834         calculate D2E/DX2 analytically  !
 ! A17   A(6,7,8)              122.6819         calculate D2E/DX2 analytically  !
 ! A18   A(6,7,24)             116.8869         calculate D2E/DX2 analytically  !
 ! A19   A(8,7,24)             120.3159         calculate D2E/DX2 analytically  !
 ! A20   A(7,8,9)              119.7825         calculate D2E/DX2 analytically  !
 ! A21   A(7,8,35)             120.8087         calculate D2E/DX2 analytically  !
 ! A22   A(9,8,35)             119.397          calculate D2E/DX2 analytically  !
 ! A23   A(8,9,10)             119.7828         calculate D2E/DX2 analytically  !
 ! A24   A(8,9,36)             119.4034         calculate D2E/DX2 analytically  !
 ! A25   A(10,9,36)            120.8026         calculate D2E/DX2 analytically  !
 ! A26   A(9,10,11)            122.6648         calculate D2E/DX2 analytically  !
 ! A27   A(9,10,23)            120.3211         calculate D2E/DX2 analytically  !
 ! A28   A(11,10,23)           116.9054         calculate D2E/DX2 analytically  !
 ! A29   A(10,11,12)           116.9995         calculate D2E/DX2 analytically  !
 ! A30   A(11,12,13)           120.997          calculate D2E/DX2 analytically  !
 ! A31   A(11,12,18)           118.4783         calculate D2E/DX2 analytically  !
 ! A32   A(13,12,18)           120.3643         calculate D2E/DX2 analytically  !
 ! A33   A(12,13,14)           119.9538         calculate D2E/DX2 analytically  !
 ! A34   A(12,13,37)           120.5703         calculate D2E/DX2 analytically  !
 ! A35   A(14,13,37)           119.4646         calculate D2E/DX2 analytically  !
 ! A36   A(13,14,15)           120.7001         calculate D2E/DX2 analytically  !
 ! A37   A(13,14,38)           119.0234         calculate D2E/DX2 analytically  !
 ! A38   A(15,14,38)           120.2756         calculate D2E/DX2 analytically  !
 ! A39   A(14,15,16)           120.267          calculate D2E/DX2 analytically  !
 ! A40   A(14,15,17)           118.6759         calculate D2E/DX2 analytically  !
 ! A41   A(16,15,17)           120.1537         calculate D2E/DX2 analytically  !
 ! A42   A(15,16,39)           114.2683         calculate D2E/DX2 analytically  !
 ! A43   A(15,16,40)           114.4943         calculate D2E/DX2 analytically  !
 ! A44   A(39,16,40)           112.2671         calculate D2E/DX2 analytically  !
 ! A45   A(15,17,18)           121.3747         calculate D2E/DX2 analytically  !
 ! A46   A(15,17,41)           119.2405         calculate D2E/DX2 analytically  !
 ! A47   A(18,17,41)           119.3846         calculate D2E/DX2 analytically  !
 ! A48   A(12,18,17)           118.6751         calculate D2E/DX2 analytically  !
 ! A49   A(12,18,19)           120.5986         calculate D2E/DX2 analytically  !
 ! A50   A(17,18,19)           120.7262         calculate D2E/DX2 analytically  !
 ! A51   A(18,19,20)           113.3195         calculate D2E/DX2 analytically  !
 ! A52   A(18,19,21)           113.1339         calculate D2E/DX2 analytically  !
 ! A53   A(18,19,22)           112.7398         calculate D2E/DX2 analytically  !
 ! A54   A(20,19,21)           105.3842         calculate D2E/DX2 analytically  !
 ! A55   A(20,19,22)           106.3473         calculate D2E/DX2 analytically  !
 ! A56   A(21,19,22)           105.2185         calculate D2E/DX2 analytically  !
 ! A57   A(10,23,24)           119.8523         calculate D2E/DX2 analytically  !
 ! A58   A(10,23,42)           120.1103         calculate D2E/DX2 analytically  !
 ! A59   A(24,23,42)           120.0372         calculate D2E/DX2 analytically  !
 ! A60   A(7,24,23)            119.87           calculate D2E/DX2 analytically  !
 ! A61   A(7,24,43)            120.0943         calculate D2E/DX2 analytically  !
 ! A62   A(23,24,43)           120.0356         calculate D2E/DX2 analytically  !
 ! A63   A(5,25,26)            120.5906         calculate D2E/DX2 analytically  !
 ! A64   A(5,25,30)            118.6934         calculate D2E/DX2 analytically  !
 ! A65   A(26,25,30)           120.716          calculate D2E/DX2 analytically  !
 ! A66   A(25,26,27)           113.1273         calculate D2E/DX2 analytically  !
 ! A67   A(25,26,28)           112.7367         calculate D2E/DX2 analytically  !
 ! A68   A(25,26,29)           113.3123         calculate D2E/DX2 analytically  !
 ! A69   A(27,26,28)           105.2283         calculate D2E/DX2 analytically  !
 ! A70   A(27,26,29)           105.3923         calculate D2E/DX2 analytically  !
 ! A71   A(28,26,29)           106.3485         calculate D2E/DX2 analytically  !
 ! A72   A(2,30,25)            121.3758         calculate D2E/DX2 analytically  !
 ! A73   A(2,30,44)            119.2472         calculate D2E/DX2 analytically  !
 ! A74   A(25,30,44)           119.3766         calculate D2E/DX2 analytically  !
 ! D1    D(31,1,2,3)          -161.184          calculate D2E/DX2 analytically  !
 ! D2    D(31,1,2,30)           29.8794         calculate D2E/DX2 analytically  !
 ! D3    D(32,1,2,3)           -29.6599         calculate D2E/DX2 analytically  !
 ! D4    D(32,1,2,30)          161.4035         calculate D2E/DX2 analytically  !
 ! D5    D(1,2,3,4)           -174.1728         calculate D2E/DX2 analytically  !
 ! D6    D(1,2,3,33)             5.4433         calculate D2E/DX2 analytically  !
 ! D7    D(30,2,3,4)            -5.0717         calculate D2E/DX2 analytically  !
 ! D8    D(30,2,3,33)          174.5444         calculate D2E/DX2 analytically  !
 ! D9    D(1,2,30,25)          174.1229         calculate D2E/DX2 analytically  !
 ! D10   D(1,2,30,44)           -5.6611         calculate D2E/DX2 analytically  !
 ! D11   D(3,2,30,25)            5.0121         calculate D2E/DX2 analytically  !
 ! D12   D(3,2,30,44)         -174.7719         calculate D2E/DX2 analytically  !
 ! D13   D(2,3,4,5)              1.3413         calculate D2E/DX2 analytically  !
 ! D14   D(2,3,4,34)          -179.9554         calculate D2E/DX2 analytically  !
 ! D15   D(33,3,4,5)          -178.2796         calculate D2E/DX2 analytically  !
 ! D16   D(33,3,4,34)            0.4238         calculate D2E/DX2 analytically  !
 ! D17   D(3,4,5,6)            177.9213         calculate D2E/DX2 analytically  !
 ! D18   D(3,4,5,25)             2.5977         calculate D2E/DX2 analytically  !
 ! D19   D(34,4,5,6)            -0.7671         calculate D2E/DX2 analytically  !
 ! D20   D(34,4,5,25)         -176.0906         calculate D2E/DX2 analytically  !
 ! D21   D(4,5,6,7)             53.861          calculate D2E/DX2 analytically  !
 ! D22   D(25,5,6,7)          -130.7285         calculate D2E/DX2 analytically  !
 ! D23   D(4,5,25,26)          177.4445         calculate D2E/DX2 analytically  !
 ! D24   D(4,5,25,30)           -2.6564         calculate D2E/DX2 analytically  !
 ! D25   D(6,5,25,26)            2.0009         calculate D2E/DX2 analytically  !
 ! D26   D(6,5,25,30)         -178.1001         calculate D2E/DX2 analytically  !
 ! D27   D(5,6,7,8)             48.011          calculate D2E/DX2 analytically  !
 ! D28   D(5,6,7,24)          -135.8866         calculate D2E/DX2 analytically  !
 ! D29   D(6,7,8,9)            178.2375         calculate D2E/DX2 analytically  !
 ! D30   D(6,7,8,35)            -0.5076         calculate D2E/DX2 analytically  !
 ! D31   D(24,7,8,9)             2.2646         calculate D2E/DX2 analytically  !
 ! D32   D(24,7,8,35)         -176.4804         calculate D2E/DX2 analytically  !
 ! D33   D(6,7,24,23)         -178.4536         calculate D2E/DX2 analytically  !
 ! D34   D(6,7,24,43)            1.4289         calculate D2E/DX2 analytically  !
 ! D35   D(8,7,24,23)           -2.2537         calculate D2E/DX2 analytically  !
 ! D36   D(8,7,24,43)          177.6288         calculate D2E/DX2 analytically  !
 ! D37   D(7,8,9,10)            -0.0348         calculate D2E/DX2 analytically  !
 ! D38   D(7,8,9,36)          -178.8222         calculate D2E/DX2 analytically  !
 ! D39   D(35,8,9,10)          178.728          calculate D2E/DX2 analytically  !
 ! D40   D(35,8,9,36)           -0.0593         calculate D2E/DX2 analytically  !
 ! D41   D(8,9,10,11)         -178.2971         calculate D2E/DX2 analytically  !
 ! D42   D(8,9,10,23)           -2.2076         calculate D2E/DX2 analytically  !
 ! D43   D(36,9,10,11)           0.4729         calculate D2E/DX2 analytically  !
 ! D44   D(36,9,10,23)         176.5624         calculate D2E/DX2 analytically  !
 ! D45   D(9,10,11,12)         -48.2101         calculate D2E/DX2 analytically  !
 ! D46   D(23,10,11,12)        135.575          calculate D2E/DX2 analytically  !
 ! D47   D(9,10,23,24)           2.222          calculate D2E/DX2 analytically  !
 ! D48   D(9,10,23,42)        -177.6004         calculate D2E/DX2 analytically  !
 ! D49   D(11,10,23,24)        178.5308         calculate D2E/DX2 analytically  !
 ! D50   D(11,10,23,42)         -1.2917         calculate D2E/DX2 analytically  !
 ! D51   D(10,11,12,13)        -54.1616         calculate D2E/DX2 analytically  !
 ! D52   D(10,11,12,18)        130.4258         calculate D2E/DX2 analytically  !
 ! D53   D(11,12,13,14)       -178.0332         calculate D2E/DX2 analytically  !
 ! D54   D(11,12,13,37)          0.7371         calculate D2E/DX2 analytically  !
 ! D55   D(18,12,13,14)         -2.7067         calculate D2E/DX2 analytically  !
 ! D56   D(18,12,13,37)        176.0636         calculate D2E/DX2 analytically  !
 ! D57   D(11,12,18,17)        178.2208         calculate D2E/DX2 analytically  !
 ! D58   D(11,12,18,19)         -1.898          calculate D2E/DX2 analytically  !
 ! D59   D(13,12,18,17)          2.7781         calculate D2E/DX2 analytically  !
 ! D60   D(13,12,18,19)       -177.3406         calculate D2E/DX2 analytically  !
 ! D61   D(12,13,14,15)         -1.3335         calculate D2E/DX2 analytically  !
 ! D62   D(12,13,14,38)        178.318          calculate D2E/DX2 analytically  !
 ! D63   D(37,13,14,15)        179.8826         calculate D2E/DX2 analytically  !
 ! D64   D(37,13,14,38)         -0.4659         calculate D2E/DX2 analytically  !
 ! D65   D(13,14,15,16)        174.2882         calculate D2E/DX2 analytically  !
 ! D66   D(13,14,15,17)          5.1482         calculate D2E/DX2 analytically  !
 ! D67   D(38,14,15,16)         -5.3589         calculate D2E/DX2 analytically  !
 ! D68   D(38,14,15,17)       -174.4989         calculate D2E/DX2 analytically  !
 ! D69   D(14,15,16,39)         29.5775         calculate D2E/DX2 analytically  !
 ! D70   D(14,15,16,40)        161.0434         calculate D2E/DX2 analytically  !
 ! D71   D(17,15,16,39)       -161.4436         calculate D2E/DX2 analytically  !
 ! D72   D(17,15,16,40)        -29.9777         calculate D2E/DX2 analytically  !
 ! D73   D(14,15,17,18)         -5.0747         calculate D2E/DX2 analytically  !
 ! D74   D(14,15,17,41)        174.7627         calculate D2E/DX2 analytically  !
 ! D75   D(16,15,17,18)       -174.2273         calculate D2E/DX2 analytically  !
 ! D76   D(16,15,17,41)          5.6101         calculate D2E/DX2 analytically  !
 ! D77   D(15,17,18,12)          1.1488         calculate D2E/DX2 analytically  !
 ! D78   D(15,17,18,19)       -178.7323         calculate D2E/DX2 analytically  !
 ! D79   D(41,17,18,12)       -178.6884         calculate D2E/DX2 analytically  !
 ! D80   D(41,17,18,19)          1.4305         calculate D2E/DX2 analytically  !
 ! D81   D(12,18,19,20)         59.4213         calculate D2E/DX2 analytically  !
 ! D82   D(12,18,19,21)        179.3101         calculate D2E/DX2 analytically  !
 ! D83   D(12,18,19,22)        -61.4427         calculate D2E/DX2 analytically  !
 ! D84   D(17,18,19,20)       -120.6999         calculate D2E/DX2 analytically  !
 ! D85   D(17,18,19,21)         -0.8111         calculate D2E/DX2 analytically  !
 ! D86   D(17,18,19,22)        118.4361         calculate D2E/DX2 analytically  !
 ! D87   D(10,23,24,7)           0.0094         calculate D2E/DX2 analytically  !
 ! D88   D(10,23,24,43)       -179.8731         calculate D2E/DX2 analytically  !
 ! D89   D(42,23,24,7)         179.832          calculate D2E/DX2 analytically  !
 ! D90   D(42,23,24,43)         -0.0506         calculate D2E/DX2 analytically  !
 ! D91   D(5,25,26,27)        -179.6193         calculate D2E/DX2 analytically  !
 ! D92   D(5,25,26,28)          61.1278         calculate D2E/DX2 analytically  !
 ! D93   D(5,25,26,29)         -59.7301         calculate D2E/DX2 analytically  !
 ! D94   D(30,25,26,27)          0.4837         calculate D2E/DX2 analytically  !
 ! D95   D(30,25,26,28)       -118.7692         calculate D2E/DX2 analytically  !
 ! D96   D(30,25,26,29)        120.3729         calculate D2E/DX2 analytically  !
 ! D97   D(5,25,30,2)           -1.1851         calculate D2E/DX2 analytically  !
 ! D98   D(5,25,30,44)         178.5987         calculate D2E/DX2 analytically  !
 ! D99   D(26,25,30,2)         178.7139         calculate D2E/DX2 analytically  !
 ! D100  D(26,25,30,44)         -1.5024         calculate D2E/DX2 analytically  !
 --------------------------------------------------------------------------------
 Trust Radius=3.00D-01 FncErr=1.00D-07 GrdErr=1.00D-06 EigMax=2.50D+02 EigMin=1.00D-04
 Number of steps in this run=    230 maximum allowed number of steps=    264.
 GradGradGradGradGradGradGradGradGradGradGradGradGradGradGradGradGradGrad

                          Input orientation:                          
 ---------------------------------------------------------------------
 Center     Atomic      Atomic             Coordinates (Angstroms)
 Number     Number       Type             X           Y           Z
 ---------------------------------------------------------------------
      1          7           0       -5.081217    3.653172    1.811432
      2          6           0       -4.473749    2.597781    1.126336
      3          6           0       -3.405649    2.842590    0.262337
      4          6           0       -2.870063    1.816208   -0.518094
      5          6           0       -3.422490    0.533739   -0.459128
      6          8           0       -2.939403   -0.484800   -1.250332
      7          6           0       -1.588124   -0.741231   -1.186368
      8          6           0       -0.901285   -0.872745    0.023948
      9          6           0        0.463213   -1.169556    0.018431
     10          6           0        1.133106   -1.333919   -1.197361
     11          8           0        2.468559   -1.660726   -1.271748
     12          6           0        3.335527   -0.930558   -0.489207
     13          6           0        3.365737    0.465142   -0.557998
     14          6           0        4.281516    1.181470    0.214784
     15          6           0        5.153760    0.520679    1.080690
     16          7           0        6.145468    1.232841    1.760118
     17          6           0        5.168822   -0.877128    1.079812
     18          6           0        4.255874   -1.619225    0.307544
     19          6           0        4.266617   -3.122185    0.339334
     20          9           0        4.486133   -3.685597   -0.880751
     21          9           0        5.234950   -3.634675    1.154547
     22          9           0        3.096569   -3.647696    0.799559
     23          6           0        0.435760   -1.248302   -2.403232
     24          6           0       -0.927636   -0.951446   -2.397561
     25          6           0       -4.544671    0.283588    0.337323
     26          6           0       -5.177722   -1.079714    0.360634
     27          9           0       -6.266443   -1.151578    1.181867
     28          9           0       -4.328400   -2.047136    0.806832
     29          9           0       -5.618435   -1.490089   -0.860478
     30          6           0       -5.067163    1.332223    1.117117
     31          1           0       -5.626502    3.371678    2.620500
     32          1           0       -4.460688    4.430075    2.016796
     33          1           0       -2.982401    3.840695    0.183631
     34          1           0       -2.037622    2.029801   -1.183572
     35          1           0       -1.420201   -0.766827    0.972622
     36          1           0        0.986737   -1.289390    0.962622
     37          1           0        2.694345    1.000449   -1.224449
     38          1           0        4.310622    2.264740    0.128930
     39          1           0        5.903342    2.198712    1.959483
     40          1           0        6.524794    0.755790    2.572202
     41          1           0        5.904642   -1.401652    1.687887
     42          1           0        0.952232   -1.415199   -3.344713
     43          1           0       -1.474030   -0.886077   -3.334734
     44          1           0       -5.954430    1.156079    1.723785
 ---------------------------------------------------------------------
                    Distance matrix (angstroms):
                    1          2          3          4          5
     1  N    0.000000
     2  C    1.397221   0.000000
     3  C    2.421625   1.395444   0.000000
     4  C    3.700044   2.426276   1.396204   0.000000
     5  C    4.199724   2.806975   2.419005   1.397633   0.000000
     6  O    5.575355   4.183907   3.684709   2.415702   1.377243
     7  C    6.363904   4.982412   4.271523   2.937763   2.349325
     8  C    6.414893   5.101206   4.486912   3.376443   2.927121
     9  C    7.564011   6.308238   5.578969   4.507037   4.269423
    10  C    8.517143   7.231504   6.338315   5.139073   4.978614
    11  O    9.733582   8.490071   7.559073   6.415446   6.338808
    12  C    9.856221   8.720317   7.761759   6.786376   6.914902
    13  C    9.334278   8.297148   7.223356   6.380609   6.789294
    14  C    9.814243   8.915802   7.864737   7.217000   7.760504
    15  C   10.728525   9.849130   8.906428   8.283493   8.713397
    16  N   11.484732  10.725320   9.800942   9.317208   9.846808
    17  C   11.230413  10.249698   9.382223   8.627342   8.841353
    18  C   10.827794   9.729330   8.866158   7.953795   8.011262
    19  C   11.638493  10.475274   9.718443   8.720958   8.551356
    20  F   12.354738  11.126037  10.305537   9.193204   8.973677
    21  F   12.647826  11.537033  10.835633   9.909646   9.743249
    22  F   11.009212   9.819494   9.202785   8.197021   7.846453
    23  C    8.498522   7.166135   6.212655   4.886045   4.673469
    24  C    7.494689   6.131050   5.254551   3.868504   3.491073
    25  C    3.716851   2.446030   2.802050   2.425896   1.398641
    26  C    4.951196   3.821759   4.305156   3.805760   2.521126
    27  F    4.988662   4.156264   4.998306   4.820064   3.690695
    28  F    5.836905   4.658160   5.005733   4.336772   3.014008
    29  F    5.820726   4.687048   4.992920   4.313047   3.013161
    30  C    2.422618   1.397806   2.402600   2.781259   2.413933
    31  H    1.015464   2.039677   3.282233   4.457378   4.732407
    32  H    1.015287   2.037250   2.590626   3.973418   4.731753
    33  H    2.662692   2.158158   1.086990   2.145597   3.397466
    34  H    4.568244   3.404848   2.150064   1.086941   2.163534
    35  H    5.800261   4.546247   4.180238   3.316082   2.783980
    36  H    7.872068   6.704760   6.070973   5.168381   4.978601
    37  H    8.758589   7.710981   6.543237   5.668073   6.182169
    38  H    9.641845   8.847084   7.739027   7.223715   7.946270
    39  H   11.081421  10.418128   9.484313   9.124546   9.777165
    40  H   11.986371  11.245061  10.406916   9.946747  10.401286
    41  H   12.093619  11.136508  10.330891   9.602939   9.764775
    42  H    9.416832   8.095403   7.080304   5.748192   5.591347
    43  H    7.752393   6.405991   5.529288   4.145445   3.752530
    44  H    2.646820   2.151248   3.387689   3.869769   3.400461
                    6          7          8          9         10
     6  O    0.000000
     7  C    1.376881   0.000000
     8  C    2.434793   1.397823   0.000000
     9  C    3.695463   2.417227   1.396417   0.000000
    10  C    4.160425   2.785049   2.417235   1.397828   0.000000
    11  O    5.534375   4.160461   3.695347   2.434588   1.376869
    12  C    6.336620   4.976366   4.268166   2.926603   2.348369
    13  C    6.413774   5.137209   4.509554   3.380703   2.937694
    14  C    7.554117   6.333457   5.578319   4.488354   4.270108
    15  C    8.481977   7.223917   6.302532   5.097698   4.979428
    16  N    9.723578   8.508066   7.556752   6.410383   6.360716
    17  C    8.445519   7.128138   6.161255   4.832680   4.656304
    18  C    7.448886   6.095487   5.218616   3.830152   3.478191
    19  C    7.836425   6.501900   5.645056   4.287379   3.921507
    20  F    8.094459   6.757166   6.144500   4.829376   4.107727
    21  F    9.084338   7.772145   6.823481   5.489721   5.258333
    22  F    7.116103   5.859846   4.927957   3.699446   3.632690
    23  C    3.647443   2.415365   2.796415   2.423099   1.395617
    24  C    2.362435   1.395501   2.422931   2.796257   2.415249
    25  C    2.384943   3.480381   3.835306   5.224195   6.099896
    26  C    2.821207   3.923391   4.294660   5.652019   6.505269
    27  F    4.174851   5.259619   5.495766   6.829508   7.774787
    28  F    2.932938   3.631438   3.706375   4.934701   5.861187
    29  F    2.887873   4.112226   4.838887   6.153184   6.761745
    30  C    3.665208   4.659287   4.838537   6.168554   7.135016
    31  H    6.089029   6.907732   6.861843   8.029832   9.078051
    32  H    6.094623   6.727130   6.690343   7.719723   8.651298
    33  H    4.557193   4.981460   5.154906   6.082940   6.754344
    34  H    2.672243   2.807253   3.342774   4.234959   4.622588
    35  H    2.707220   2.165662   1.086497   2.149400   3.398500
    36  H    4.578112   3.398315   2.149263   1.086248   2.165394
    37  H    5.826298   4.623250   4.242158   3.351362   2.808465
    38  H    7.875607   6.749894   6.084308   5.158407   4.980562
    39  H    9.782550   8.640700   7.712528   6.686398   6.723116
    40  H   10.282113   9.065724   8.018253   6.853574   6.902665
    41  H    9.364341   8.052270   7.026314   5.696499   5.576450
    42  H    4.516292   3.400897   3.882996   3.407377   2.156489
    43  H    2.579355   2.156264   3.407192   3.882910   3.400895
    44  H    4.541833   5.579731   5.704371   7.035834   8.060171
                   11         12         13         14         15
    11  O    0.000000
    12  C    1.377370   0.000000
    13  C    2.415301   1.397721   0.000000
    14  C    3.684382   2.418918   1.396055   0.000000
    15  C    4.183634   2.806535   2.425987   1.395439   0.000000
    16  N    5.575357   4.199468   3.699990   2.421779   1.397241
    17  C    3.665416   2.413638   2.781227   2.402793   1.397888
    18  C    2.385452   1.398611   2.426127   2.802348   2.446046
    19  C    2.822138   2.521238   3.806009   4.305483   3.821922
    20  F    2.885063   3.011219   4.311391   4.993036   4.688895
    21  F    4.175680   3.690797   4.820297   4.998744   4.156803
    22  F    2.938156   3.016763   4.339453   5.006687   4.656868
    23  C    2.362757   3.488997   3.863359   5.248584   6.125890
    24  C    3.647557   4.670847   4.880959   6.205557   7.158824
    25  C    7.453512   8.015910   7.962983   8.872586   9.729767
    26  C    7.840143   8.556861   8.730472   9.726839  10.479469
    27  F    9.087338   9.748803   9.920676  10.846097  11.542432
    28  F    7.118177   7.852530   8.208169   9.214395   9.827514
    29  F    8.099243   8.979107   9.199444  10.310308  11.128860
    30  C    8.452899   8.849047   8.641275   9.393334  10.253155
    31  H   10.295858  10.416212   9.970514  10.428485  11.256699
    32  H    9.794224   9.787614   9.143477   9.498779  10.421002
    33  H    7.880147   7.945676   7.227947   7.735434   8.833139
    34  H    5.825240   6.173864   5.660017   6.527371   7.688974
    35  H    4.578068   4.978022   5.173562   6.072871   6.699725
    36  H    2.706676   2.784489   3.324200   4.185687   4.544708
    37  H    2.671154   2.163442   1.086957   2.150179   3.404786
    38  H    4.556795   3.397475   2.145514   1.087057   2.158351
    39  H    6.093755   4.730971   3.972709   2.590188   2.037142
    40  H    6.088394   4.731535   4.456711   3.281908   2.039515
    41  H    4.542381   3.400298   3.869749   3.387786   2.151248
    42  H    2.580061   3.750851   4.138414   5.522395   6.401926
    43  H    4.516636   5.588456   5.741028   7.071078   8.087184
    44  H    9.373065   9.775208   9.620262  10.346609  11.144918
                   16         17         18         19         20
    16  N    0.000000
    17  C    2.422525   0.000000
    18  C    3.716829   1.407330   0.000000
    19  C    4.951259   2.530328   1.503335   0.000000
    20  F    5.823969   3.492473   2.394777   1.361700   0.000000
    21  F    4.988835   2.759352   2.395421   1.365608   2.169275
    22  F    5.834219   3.471141   2.387627   1.362711   2.180771
    23  C    7.489347   5.888228   4.698846   5.070362   4.966273
    24  C    8.490360   7.018864   5.884922   6.259630   6.251815
    25  C   10.826102   9.810733   9.003953   9.446591   9.939494
    26  C   11.641353  10.373486   9.449160   9.662695  10.085720
    27  F   12.652090  11.439013  10.568931  10.748884  11.238040
    28  F   11.016756   9.572912   8.609423   8.674595   9.122964
    29  F   12.356023  10.977493   9.943990  10.090468  10.340356
    30  C   11.231492  10.471771   9.812516  10.371409  10.974308
    31  H   11.995589  11.703208  11.310183  12.051879  12.819098
    32  H   11.080556  11.035026  10.746814  11.662605  12.421977
    33  H    9.623107   9.460625   9.067453  10.052572  10.656311
    34  H    8.732893   8.093576   7.426096   8.282852   8.678528
    35  H    7.864997   6.590818   5.778126   6.187784   6.843902
    36  H    5.797426   4.203989   3.350399   3.808574   4.624457
    37  H    4.568577   3.867550   3.412926   4.681193   5.028683
    38  H    2.663128   3.392937   3.888455   5.391212   6.037945
    39  H    1.015519   3.282398   4.474337   5.797905   6.685844
    40  H    1.015356   2.594670   3.989658   5.012360   5.983723
    41  H    2.646464   1.089180   2.161278   2.731658   3.718397
    42  H    7.748620   6.135598   4.928961   5.241293   4.869730
    43  H    9.407661   7.975950   6.829019   7.173144   7.027296
    44  H   12.100196  11.325871  10.675128  11.166470  11.799610
                   21         22         23         24         25
    21  F    0.000000
    22  F    2.167685   0.000000
    23  C    6.433101   4.805711   0.000000
    24  C    7.602280   5.803927   1.395352   0.000000
    25  C   10.567006   8.605649   5.887446   4.699770   0.000000
    26  C   10.750900   8.674738   6.259278   5.068266   1.503293
    27  F   11.766417   9.697565   7.601436   6.430802   2.395299
    28  F    9.700456   7.595525   5.799989   4.799361   2.387359
    29  F   11.245245   9.130295   6.252347   4.965517   2.394500
    30  C   11.437001   9.568017   7.023826   5.890992   1.407378
    31  H   13.008042  11.343695   9.128698   8.120941   3.989932
    32  H   12.640770  11.128530   8.703782   7.805752   4.474487
    33  H   11.151174   9.664845   6.653839   5.818008   3.888099
    34  H    9.510173   7.907382   4.283824   3.404947   3.412868
    35  H    7.249047   5.360091   3.882371   3.410988   3.356975
    36  H    4.856388   3.168531   3.410900   3.881992   5.784612
    37  H    5.796435   5.085631   3.398178   4.278415   7.440186
    38  H    6.058826   6.072938   5.811012   6.645777   9.076596
    39  H    5.926473   6.588163   7.798053   8.693077  10.745235
    40  H    4.790577   5.855398   8.114657   9.118767  11.302686
    41  H    2.391512   3.703933   6.831504   7.973306  10.670155
    42  H    6.596293   5.172737   1.086731   2.155474   6.830754
    43  H    8.527535   6.753465   2.155506   1.086790   4.927570
    44  H   12.185138  10.288393   7.977961   6.833433   2.161236
                   26         27         28         29         30
    26  C    0.000000
    27  F    1.365614   0.000000
    28  F    1.362478   2.167645   0.000000
    29  F    1.361525   2.169257   2.180462   0.000000
    30  C    2.530203   2.758937   3.473055   3.490018   0.000000
    31  H    5.012314   4.789472   5.859864   5.979469   2.594687
    32  H    5.797825   5.925598   6.590581   6.683369   3.282365
    33  H    5.390842   6.058399   6.071790   6.037889   3.392648
    34  H    4.681226   5.796499   5.082399   5.031524   3.867544
    35  H    3.819868   4.865992   3.181870   4.637729   4.210370
    36  H    6.197331   7.257802   5.371139   6.855092   6.598971
    37  H    8.295119   9.524564   7.920405   8.685481   8.113816
    38  H   10.063187  11.164865   9.679076  10.661325   9.475703
    39  H   11.665949  12.646454  11.137521  12.422189  11.036863
    40  H   12.050269  13.007184  11.347455  12.817382  11.697137
    41  H   11.166201  12.184167  10.291164  11.801835  11.321676
    42  H    7.170668   8.524594   6.746832   7.025006   7.980562
    43  H    5.235511   6.590705   5.162175   4.864450   6.135995
    44  H    2.731341   2.390881   3.707474   3.713962   1.089182
                   31         32         33         34         35
    31  H    0.000000
    32  H    1.686352   0.000000
    33  H    3.626234   2.427590   0.000000
    34  H    5.399227   4.677063   2.457883   0.000000
    35  H    6.126638   6.110862   4.928714   3.584900   0.000000
    36  H    8.258877   7.968563   6.532890   4.976939   2.463032
    37  H    9.467992   8.571027   6.501933   4.842804   4.987973
    38  H   10.304352   9.229766   7.461555   6.486760   6.537932
    39  H   11.608191  10.601669   9.209027   8.542028   7.962575
    40  H   12.429771  11.596968  10.276608   9.436309   8.246209
    41  H   12.514861  11.897785  10.427105   9.115904   7.387012
    42  H   10.088494   9.602745   7.453521   5.047552   4.968723
    43  H    8.416431   8.112981   6.082470   3.667080   4.309343
    44  H    2.412574   3.610563   4.290943   4.955552   4.982072
                   36         37         38         39         40
    36  H    0.000000
    37  H    3.597577   0.000000
    38  H    4.937113   2.458133   0.000000
    39  H    6.110121   4.676635   2.427353   0.000000
    40  H    6.119116   5.398774   3.626165   1.686314   0.000000
    41  H    4.972364   4.955582   4.291117   3.610594   2.412707
    42  H    4.309310   3.655931   6.073461   8.106068   8.412879
    43  H    4.968431   5.038615   7.442232   9.590114  10.078136
    44  H    7.398614   9.138798  10.447200  11.905855  12.514435
                   41         42         43         44
    41  H    0.000000
    42  H    7.060709   0.000000
    43  H    8.940769   2.483308   0.000000
    44  H   12.131813   8.944447   7.059249   0.000000
 Stoichiometry    C20H14F6N2O2
 Framework group  C1[X(C20H14F6N2O2)]
 Deg. of freedom   126
 Full point group                 C1      NOp   1
 Largest Abelian subgroup         C1      NOp   1
 Largest concise Abelian subgroup C1      NOp   1
                         Standard orientation:                         
 ---------------------------------------------------------------------
 Center     Atomic      Atomic             Coordinates (Angstroms)
 Number     Number       Type             X           Y           Z
 ---------------------------------------------------------------------
      1          7           0        5.743421    3.441653   -0.781763
      2          6           0        4.924447    2.380945   -0.386282
      3          6           0        3.929162    2.580268    0.571288
      4          6           0        3.186247    1.504850    1.062143
      5          6           0        3.455616    0.208464    0.614703
      6          8           0        2.765634   -0.873364    1.115077
      7          6           0        1.390904   -0.820486    1.059176
      8          6           0        0.695944   -0.457905   -0.098180
      9          6           0       -0.700472   -0.460021   -0.098061
     10          6           0       -1.394140   -0.825411    1.059194
     11          8           0       -2.768735   -0.881215    1.115242
     12          6           0       -3.459282    0.202564    0.619542
     13          6           0       -3.194335    1.496006    1.078272
     14          6           0       -3.935548    2.573957    0.590836
     15          6           0       -4.924676    2.380115   -0.374203
     16          7           0       -5.741305    3.442906   -0.769011
     17          6           0       -5.234557    1.073980   -0.764176
     18          6           0       -4.501552   -0.027378   -0.284290
     19          6           0       -4.829303   -1.423517   -0.735280
     20          9           0       -5.167028   -2.255378    0.288526
     21          9           0       -5.881212   -1.473448   -1.604694
     22          9           0       -3.795028   -2.021887   -1.390421
     23          6           0       -0.698586   -1.231837    2.198830
     24          6           0        0.696764   -1.229410    2.198638
     25          6           0        4.502401   -0.026173   -0.282729
     26          6           0        4.833384   -1.424840   -0.723262
     27          9           0        5.885197   -1.478635   -1.592571
     28          9           0        3.800473   -2.030499   -1.373351
     29          9           0        5.173310   -2.247911    0.306668
     30          6           0        5.237214    1.072564   -0.765989
     31          1           0        6.219748    3.298557   -1.667089
     32          1           0        5.301641    4.354045   -0.725384
     33          1           0        3.725946    3.578461    0.950578
     34          1           0        2.415396    1.683801    1.807264
     35          1           0        1.228781   -0.192934   -1.007218
     36          1           0       -1.234249   -0.195804   -1.006469
     37          1           0       -2.427342    1.670210    1.828506
     38          1           0       -3.735552    3.569728    0.978308
     39          1           0       -5.300004    4.355160   -0.703247
     40          1           0       -6.210018    3.305521   -1.659169
     41          1           0       -6.062450    0.906279   -1.451767
     42          1           0       -1.241884   -1.552349    3.083749
     43          1           0        1.241418   -1.547271    3.083753
     44          1           0        6.069361    0.900717   -1.447397
 ---------------------------------------------------------------------
 Rotational constants (GHZ):           0.2720252           0.0627769           0.0565992
 Standard basis: 6-31G(d,p) (6D, 7F)
 There are   520 symmetry adapted cartesian basis functions of A   symmetry.
 There are   520 symmetry adapted basis functions of A   symmetry.
   520 basis functions,   938 primitive gaussians,   520 cartesian basis functions
   109 alpha electrons      109 beta electrons
       nuclear repulsion energy      2858.6768285103 Hartrees.
 NAtoms=   44 NActive=   44 NUniq=   44 SFac= 1.00D+00 NAtFMM=   60 NAOKFM=F Big=F
 Integral buffers will be    131072 words long.
 Raffenetti 2 integral format.
 Two-electron integral symmetry is turned on.
 Force inversion solution in PCM.
 ------------------------------------------------------------------------------
 Polarizable Continuum Model (PCM)
 =================================
 Model                : PCM.
 Atomic radii         : UFF (Universal Force Field).
 Polarization charges : Total charges.
 Charge compensation  : None.
 Solution method      : Matrix inversion.
 Cavity type          : Scaled VdW (van der Waals Surface) (Alpha=1.100).
 Cavity algorithm     : GePol (No added spheres)
                        Default sphere list used, NSphG=   44.
                        Lebedev-Laikov grids with approx.  5.0 points / Ang**2.
                        Smoothing algorithm: York/Karplus (Gamma=1.0000).
                        Polarization charges: spherical gaussians, with
                                              point-specific exponents (IZeta= 3).
                        Self-potential: point-specific (ISelfS= 7).
                        Self-field    : sphere-specific E.n sum rule (ISelfD= 2).
 1st derivatives      : Analytical E(r).r(x)/FMM algorithm (CHGder, D1EAlg=3).
                        Cavity 1st derivative terms included.
 2nd derivatives      : Analytical E(r).r(xy)/FMM algorithm (CHGder, D2EAlg=3).
                        Cavity 2nd derivative terms included.
 Solvent              : Water, Eps=  78.355300 Eps(inf)=   1.777849
 ------------------------------------------------------------------------------
 One-electron integrals computed using PRISM.
 NBasis=   520 RedAO= T EigKep=  3.53D-04  NBF=   520
 NBsUse=   520 1.00D-06 EigRej= -1.00D+00 NBFU=   520
 ExpMin= 1.61D-01 ExpMax= 7.00D+03 ExpMxC= 1.05D+03 IAcc=3 IRadAn=         5 AccDes= 0.00D+00
 Harris functional with IExCor=  402 and IRadAn=       5 diagonalized for initial guess.
 HarFok:  IExCor=  402 AccDes= 0.00D+00 IRadAn=         5 IDoV= 1 UseB2=F ITyADJ=14
 ICtDFT=  3500011 ScaDFX=  1.000000  1.000000  1.000000  1.000000
 FoFCou: FMM=F IPFlag=           0 FMFlag=      100000 FMFlg1=           0
         NFxFlg=           0 DoJE=T BraDBF=F KetDBF=T FulRan=T
         wScrn=  0.000000 ICntrl=       500 IOpCl=  0 I1Cent=   200000004 NGrid=           0
         NMat0=    1 NMatS0=      1 NMatT0=    0 NMatD0=    1 NMtDS0=    0 NMtDT0=    0
 Petite list used in FoFCou.
 Requested convergence on RMS density matrix=1.00D-08 within  32 cycles.
 Requested convergence on MAX density matrix=1.00D-06.
 Requested convergence on             energy=1.00D-06.
 No special actions if energy rises.
 Inv3:  Mode=1 IEnd=    39400128.
 Iteration    1 A*A^-1 deviation from unit magnitude is 3.33D-15 for   1352.
 Iteration    1 A*A^-1 deviation from orthogonality  is 3.33D-15 for   2622    338.
 Iteration    1 A^-1*A deviation from unit magnitude is 3.22D-15 for   2360.
 Iteration    1 A^-1*A deviation from orthogonality  is 1.94D-14 for   3334   3315.
 Error on total polarization charges =  0.00767
 SCF Done:  E(RB3LYP) =  -1629.58985068     A.U. after   13 cycles
            NFock= 13  Conv=0.38D-08     -V/T= 2.0084
 QCSCF skips out because SCF is already converged.
 DoSCS=F DFT=T ScalE2(SS,OS)=  1.000000  1.000000
 Range of M.O.s used for correlation:     1   520
 NBasis=   520 NAE=   109 NBE=   109 NFC=     0 NFV=     0
 NROrb=    520 NOA=   109 NOB=   109 NVA=   411 NVB=   411

 **** Warning!!: The largest alpha MO coefficient is  0.10304113D+02

 Symmetrizing basis deriv contribution to polar:
 IMax=3 JMax=2 DiffMx= 0.00D+00
 G2DrvN: will do    45 centers at a time, making    1 passes.
 Calling FoFCou, ICntrl=  3107 FMM=F I1Cent=   0 AccDes= 0.00D+00.
 NEqPCM:  Using equilibrium solvation (IEInf=0, Eps=  78.3553, EpsInf=   1.7778)
 G2PCM: DoFxE=T DoFxN=T DoGrad=T DoDP/DQ/DG/TGxP=FFFF NFrqRd=   0 IEInf=0 SqF1=F DoCFld=F IF1Alg=4.
 End of G2Drv F.D. properties file   721 does not exist.
 End of G2Drv F.D. properties file   722 does not exist.
 End of G2Drv F.D. properties file   788 does not exist.
          IDoAtm=11111111111111111111111111111111111111111111
 NEqPCM:  Using equilibrium solvation (IEInf=0, Eps=  78.3553, EpsInf=   1.7778)
          Differentiating once with respect to nuclear coordinates.
 CalDSu exits because no D1Ps are significant.
          There are   135 degrees of freedom in the 1st order CPHF.  IDoFFX=6 NUNeed=     0.
    129 vectors produced by pass  0 Test12= 4.48D-14 1.00D-09 XBig12= 1.46D-01 1.54D-01.
 AX will form   129 AO Fock derivatives at one time.
    129 vectors produced by pass  1 Test12= 4.48D-14 1.00D-09 XBig12= 2.35D-02 3.12D-02.
    129 vectors produced by pass  2 Test12= 4.48D-14 1.00D-09 XBig12= 2.75D-04 1.25D-03.
    129 vectors produced by pass  3 Test12= 4.48D-14 1.00D-09 XBig12= 1.29D-06 9.31D-05.
    129 vectors produced by pass  4 Test12= 4.48D-14 1.00D-09 XBig12= 2.22D-09 3.43D-06.
    112 vectors produced by pass  5 Test12= 4.48D-14 1.00D-09 XBig12= 2.67D-12 1.21D-07.
     36 vectors produced by pass  6 Test12= 4.48D-14 1.00D-09 XBig12= 3.11D-15 3.65D-09.
 InvSVY:  IOpt=1 It=  1 EMax= 3.89D-16
 Solved reduced A of dimension   793 with   135 vectors.
 End of Minotr F.D. properties file   721 does not exist.
 End of Minotr F.D. properties file   722 does not exist.
 End of Minotr F.D. properties file   788 does not exist.

 **********************************************************************

            Population analysis using the SCF density.

 **********************************************************************

 Orbital symmetries:
       Occupied  (A) (A) (A) (A) (A) (A) (A) (A) (A) (A) (A) (A)
                 (A) (A) (A) (A) (A) (A) (A) (A) (A) (A) (A) (A)
                 (A) (A) (A) (A) (A) (A) (A) (A) (A) (A) (A) (A)
                 (A) (A) (A) (A) (A) (A) (A) (A) (A) (A) (A) (A)
                 (A) (A) (A) (A) (A) (A) (A) (A) (A) (A) (A) (A)
                 (A) (A) (A) (A) (A) (A) (A) (A) (A) (A) (A) (A)
                 (A) (A) (A) (A) (A) (A) (A) (A) (A) (A) (A) (A)
                 (A) (A) (A) (A) (A) (A) (A) (A) (A) (A) (A) (A)
                 (A) (A) (A) (A) (A) (A) (A) (A) (A) (A) (A) (A)
                 (A)
       Virtual   (A) (A) (A) (A) (A) (A) (A) (A) (A) (A) (A) (A)
                 (A) (A) (A) (A) (A) (A) (A) (A) (A) (A) (A) (A)
                 (A) (A) (A) (A) (A) (A) (A) (A) (A) (A) (A) (A)
                 (A) (A) (A) (A) (A) (A) (A) (A) (A) (A) (A) (A)
                 (A) (A) (A) (A) (A) (A) (A) (A) (A) (A) (A) (A)
                 (A) (A) (A) (A) (A) (A) (A) (A) (A) (A) (A) (A)
                 (A) (A) (A) (A) (A) (A) (A) (A) (A) (A) (A) (A)
                 (A) (A) (A) (A) (A) (A) (A) (A) (A) (A) (A) (A)
                 (A) (A) (A) (A) (A) (A) (A) (A) (A) (A) (A) (A)
                 (A) (A) (A) (A) (A) (A) (A) (A) (A) (A) (A) (A)
                 (A) (A) (A) (A) (A) (A) (A) (A) (A) (A) (A) (A)
                 (A) (A) (A) (A) (A) (A) (A) (A) (A) (A) (A) (A)
                 (A) (A) (A) (A) (A) (A) (A) (A) (A) (A) (A) (A)
                 (A) (A) (A) (A) (A) (A) (A) (A) (A) (A) (A) (A)
                 (A) (A) (A) (A) (A) (A) (A) (A) (A) (A) (A) (A)
                 (A) (A) (A) (A) (A) (A) (A) (A) (A) (A) (A) (A)
                 (A) (A) (A) (A) (A) (A) (A) (A) (A) (A) (A) (A)
                 (A) (A) (A) (A) (A) (A) (A) (A) (A) (A) (A) (A)
                 (A) (A) (A) (A) (A) (A) (A) (A) (A) (A) (A) (A)
                 (A) (A) (A) (A) (A) (A) (A) (A) (A) (A) (A) (A)
                 (A) (A) (A) (A) (A) (A) (A) (A) (A) (A) (A) (A)
                 (A) (A) (A) (A) (A) (A) (A) (A) (A) (A) (A) (A)
                 (A) (A) (A) (A) (A) (A) (A) (A) (A) (A) (A) (A)
                 (A) (A) (A) (A) (A) (A) (A) (A) (A) (A) (A) (A)
                 (A) (A) (A) (A) (A) (A) (A) (A) (A) (A) (A) (A)
                 (A) (A) (A) (A) (A) (A) (A) (A) (A) (A) (A) (A)
                 (A) (A) (A) (A) (A) (A) (A) (A) (A) (A) (A) (A)
                 (A) (A) (A) (A) (A) (A) (A) (A) (A) (A) (A) (A)
                 (A) (A) (A) (A) (A) (A) (A) (A) (A) (A) (A) (A)
                 (A) (A) (A) (A) (A) (A) (A) (A) (A) (A) (A) (A)
                 (A) (A) (A) (A) (A) (A) (A) (A) (A) (A) (A) (A)
                 (A) (A) (A) (A) (A) (A) (A) (A) (A) (A) (A) (A)
                 (A) (A) (A) (A) (A) (A) (A) (A) (A) (A) (A) (A)
                 (A) (A) (A) (A) (A) (A) (A) (A) (A) (A) (A) (A)
                 (A) (A) (A)
 The electronic state is 1-A.
 Alpha  occ. eigenvalues --  -24.72643 -24.72639 -24.72289 -24.72287 -24.72274
 Alpha  occ. eigenvalues --  -24.72272 -19.19351 -19.19339 -14.34223 -14.34221
 Alpha  occ. eigenvalues --  -10.43884 -10.43878 -10.25867 -10.25864 -10.25508
 Alpha  occ. eigenvalues --  -10.25503 -10.23765 -10.23761 -10.22027 -10.22022
 Alpha  occ. eigenvalues --  -10.20384 -10.20381 -10.20340 -10.20340 -10.20202
 Alpha  occ. eigenvalues --  -10.20147 -10.19939 -10.19938 -10.19898 -10.19843
 Alpha  occ. eigenvalues --   -1.29774  -1.29769  -1.21052  -1.21052  -1.20988
 Alpha  occ. eigenvalues --   -1.20985  -1.08899  -1.08835  -0.92294  -0.92289
 Alpha  occ. eigenvalues --   -0.87050  -0.85858  -0.84756  -0.78485  -0.78411
 Alpha  occ. eigenvalues --   -0.76706  -0.76093  -0.74036  -0.72222  -0.70052
 Alpha  occ. eigenvalues --   -0.69500  -0.64890  -0.63713  -0.63358  -0.63316
 Alpha  occ. eigenvalues --   -0.61346  -0.59489  -0.57825  -0.57823  -0.57634
 Alpha  occ. eigenvalues --   -0.57593  -0.56825  -0.56477  -0.54689  -0.53946
 Alpha  occ. eigenvalues --   -0.52064  -0.52029  -0.50414  -0.49260  -0.49166
 Alpha  occ. eigenvalues --   -0.46459  -0.46435  -0.45848  -0.45768  -0.45754
 Alpha  occ. eigenvalues --   -0.45708  -0.45225  -0.44551  -0.44423  -0.43904
 Alpha  occ. eigenvalues --   -0.43790  -0.43136  -0.41993  -0.41851  -0.41459
 Alpha  occ. eigenvalues --   -0.41317  -0.40709  -0.40575  -0.40359  -0.39901
 Alpha  occ. eigenvalues --   -0.39720  -0.39703  -0.39356  -0.39087  -0.38550
 Alpha  occ. eigenvalues --   -0.38324  -0.36904  -0.36608  -0.35799  -0.34281
 Alpha  occ. eigenvalues --   -0.32712  -0.30580  -0.29752  -0.27009  -0.26949
 Alpha  occ. eigenvalues --   -0.26212  -0.23469  -0.20943  -0.20264
 Alpha virt. eigenvalues --   -0.03199  -0.02990  -0.01106  -0.00602   0.00231
 Alpha virt. eigenvalues --    0.00863   0.08295   0.08450   0.09608   0.10590
 Alpha virt. eigenvalues --    0.10596   0.12386   0.12573   0.12796   0.12877
 Alpha virt. eigenvalues --    0.13033   0.13269   0.14125   0.14720   0.16069
 Alpha virt. eigenvalues --    0.16722   0.16793   0.17154   0.17803   0.19059
 Alpha virt. eigenvalues --    0.19081   0.19192   0.21219   0.21402   0.21481
 Alpha virt. eigenvalues --    0.21667   0.24217   0.24520   0.26254   0.26274
 Alpha virt. eigenvalues --    0.26954   0.28974   0.29907   0.31588   0.31894
 Alpha virt. eigenvalues --    0.32688   0.33577   0.34047   0.34848   0.35500
 Alpha virt. eigenvalues --    0.36713   0.37411   0.38367   0.38631   0.46494
 Alpha virt. eigenvalues --    0.46673   0.47205   0.47782   0.47854   0.48138
 Alpha virt. eigenvalues --    0.49023   0.49125   0.49472   0.50363   0.51510
 Alpha virt. eigenvalues --    0.52419   0.52762   0.53846   0.53938   0.54244
 Alpha virt. eigenvalues --    0.54323   0.55548   0.56245   0.56701   0.56786
 Alpha virt. eigenvalues --    0.57220   0.57533   0.57989   0.58077   0.59071
 Alpha virt. eigenvalues --    0.59381   0.59817   0.60219   0.60663   0.60900
 Alpha virt. eigenvalues --    0.60990   0.61096   0.62177   0.62855   0.63773
 Alpha virt. eigenvalues --    0.63854   0.65411   0.66562   0.67021   0.68854
 Alpha virt. eigenvalues --    0.68998   0.69562   0.69723   0.69818   0.70047
 Alpha virt. eigenvalues --    0.71566   0.71959   0.76275   0.77420   0.77769
 Alpha virt. eigenvalues --    0.78116   0.79362   0.80395   0.80489   0.80924
 Alpha virt. eigenvalues --    0.81199   0.81524   0.83109   0.83698   0.84192
 Alpha virt. eigenvalues --    0.84588   0.84819   0.85038   0.86040   0.86048
 Alpha virt. eigenvalues --    0.88056   0.88407   0.88655   0.89157   0.89748
 Alpha virt. eigenvalues --    0.90553   0.91575   0.93370   0.93711   0.96711
 Alpha virt. eigenvalues --    0.96738   0.96810   0.97404   0.98943   0.98998
 Alpha virt. eigenvalues --    1.01246   1.01971   1.02634   1.02905   1.03684
 Alpha virt. eigenvalues --    1.06744   1.07394   1.07530   1.08172   1.09030
 Alpha virt. eigenvalues --    1.10162   1.10225   1.10803   1.13041   1.13620
 Alpha virt. eigenvalues --    1.13809   1.14439   1.14559   1.16381   1.16402
 Alpha virt. eigenvalues --    1.17703   1.18194   1.19100   1.19570   1.20895
 Alpha virt. eigenvalues --    1.21934   1.22929   1.23118   1.24177   1.25706
 Alpha virt. eigenvalues --    1.25922   1.27722   1.31095   1.31578   1.31740
 Alpha virt. eigenvalues --    1.32204   1.33008   1.33331   1.34581   1.34791
 Alpha virt. eigenvalues --    1.35276   1.35359   1.36058   1.36812   1.37321
 Alpha virt. eigenvalues --    1.37865   1.38141   1.38408   1.38602   1.38737
 Alpha virt. eigenvalues --    1.38965   1.39279   1.39535   1.40656   1.41361
 Alpha virt. eigenvalues --    1.41971   1.43313   1.44459   1.45245   1.46665
 Alpha virt. eigenvalues --    1.49088   1.51000   1.51283   1.52616   1.59037
 Alpha virt. eigenvalues --    1.59828   1.60434   1.61051   1.64141   1.64369
 Alpha virt. eigenvalues --    1.65623   1.66023   1.67834   1.70007   1.70068
 Alpha virt. eigenvalues --    1.72253   1.72951   1.72967   1.74159   1.74886
 Alpha virt. eigenvalues --    1.75510   1.75681   1.75738   1.78088   1.78159
 Alpha virt. eigenvalues --    1.80170   1.81646   1.82411   1.82902   1.83127
 Alpha virt. eigenvalues --    1.83912   1.85207   1.85455   1.85515   1.85764
 Alpha virt. eigenvalues --    1.86144   1.86223   1.87836   1.88318   1.88984
 Alpha virt. eigenvalues --    1.89362   1.89617   1.90011   1.90481   1.91459
 Alpha virt. eigenvalues --    1.92486   1.93230   1.93668   1.94651   1.95541
 Alpha virt. eigenvalues --    1.96200   1.96270   1.97077   1.97268   1.98057
 Alpha virt. eigenvalues --    1.98264   1.99315   1.99553   1.99913   1.99955
 Alpha virt. eigenvalues --    2.00971   2.01089   2.03760   2.03857   2.04173
 Alpha virt. eigenvalues --    2.04859   2.05552   2.05732   2.07035   2.07486
 Alpha virt. eigenvalues --    2.07714   2.09101   2.09994   2.12701   2.13057
 Alpha virt. eigenvalues --    2.14235   2.14432   2.16448   2.16460   2.17615
 Alpha virt. eigenvalues --    2.17657   2.21351   2.21797   2.24471   2.24875
 Alpha virt. eigenvalues --    2.25108   2.25160   2.25843   2.26903   2.27647
 Alpha virt. eigenvalues --    2.29584   2.30271   2.31037   2.31919   2.32061
 Alpha virt. eigenvalues --    2.33263   2.33465   2.35269   2.36042   2.36095
 Alpha virt. eigenvalues --    2.36926   2.38312   2.40055   2.40547   2.41604
 Alpha virt. eigenvalues --    2.42637   2.42935   2.43655   2.43914   2.44897
 Alpha virt. eigenvalues --    2.45111   2.46471   2.47060   2.47505   2.48336
 Alpha virt. eigenvalues --    2.49724   2.50475   2.50824   2.50988   2.52385
 Alpha virt. eigenvalues --    2.52398   2.53745   2.53975   2.55496   2.56045
 Alpha virt. eigenvalues --    2.57491   2.58408   2.58811   2.60591   2.61142
 Alpha virt. eigenvalues --    2.63845   2.64154   2.64555   2.66342   2.68038
 Alpha virt. eigenvalues --    2.68633   2.70268   2.71415   2.72531   2.72981
 Alpha virt. eigenvalues --    2.73031   2.73782   2.75726   2.76684   2.77233
 Alpha virt. eigenvalues --    2.79653   2.82468   2.82906   2.83375   2.84469
 Alpha virt. eigenvalues --    2.86026   2.87354   2.88284   2.92515   2.96404
 Alpha virt. eigenvalues --    2.96889   2.97052   3.00505   3.00761   3.01239
 Alpha virt. eigenvalues --    3.03192   3.03337   3.04134   3.05929   3.06234
 Alpha virt. eigenvalues --    3.06866   3.08590   3.10372   3.13144   3.14764
 Alpha virt. eigenvalues --    3.16828   3.17751   3.19163   3.21949   3.24183
 Alpha virt. eigenvalues --    3.27295   3.27423   3.29093   3.30752   3.31601
 Alpha virt. eigenvalues --    3.32021   3.34384   3.39082   3.43918   3.44135
 Alpha virt. eigenvalues --    3.50806   3.52382   3.52595   3.75794   3.76062
 Alpha virt. eigenvalues --    3.82098   4.03536   4.03546   4.09308   4.10261
 Alpha virt. eigenvalues --    4.13050   4.13078   4.13337   4.14855   4.15914
 Alpha virt. eigenvalues --    4.16181   4.20788   4.29870   4.30832   4.30982
 Alpha virt. eigenvalues --    4.32034   4.38018   4.41800   4.43860   4.45763
 Alpha virt. eigenvalues --    4.51103   4.52873   4.58472   4.60851   4.79583
 Alpha virt. eigenvalues --    4.81098   4.87302   4.94782   4.97295   5.86867
 Alpha virt. eigenvalues --    5.88119
          Condensed to atoms (all electrons):
               1          2          3          4          5          6
     1  N    6.818775   0.302627  -0.071362   0.004464   0.000688  -0.000000
     2  C    0.302627   4.604101   0.522786  -0.014089  -0.036069  -0.000095
     3  C   -0.071362   0.522786   4.948402   0.489152  -0.015526   0.004736
     4  C    0.004464  -0.014089   0.489152   4.987983   0.464584  -0.063637
     5  C    0.000688  -0.036069  -0.015526   0.464584   4.728225   0.243861
     6  O   -0.000000  -0.000095   0.004736  -0.063637   0.243861   8.355506
     7  C   -0.000000   0.000058  -0.000236   0.001652  -0.029152   0.222145
     8  C   -0.000000   0.000020  -0.000330   0.001623   0.002317  -0.055082
     9  C   -0.000000  -0.000000   0.000004  -0.000349  -0.000214   0.004389
    10  C    0.000000   0.000000  -0.000000   0.000015   0.000041   0.000101
    11  O   -0.000000  -0.000000  -0.000000   0.000000  -0.000000   0.000000
    12  C   -0.000000   0.000000  -0.000000  -0.000000   0.000000  -0.000000
    13  C   -0.000000   0.000000  -0.000000  -0.000000  -0.000000   0.000000
    14  C   -0.000000   0.000000   0.000000  -0.000000  -0.000000  -0.000000
    15  C    0.000000  -0.000000   0.000000   0.000000   0.000000  -0.000000
    16  N    0.000000   0.000000  -0.000000  -0.000000  -0.000000  -0.000000
    17  C   -0.000000  -0.000000   0.000000   0.000000  -0.000000   0.000000
    18  C   -0.000000   0.000000  -0.000000   0.000000  -0.000000  -0.000000
    19  C    0.000000  -0.000000   0.000000   0.000000   0.000000   0.000000
    20  F    0.000000   0.000000   0.000000   0.000000  -0.000000   0.000000
    21  F    0.000000   0.000000   0.000000  -0.000000   0.000000   0.000000
    22  F    0.000000   0.000000  -0.000000  -0.000000   0.000000  -0.000000
    23  C    0.000000  -0.000000   0.000001  -0.000082   0.000009   0.004141
    24  C    0.000000   0.000001   0.000003   0.001054  -0.002492  -0.051052
    25  C    0.004479  -0.012531  -0.040022  -0.055328   0.445487  -0.066036
    26  C   -0.000073   0.005282  -0.000578   0.007250  -0.029137   0.000674
    27  F   -0.000001   0.000788  -0.000002  -0.000024   0.002633   0.000001
    28  F    0.000000  -0.000026  -0.000008   0.000181   0.000367  -0.000745
    29  F    0.000000  -0.000011  -0.000010   0.000101  -0.000756  -0.000449
    30  C   -0.065060   0.475057  -0.043327  -0.053921  -0.031069   0.004405
    31  H    0.344625  -0.024171   0.005390  -0.000174  -0.000018  -0.000000
    32  H    0.345492  -0.024842  -0.009195  -0.000002  -0.000005  -0.000000
    33  H   -0.006797  -0.040038   0.365694  -0.029949   0.003616  -0.000053
    34  H   -0.000104   0.003627  -0.033493   0.366545  -0.038414  -0.006435
    35  H    0.000000   0.000019  -0.000221   0.001310   0.005663  -0.006735
    36  H    0.000000  -0.000000  -0.000000   0.000002  -0.000001  -0.000050
    37  H    0.000000   0.000000   0.000000   0.000000   0.000000   0.000000
    38  H    0.000000  -0.000000   0.000000   0.000000   0.000000   0.000000
    39  H   -0.000000   0.000000   0.000000  -0.000000  -0.000000   0.000000
    40  H   -0.000000   0.000000  -0.000000  -0.000000  -0.000000   0.000000
    41  H    0.000000  -0.000000   0.000000   0.000000  -0.000000   0.000000
    42  H    0.000000  -0.000000   0.000000   0.000000  -0.000002  -0.000055
    43  H    0.000000   0.000000  -0.000003  -0.000019   0.000353  -0.001124
    44  H   -0.007118  -0.034043   0.005601   0.000200   0.003889  -0.000048
               7          8          9         10         11         12
     1  N   -0.000000  -0.000000  -0.000000   0.000000  -0.000000  -0.000000
     2  C    0.000058   0.000020  -0.000000   0.000000  -0.000000   0.000000
     3  C   -0.000236  -0.000330   0.000004  -0.000000  -0.000000  -0.000000
     4  C    0.001652   0.001623  -0.000349   0.000015   0.000000  -0.000000
     5  C   -0.029152   0.002317  -0.000214   0.000041  -0.000000   0.000000
     6  O    0.222145  -0.055082   0.004389   0.000101   0.000000  -0.000000
     7  C    4.615411   0.488357  -0.019093  -0.036844   0.000101   0.000041
     8  C    0.488357   4.989550   0.465933  -0.019086   0.004391  -0.000219
     9  C   -0.019093   0.465933   4.989296   0.488511  -0.055127   0.002401
    10  C   -0.036844  -0.019086   0.488511   4.615917   0.222135  -0.029235
    11  O    0.000101   0.004391  -0.055127   0.222135   8.355550   0.243816
    12  C    0.000041  -0.000219   0.002401  -0.029235   0.243816   4.728533
    13  C    0.000015  -0.000349   0.001678   0.001690  -0.063687   0.464935
    14  C   -0.000000   0.000004  -0.000333  -0.000242   0.004744  -0.015599
    15  C    0.000000  -0.000000   0.000021   0.000058  -0.000096  -0.036016
    16  N    0.000000  -0.000000  -0.000000  -0.000000  -0.000000   0.000688
    17  C   -0.000000   0.000002  -0.000075  -0.000128   0.004412  -0.031107
    18  C   -0.000001   0.000011   0.000636  -0.003569  -0.066071   0.445549
    19  C    0.000000  -0.000003  -0.000083   0.000402   0.000704  -0.029126
    20  F    0.000000  -0.000000  -0.000004   0.000227  -0.000458  -0.000786
    21  F    0.000000   0.000000  -0.000000   0.000003   0.000001   0.002629
    22  F    0.000000   0.000009   0.000005   0.000525  -0.000728   0.000335
    23  C   -0.022371  -0.036018  -0.062468   0.536698  -0.051008  -0.002583
    24  C    0.536871  -0.062435  -0.035997  -0.022343   0.004155   0.000010
    25  C   -0.003494   0.000644   0.000011  -0.000001  -0.000000  -0.000000
    26  C    0.000405  -0.000081  -0.000003   0.000000   0.000000   0.000000
    27  F    0.000003  -0.000000  -0.000000   0.000000   0.000000   0.000000
    28  F    0.000546   0.000015   0.000008   0.000000  -0.000000   0.000000
    29  F    0.000224  -0.000004  -0.000000   0.000000   0.000000  -0.000000
    30  C   -0.000128  -0.000073   0.000002  -0.000000   0.000000  -0.000000
    31  H   -0.000000  -0.000000  -0.000000   0.000000   0.000000  -0.000000
    32  H   -0.000000  -0.000000  -0.000000  -0.000000   0.000000  -0.000000
    33  H   -0.000005   0.000003  -0.000000  -0.000000   0.000000   0.000000
    34  H    0.005798   0.001003  -0.000191  -0.000015   0.000000   0.000000
    35  H   -0.040760   0.363515  -0.030642   0.003450  -0.000050  -0.000001
    36  H    0.003457  -0.030647   0.363428  -0.040810  -0.006718   0.005624
    37  H   -0.000015  -0.000189   0.000986   0.005763  -0.006420  -0.038389
    38  H   -0.000000  -0.000000   0.000003  -0.000005  -0.000053   0.003613
    39  H   -0.000000  -0.000000  -0.000000  -0.000000  -0.000000  -0.000005
    40  H    0.000000  -0.000000  -0.000000  -0.000000  -0.000000  -0.000018
    41  H   -0.000000  -0.000000   0.000000  -0.000001  -0.000048   0.003884
    42  H    0.003987   0.000061   0.006394  -0.038411  -0.001136   0.000354
    43  H   -0.038420   0.006397   0.000062   0.003985  -0.000055  -0.000002
    44  H   -0.000001   0.000000  -0.000000  -0.000000   0.000000  -0.000000
              13         14         15         16         17         18
     1  N   -0.000000  -0.000000   0.000000   0.000000  -0.000000  -0.000000
     2  C    0.000000   0.000000  -0.000000   0.000000  -0.000000   0.000000
     3  C   -0.000000   0.000000   0.000000  -0.000000   0.000000  -0.000000
     4  C   -0.000000  -0.000000   0.000000  -0.000000   0.000000   0.000000
     5  C   -0.000000  -0.000000   0.000000  -0.000000  -0.000000  -0.000000
     6  O    0.000000  -0.000000  -0.000000  -0.000000   0.000000  -0.000000
     7  C    0.000015  -0.000000   0.000000   0.000000  -0.000000  -0.000001
     8  C   -0.000349   0.000004  -0.000000  -0.000000   0.000002   0.000011
     9  C    0.001678  -0.000333   0.000021  -0.000000  -0.000075   0.000636
    10  C    0.001690  -0.000242   0.000058  -0.000000  -0.000128  -0.003569
    11  O   -0.063687   0.004744  -0.000096  -0.000000   0.004412  -0.066071
    12  C    0.464935  -0.015599  -0.036016   0.000688  -0.031107   0.445549
    13  C    4.987735   0.489043  -0.014116   0.004465  -0.053900  -0.055453
    14  C    0.489043   4.948506   0.522823  -0.071347  -0.043279  -0.040010
    15  C   -0.014116   0.522823   4.604119   0.302624   0.475014  -0.012574
    16  N    0.004465  -0.071347   0.302624   6.818814  -0.065072   0.004480
    17  C   -0.053900  -0.043279   0.475014  -0.065072   5.073567   0.470460
    18  C   -0.055453  -0.040010  -0.012574   0.004480   0.470460   5.259985
    19  C    0.007243  -0.000579   0.005282  -0.000073  -0.038440   0.262727
    20  F    0.000101  -0.000009  -0.000011   0.000000   0.000994  -0.046015
    21  F   -0.000024  -0.000002   0.000788  -0.000001   0.002580  -0.045509
    22  F    0.000179  -0.000008  -0.000026   0.000000   0.001019  -0.048739
    23  C    0.001055   0.000003   0.000001   0.000000   0.000005  -0.000341
    24  C   -0.000083   0.000001  -0.000000   0.000000  -0.000000   0.000014
    25  C    0.000000  -0.000000   0.000000  -0.000000  -0.000000  -0.000000
    26  C    0.000000   0.000000  -0.000000   0.000000  -0.000000   0.000000
    27  F   -0.000000   0.000000   0.000000   0.000000   0.000000   0.000000
    28  F   -0.000000  -0.000000   0.000000   0.000000  -0.000000  -0.000000
    29  F    0.000000   0.000000   0.000000   0.000000   0.000000   0.000000
    30  C    0.000000   0.000000  -0.000000  -0.000000   0.000000  -0.000000
    31  H   -0.000000  -0.000000   0.000000  -0.000000  -0.000000  -0.000000
    32  H   -0.000000   0.000000   0.000000  -0.000000  -0.000000  -0.000000
    33  H    0.000000   0.000000  -0.000000   0.000000   0.000000   0.000000
    34  H    0.000000   0.000000   0.000000   0.000000  -0.000000   0.000000
    35  H    0.000002  -0.000000  -0.000000   0.000000  -0.000000   0.000000
    36  H    0.001291  -0.000218   0.000018   0.000000  -0.000065   0.000681
    37  H    0.366509  -0.033501   0.003626  -0.000104   0.000570   0.005251
    38  H   -0.029927   0.365675  -0.040020  -0.006797   0.005114   0.000569
    39  H   -0.000001  -0.009200  -0.024879   0.345468   0.005320  -0.000145
    40  H   -0.000174   0.005388  -0.024149   0.344639  -0.009232   0.000021
    41  H    0.000202   0.005596  -0.034046  -0.007116   0.363843  -0.039831
    42  H   -0.000019  -0.000003   0.000000   0.000000  -0.000001  -0.000019
    43  H    0.000001   0.000000  -0.000000   0.000000   0.000000  -0.000000
    44  H    0.000000   0.000000  -0.000000   0.000000   0.000000   0.000000
              19         20         21         22         23         24
     1  N    0.000000   0.000000   0.000000   0.000000   0.000000   0.000000
     2  C   -0.000000   0.000000   0.000000   0.000000  -0.000000   0.000001
     3  C    0.000000   0.000000   0.000000  -0.000000   0.000001   0.000003
     4  C    0.000000   0.000000  -0.000000  -0.000000  -0.000082   0.001054
     5  C    0.000000  -0.000000   0.000000   0.000000   0.000009  -0.002492
     6  O    0.000000   0.000000   0.000000  -0.000000   0.004141  -0.051052
     7  C    0.000000   0.000000   0.000000   0.000000  -0.022371   0.536871
     8  C   -0.000003  -0.000000   0.000000   0.000009  -0.036018  -0.062435
     9  C   -0.000083  -0.000004  -0.000000   0.000005  -0.062468  -0.035997
    10  C    0.000402   0.000227   0.000003   0.000525   0.536698  -0.022343
    11  O    0.000704  -0.000458   0.000001  -0.000728  -0.051008   0.004155
    12  C   -0.029126  -0.000786   0.002629   0.000335  -0.002583   0.000010
    13  C    0.007243   0.000101  -0.000024   0.000179   0.001055  -0.000083
    14  C   -0.000579  -0.000009  -0.000002  -0.000008   0.000003   0.000001
    15  C    0.005282  -0.000011   0.000788  -0.000026   0.000001  -0.000000
    16  N   -0.000073   0.000000  -0.000001   0.000000   0.000000   0.000000
    17  C   -0.038440   0.000994   0.002580   0.001019   0.000005  -0.000000
    18  C    0.262727  -0.046015  -0.045509  -0.048739  -0.000341   0.000014
    19  C    4.133014   0.280497   0.285919   0.279593  -0.000029  -0.000001
    20  F    0.280497   9.119447  -0.039097  -0.038233  -0.000006  -0.000000
    21  F    0.285919  -0.039097   9.107363  -0.039114   0.000000  -0.000000
    22  F    0.279593  -0.038233  -0.039114   9.120394   0.000012  -0.000000
    23  C   -0.000029  -0.000006   0.000000   0.000012   4.959970   0.469990
    24  C   -0.000001  -0.000000  -0.000000  -0.000000   0.469990   4.960116
    25  C    0.000000   0.000000   0.000000  -0.000000   0.000014  -0.000339
    26  C   -0.000000   0.000000  -0.000000   0.000000  -0.000001  -0.000030
    27  F   -0.000000   0.000000   0.000000   0.000000  -0.000000   0.000000
    28  F    0.000000   0.000000   0.000000   0.000000  -0.000000   0.000012
    29  F    0.000000   0.000000   0.000000   0.000000  -0.000000  -0.000006
    30  C   -0.000000   0.000000   0.000000  -0.000000  -0.000000   0.000005
    31  H    0.000000   0.000000   0.000000   0.000000   0.000000   0.000000
    32  H    0.000000   0.000000   0.000000   0.000000   0.000000   0.000000
    33  H   -0.000000   0.000000   0.000000  -0.000000  -0.000000  -0.000000
    34  H   -0.000000   0.000000   0.000000   0.000000   0.000064   0.001152
    35  H   -0.000000  -0.000000  -0.000000  -0.000000   0.000344   0.005174
    36  H    0.000198   0.000006   0.000001   0.001884   0.005188   0.000342
    37  H   -0.000062   0.000001   0.000000   0.000001   0.001183   0.000066
    38  H    0.000005  -0.000000  -0.000000  -0.000000  -0.000000  -0.000000
    39  H    0.000001  -0.000000  -0.000000  -0.000000   0.000000   0.000000
    40  H   -0.000000   0.000000  -0.000002  -0.000000   0.000000   0.000000
    41  H   -0.007074   0.000170   0.009457   0.000170  -0.000000   0.000000
    42  H    0.000005   0.000001   0.000000   0.000001   0.362518  -0.032605
    43  H   -0.000000  -0.000000  -0.000000  -0.000000  -0.032563   0.362439
    44  H   -0.000000   0.000000   0.000000  -0.000000   0.000000  -0.000000
              25         26         27         28         29         30
     1  N    0.004479  -0.000073  -0.000001   0.000000   0.000000  -0.065060
     2  C   -0.012531   0.005282   0.000788  -0.000026  -0.000011   0.475057
     3  C   -0.040022  -0.000578  -0.000002  -0.000008  -0.000010  -0.043327
     4  C   -0.055328   0.007250  -0.000024   0.000181   0.000101  -0.053921
     5  C    0.445487  -0.029137   0.002633   0.000367  -0.000756  -0.031069
     6  O   -0.066036   0.000674   0.000001  -0.000745  -0.000449   0.004405
     7  C   -0.003494   0.000405   0.000003   0.000546   0.000224  -0.000128
     8  C    0.000644  -0.000081  -0.000000   0.000015  -0.000004  -0.000073
     9  C    0.000011  -0.000003  -0.000000   0.000008  -0.000000   0.000002
    10  C   -0.000001   0.000000   0.000000   0.000000   0.000000  -0.000000
    11  O   -0.000000   0.000000   0.000000  -0.000000   0.000000   0.000000
    12  C   -0.000000   0.000000   0.000000   0.000000  -0.000000  -0.000000
    13  C    0.000000   0.000000  -0.000000  -0.000000   0.000000   0.000000
    14  C   -0.000000   0.000000   0.000000  -0.000000   0.000000   0.000000
    15  C    0.000000  -0.000000   0.000000   0.000000   0.000000  -0.000000
    16  N   -0.000000   0.000000   0.000000   0.000000   0.000000  -0.000000
    17  C   -0.000000  -0.000000   0.000000  -0.000000   0.000000   0.000000
    18  C   -0.000000   0.000000   0.000000  -0.000000   0.000000  -0.000000
    19  C    0.000000  -0.000000  -0.000000   0.000000   0.000000  -0.000000
    20  F    0.000000   0.000000   0.000000   0.000000   0.000000   0.000000
[...]
   299    F   20  dx2y2  Ryd( 3d)     0.00068
   300    F   20  dz2    Ryd( 3d)     0.00116

   301    F   21  S      Cor( 1S)     1.99993
   302    F   21  S      Val( 2S)     1.84184
   303    F   21  S      Ryd( 3S)     0.00073
   304    F   21  S      Ryd( 4S)     0.00005
   305    F   21  px     Val( 2p)     1.83718
   306    F   21  px     Ryd( 3p)     0.00021
   307    F   21  py     Val( 2p)     1.93877
   308    F   21  py     Ryd( 3p)     0.00035
   309    F   21  pz     Val( 2p)     1.74523
   310    F   21  pz     Ryd( 3p)     0.00019
   311    F   21  dxy    Ryd( 3d)     0.00049
   312    F   21  dxz    Ryd( 3d)     0.00112
   313    F   21  dyz    Ryd( 3d)     0.00091
   314    F   21  dx2y2  Ryd( 3d)     0.00054
   315    F   21  dz2    Ryd( 3d)     0.00131

   316    F   22  S      Cor( 1S)     1.99993
   317    F   22  S      Val( 2S)     1.84587
   318    F   22  S      Ryd( 3S)     0.00087
   319    F   22  S      Ryd( 4S)     0.00003
   320    F   22  px     Val( 2p)     1.68432
   321    F   22  px     Ryd( 3p)     0.00023
   322    F   22  py     Val( 2p)     1.92420
   323    F   22  py     Ryd( 3p)     0.00043
   324    F   22  pz     Val( 2p)     1.91221
   325    F   22  pz     Ryd( 3p)     0.00019
   326    F   22  dxy    Ryd( 3d)     0.00113
   327    F   22  dxz    Ryd( 3d)     0.00123
   328    F   22  dyz    Ryd( 3d)     0.00026
   329    F   22  dx2y2  Ryd( 3d)     0.00120
   330    F   22  dz2    Ryd( 3d)     0.00049

   331    C   23  S      Cor( 1S)     1.99903
   332    C   23  S      Val( 2S)     0.96478
   333    C   23  S      Ryd( 3S)     0.00075
   334    C   23  S      Ryd( 4S)     0.00005
   335    C   23  px     Val( 2p)     1.09906
   336    C   23  px     Ryd( 3p)     0.00493
   337    C   23  py     Val( 2p)     1.07447
   338    C   23  py     Ryd( 3p)     0.00277
   339    C   23  pz     Val( 2p)     1.12570
   340    C   23  pz     Ryd( 3p)     0.00396
   341    C   23  dxy    Ryd( 3d)     0.00058
   342    C   23  dxz    Ryd( 3d)     0.00067
   343    C   23  dyz    Ryd( 3d)     0.00046
   344    C   23  dx2y2  Ryd( 3d)     0.00042
   345    C   23  dz2    Ryd( 3d)     0.00046

   346    C   24  S      Cor( 1S)     1.99903
   347    C   24  S      Val( 2S)     0.96478
   348    C   24  S      Ryd( 3S)     0.00075
   349    C   24  S      Ryd( 4S)     0.00005
   350    C   24  px     Val( 2p)     1.09906
   351    C   24  px     Ryd( 3p)     0.00493
   352    C   24  py     Val( 2p)     1.07446
   353    C   24  py     Ryd( 3p)     0.00277
   354    C   24  pz     Val( 2p)     1.12571
   355    C   24  pz     Ryd( 3p)     0.00396
   356    C   24  dxy    Ryd( 3d)     0.00058
   357    C   24  dxz    Ryd( 3d)     0.00067
   358    C   24  dyz    Ryd( 3d)     0.00046
   359    C   24  dx2y2  Ryd( 3d)     0.00042
   360    C   24  dz2    Ryd( 3d)     0.00046

   361    C   25  S      Cor( 1S)     1.99877
   362    C   25  S      Val( 2S)     0.89869
   363    C   25  S      Ryd( 3S)     0.00091
   364    C   25  S      Ryd( 4S)     0.00008
   365    C   25  px     Val( 2p)     1.12167
   366    C   25  px     Ryd( 3p)     0.00406
   367    C   25  py     Val( 2p)     1.08832
   368    C   25  py     Ryd( 3p)     0.00470
   369    C   25  pz     Val( 2p)     1.11192
   370    C   25  pz     Ryd( 3p)     0.00437
   371    C   25  dxy    Ryd( 3d)     0.00047
   372    C   25  dxz    Ryd( 3d)     0.00046
   373    C   25  dyz    Ryd( 3d)     0.00063
   374    C   25  dx2y2  Ryd( 3d)     0.00089
   375    C   25  dz2    Ryd( 3d)     0.00067

   376    C   26  S      Cor( 1S)     1.99906
   377    C   26  S      Val( 2S)     0.79479
   378    C   26  S      Ryd( 3S)     0.00520
   379    C   26  S      Ryd( 4S)     0.00032
   380    C   26  px     Val( 2p)     0.57724
   381    C   26  px     Ryd( 3p)     0.01721
   382    C   26  py     Val( 2p)     0.83778
   383    C   26  py     Ryd( 3p)     0.01410
   384    C   26  pz     Val( 2p)     0.60169
   385    C   26  pz     Ryd( 3p)     0.01701
   386    C   26  dxy    Ryd( 3d)     0.00312
   387    C   26  dxz    Ryd( 3d)     0.00392
   388    C   26  dyz    Ryd( 3d)     0.00320
   389    C   26  dx2y2  Ryd( 3d)     0.00332
   390    C   26  dz2    Ryd( 3d)     0.00353

   391    F   27  S      Cor( 1S)     1.99993
   392    F   27  S      Val( 2S)     1.84184
   393    F   27  S      Ryd( 3S)     0.00073
   394    F   27  S      Ryd( 4S)     0.00005
   395    F   27  px     Val( 2p)     1.83720
   396    F   27  px     Ryd( 3p)     0.00021
   397    F   27  py     Val( 2p)     1.93876
   398    F   27  py     Ryd( 3p)     0.00035
   399    F   27  pz     Val( 2p)     1.74521
   400    F   27  pz     Ryd( 3p)     0.00019
   401    F   27  dxy    Ryd( 3d)     0.00049
   402    F   27  dxz    Ryd( 3d)     0.00112
   403    F   27  dyz    Ryd( 3d)     0.00091
   404    F   27  dx2y2  Ryd( 3d)     0.00054
   405    F   27  dz2    Ryd( 3d)     0.00131

   406    F   28  S      Cor( 1S)     1.99993
   407    F   28  S      Val( 2S)     1.84587
   408    F   28  S      Ryd( 3S)     0.00087
   409    F   28  S      Ryd( 4S)     0.00003
   410    F   28  px     Val( 2p)     1.68430
   411    F   28  px     Ryd( 3p)     0.00023
   412    F   28  py     Val( 2p)     1.92418
   413    F   28  py     Ryd( 3p)     0.00043
   414    F   28  pz     Val( 2p)     1.91223
   415    F   28  pz     Ryd( 3p)     0.00019
   416    F   28  dxy    Ryd( 3d)     0.00113
   417    F   28  dxz    Ryd( 3d)     0.00123
   418    F   28  dyz    Ryd( 3d)     0.00026
   419    F   28  dx2y2  Ryd( 3d)     0.00120
   420    F   28  dz2    Ryd( 3d)     0.00049

   421    F   29  S      Cor( 1S)     1.99993
   422    F   29  S      Val( 2S)     1.84532
   423    F   29  S      Ryd( 3S)     0.00088
   424    F   29  S      Ryd( 4S)     0.00003
   425    F   29  px     Val( 2p)     1.90267
   426    F   29  px     Ryd( 3p)     0.00014
   427    F   29  py     Val( 2p)     1.82268
   428    F   29  py     Ryd( 3p)     0.00044
   429    F   29  pz     Val( 2p)     1.79346
   430    F   29  pz     Ryd( 3p)     0.00024
   431    F   29  dxy    Ryd( 3d)     0.00068
   432    F   29  dxz    Ryd( 3d)     0.00079
   433    F   29  dyz    Ryd( 3d)     0.00102
   434    F   29  dx2y2  Ryd( 3d)     0.00068
   435    F   29  dz2    Ryd( 3d)     0.00116

   436    C   30  S      Cor( 1S)     1.99901
   437    C   30  S      Val( 2S)     0.94366
   438    C   30  S      Ryd( 3S)     0.00068
   439    C   30  S      Ryd( 4S)     0.00005
   440    C   30  px     Val( 2p)     1.11070
   441    C   30  px     Ryd( 3p)     0.00350
   442    C   30  py     Val( 2p)     1.06264
   443    C   30  py     Ryd( 3p)     0.00450
   444    C   30  pz     Val( 2p)     1.15344
   445    C   30  pz     Ryd( 3p)     0.00411
   446    C   30  dxy    Ryd( 3d)     0.00049
   447    C   30  dxz    Ryd( 3d)     0.00047
   448    C   30  dyz    Ryd( 3d)     0.00059
   449    C   30  dx2y2  Ryd( 3d)     0.00054
   450    C   30  dz2    Ryd( 3d)     0.00041

   451    H   31  S      Val( 1S)     0.57282
   452    H   31  S      Ryd( 2S)     0.00116
   453    H   31  px     Ryd( 2p)     0.00040
   454    H   31  py     Ryd( 2p)     0.00020
   455    H   31  pz     Ryd( 2p)     0.00062

   456    H   32  S      Val( 1S)     0.57285
   457    H   32  S      Ryd( 2S)     0.00128
   458    H   32  px     Ryd( 2p)     0.00039
   459    H   32  py     Ryd( 2p)     0.00058
   460    H   32  pz     Ryd( 2p)     0.00027

   461    H   33  S      Val( 1S)     0.75002
   462    H   33  S      Ryd( 2S)     0.00088
   463    H   33  px     Ryd( 2p)     0.00011
   464    H   33  py     Ryd( 2p)     0.00037
   465    H   33  pz     Ryd( 2p)     0.00014

   466    H   34  S      Val( 1S)     0.73845
   467    H   34  S      Ryd( 2S)     0.00083
   468    H   34  px     Ryd( 2p)     0.00022
   469    H   34  py     Ryd( 2p)     0.00009
   470    H   34  pz     Ryd( 2p)     0.00029

   471    H   35  S      Val( 1S)     0.73061
   472    H   35  S      Ryd( 2S)     0.00090
   473    H   35  px     Ryd( 2p)     0.00015
   474    H   35  py     Ryd( 2p)     0.00019
   475    H   35  pz     Ryd( 2p)     0.00027

   476    H   36  S      Val( 1S)     0.73060
   477    H   36  S      Ryd( 2S)     0.00090
   478    H   36  px     Ryd( 2p)     0.00015
   479    H   36  py     Ryd( 2p)     0.00019
   480    H   36  pz     Ryd( 2p)     0.00027

   481    H   37  S      Val( 1S)     0.73846
   482    H   37  S      Ryd( 2S)     0.00083
   483    H   37  px     Ryd( 2p)     0.00022
   484    H   37  py     Ryd( 2p)     0.00009
   485    H   37  pz     Ryd( 2p)     0.00029

   486    H   38  S      Val( 1S)     0.75004
   487    H   38  S      Ryd( 2S)     0.00088
   488    H   38  px     Ryd( 2p)     0.00011
   489    H   38  py     Ryd( 2p)     0.00037
   490    H   38  pz     Ryd( 2p)     0.00014

   491    H   39  S      Val( 1S)     0.57284
   492    H   39  S      Ryd( 2S)     0.00128
   493    H   39  px     Ryd( 2p)     0.00039
   494    H   39  py     Ryd( 2p)     0.00058
   495    H   39  pz     Ryd( 2p)     0.00027

   496    H   40  S      Val( 1S)     0.57281
   497    H   40  S      Ryd( 2S)     0.00116
   498    H   40  px     Ryd( 2p)     0.00040
   499    H   40  py     Ryd( 2p)     0.00020
   500    H   40  pz     Ryd( 2p)     0.00062

   501    H   41  S      Val( 1S)     0.74213
   502    H   41  S      Ryd( 2S)     0.00154
   503    H   41  px     Ryd( 2p)     0.00022
   504    H   41  py     Ryd( 2p)     0.00012
   505    H   41  pz     Ryd( 2p)     0.00029

   506    H   42  S      Val( 1S)     0.73383
   507    H   42  S      Ryd( 2S)     0.00106
   508    H   42  px     Ryd( 2p)     0.00016
   509    H   42  py     Ryd( 2p)     0.00018
   510    H   42  pz     Ryd( 2p)     0.00026

   511    H   43  S      Val( 1S)     0.73383
   512    H   43  S      Ryd( 2S)     0.00106
   513    H   43  px     Ryd( 2p)     0.00016
   514    H   43  py     Ryd( 2p)     0.00018
   515    H   43  pz     Ryd( 2p)     0.00026

   516    H   44  S      Val( 1S)     0.74211
   517    H   44  S      Ryd( 2S)     0.00154
   518    H   44  px     Ryd( 2p)     0.00022
   519    H   44  py     Ryd( 2p)     0.00012
   520    H   44  pz     Ryd( 2p)     0.00029

 WARNING:  1 low occupancy (<1.9990e) core orbital  found on  C    2
           1 low occupancy (<1.9990e) core orbital  found on  C    5
           1 low occupancy (<1.9990e) core orbital  found on  C    7
           1 low occupancy (<1.9990e) core orbital  found on  C   10
           1 low occupancy (<1.9990e) core orbital  found on  C   12
           1 low occupancy (<1.9990e) core orbital  found on  C   15
           1 low occupancy (<1.9990e) core orbital  found on  C   18
           1 low occupancy (<1.9990e) core orbital  found on  C   25


 Summary of Natural Population Analysis:                  
                                                          
                                       Natural Population 
                Natural  -----------------------------------------------
    Atom  No    Charge         Core      Valence    Rydberg      Total
 -----------------------------------------------------------------------
      N    1   -0.79335      1.99949     5.78276    0.01110     7.79335
      C    2    0.18416      1.99899     3.79909    0.01776     5.81584
      C    3   -0.31710      1.99905     4.30275    0.01529     6.31710
      C    4   -0.28530      1.99902     4.27086    0.01542     6.28530
      C    5    0.30010      1.99866     3.67773    0.02351     5.69990
      O    6   -0.47804      1.99970     6.46665    0.01168     8.47804
      C    7    0.32849      1.99871     3.65103    0.02177     5.67151
      C    8   -0.29252      1.99902     4.27958    0.01392     6.29252
      C    9   -0.29246      1.99902     4.27953    0.01392     6.29246
      C   10    0.32848      1.99871     3.65104    0.02177     5.67152
      O   11   -0.47800      1.99970     6.46661    0.01168     8.47800
      C   12    0.30016      1.99866     3.67766    0.02351     5.69984
      C   13   -0.28537      1.99902     4.27093    0.01542     6.28537
      C   14   -0.31723      1.99905     4.30288    0.01530     6.31723
      C   15    0.18417      1.99899     3.79907    0.01776     5.81583
      N   16   -0.79323      1.99949     5.78263    0.01110     7.79323
      C   17   -0.28484      1.99901     4.27050    0.01533     6.28484
      C   18   -0.23670      1.99877     4.22071    0.01722     6.23670
      C   19    1.11848      1.99906     2.81153    0.07093     4.88152
      F   20   -0.37014      1.99993     7.36414    0.00607     9.37014
      F   21   -0.36885      1.99993     7.36301    0.00591     9.36885
      F   22   -0.37259      1.99993     7.36660    0.00606     9.37259
      C   23   -0.27811      1.99903     4.26401    0.01506     6.27811
      C   24   -0.27810      1.99903     4.26401    0.01506     6.27810
      C   25   -0.23658      1.99877     4.22060    0.01722     6.23658
      C   26    1.11851      1.99906     2.81150    0.07093     4.88149
      F   27   -0.36884      1.99993     7.36300    0.00591     9.36884
      F   28   -0.37257      1.99993     7.36658    0.00606     9.37257
      F   29   -0.37013      1.99993     7.36412    0.00607     9.37013
      C   30   -0.28477      1.99901     4.27044    0.01532     6.28477
      H   31    0.42478      0.00000     0.57282    0.00240     0.57522
      H   32    0.42464      0.00000     0.57285    0.00251     0.57536
      H   33    0.24849      0.00000     0.75002    0.00149     0.75151
      H   34    0.26012      0.00000     0.73845    0.00143     0.73988
      H   35    0.26788      0.00000     0.73061    0.00151     0.73212
      H   36    0.26788      0.00000     0.73060    0.00151     0.73212
      H   37    0.26010      0.00000     0.73846    0.00143     0.73990
      H   38    0.24846      0.00000     0.75004    0.00149     0.75154
      H   39    0.42465      0.00000     0.57284    0.00251     0.57535
      H   40    0.42479      0.00000     0.57281    0.00240     0.57521
      H   41    0.25570      0.00000     0.74213    0.00217     0.74430
      H   42    0.26452      0.00000     0.73383    0.00165     0.73548
      H   43    0.26452      0.00000     0.73383    0.00165     0.73548
      H   44    0.25572      0.00000     0.74211    0.00217     0.74428
 =======================================================================
   * Total *   -0.00000     59.97662   157.46298    0.56039   218.00000

                                 Natural Population      
 --------------------------------------------------------
   Core                      59.97662 ( 99.9610% of  60)
   Valence                  157.46298 ( 99.6601% of 158)
   Natural Minimal Basis    217.43961 ( 99.7429% of 218)
   Natural Rydberg Basis      0.56039 (  0.2571% of 218)
 --------------------------------------------------------

    Atom  No          Natural Electron Configuration
 ----------------------------------------------------------------------------
      N    1      [core]2S( 1.36)2p( 4.42)3p( 0.01)
      C    2      [core]2S( 0.84)2p( 2.95)3p( 0.01)
      C    3      [core]2S( 0.95)2p( 3.35)3p( 0.01)
      C    4      [core]2S( 0.96)2p( 3.31)3p( 0.01)
      C    5      [core]2S( 0.83)2p( 2.85)3p( 0.02)3d( 0.01)
      O    6      [core]2S( 1.57)2p( 4.89)3p( 0.01)3d( 0.01)
      C    7      [core]2S( 0.84)2p( 2.81)3p( 0.01)3d( 0.01)
      C    8      [core]2S( 0.96)2p( 3.32)3p( 0.01)
      C    9      [core]2S( 0.96)2p( 3.32)3p( 0.01)
      C   10      [core]2S( 0.84)2p( 2.81)3p( 0.01)3d( 0.01)
      O   11      [core]2S( 1.57)2p( 4.89)3p( 0.01)3d( 0.01)
      C   12      [core]2S( 0.83)2p( 2.85)3p( 0.02)3d( 0.01)
      C   13      [core]2S( 0.96)2p( 3.31)3p( 0.01)
      C   14      [core]2S( 0.95)2p( 3.35)3p( 0.01)
      C   15      [core]2S( 0.84)2p( 2.95)3p( 0.01)
      N   16      [core]2S( 1.36)2p( 4.42)3p( 0.01)
      C   17      [core]2S( 0.94)2p( 3.33)3p( 0.01)
      C   18      [core]2S( 0.90)2p( 3.32)3p( 0.01)
      C   19      [core]2S( 0.79)2p( 2.02)3S( 0.01)3p( 0.05)3d( 0.02)
      F   20      [core]2S( 1.85)2p( 5.52)
      F   21      [core]2S( 1.84)2p( 5.52)
      F   22      [core]2S( 1.85)2p( 5.52)
      C   23      [core]2S( 0.96)2p( 3.30)3p( 0.01)
      C   24      [core]2S( 0.96)2p( 3.30)3p( 0.01)
      C   25      [core]2S( 0.90)2p( 3.32)3p( 0.01)
      C   26      [core]2S( 0.79)2p( 2.02)3S( 0.01)3p( 0.05)3d( 0.02)
      F   27      [core]2S( 1.84)2p( 5.52)
      F   28      [core]2S( 1.85)2p( 5.52)
      F   29      [core]2S( 1.85)2p( 5.52)
      C   30      [core]2S( 0.94)2p( 3.33)3p( 0.01)
      H   31            1S( 0.57)
      H   32            1S( 0.57)
      H   33            1S( 0.75)
      H   34            1S( 0.74)
      H   35            1S( 0.73)
      H   36            1S( 0.73)
      H   37            1S( 0.74)
      H   38            1S( 0.75)
      H   39            1S( 0.57)
      H   40            1S( 0.57)
      H   41            1S( 0.74)
      H   42            1S( 0.73)
      H   43            1S( 0.73)
      H   44            1S( 0.74)


 NBO analysis skipped by request.
 1\1\GINC-DRG2-W002\SP\RB3LYP TD-FC\6-31G(d,p)\C20H14F6N2O2\QDUEZ\18-Ju
 l-2024\0\\# TD(NStates=10, Root=1) B3LYP/6-31G** SCRF=(Solvent=water) 
 volume pop=NPA density=current Geom=AllCheck Guess=Read\\LACZRKUWKHQVK
 S-UHFFFAOYSA-N_conf_0\\0,1\N,0,-5.5344761623,3.3977633098,1.9209960949
 \C,0,-4.8257878529,2.4866492694,1.1455427162\C,0,-3.8950461379,2.92473
 35256,0.1842015851\C,0,-3.2395936019,2.0164356694,-0.6397491226\C,0,-3
 .48740297,0.6492721883,-0.5214268267\O,0,-2.9075098999,-0.2602077029,-
 1.3938614008\C,0,-1.5417383765,-0.4873661113,-1.3313303609\C,0,-0.7672
 883684,-0.2326081356,-0.199062833\C,0,0.5983183807,-0.5265425088,-0.21
 01525416\C,0,1.1817182309,-1.0735612942,-1.3534442472\O,0,2.5188693617
 ,-1.4281806632,-1.4378902372\C,0,3.4350714887,-0.8404052898,-0.5778541
 98\C,0,3.7696539725,0.5080597299,-0.6972045433\C,0,4.7534652014,1.0638
 302856,0.1132008818\C,0,5.436588329,0.2787150837,1.0615198795\N,0,6.46
 93190713,0.8152934144,1.8226076591\C,0,5.0924572181,-1.0793777071,1.17
 25544877\C,0,4.0981476184,-1.6342981278,0.3663790042\C,0,3.7371395976,
 -3.0881225549,0.5043494386\F,0,4.0038496084,-3.7918358775,-0.621214328
 7\F,0,4.4151469081,-3.6888946849,1.5088655047\F,0,2.4181868448,-3.2595
 833136,0.7663650311\C,0,0.4026572223,-1.3361192206,-2.4839733293\C,0,-
 0.9573179837,-1.0434010689,-2.4729300939\C,0,-4.4035422568,0.194955647
 ,0.4355421763\C,0,-4.6703328133,-1.2791780551,0.5723598526\F,0,-5.5196
 392752,-1.5515542787,1.5892980934\F,0,-3.5347100778,-1.978893402,0.814
 1126248\F,0,-5.2204429135,-1.8068267301,-0.546660756\C,0,-5.0689791479
 ,1.1068104394,1.2554347609\H,0,-5.8998840594,3.0335403841,2.7911354257
 \H,0,-5.0832452135,4.2934082918,2.053343612\H,0,-3.6936650141,3.986862
 5547,0.0792746851\H,0,-2.5312817684,2.3640256442,-1.3844929222\H,0,-1.
 2206031537,0.1849730857,0.6923441605\H,0,1.1970637853,-0.3354165436,0.
 6727125842\H,0,3.2554191297,1.1185370865,-1.432083708\H,0,5.0051051884
 ,2.1151201286,0.0076102921\H,0,6.4285112331,1.8168443133,1.9587546591\
 H,0,6.6661272943,0.3302881783,2.6882645719\H,0,5.6009443576,-1.7060270
 335,1.8964287817\H,0,0.8721478459,-1.7632430229,-3.363747224\H,0,-1.57
 45474876,-1.2366200004,-3.343879195\H,0,-5.7788733537,0.7421450976,1.9
 891331567\\Version=ES64L-G16RevA.03\State=1-A\HF=-1629.5958441\RMSD=4.
 901e-09\Dipole=0.8762343,4.0063226,1.9889934\Quadrupole=-2.4715911,-0.
 4752764,2.9468675,0.5669619,2.7175221,12.4312199\PG=C01 [X(C20H14F6N2O
 2)]\\@


 IF AT FIRST YOU DON'T SUCCEED, TRY LOOKING IN 
 THE WASTEBASKET FOR THE DIRECTIONS.
 Job cpu time:       0 days  2 hours 10 minutes 35.3 seconds.
 Elapsed time:       0 days  0 hours 43 minutes 38.5 seconds.
 File lengths (MBytes):  RWF=   2317 Int=      0 D2E=      0 Chk=    133 Scr=      1
 Normal termination of Gaussian 16 at Thu Jul 18 11:17:40 2024.
