 Entering Gaussian System, Link 0=g16
 Initial command:
 /opt/sw/arch/manual/gaussian/G16_A03/g16/l1.exe "/scratch/1381595/Gau-120001.inp" -scrdir="/scratch/1381595/"
 Entering Link 1 = /opt/sw/arch/manual/gaussian/G16_A03/g16/l1.exe PID=    120002.
  
 Copyright (c) 1988,1990,1992,1993,1995,1998,2003,2009,2016,
            Gaussian, Inc.  All Rights Reserved.
  
 This is part of the Gaussian(R) 16 program.  It is based on
 the Gaussian(R) 09 system (copyright 2009, Gaussian, Inc.),
 the Gaussian(R) 03 system (copyright 2003, Gaussian, Inc.),
 the Gaussian(R) 98 system (copyright 1998, Gaussian, Inc.),
 the Gaussian(R) 94 system (copyright 1995, Gaussian, Inc.),
 the Gaussian 92(TM) system (copyright 1992, Gaussian, Inc.),
 the Gaussian 90(TM) system (copyright 1990, Gaussian, Inc.),
 the Gaussian 88(TM) system (copyright 1988, Gaussian, Inc.),
 the Gaussian 86(TM) system (copyright 1986, Carnegie Mellon
 University), and the Gaussian 82(TM) system (copyright 1983,
 Carnegie Mellon University). Gaussian is a federally registered
 trademark of Gaussian, Inc.
  
 This software contains proprietary and confidential information,
 including trade secrets, belonging to Gaussian, Inc.
  
 This software is provided under written license and may be
 used, copied, transmitted, or stored only in accord with that
 written license.
  
 The following legend is applicable only to US Government
 contracts under FAR:
  
                    RESTRICTED RIGHTS LEGEND
  
 Use, reproduction and disclosure by the US Government is
 subject to restrictions as set forth in subparagraphs (a)
 and (c) of the Commercial Computer Software - Restricted
 Rights clause in FAR 52.227-19.
  
 Gaussian, Inc.
 340 Quinnipiac St., Bldg. 40, Wallingford CT 06492
  
  
 ---------------------------------------------------------------
 Warning -- This program may not be used in any manner that
 competes with the business of Gaussian, Inc. or will provide
 assistance to any competitor of Gaussian, Inc.  The licensee
 of this program is prohibited from giving any competitor of
 Gaussian, Inc. access to this program.  By using this program,
 the user acknowledges that Gaussian, Inc. is engaged in the
 business of creating and licensing software in the field of
 computational chemistry and represents and warrants to the
 licensee that it is not a competitor of Gaussian, Inc. and that
 it will not use this program in any manner prohibited above.
 ---------------------------------------------------------------
  

 Cite this work as:
 Gaussian 16, Revision A.03,
 M. J. Frisch, G. W. Trucks, H. B. Schlegel, G. E. Scuseria, 
 M. A. Robb, J. R. Cheeseman, G. Scalmani, V. Barone, 
 G. A. Petersson, H. Nakatsuji, X. Li, M. Caricato, A. V. Marenich, 
 J. Bloino, B. G. Janesko, R. Gomperts, B. Mennucci, H. P. Hratchian, 
 J. V. Ortiz, A. F. Izmaylov, J. L. Sonnenberg, D. Williams-Young, 
 F. Ding, F. Lipparini, F. Egidi, J. Goings, B. Peng, A. Petrone, 
 T. Henderson, D. Ranasinghe, V. G. Zakrzewski, J. Gao, N. Rega, 
 G. Zheng, W. Liang, M. Hada, M. Ehara, K. Toyota, R. Fukuda, 
 J. Hasegawa, M. Ishida, T. Nakajima, Y. Honda, O. Kitao, H. Nakai, 
 T. Vreven, K. Throssell, J. A. Montgomery, Jr., J. E. Peralta, 
 F. Ogliaro, M. J. Bearpark, J. J. Heyd, E. N. Brothers, K. N. Kudin, 
 V. N. Staroverov, T. A. Keith, R. Kobayashi, J. Normand, 
 K. Raghavachari, A. P. Rendell, J. C. Burant, S. S. Iyengar, 
 J. Tomasi, M. Cossi, J. M. Millam, M. Klene, C. Adamo, R. Cammi, 
 J. W. Ochterski, R. L. Martin, K. Morokuma, O. Farkas, 
 J. B. Foresman, and D. J. Fox, Gaussian, Inc., Wallingford CT, 2016.
 
 ******************************************
 Gaussian 16:  ES64L-G16RevA.03 25-Dec-2016
                22-Jul-2024 
 ******************************************
 %nprocshared=7
 Will use up to    7 processors via shared memory.
 %mem=14GB
 %Chk=LACZRKUWKHQVKS-UHFFFAOYSA-N_conf_1_0.chk
 -------------------------------------------------------
 # opt=CalcFc B3LYP/6-31G** SCRF=(Solvent=water) scf=xqc
 -------------------------------------------------------
 1/10=4,18=20,19=15,26=3,38=1/1,3;
 2/9=110,12=2,17=6,18=5,40=1/2;
 3/5=1,6=6,7=101,11=2,25=1,30=1,70=2201,71=2,72=1,74=-5,140=1/1,2,3;
 4//1;
 5/5=2,8=3,13=1,38=5,53=1/2,8;
 8/6=4,10=90,11=11/1;
 11/6=1,8=1,9=11,15=111,16=1/1,2,10;
 10/6=1,13=1/2;
 6/7=2,8=2,9=2,10=2,28=1/1;
 7/10=1,18=20,25=1/1,2,3,16;
 1/10=4,18=20,19=15,26=3/3(2);
 2/9=110/2;
 99//99;
 2/9=110/2;
 3/5=1,6=6,7=101,11=2,25=1,30=1,70=2205,71=1,72=1,74=-5/1,2,3;
 4/5=5,16=3,69=1/1;
 5/5=2,8=3,13=1,38=5,53=1/2,8;
 7//1,2,3,16;
 1/18=20,19=15,26=3/3(-5);
 2/9=110/2;
 6/7=2,8=2,9=2,10=2,19=2,28=1/1;
 99/9=1/99;
 ----------------------------------
 LACZRKUWKHQVKS-UHFFFAOYSA-N_conf_1
 ----------------------------------
 Symbolic Z-matrix:
 Charge =  0 Multiplicity = 1
 N                    -7.23318  -2.10879  -0.83349 
 C                    -6.0794   -1.54179  -0.30308 
 C                    -5.06841  -2.34667   0.25682 
 C                    -3.88914  -1.78254   0.73309 
 C                    -3.68343  -0.40497   0.6566 
 O                    -2.54914   0.17862   1.20677 
 C                    -1.31199  -0.02232   0.60497 
 C                    -1.15122  -0.40604  -0.73486 
 C                     0.14054  -0.53904  -1.26653 
 C                     1.26271  -0.29267  -0.46453 
 O                     2.50928  -0.50648  -1.04455 
 C                     3.58238   0.27741  -0.64457 
 C                     3.58072   1.66075  -0.82791 
 C                     4.70124   2.41607  -0.49764 
 C                     5.86028   1.80422   0.01755 
 N                     7.0063    2.54936   0.2808 
 C                     5.85118   0.41066   0.19816 
 C                     4.7227   -0.34647  -0.12183 
 C                     4.72341  -1.83456   0.09866 
 F                     3.70356  -2.22629   0.90497 
 F                     4.59213  -2.52651  -1.06017 
 F                     5.86919  -2.26227   0.68164 
 C                     1.10241   0.08769   0.87652 
 C                    -0.18707   0.22428   1.40784 
 C                    -4.67713   0.41058   0.09904 
 C                    -4.4638    1.89761   0.01602 
 F                    -3.33794   2.20945  -0.67212 
 F                    -5.48737   2.52577  -0.60633 
 F                    -4.34197   2.46789   1.23798 
 C                    -5.86458  -0.15413  -0.3695 
 H                    -8.03074  -1.48973  -0.89593 
 H                    -7.48941  -3.00784  -0.44703 
 H                    -5.21438  -3.42091   0.32364 
 H                    -3.12152  -2.40869   1.17577 
 H                    -2.01638  -0.58898  -1.36115 
 H                     0.28369  -0.83056  -2.30194 
 H                     2.69668   2.14176  -1.2332 
 H                     4.6853    3.49176  -0.6477 
 H                     6.84562   3.52942   0.4736 
 H                     7.6413    2.14019   0.95383 
 H                     6.72763  -0.08629   0.59843 
 H                     1.97061   0.26434   1.50138 
 H                    -0.33108   0.51495   2.44338 
 H                    -6.627     0.48871  -0.79455 
 

 GradGradGradGradGradGradGradGradGradGradGradGradGradGradGradGradGradGrad
 Berny optimization.
 Initialization pass.
                           ----------------------------
                           !    Initial Parameters    !
                           ! (Angstroms and Degrees)  !
 --------------------------                            --------------------------
 ! Name  Definition              Value          Derivative Info.                !
 --------------------------------------------------------------------------------
 ! R1    R(1,2)                  1.3907         calculate D2E/DX2 analytically  !
 ! R2    R(1,31)                 1.0116         calculate D2E/DX2 analytically  !
 ! R3    R(1,32)                 1.0116         calculate D2E/DX2 analytically  !
 ! R4    R(2,3)                  1.4083         calculate D2E/DX2 analytically  !
 ! R5    R(2,30)                 1.4058         calculate D2E/DX2 analytically  !
 ! R6    R(3,4)                  1.3913         calculate D2E/DX2 analytically  !
 ! R7    R(3,33)                 1.0862         calculate D2E/DX2 analytically  !
 ! R8    R(4,5)                  1.3949         calculate D2E/DX2 analytically  !
 ! R9    R(4,34)                 1.085          calculate D2E/DX2 analytically  !
 ! R10   R(5,6)                  1.3892         calculate D2E/DX2 analytically  !
 ! R11   R(5,25)                 1.4012         calculate D2E/DX2 analytically  !
 ! R12   R(6,7)                  1.3904         calculate D2E/DX2 analytically  !
 ! R13   R(7,8)                  1.4029         calculate D2E/DX2 analytically  !
 ! R14   R(7,24)                 1.4039         calculate D2E/DX2 analytically  !
 ! R15   R(8,9)                  1.4032         calculate D2E/DX2 analytically  !
 ! R16   R(8,35)                 1.0836         calculate D2E/DX2 analytically  !
 ! R17   R(9,10)                 1.4011         calculate D2E/DX2 analytically  !
 ! R18   R(9,36)                 1.0851         calculate D2E/DX2 analytically  !
 ! R19   R(10,11)                1.3914         calculate D2E/DX2 analytically  !
 ! R20   R(10,23)                1.4031         calculate D2E/DX2 analytically  !
 ! R21   R(11,12)                1.3878         calculate D2E/DX2 analytically  !
 ! R22   R(12,13)                1.3954         calculate D2E/DX2 analytically  !
 ! R23   R(12,18)                1.401          calculate D2E/DX2 analytically  !
 ! R24   R(13,14)                1.3911         calculate D2E/DX2 analytically  !
 ! R25   R(13,37)                1.085          calculate D2E/DX2 analytically  !
 ! R26   R(14,15)                1.4082         calculate D2E/DX2 analytically  !
 ! R27   R(14,38)                1.0862         calculate D2E/DX2 analytically  !
 ! R28   R(15,16)                1.3921         calculate D2E/DX2 analytically  !
 ! R29   R(15,17)                1.4052         calculate D2E/DX2 analytically  !
 ! R30   R(16,39)                1.0117         calculate D2E/DX2 analytically  !
 ! R31   R(16,40)                1.0117         calculate D2E/DX2 analytically  !
 ! R32   R(17,18)                1.3961         calculate D2E/DX2 analytically  !
 ! R33   R(17,41)                1.0841         calculate D2E/DX2 analytically  !
 ! R34   R(18,19)                1.5043         calculate D2E/DX2 analytically  !
 ! R35   R(19,20)                1.3578         calculate D2E/DX2 analytically  !
 ! R36   R(19,21)                1.3561         calculate D2E/DX2 analytically  !
 ! R37   R(19,22)                1.3549         calculate D2E/DX2 analytically  !
 ! R38   R(23,24)                1.4013         calculate D2E/DX2 analytically  !
 ! R39   R(23,42)                1.0842         calculate D2E/DX2 analytically  !
 ! R40   R(24,43)                1.0852         calculate D2E/DX2 analytically  !
 ! R41   R(25,26)                1.5045         calculate D2E/DX2 analytically  !
 ! R42   R(25,30)                1.3959         calculate D2E/DX2 analytically  !
 ! R43   R(26,27)                1.3559         calculate D2E/DX2 analytically  !
 ! R44   R(26,28)                1.3526         calculate D2E/DX2 analytically  !
 ! R45   R(26,29)                1.354          calculate D2E/DX2 analytically  !
 ! R46   R(30,44)                1.0841         calculate D2E/DX2 analytically  !
 ! A1    A(2,1,31)             115.3509         calculate D2E/DX2 analytically  !
 ! A2    A(2,1,32)             115.264          calculate D2E/DX2 analytically  !
 ! A3    A(31,1,32)            111.5791         calculate D2E/DX2 analytically  !
 ! A4    A(1,2,3)              120.9435         calculate D2E/DX2 analytically  !
 ! A5    A(1,2,30)             120.7453         calculate D2E/DX2 analytically  !
 ! A6    A(3,2,30)             118.244          calculate D2E/DX2 analytically  !
 ! A7    A(2,3,4)              120.8523         calculate D2E/DX2 analytically  !
 ! A8    A(2,3,33)             119.5517         calculate D2E/DX2 analytically  !
 ! A9    A(4,3,33)             119.5947         calculate D2E/DX2 analytically  !
 ! A10   A(3,4,5)              120.4404         calculate D2E/DX2 analytically  !
 ! A11   A(3,4,34)             120.3531         calculate D2E/DX2 analytically  !
 ! A12   A(5,4,34)             119.2048         calculate D2E/DX2 analytically  !
 ! A13   A(4,5,6)              120.9009         calculate D2E/DX2 analytically  !
 ! A14   A(4,5,25)             119.4727         calculate D2E/DX2 analytically  !
 ! A15   A(6,5,25)             119.4802         calculate D2E/DX2 analytically  !
 ! A16   A(5,6,7)              119.6306         calculate D2E/DX2 analytically  !
 ! A17   A(6,7,8)              123.7015         calculate D2E/DX2 analytically  !
 ! A18   A(6,7,24)             116.1089         calculate D2E/DX2 analytically  !
 ! A19   A(8,7,24)             120.1583         calculate D2E/DX2 analytically  !
 ! A20   A(7,8,9)              119.5557         calculate D2E/DX2 analytically  !
 ! A21   A(7,8,35)             120.4409         calculate D2E/DX2 analytically  !
 ! A22   A(9,8,35)             120.0002         calculate D2E/DX2 analytically  !
 ! A23   A(8,9,10)             120.2482         calculate D2E/DX2 analytically  !
 ! A24   A(8,9,36)             120.5596         calculate D2E/DX2 analytically  !
 ! A25   A(10,9,36)            119.1919         calculate D2E/DX2 analytically  !
 ! A26   A(9,10,11)            116.8657         calculate D2E/DX2 analytically  !
 ! A27   A(9,10,23)            120.2141         calculate D2E/DX2 analytically  !
 ! A28   A(11,10,23)           122.8481         calculate D2E/DX2 analytically  !
 ! A29   A(10,11,12)           119.0647         calculate D2E/DX2 analytically  !
 ! A30   A(11,12,13)           121.4093         calculate D2E/DX2 analytically  !
 ! A31   A(11,12,18)           119.037          calculate D2E/DX2 analytically  !
 ! A32   A(13,12,18)           119.4352         calculate D2E/DX2 analytically  !
 ! A33   A(12,13,14)           120.4046         calculate D2E/DX2 analytically  !
 ! A34   A(12,13,37)           119.3112         calculate D2E/DX2 analytically  !
 ! A35   A(14,13,37)           120.2841         calculate D2E/DX2 analytically  !
 ! A36   A(13,14,15)           120.9242         calculate D2E/DX2 analytically  !
 ! A37   A(13,14,38)           119.543          calculate D2E/DX2 analytically  !
 ! A38   A(15,14,38)           119.5304         calculate D2E/DX2 analytically  !
 ! A39   A(14,15,16)           120.9427         calculate D2E/DX2 analytically  !
 ! A40   A(14,15,17)           118.2            calculate D2E/DX2 analytically  !
 ! A41   A(16,15,17)           120.7869         calculate D2E/DX2 analytically  !
 ! A42   A(15,16,39)           115.0762         calculate D2E/DX2 analytically  !
 ! A43   A(15,16,40)           115.2153         calculate D2E/DX2 analytically  !
 ! A44   A(39,16,40)           111.3878         calculate D2E/DX2 analytically  !
 ! A45   A(15,17,18)           120.9027         calculate D2E/DX2 analytically  !
 ! A46   A(15,17,41)           119.7873         calculate D2E/DX2 analytically  !
 ! A47   A(18,17,41)           119.3082         calculate D2E/DX2 analytically  !
 ! A48   A(12,18,17)           120.128          calculate D2E/DX2 analytically  !
 ! A49   A(12,18,19)           119.7071         calculate D2E/DX2 analytically  !
 ! A50   A(17,18,19)           120.1643         calculate D2E/DX2 analytically  !
 ! A51   A(18,19,20)           111.8432         calculate D2E/DX2 analytically  !
 ! A52   A(18,19,21)           112.2997         calculate D2E/DX2 analytically  !
 ! A53   A(18,19,22)           112.07           calculate D2E/DX2 analytically  !
 ! A54   A(20,19,21)           106.7103         calculate D2E/DX2 analytically  !
 ! A55   A(20,19,22)           106.7744         calculate D2E/DX2 analytically  !
 ! A56   A(21,19,22)           106.7678         calculate D2E/DX2 analytically  !
 ! A57   A(10,23,24)           119.599          calculate D2E/DX2 analytically  !
 ! A58   A(10,23,42)           120.2339         calculate D2E/DX2 analytically  !
 ! A59   A(24,23,42)           120.1636         calculate D2E/DX2 analytically  !
 ! A60   A(7,24,23)            120.2241         calculate D2E/DX2 analytically  !
 ! A61   A(7,24,43)            119.1081         calculate D2E/DX2 analytically  !
 ! A62   A(23,24,43)           120.6666         calculate D2E/DX2 analytically  !
 ! A63   A(5,25,26)            119.7791         calculate D2E/DX2 analytically  !
 ! A64   A(5,25,30)            120.0914         calculate D2E/DX2 analytically  !
 ! A65   A(26,25,30)           120.1282         calculate D2E/DX2 analytically  !
 ! A66   A(25,26,27)           111.904          calculate D2E/DX2 analytically  !
 ! A67   A(25,26,28)           112.1534         calculate D2E/DX2 analytically  !
 ! A68   A(25,26,29)           112.2867         calculate D2E/DX2 analytically  !
 ! A69   A(27,26,28)           106.7407         calculate D2E/DX2 analytically  !
 ! A70   A(27,26,29)           106.646          calculate D2E/DX2 analytically  !
 ! A71   A(28,26,29)           106.7226         calculate D2E/DX2 analytically  !
 ! A72   A(2,30,25)            120.8962         calculate D2E/DX2 analytically  !
 ! A73   A(2,30,44)            119.7622         calculate D2E/DX2 analytically  !
 ! A74   A(25,30,44)           119.3408         calculate D2E/DX2 analytically  !
 ! D1    D(31,1,2,3)           158.297          calculate D2E/DX2 analytically  !
 ! D2    D(31,1,2,30)          -24.735          calculate D2E/DX2 analytically  !
 ! D3    D(32,1,2,3)            25.9503         calculate D2E/DX2 analytically  !
 ! D4    D(32,1,2,30)         -157.0817         calculate D2E/DX2 analytically  !
 ! D5    D(1,2,3,4)            177.1257         calculate D2E/DX2 analytically  !
 ! D6    D(1,2,3,33)            -3.2902         calculate D2E/DX2 analytically  !
 ! D7    D(30,2,3,4)             0.0837         calculate D2E/DX2 analytically  !
 ! D8    D(30,2,3,33)          179.6678         calculate D2E/DX2 analytically  !
 ! D9    D(1,2,30,25)         -176.6385         calculate D2E/DX2 analytically  !
 ! D10   D(1,2,30,44)            3.0321         calculate D2E/DX2 analytically  !
 ! D11   D(3,2,30,25)            0.4096         calculate D2E/DX2 analytically  !
 ! D12   D(3,2,30,44)         -179.9198         calculate D2E/DX2 analytically  !
 ! D13   D(2,3,4,5)             -0.39           calculate D2E/DX2 analytically  !
 ! D14   D(2,3,4,34)           179.1271         calculate D2E/DX2 analytically  !
 ! D15   D(33,3,4,5)          -179.9739         calculate D2E/DX2 analytically  !
 ! D16   D(33,3,4,34)           -0.4568         calculate D2E/DX2 analytically  !
 ! D17   D(3,4,5,6)            175.785          calculate D2E/DX2 analytically  !
 ! D18   D(3,4,5,25)             0.2027         calculate D2E/DX2 analytically  !
 ! D19   D(34,4,5,6)            -3.7375         calculate D2E/DX2 analytically  !
 ! D20   D(34,4,5,25)         -179.3199         calculate D2E/DX2 analytically  !
 ! D21   D(4,5,6,7)             71.094          calculate D2E/DX2 analytically  !
 ! D22   D(25,5,6,7)          -113.324          calculate D2E/DX2 analytically  !
 ! D23   D(4,5,25,26)          179.8594         calculate D2E/DX2 analytically  !
 ! D24   D(4,5,25,30)            0.2873         calculate D2E/DX2 analytically  !
 ! D25   D(6,5,25,26)            4.2137         calculate D2E/DX2 analytically  !
 ! D26   D(6,5,25,30)         -175.3584         calculate D2E/DX2 analytically  !
 ! D27   D(5,6,7,8)             21.2715         calculate D2E/DX2 analytically  !
 ! D28   D(5,6,7,24)          -160.7668         calculate D2E/DX2 analytically  !
 ! D29   D(6,7,8,9)            177.7696         calculate D2E/DX2 analytically  !
 ! D30   D(6,7,8,35)            -1.5722         calculate D2E/DX2 analytically  !
 ! D31   D(24,7,8,9)            -0.1135         calculate D2E/DX2 analytically  !
 ! D32   D(24,7,8,35)         -179.4554         calculate D2E/DX2 analytically  !
 ! D33   D(6,7,24,23)         -178.0909         calculate D2E/DX2 analytically  !
 ! D34   D(6,7,24,43)            2.2882         calculate D2E/DX2 analytically  !
 ! D35   D(8,7,24,23)           -0.052          calculate D2E/DX2 analytically  !
 ! D36   D(8,7,24,43)         -179.6729         calculate D2E/DX2 analytically  !
 ! D37   D(7,8,9,10)             0.1107         calculate D2E/DX2 analytically  !
 ! D38   D(7,8,9,36)          -179.722          calculate D2E/DX2 analytically  !
 ! D39   D(35,8,9,10)          179.4555         calculate D2E/DX2 analytically  !
 ! D40   D(35,8,9,36)           -0.3772         calculate D2E/DX2 analytically  !
 ! D41   D(8,9,10,11)          177.0572         calculate D2E/DX2 analytically  !
 ! D42   D(8,9,10,23)            0.0577         calculate D2E/DX2 analytically  !
 ! D43   D(36,9,10,11)          -3.1078         calculate D2E/DX2 analytically  !
 ! D44   D(36,9,10,23)         179.8927         calculate D2E/DX2 analytically  !
 ! D45   D(9,10,11,12)         148.3899         calculate D2E/DX2 analytically  !
 ! D46   D(23,10,11,12)        -34.6966         calculate D2E/DX2 analytically  !
 ! D47   D(9,10,23,24)          -0.2227         calculate D2E/DX2 analytically  !
 ! D48   D(9,10,23,42)         179.1056         calculate D2E/DX2 analytically  !
 ! D49   D(11,10,23,24)       -177.0365         calculate D2E/DX2 analytically  !
 ! D50   D(11,10,23,42)          2.2919         calculate D2E/DX2 analytically  !
 ! D51   D(10,11,12,13)        -61.862          calculate D2E/DX2 analytically  !
 ! D52   D(10,11,12,18)        122.1175         calculate D2E/DX2 analytically  !
 ! D53   D(11,12,13,14)       -175.8863         calculate D2E/DX2 analytically  !
 ! D54   D(11,12,13,37)          3.9728         calculate D2E/DX2 analytically  !
 ! D55   D(18,12,13,14)          0.1186         calculate D2E/DX2 analytically  !
 ! D56   D(18,12,13,37)        179.9777         calculate D2E/DX2 analytically  !
 ! D57   D(11,12,18,17)        175.407          calculate D2E/DX2 analytically  !
 ! D58   D(11,12,18,19)         -4.8617         calculate D2E/DX2 analytically  !
 ! D59   D(13,12,18,17)         -0.6933         calculate D2E/DX2 analytically  !
 ! D60   D(13,12,18,19)        179.038          calculate D2E/DX2 analytically  !
 ! D61   D(12,13,14,15)          0.4575         calculate D2E/DX2 analytically  !
 ! D62   D(12,13,14,38)        179.8949         calculate D2E/DX2 analytically  !
 ! D63   D(37,13,14,15)       -179.4002         calculate D2E/DX2 analytically  !
 ! D64   D(37,13,14,38)          0.0372         calculate D2E/DX2 analytically  !
 ! D65   D(13,14,15,16)        176.5238         calculate D2E/DX2 analytically  !
 ! D66   D(13,14,15,17)         -0.448          calculate D2E/DX2 analytically  !
 ! D67   D(38,14,15,16)         -2.9137         calculate D2E/DX2 analytically  !
 ! D68   D(38,14,15,17)       -179.8855         calculate D2E/DX2 analytically  !
 ! D69   D(14,15,16,39)         25.7308         calculate D2E/DX2 analytically  !
 ! D70   D(14,15,16,40)        157.4421         calculate D2E/DX2 analytically  !
 ! D71   D(17,15,16,39)       -157.3758         calculate D2E/DX2 analytically  !
 ! D72   D(17,15,16,40)        -25.6645         calculate D2E/DX2 analytically  !
 ! D73   D(14,15,17,18)         -0.1319         calculate D2E/DX2 analytically  !
 ! D74   D(14,15,17,41)       -179.6516         calculate D2E/DX2 analytically  !
 ! D75   D(16,15,17,18)       -177.1086         calculate D2E/DX2 analytically  !
 ! D76   D(16,15,17,41)          3.3716         calculate D2E/DX2 analytically  !
 ! D77   D(15,17,18,12)          0.7033         calculate D2E/DX2 analytically  !
 ! D78   D(15,17,18,19)       -179.0268         calculate D2E/DX2 analytically  !
 ! D79   D(41,17,18,12)       -179.7747         calculate D2E/DX2 analytically  !
 ! D80   D(41,17,18,19)          0.4952         calculate D2E/DX2 analytically  !
 ! D81   D(12,18,19,20)        -56.4392         calculate D2E/DX2 analytically  !
 ! D82   D(12,18,19,21)         63.5085         calculate D2E/DX2 analytically  !
 ! D83   D(12,18,19,22)       -176.3092         calculate D2E/DX2 analytically  !
 ! D84   D(17,18,19,20)        123.292          calculate D2E/DX2 analytically  !
 ! D85   D(17,18,19,21)       -116.7603         calculate D2E/DX2 analytically  !
 ! D86   D(17,18,19,22)          3.422          calculate D2E/DX2 analytically  !
 ! D87   D(10,23,24,7)           0.2198         calculate D2E/DX2 analytically  !
 ! D88   D(10,23,24,43)        179.8347         calculate D2E/DX2 analytically  !
 ! D89   D(42,23,24,7)        -179.109          calculate D2E/DX2 analytically  !
 ! D90   D(42,23,24,43)          0.5059         calculate D2E/DX2 analytically  !
 ! D91   D(5,25,26,27)          57.0214         calculate D2E/DX2 analytically  !
 ! D92   D(5,25,26,28)         176.9488         calculate D2E/DX2 analytically  !
 ! D93   D(5,25,26,29)         -62.8773         calculate D2E/DX2 analytically  !
 ! D94   D(30,25,26,27)       -123.4067         calculate D2E/DX2 analytically  !
 ! D95   D(30,25,26,28)         -3.4793         calculate D2E/DX2 analytically  !
 ! D96   D(30,25,26,29)        116.6946         calculate D2E/DX2 analytically  !
 ! D97   D(5,25,30,2)           -0.5988         calculate D2E/DX2 analytically  !
 ! D98   D(5,25,30,44)         179.7292         calculate D2E/DX2 analytically  !
 ! D99   D(26,25,30,2)         179.8306         calculate D2E/DX2 analytically  !
 ! D100  D(26,25,30,44)          0.1587         calculate D2E/DX2 analytically  !
 --------------------------------------------------------------------------------
 Trust Radius=3.00D-01 FncErr=1.00D-07 GrdErr=1.00D-06 EigMax=2.50D+02 EigMin=1.00D-04
 Number of steps in this run=    230 maximum allowed number of steps=    264.
 GradGradGradGradGradGradGradGradGradGradGradGradGradGradGradGradGradGrad

                          Input orientation:                          
 ---------------------------------------------------------------------
 Center     Atomic      Atomic             Coordinates (Angstroms)
 Number     Number       Type             X           Y           Z
 ---------------------------------------------------------------------
      1          7           0       -7.233178   -2.108791   -0.833491
      2          6           0       -6.079404   -1.541794   -0.303082
      3          6           0       -5.068410   -2.346665    0.256821
      4          6           0       -3.889143   -1.782542    0.733085
      5          6           0       -3.683426   -0.404968    0.656604
      6          8           0       -2.549140    0.178615    1.206772
      7          6           0       -1.311988   -0.022315    0.604969
      8          6           0       -1.151219   -0.406035   -0.734861
      9          6           0        0.140537   -0.539036   -1.266530
     10          6           0        1.262709   -0.292666   -0.464532
     11          8           0        2.509281   -0.506478   -1.044553
     12          6           0        3.582383    0.277406   -0.644566
     13          6           0        3.580715    1.660748   -0.827905
     14          6           0        4.701243    2.416066   -0.497643
     15          6           0        5.860280    1.804218    0.017549
     16          7           0        7.006301    2.549355    0.280798
     17          6           0        5.851175    0.410656    0.198160
     18          6           0        4.722700   -0.346465   -0.121834
     19          6           0        4.723406   -1.834562    0.098662
     20          9           0        3.703555   -2.226291    0.904969
     21          9           0        4.592129   -2.526509   -1.060165
     22          9           0        5.869193   -2.262266    0.681641
     23          6           0        1.102409    0.087686    0.876515
     24          6           0       -0.187074    0.224279    1.407835
     25          6           0       -4.677127    0.410580    0.099044
     26          6           0       -4.463804    1.897614    0.016020
     27          9           0       -3.337936    2.209447   -0.672121
     28          9           0       -5.487374    2.525770   -0.606332
     29          9           0       -4.341970    2.467890    1.237975
     30          6           0       -5.864580   -0.154127   -0.369500
     31          1           0       -8.030737   -1.489730   -0.895934
     32          1           0       -7.489405   -3.007841   -0.447032
     33          1           0       -5.214382   -3.420910    0.323636
     34          1           0       -3.121518   -2.408692    1.175766
     35          1           0       -2.016378   -0.588983   -1.361145
     36          1           0        0.283692   -0.830555   -2.301937
     37          1           0        2.696682    2.141761   -1.233203
     38          1           0        4.685297    3.491763   -0.647701
     39          1           0        6.845621    3.529415    0.473604
     40          1           0        7.641304    2.140191    0.953833
     41          1           0        6.727632   -0.086288    0.598426
     42          1           0        1.970607    0.264339    1.501378
     43          1           0       -0.331084    0.514952    2.443383
     44          1           0       -6.627003    0.488708   -0.794547
 ---------------------------------------------------------------------
                    Distance matrix (angstroms):
                    1          2          3          4          5
     1  N    0.000000
     2  C    1.390688   0.000000
     3  C    2.435485   1.408339   0.000000
     4  C    3.707178   2.434922   1.391306   0.000000
     5  C    4.210004   2.820298   2.418304   1.394948   0.000000
     6  O    5.597777   4.207402   3.691364   2.422008   1.389194
     7  C    6.440733   5.085433   4.431085   3.123546   2.402667
     8  C    6.316592   5.075765   4.482618   3.397921   2.889334
     9  C    7.551379   6.373494   5.720249   4.667236   4.282419
    10  C    8.695662   7.449363   6.694948   5.495052   5.072850
    11  O    9.875599   8.682578   7.905774   6.762260   6.422917
    12  C   11.077274   9.837491   9.084848   7.871786   7.412871
    13  C   11.452063  10.190663   9.593923   8.372079   7.696668
    14  C   12.767832  11.485855  10.894904   9.640422   8.921502
    15  C   13.692135  12.403816  11.692876  10.412881   9.816884
    16  N   15.023406  13.722758  13.029591  11.733737  11.096825
    17  C   13.364588  12.099670  11.262486   9.998503   9.580398
    18  C   12.106001  10.869550  10.000501   8.772516   8.442295
    19  C   11.996000  10.814241   9.806474   8.636041   8.545751
    20  F   11.074664   9.881002   8.796701   7.607596   7.612253
    21  F   11.834853  10.743577   9.751554   8.700644   8.713957
    22  F   13.190576  12.010734  10.946175   9.770256   9.731532
    23  C    8.788097   7.458223   6.662514   5.332346   4.816148
    24  C    7.753344   6.384810   5.635781   4.264731   3.631085
    25  C    3.708133   2.437181   2.789336   2.415101   1.401226
    26  C    4.943924   3.813334   4.293884   3.793147   2.514204
    27  F    5.817743   4.660863   4.961414   4.267834   2.952971
    28  F    4.957680   4.121594   4.966003   4.786432   3.665851
    29  F    5.796211   4.633692   4.966922   4.304200   3.004161
    30  C    2.430856   1.405767   2.415241   2.787433   2.423478
    31  H    1.011551   2.040070   3.292197   4.460072   4.741961
    32  H    1.011580   2.039146   2.606488   3.981949   4.741143
    33  H    2.671355   2.161508   1.086174   2.146662   3.398617
    34  H    4.586153   3.418712   2.153763   1.085025   2.144803
    35  H    5.459234   4.305291   3.875843   3.052480   2.623780
    36  H    7.764892   6.707479   6.122975   5.246922   4.967103
    37  H   10.808750   9.563126   9.091908   7.914514   7.124814
    38  H   13.170071  11.888408  11.403517  10.160998   9.323157
    39  H   15.222038  13.905994  13.286062  11.979957  11.241605
    40  H   15.572366  14.261651  13.496464  12.181452  11.611016
    41  H   14.179038  12.920967  12.015515  10.752271  10.416097
    42  H    9.787391   8.445168   7.610126   6.254332   5.755841
    43  H    8.078418   6.694509   5.950812   4.567645   3.908584
    44  H    2.667577   2.159709   3.402047   3.871448   3.401344
                    6          7          8          9         10
     6  O    0.000000
     7  C    1.390354   0.000000
     8  C    2.462912   1.402937   0.000000
     9  C    3.723789   2.424735   1.403209   0.000000
    10  C    4.188742   2.801069   2.431662   1.401131   0.000000
    11  O    5.579018   4.190159   3.674950   2.379345   1.391432
    12  C    6.405684   5.060241   4.783538   3.591618   2.395471
    13  C    6.626594   5.368833   5.164441   4.106856   3.053034
    14  C    7.776842   6.581824   6.501680   5.488520   4.377424
    15  C    8.647264   7.424467   7.390024   6.313094   5.076119
    16  N    9.888594   8.712778   8.735618   7.685772   6.451469
    17  C    8.463831   7.187758   7.111331   5.971484   4.689120
    18  C    7.410841   6.086935   5.906122   4.726905   3.477337
    19  C    7.626973   6.321912   6.103005   4.954273   3.830281
    20  F    6.706031   5.486637   5.437941   4.500815   3.401789
    21  F    7.965828   6.625878   6.130928   4.879478   4.053378
    22  F    8.780774   7.522807   7.398531   6.291454   5.139332
    23  C    3.667581   2.432108   2.814095   2.431177   1.403129
    24  C    2.371048   1.403864   2.432698   2.800394   2.423811
    25  C    2.410228   3.430382   3.714066   5.096710   6.007814
    26  C    2.835275   3.737236   4.104125   5.364900   6.149895
    27  F    2.876928   3.273559   3.409753   4.472947   5.241145
    28  F    4.174889   5.039230   5.235861   6.442226   7.316236
    29  F    2.907919   3.972733   4.725719   5.950380   6.475463
    30  C    3.686122   4.657581   4.734207   6.083934   7.129269
    31  H    6.103495   7.039006   6.966212   8.234736   9.380150
    32  H    6.106946   6.941221   6.857466   8.061178   9.163623
    33  H    4.565088   5.182497   5.169060   6.285617   7.236009
    34  H    2.650044   3.048771   3.397530   4.483461   5.137080
    35  H    2.732625   2.163997   1.083606   2.159567   3.412350
    36  H    4.621082   3.413144   2.166775   1.085147   2.150315
    37  H    6.109506   4.912386   4.641762   3.704276   2.928066
    38  H    8.170257   7.062956   7.018928   6.106155   5.105836
    39  H   10.001346   8.898237   8.994310   8.033586   6.830616
    40  H   10.380602   9.217352   9.308244   8.268602   6.972591
    41  H    9.300471   8.039877   7.997261   6.860967   5.571163
    42  H    4.530149   3.414843   3.898200   3.414071   2.162447
    43  H    2.561660   2.151882   3.409116   3.885456   3.412974
    44  H    4.553065   5.519889   5.548724   6.861386   7.935176
                   11         12         13         14         15
    11  O    0.000000
    12  C    1.387808   0.000000
    13  C    2.427298   1.395439   0.000000
    14  C    3.693924   2.418119   1.391101   0.000000
    15  C    4.206729   2.821058   2.435527   1.408243   0.000000
    16  N    5.596236   4.212038   3.708569   2.436602   1.392082
    17  C    3.681539   2.423914   2.787567   2.414157   1.405247
    18  C    2.403381   1.400995   2.414864   2.788059   2.436997
    19  C    2.823667   2.512913   3.792290   4.292308   3.813107
    20  F    2.860889   2.946903   4.257583   4.951180   4.656606
    21  F    2.901556   3.009028   4.313934   4.975679   4.639490
    22  F    4.165519   3.665823   4.786011   4.964031   4.120363
    23  C    2.454144   2.915468   3.394344   4.501252   5.130462
    24  C    3.717330   4.292316   4.610663   5.685985   6.403092
    25  C    7.334390   8.293986   8.403220   9.608945  10.629479
    26  C    7.451737   8.234232   8.092132   9.194059  10.324507
    27  F    6.457933   7.185009   6.942123   8.043726   9.232932
    28  F    8.563472   9.344362   9.111948  10.189787  11.387674
    29  F    7.810022   8.434308   8.227288   9.208407  10.296398
    30  C    8.408412   9.460813   9.628993  10.874692  11.893581
    31  H   10.586824  11.749490  12.031457  13.323558  14.305415
    32  H   10.324126  11.550600  12.020330  13.342909  14.198093
    33  H    8.367845   9.591560  10.222672  11.535355  12.249236
    34  H    6.344614   7.447887   8.092896   9.342065   9.988132
    35  H    4.537469   5.710538   6.055831   7.409615   8.346853
    36  H    2.576681   3.854325   4.387450   5.771549   6.589414
    37  H    2.661556   2.146341   1.084967   2.152802   3.418577
    38  H    4.569296   3.398311   2.145971   1.086230   2.161238
    39  H    6.115315   4.740737   3.980635   2.604078   2.038428
    40  H    6.110324   4.743383   4.460139   3.290418   2.039988
    41  H    4.546474   3.401455   3.871646   3.401381   2.159567
    42  H    2.714055   2.683853   3.157208   4.010285   4.438753
    43  H    4.612666   4.990699   5.226504   6.130920   6.773468
    44  H    9.193725  10.212674  10.274838  11.494869  12.582619
                   16         17         18         19         20
    16  N    0.000000
    17  C    2.432114   0.000000
    18  C    3.709814   1.396096   0.000000
    19  C    4.946060   2.514511   1.504344   0.000000
    20  F    5.839907   3.473520   2.372072   1.357821   0.000000
    21  F    5.778478   3.434460   2.376995   1.356062   2.177486
    22  F    4.960382   2.716356   2.372828   1.354852   2.177420
    23  C    6.424222   4.807833   3.780436   4.172734   3.481560
    24  C    7.643352   6.161047   5.174120   5.483208   4.625490
    25  C   11.878968  10.528769   9.432850   9.664920   8.822609
    26  C   11.491657  10.423196   9.457629   9.916693   9.192528
    27  F   10.393596   9.403871   8.474040   9.051704   8.470276
    28  F   12.525154  11.562163  10.617442  11.125176  10.456543
    29  F   11.388858  10.450533   9.588426  10.099018   9.320767
    30  C   13.167812  11.743089  10.591923  10.730726   9.872555
    31  H   15.614462  14.054038  12.827955  12.797511  11.894511
    32  H   15.541482  13.786714  12.502967  12.281169  11.301375
    33  H   13.601139  11.710815  10.411352  10.066119   9.016355
    34  H   11.311760   9.455879   8.213909   7.939308   6.832878
    35  H    9.692981   8.082642   6.856375   7.007652   6.366607
    36  H    7.955362   6.227998   4.969103   5.146063   4.891604
    37  H    4.585973   3.872512   3.395756   4.657534   4.966432
    38  H    2.671573   3.401172   3.874265   5.378499   6.005892
    39  H    1.011687   3.285034   4.459124   5.780712   6.571667
    40  H    1.011741   2.601326   3.982307   5.004409   5.880002
    41  H    2.669299   1.084132   2.146210   2.706132   3.717341
    42  H    5.662979   4.096168   3.252985   3.735090   3.092257
    43  H    7.915351   6.578163   5.732636   6.046966   5.114630
    44  H   13.830026  12.517847  11.400255  11.620120  10.815729
                   21         22         23         24         25
    21  F    0.000000
    22  F    2.175915   0.000000
    23  C    4.771047   5.318127   0.000000
    24  C    6.041410   6.587005   1.401330   0.000000
    25  C    9.792311  10.895338   5.840527   4.680622   0.000000
    26  C   10.136122  11.158785   5.915997   4.798710   1.504550
    27  F    9.244771  10.324733   5.159148   4.265564   2.371508
    28  F   11.283965  12.391762   7.181109   6.119388   2.372358
    29  F   10.490167  11.267286   5.952923   4.725019   2.375293
    30  C   10.744672  11.967898   7.081664   5.961223   1.395877
    31  H   12.666437  14.010482   9.436322   8.352738   3.980937
    32  H   12.106654  13.426910   9.227856   8.198242   4.460124
    33  H    9.943969  11.149720   7.246914   6.303707   3.875487
    34  H    8.032037   9.005470   4.915589   3.949349   3.395224
    35  H    6.893255   8.315953   3.897671   3.416870   3.195444
    36  H    4.793838   6.492253   3.408228   3.885448   5.649323
    37  H    5.041369   5.755598   3.348409   4.355212   7.690574
    38  H    6.033109   6.023090   5.171853   6.216243   9.884650
    39  H    6.641151   5.877096   6.707631   7.826590  11.943247
    40  H    5.927204   4.753535   6.853897   8.072195  12.468599
    41  H    3.642249   2.340667   5.634779   6.968842  11.426495
    42  H    4.606812   4.717486   1.084171   2.160079   6.795608
    43  H    6.764862   7.018555   2.166226   1.085168   4.939120
    44  H   11.620284  12.880291   7.918149   6.811248   2.146305
                   26         27         28         29         30
    26  C    0.000000
    27  F    1.355860   0.000000
    28  F    1.352626   2.173585   0.000000
    29  F    1.353969   2.173326   2.171812   0.000000
    30  C    2.514049   3.473038   2.716656   3.431806   0.000000
    31  H    5.002876   5.979664   4.762017   5.815782   2.598693
    32  H    5.782056   6.671241   5.886795   6.536760   3.284776
    33  H    5.380027   6.017765   6.025145   6.022880   3.402215
    34  H    4.657361   4.978828   5.755177   5.027368   3.872376
    35  H    3.750952   3.170565   4.724325   4.637702   3.997639
    36  H    5.945969   5.001410   6.888047   6.693838   6.480210
    37  H    7.272739   6.061024   8.217007   7.466974   8.905745
    38  H    9.310633   8.125097  10.218517   9.278774  11.165564
    39  H   11.435701  10.332465  12.420802  11.263804  13.260035
    40  H   12.143804  11.099200  13.226677  11.991121  13.763139
    41  H   11.380831  10.401940  12.549130  11.378442  12.629540
    42  H    6.802611   6.057076   8.073289   6.691311   8.066316
    43  H    4.988308   4.649606   6.319136   4.621059   6.243361
    44  H    2.705821   3.714013   2.341752   3.642758   1.084062
                   31         32         33         34         35
    31  H    0.000000
    32  H    1.673085   0.000000
    33  H    3.626108   2.437270   0.000000
    34  H    5.407112   4.697967   2.476043   0.000000
    35  H    6.099203   6.053140   4.591898   3.311887   0.000000
    36  H    8.458196   8.282650   6.620603   5.116678   2.496752
    37  H   11.330446  11.440841   9.795509   7.769247   5.448510
    38  H   13.659224  13.802481  12.113306   9.954233   7.878702
    39  H   15.759869  15.782150  13.920244  11.623167   9.942964
    40  H   16.192925  16.043784  14.021115  11.686742  10.299434
    41  H   14.900074  14.551721  12.401891  10.135711   8.974984
    42  H   10.433156  10.197808   8.160405   5.760283   4.981791
    43  H    8.628699   8.485643   6.620494   4.235690   4.305034
    44  H    2.427955   3.618060   4.304758   4.956358   4.768681
                   36         37         38         39         40
    36  H    0.000000
    37  H    3.974843   0.000000
    38  H    6.386944   2.473845   0.000000
    39  H    8.352956   4.696006   2.434285   0.000000
    40  H    8.576702   5.406701   3.623484   1.671429   0.000000
    41  H    7.105660   4.956574   4.304232   3.619780   2.432760
    42  H    4.302288   3.395561   4.733323   5.956744   5.997952
    43  H    4.970553   5.033007   6.601536   8.029453   8.271586
    44  H    7.195164   9.479246  11.705043  13.869596  14.469582
                   41         42         43         44
    41  H    0.000000
    42  H    4.854642   0.000000
    43  H    7.320576   2.499592   0.000000
    44  H   13.439392   8.901714   7.079793   0.000000
 Stoichiometry    C20H14F6N2O2
 Framework group  C1[X(C20H14F6N2O2)]
 Deg. of freedom   126
 Full point group                 C1      NOp   1
 Largest Abelian subgroup         C1      NOp   1
 Largest concise Abelian subgroup C1      NOp   1
                         Standard orientation:                         
 ---------------------------------------------------------------------
 Center     Atomic      Atomic             Coordinates (Angstroms)
 Number     Number       Type             X           Y           Z
 ---------------------------------------------------------------------
      1          7           0       -7.233178   -2.108791   -0.833491
      2          6           0       -6.079404   -1.541794   -0.303082
      3          6           0       -5.068410   -2.346665    0.256821
      4          6           0       -3.889143   -1.782542    0.733085
      5          6           0       -3.683426   -0.404968    0.656604
      6          8           0       -2.549140    0.178615    1.206772
      7          6           0       -1.311988   -0.022315    0.604969
      8          6           0       -1.151219   -0.406035   -0.734861
      9          6           0        0.140537   -0.539036   -1.266530
     10          6           0        1.262709   -0.292666   -0.464532
     11          8           0        2.509281   -0.506478   -1.044553
     12          6           0        3.582383    0.277406   -0.644566
     13          6           0        3.580715    1.660748   -0.827905
     14          6           0        4.701243    2.416066   -0.497643
     15          6           0        5.860280    1.804218    0.017549
     16          7           0        7.006301    2.549355    0.280798
     17          6           0        5.851175    0.410656    0.198160
     18          6           0        4.722700   -0.346465   -0.121834
     19          6           0        4.723406   -1.834562    0.098662
     20          9           0        3.703555   -2.226291    0.904969
     21          9           0        4.592129   -2.526509   -1.060165
     22          9           0        5.869193   -2.262266    0.681641
     23          6           0        1.102409    0.087686    0.876515
     24          6           0       -0.187074    0.224279    1.407835
     25          6           0       -4.677127    0.410580    0.099044
     26          6           0       -4.463804    1.897614    0.016020
     27          9           0       -3.337936    2.209447   -0.672121
     28          9           0       -5.487374    2.525770   -0.606332
     29          9           0       -4.341970    2.467890    1.237975
     30          6           0       -5.864580   -0.154127   -0.369500
     31          1           0       -8.030737   -1.489730   -0.895934
     32          1           0       -7.489405   -3.007841   -0.447032
     33          1           0       -5.214382   -3.420910    0.323636
     34          1           0       -3.121518   -2.408692    1.175766
     35          1           0       -2.016378   -0.588983   -1.361145
     36          1           0        0.283692   -0.830555   -2.301937
     37          1           0        2.696682    2.141761   -1.233203
     38          1           0        4.685297    3.491763   -0.647701
     39          1           0        6.845621    3.529415    0.473604
     40          1           0        7.641304    2.140191    0.953833
     41          1           0        6.727632   -0.086288    0.598426
     42          1           0        1.970607    0.264339    1.501378
     43          1           0       -0.331084    0.514952    2.443383
     44          1           0       -6.627003    0.488708   -0.794547
 ---------------------------------------------------------------------
 Rotational constants (GHZ):           0.3376726           0.0577310           0.0519578
 Standard basis: 6-31G(d,p) (6D, 7F)
 There are   520 symmetry adapted cartesian basis functions of A   symmetry.
 There are   520 symmetry adapted basis functions of A   symmetry.
   520 basis functions,   938 primitive gaussians,   520 cartesian basis functions
   109 alpha electrons      109 beta electrons
       nuclear repulsion energy      2849.8936332469 Hartrees.
 NAtoms=   44 NActive=   44 NUniq=   44 SFac= 1.00D+00 NAtFMM=   60 NAOKFM=F Big=F
 Integral buffers will be    131072 words long.
 Raffenetti 2 integral format.
 Two-electron integral symmetry is turned on.
 Force inversion solution in PCM.
 ------------------------------------------------------------------------------
 Polarizable Continuum Model (PCM)
 =================================
 Model                : PCM.
 Atomic radii         : UFF (Universal Force Field).
 Polarization charges : Total charges.
 Charge compensation  : None.
 Solution method      : Matrix inversion.
 Cavity type          : Scaled VdW (van der Waals Surface) (Alpha=1.100).
 Cavity algorithm     : GePol (No added spheres)
                        Default sphere list used, NSphG=   44.
                        Lebedev-Laikov grids with approx.  5.0 points / Ang**2.
                        Smoothing algorithm: York/Karplus (Gamma=1.0000).
                        Polarization charges: spherical gaussians, with
                                              point-specific exponents (IZeta= 3).
                        Self-potential: point-specific (ISelfS= 7).
                        Self-field    : sphere-specific E.n sum rule (ISelfD= 2).
 1st derivatives      : Analytical E(r).r(x)/FMM algorithm (CHGder, D1EAlg=3).
                        Cavity 1st derivative terms included.
 2nd derivatives      : Analytical E(r).r(xy)/FMM algorithm (CHGder, D2EAlg=3).
                        Cavity 2nd derivative terms included.
 Solvent              : Water, Eps=  78.355300 Eps(inf)=   1.777849
 ------------------------------------------------------------------------------
 One-electron integrals computed using PRISM.
 NBasis=   520 RedAO= T EigKep=  3.40D-04  NBF=   520
 NBsUse=   520 1.00D-06 EigRej= -1.00D+00 NBFU=   520
 ExpMin= 1.61D-01 ExpMax= 7.00D+03 ExpMxC= 1.05D+03 IAcc=3 IRadAn=         5 AccDes= 0.00D+00
 Harris functional with IExCor=  402 and IRadAn=       5 diagonalized for initial guess.
 HarFok:  IExCor=  402 AccDes= 0.00D+00 IRadAn=         5 IDoV= 1 UseB2=F ITyADJ=14
 ICtDFT=  3500011 ScaDFX=  1.000000  1.000000  1.000000  1.000000
 FoFCou: FMM=F IPFlag=           0 FMFlag=      100000 FMFlg1=           0
         NFxFlg=           0 DoJE=T BraDBF=F KetDBF=T FulRan=T
         wScrn=  0.000000 ICntrl=       500 IOpCl=  0 I1Cent=   200000004 NGrid=           0
         NMat0=    1 NMatS0=      1 NMatT0=    0 NMatD0=    1 NMtDS0=    0 NMtDT0=    0
 Petite list used in FoFCou.
 Requested convergence on RMS density matrix=1.00D-08 within  32 cycles.
 Requested convergence on MAX density matrix=1.00D-06.
 Requested convergence on             energy=1.00D-06.
 No special actions if energy rises.
 Inv3:  Mode=1 IEnd=    38277552.
 Iteration    1 A*A^-1 deviation from unit magnitude is 3.33D-15 for   2043.
 Iteration    1 A*A^-1 deviation from orthogonality  is 2.66D-15 for   2147    712.
 Iteration    1 A^-1*A deviation from unit magnitude is 3.11D-15 for    197.
 Iteration    1 A^-1*A deviation from orthogonality  is 2.98D-15 for   3470   2935.
 Error on total polarization charges =  0.00781
 SCF Done:  E(RB3LYP) =  -1629.59545756     A.U. after   13 cycles
            NFock= 13  Conv=0.61D-08     -V/T= 2.0085
 QCSCF skips out because SCF is already converged.
 DoSCS=F DFT=T ScalE2(SS,OS)=  1.000000  1.000000
 Range of M.O.s used for correlation:     1   520
 NBasis=   520 NAE=   109 NBE=   109 NFC=     0 NFV=     0
 NROrb=    520 NOA=   109 NOB=   109 NVA=   411 NVB=   411

 **** Warning!!: The largest alpha MO coefficient is  0.13560061D+02

 Symmetrizing basis deriv contribution to polar:
 IMax=3 JMax=2 DiffMx= 0.00D+00
 G2DrvN: will do    45 centers at a time, making    1 passes.
 Calling FoFCou, ICntrl=  3107 FMM=F I1Cent=   0 AccDes= 0.00D+00.
 NEqPCM:  Using equilibrium solvation (IEInf=0, Eps=  78.3553, EpsInf=   1.7778)
 G2PCM: DoFxE=T DoFxN=T DoGrad=T DoDP/DQ/DG/TGxP=FFFF NFrqRd=   0 IEInf=0 SqF1=F DoCFld=F IF1Alg=4.
 End of G2Drv F.D. properties file   721 does not exist.
 End of G2Drv F.D. properties file   722 does not exist.
 End of G2Drv F.D. properties file   788 does not exist.
          IDoAtm=11111111111111111111111111111111111111111111
 NEqPCM:  Using equilibrium solvation (IEInf=0, Eps=  78.3553, EpsInf=   1.7778)
          Differentiating once with respect to nuclear coordinates.
 CalDSu exits because no D1Ps are significant.
          There are   135 degrees of freedom in the 1st order CPHF.  IDoFFX=6 NUNeed=     0.
    129 vectors produced by pass  0 Test12= 4.48D-14 1.00D-09 XBig12= 1.46D-01 1.13D-01.
 AX will form   129 AO Fock derivatives at one time.
    129 vectors produced by pass  1 Test12= 4.48D-14 1.00D-09 XBig12= 3.09D-02 3.39D-02.
    129 vectors produced by pass  2 Test12= 4.48D-14 1.00D-09 XBig12= 3.47D-04 1.42D-03.
    129 vectors produced by pass  3 Test12= 4.48D-14 1.00D-09 XBig12= 1.58D-06 1.09D-04.
    129 vectors produced by pass  4 Test12= 4.48D-14 1.00D-09 XBig12= 2.83D-09 3.28D-06.
    114 vectors produced by pass  5 Test12= 4.48D-14 1.00D-09 XBig12= 3.06D-12 1.20D-07.
     34 vectors produced by pass  6 Test12= 4.48D-14 1.00D-09 XBig12= 2.63D-15 4.80D-09.
 InvSVY:  IOpt=1 It=  1 EMax= 3.33D-16
 Solved reduced A of dimension   793 with   135 vectors.
 End of Minotr F.D. properties file   721 does not exist.
 End of Minotr F.D. properties file   722 does not exist.
 End of Minotr F.D. properties file   788 does not exist.

 **********************************************************************

            Population analysis using the SCF density.

 **********************************************************************

 Orbital symmetries:
       Occupied  (A) (A) (A) (A) (A) (A) (A) (A) (A) (A) (A) (A)
                 (A) (A) (A) (A) (A) (A) (A) (A) (A) (A) (A) (A)
                 (A) (A) (A) (A) (A) (A) (A) (A) (A) (A) (A) (A)
                 (A) (A) (A) (A) (A) (A) (A) (A) (A) (A) (A) (A)
                 (A) (A) (A) (A) (A) (A) (A) (A) (A) (A) (A) (A)
                 (A) (A) (A) (A) (A) (A) (A) (A) (A) (A) (A) (A)
                 (A) (A) (A) (A) (A) (A) (A) (A) (A) (A) (A) (A)
                 (A) (A) (A) (A) (A) (A) (A) (A) (A) (A) (A) (A)
                 (A) (A) (A) (A) (A) (A) (A) (A) (A) (A) (A) (A)
                 (A)
       Virtual   (A) (A) (A) (A) (A) (A) (A) (A) (A) (A) (A) (A)
                 (A) (A) (A) (A) (A) (A) (A) (A) (A) (A) (A) (A)
                 (A) (A) (A) (A) (A) (A) (A) (A) (A) (A) (A) (A)
                 (A) (A) (A) (A) (A) (A) (A) (A) (A) (A) (A) (A)
                 (A) (A) (A) (A) (A) (A) (A) (A) (A) (A) (A) (A)
                 (A) (A) (A) (A) (A) (A) (A) (A) (A) (A) (A) (A)
                 (A) (A) (A) (A) (A) (A) (A) (A) (A) (A) (A) (A)
                 (A) (A) (A) (A) (A) (A) (A) (A) (A) (A) (A) (A)
                 (A) (A) (A) (A) (A) (A) (A) (A) (A) (A) (A) (A)
                 (A) (A) (A) (A) (A) (A) (A) (A) (A) (A) (A) (A)
                 (A) (A) (A) (A) (A) (A) (A) (A) (A) (A) (A) (A)
                 (A) (A) (A) (A) (A) (A) (A) (A) (A) (A) (A) (A)
                 (A) (A) (A) (A) (A) (A) (A) (A) (A) (A) (A) (A)
                 (A) (A) (A) (A) (A) (A) (A) (A) (A) (A) (A) (A)
                 (A) (A) (A) (A) (A) (A) (A) (A) (A) (A) (A) (A)
                 (A) (A) (A) (A) (A) (A) (A) (A) (A) (A) (A) (A)
                 (A) (A) (A) (A) (A) (A) (A) (A) (A) (A) (A) (A)
                 (A) (A) (A) (A) (A) (A) (A) (A) (A) (A) (A) (A)
                 (A) (A) (A) (A) (A) (A) (A) (A) (A) (A) (A) (A)
                 (A) (A) (A) (A) (A) (A) (A) (A) (A) (A) (A) (A)
                 (A) (A) (A) (A) (A) (A) (A) (A) (A) (A) (A) (A)
                 (A) (A) (A) (A) (A) (A) (A) (A) (A) (A) (A) (A)
                 (A) (A) (A) (A) (A) (A) (A) (A) (A) (A) (A) (A)
                 (A) (A) (A) (A) (A) (A) (A) (A) (A) (A) (A) (A)
                 (A) (A) (A) (A) (A) (A) (A) (A) (A) (A) (A) (A)
                 (A) (A) (A) (A) (A) (A) (A) (A) (A) (A) (A) (A)
                 (A) (A) (A) (A) (A) (A) (A) (A) (A) (A) (A) (A)
                 (A) (A) (A) (A) (A) (A) (A) (A) (A) (A) (A) (A)
                 (A) (A) (A) (A) (A) (A) (A) (A) (A) (A) (A) (A)
                 (A) (A) (A) (A) (A) (A) (A) (A) (A) (A) (A) (A)
                 (A) (A) (A) (A) (A) (A) (A) (A) (A) (A) (A) (A)
                 (A) (A) (A) (A) (A) (A) (A) (A) (A) (A) (A) (A)
                 (A) (A) (A) (A) (A) (A) (A) (A) (A) (A) (A) (A)
                 (A) (A) (A) (A) (A) (A) (A) (A) (A) (A) (A) (A)
                 (A) (A) (A)
 The electronic state is 1-A.
 Alpha  occ. eigenvalues --  -24.73048 -24.73000 -24.72484 -24.72420 -24.72379
 Alpha  occ. eigenvalues --  -24.72333 -19.19343 -19.19219 -14.34408 -14.34325
 Alpha  occ. eigenvalues --  -10.43754 -10.43725 -10.25725 -10.25620 -10.25612
 Alpha  occ. eigenvalues --  -10.25513 -10.24154 -10.24032 -10.21884 -10.21772
 Alpha  occ. eigenvalues --  -10.20335 -10.20271 -10.20255 -10.20210 -10.20083
 Alpha  occ. eigenvalues --  -10.20032 -10.19951 -10.19947 -10.19930 -10.19907
 Alpha  occ. eigenvalues --   -1.30360  -1.30172  -1.21778  -1.21666  -1.21351
 Alpha  occ. eigenvalues --   -1.21241  -1.07913  -1.07830  -0.92506  -0.92405
 Alpha  occ. eigenvalues --   -0.86790  -0.85882  -0.84605  -0.78409  -0.78351
 Alpha  occ. eigenvalues --   -0.76738  -0.75480  -0.74156  -0.72142  -0.70083
 Alpha  occ. eigenvalues --   -0.69433  -0.64813  -0.63568  -0.63461  -0.62317
 Alpha  occ. eigenvalues --   -0.61949  -0.59627  -0.58213  -0.58108  -0.58096
 Alpha  occ. eigenvalues --   -0.57920  -0.57077  -0.56220  -0.54666  -0.54071
 Alpha  occ. eigenvalues --   -0.52151  -0.52075  -0.49456  -0.49385  -0.49245
 Alpha  occ. eigenvalues --   -0.46578  -0.46119  -0.46059  -0.46004  -0.45930
 Alpha  occ. eigenvalues --   -0.45801  -0.45286  -0.45015  -0.44617  -0.44114
 Alpha  occ. eigenvalues --   -0.43326  -0.42483  -0.42346  -0.42130  -0.41701
 Alpha  occ. eigenvalues --   -0.41402  -0.40866  -0.40525  -0.40400  -0.40048
 Alpha  occ. eigenvalues --   -0.39971  -0.39766  -0.39494  -0.38878  -0.38464
 Alpha  occ. eigenvalues --   -0.38285  -0.36923  -0.36149  -0.35170  -0.34502
 Alpha  occ. eigenvalues --   -0.32081  -0.31060  -0.29994  -0.27089  -0.26921
 Alpha  occ. eigenvalues --   -0.26016  -0.22595  -0.21044  -0.20395
 Alpha virt. eigenvalues --   -0.02999  -0.02536  -0.01129  -0.00230  -0.00122
 Alpha virt. eigenvalues --    0.01100   0.08440   0.08514   0.09582   0.10508
 Alpha virt. eigenvalues --    0.10799   0.12731   0.12946   0.13233   0.13298
 Alpha virt. eigenvalues --    0.13755   0.13856   0.14332   0.15073   0.15454
 Alpha virt. eigenvalues --    0.16868   0.17031   0.17072   0.17483   0.18934
 Alpha virt. eigenvalues --    0.19046   0.19143   0.21321   0.21487   0.21657
 Alpha virt. eigenvalues --    0.21845   0.24033   0.24585   0.26000   0.26134
 Alpha virt. eigenvalues --    0.26837   0.28486   0.29896   0.31744   0.32277
 Alpha virt. eigenvalues --    0.32540   0.33030   0.34132   0.34775   0.35821
 Alpha virt. eigenvalues --    0.37090   0.37166   0.38323   0.38510   0.44639
 Alpha virt. eigenvalues --    0.46775   0.47004   0.47386   0.47883   0.48066
 Alpha virt. eigenvalues --    0.48952   0.49865   0.50168   0.50733   0.51025
 Alpha virt. eigenvalues --    0.51955   0.52446   0.53601   0.53901   0.54789
 Alpha virt. eigenvalues --    0.55016   0.55592   0.56543   0.56655   0.56919
 Alpha virt. eigenvalues --    0.56997   0.57525   0.57884   0.58072   0.58868
 Alpha virt. eigenvalues --    0.59362   0.59425   0.60145   0.60369   0.60401
 Alpha virt. eigenvalues --    0.61299   0.61434   0.62318   0.62750   0.63353
 Alpha virt. eigenvalues --    0.63755   0.64131   0.65790   0.67500   0.68112
 Alpha virt. eigenvalues --    0.68981   0.69703   0.70208   0.70460   0.71101
 Alpha virt. eigenvalues --    0.71735   0.72799   0.76994   0.77657   0.77800
 Alpha virt. eigenvalues --    0.78073   0.79220   0.80112   0.80529   0.80886
 Alpha virt. eigenvalues --    0.80961   0.82259   0.82641   0.84275   0.84797
 Alpha virt. eigenvalues --    0.84993   0.85686   0.86008   0.86262   0.86451
 Alpha virt. eigenvalues --    0.88241   0.88668   0.88759   0.89146   0.90547
 Alpha virt. eigenvalues --    0.90897   0.92688   0.94105   0.94435   0.95499
 Alpha virt. eigenvalues --    0.96425   0.97174   0.97824   0.98079   0.98883
 Alpha virt. eigenvalues --    1.01587   1.01910   1.02441   1.04622   1.05710
 Alpha virt. eigenvalues --    1.06608   1.07085   1.07607   1.07759   1.08936
 Alpha virt. eigenvalues --    1.10097   1.10344   1.11067   1.12586   1.13257
 Alpha virt. eigenvalues --    1.13664   1.13842   1.14632   1.15876   1.16559
 Alpha virt. eigenvalues --    1.18410   1.18631   1.19055   1.19860   1.21190
 Alpha virt. eigenvalues --    1.21836   1.22819   1.23175   1.24358   1.24686
 Alpha virt. eigenvalues --    1.27183   1.28185   1.30553   1.31049   1.31913
 Alpha virt. eigenvalues --    1.32391   1.33248   1.33654   1.34745   1.34955
 Alpha virt. eigenvalues --    1.35314   1.36015   1.36378   1.36976   1.37404
 Alpha virt. eigenvalues --    1.37456   1.37934   1.38115   1.38476   1.38770
 Alpha virt. eigenvalues --    1.39233   1.39289   1.39597   1.41027   1.41216
 Alpha virt. eigenvalues --    1.42113   1.43285   1.44459   1.45015   1.46210
 Alpha virt. eigenvalues --    1.47630   1.48391   1.52529   1.53347   1.59283
 Alpha virt. eigenvalues --    1.59439   1.61652   1.61842   1.62045   1.63942
 Alpha virt. eigenvalues --    1.65706   1.66844   1.69557   1.69957   1.70833
 Alpha virt. eigenvalues --    1.71528   1.72135   1.73548   1.73758   1.75339
 Alpha virt. eigenvalues --    1.75792   1.76932   1.77255   1.77737   1.78567
 Alpha virt. eigenvalues --    1.79049   1.81649   1.82461   1.82979   1.83173
 Alpha virt. eigenvalues --    1.84012   1.84399   1.85066   1.85084   1.85522
 Alpha virt. eigenvalues --    1.85909   1.87214   1.87420   1.87959   1.89702
 Alpha virt. eigenvalues --    1.90112   1.90220   1.90734   1.91532   1.91811
 Alpha virt. eigenvalues --    1.91943   1.92306   1.94280   1.95050   1.95346
 Alpha virt. eigenvalues --    1.95725   1.96309   1.96924   1.97128   1.97767
 Alpha virt. eigenvalues --    1.97963   1.98554   1.99618   2.00026   2.00657
 Alpha virt. eigenvalues --    2.00978   2.01463   2.02913   2.03374   2.03647
 Alpha virt. eigenvalues --    2.04050   2.05164   2.05898   2.06296   2.06638
 Alpha virt. eigenvalues --    2.07574   2.09124   2.09979   2.12244   2.12769
 Alpha virt. eigenvalues --    2.14076   2.16103   2.17175   2.17765   2.18535
 Alpha virt. eigenvalues --    2.19144   2.20924   2.21563   2.24972   2.25747
 Alpha virt. eigenvalues --    2.26539   2.26699   2.27463   2.27968   2.28601
 Alpha virt. eigenvalues --    2.29060   2.29645   2.29774   2.31681   2.31915
 Alpha virt. eigenvalues --    2.33461   2.34241   2.34994   2.35875   2.36101
 Alpha virt. eigenvalues --    2.37116   2.37638   2.40306   2.41000   2.41690
 Alpha virt. eigenvalues --    2.42091   2.42540   2.44003   2.44314   2.44644
 Alpha virt. eigenvalues --    2.45388   2.46110   2.47529   2.48124   2.48992
 Alpha virt. eigenvalues --    2.50339   2.50571   2.50929   2.52177   2.52508
 Alpha virt. eigenvalues --    2.53450   2.53882   2.54339   2.54629   2.56556
 Alpha virt. eigenvalues --    2.57626   2.58593   2.59326   2.59791   2.59956
 Alpha virt. eigenvalues --    2.63650   2.64082   2.64749   2.66443   2.68968
 Alpha virt. eigenvalues --    2.69690   2.71287   2.71924   2.72674   2.73561
 Alpha virt. eigenvalues --    2.73983   2.75828   2.76520   2.76758   2.77351
 Alpha virt. eigenvalues --    2.79388   2.79983   2.83120   2.84425   2.84494
 Alpha virt. eigenvalues --    2.85869   2.86703   2.89887   2.90566   2.96518
 Alpha virt. eigenvalues --    2.98035   2.98963   3.01273   3.02042   3.02608
 Alpha virt. eigenvalues --    3.03101   3.03330   3.04505   3.05485   3.06032
 Alpha virt. eigenvalues --    3.06721   3.08469   3.09039   3.12169   3.13818
 Alpha virt. eigenvalues --    3.14791   3.19903   3.20387   3.22307   3.24891
 Alpha virt. eigenvalues --    3.27471   3.27555   3.28778   3.30536   3.31260
 Alpha virt. eigenvalues --    3.31780   3.34090   3.39130   3.45154   3.45238
 Alpha virt. eigenvalues --    3.51098   3.53742   3.53880   3.75602   3.76224
 Alpha virt. eigenvalues --    3.81193   4.05386   4.05423   4.10671   4.10898
 Alpha virt. eigenvalues --    4.11627   4.12809   4.12875   4.15110   4.15330
 Alpha virt. eigenvalues --    4.18612   4.19793   4.30604   4.31007   4.33327
 Alpha virt. eigenvalues --    4.34153   4.39357   4.42617   4.43199   4.45517
 Alpha virt. eigenvalues --    4.50653   4.52337   4.59657   4.61343   4.81217
 Alpha virt. eigenvalues --    4.81797   4.85925   5.00618   5.02425   5.88995
 Alpha virt. eigenvalues --    5.90730
          Condensed to atoms (all electrons):
               1          2          3          4          5          6
     1  N    6.811137   0.309333  -0.071662   0.004607   0.000716   0.000000
     2  C    0.309333   4.590371   0.520528  -0.011497  -0.033280  -0.000082
     3  C   -0.071662   0.520528   4.959127   0.485996  -0.019831   0.004846
     4  C    0.004607  -0.011497   0.485996   4.964726   0.480621  -0.057875
     5  C    0.000716  -0.033280  -0.019831   0.480621   4.729091   0.224159
     6  O    0.000000  -0.000082   0.004846  -0.057875   0.224159   8.368614
     7  C    0.000000   0.000071  -0.000172  -0.002347  -0.026117   0.232871
     8  C   -0.000000   0.000022  -0.000354   0.000575   0.004348  -0.055405
     9  C   -0.000000  -0.000000   0.000003  -0.000137   0.000007   0.004001
    10  C   -0.000000   0.000000   0.000000   0.000003   0.000013   0.000074
    11  O    0.000000  -0.000000   0.000000   0.000000  -0.000000   0.000000
    12  C    0.000000  -0.000000   0.000000   0.000000  -0.000000  -0.000000
    13  C   -0.000000   0.000000  -0.000000  -0.000000   0.000000   0.000000
    14  C    0.000000   0.000000   0.000000  -0.000000   0.000000  -0.000000
    15  C    0.000000  -0.000000   0.000000   0.000000  -0.000000  -0.000000
    16  N    0.000000   0.000000   0.000000  -0.000000   0.000000   0.000000
    17  C    0.000000   0.000000  -0.000000  -0.000000   0.000000   0.000000
    18  C    0.000000   0.000000   0.000000  -0.000000   0.000000   0.000000
    19  C    0.000000   0.000000  -0.000000   0.000000  -0.000000  -0.000000
    20  F    0.000000   0.000000   0.000000   0.000000  -0.000000   0.000000
    21  F    0.000000  -0.000000   0.000000   0.000000   0.000000   0.000000
    22  F    0.000000   0.000000   0.000000   0.000000  -0.000000   0.000000
    23  C   -0.000000  -0.000000   0.000000  -0.000015  -0.000046   0.003433
    24  C   -0.000000  -0.000001   0.000004   0.000293   0.000178  -0.050136
    25  C    0.004727  -0.010549  -0.040982  -0.048720   0.447065  -0.064537
    26  C   -0.000083   0.004938  -0.000439   0.006923  -0.029326   0.000275
    27  F    0.000000  -0.000025  -0.000008   0.000217  -0.000332  -0.001498
    28  F   -0.000001   0.000863  -0.000001  -0.000032   0.002614   0.000002
    29  F    0.000000  -0.000022  -0.000011   0.000128  -0.000331  -0.000556
    30  C   -0.065537   0.470606  -0.043430  -0.053518  -0.035342   0.004444
    31  H    0.348235  -0.025224   0.005058  -0.000158  -0.000010  -0.000000
    32  H    0.348524  -0.025512  -0.008747   0.000043  -0.000005  -0.000000
    33  H   -0.006982  -0.040004   0.365543  -0.030484   0.003637  -0.000052
    34  H   -0.000102   0.003393  -0.033861   0.364775  -0.036850  -0.004596
    35  H    0.000000  -0.000054  -0.000083   0.001912   0.008669  -0.007998
    36  H    0.000000  -0.000000  -0.000000   0.000001   0.000004  -0.000041
    37  H    0.000000   0.000000  -0.000000   0.000000  -0.000000   0.000000
    38  H    0.000000   0.000000  -0.000000   0.000000  -0.000000   0.000000
    39  H    0.000000   0.000000   0.000000  -0.000000   0.000000   0.000000
    40  H    0.000000   0.000000   0.000000  -0.000000   0.000000   0.000000
    41  H    0.000000   0.000000   0.000000  -0.000000   0.000000   0.000000
    42  H   -0.000000  -0.000000   0.000000   0.000000   0.000000  -0.000047
    43  H   -0.000000   0.000000  -0.000001  -0.000011   0.000239  -0.000445
    44  H   -0.007209  -0.033681   0.005476   0.000147   0.003742  -0.000048
               7          8          9         10         11         12
     1  N    0.000000  -0.000000  -0.000000  -0.000000   0.000000   0.000000
     2  C    0.000071   0.000022  -0.000000   0.000000  -0.000000  -0.000000
     3  C   -0.000172  -0.000354   0.000003   0.000000   0.000000   0.000000
     4  C   -0.002347   0.000575  -0.000137   0.000003   0.000000   0.000000
     5  C   -0.026117   0.004348   0.000007   0.000013  -0.000000  -0.000000
     6  O    0.232871  -0.055405   0.004001   0.000074   0.000000  -0.000000
     7  C    4.610394   0.478634  -0.016532  -0.035975   0.000064   0.000022
     8  C    0.478634   4.996651   0.474649  -0.020640   0.003659  -0.000029
     9  C   -0.016532   0.474649   4.954868   0.534261  -0.049768  -0.000638
    10  C   -0.035975  -0.020640   0.534261   4.616712   0.226126  -0.026749
    11  O    0.000064   0.003659  -0.049768   0.226126   8.367143   0.232300
    12  C    0.000022  -0.000029  -0.000638  -0.026749   0.232300   4.726195
    13  C    0.000006  -0.000032   0.000660  -0.000605  -0.059892   0.472700
    14  C    0.000000   0.000000   0.000001  -0.000184   0.004763  -0.018403
    15  C    0.000000  -0.000000   0.000000   0.000055  -0.000092  -0.034234
    16  N   -0.000000  -0.000000   0.000000   0.000000   0.000000   0.000665
    17  C   -0.000000  -0.000000   0.000006  -0.000108   0.004415  -0.034316
    18  C   -0.000001   0.000010  -0.000218  -0.003525  -0.064108   0.445640
    19  C    0.000001  -0.000001  -0.000081   0.000411   0.000334  -0.028972
    20  F    0.000001  -0.000002   0.000017   0.001374  -0.001250  -0.000012
    21  F    0.000000  -0.000000  -0.000008   0.000206  -0.000433  -0.000752
    22  F    0.000000  -0.000000  -0.000000   0.000005   0.000002   0.002644
    23  C   -0.021149  -0.036800  -0.061051   0.480297  -0.054234   0.003066
    24  C    0.529490  -0.059988  -0.034366  -0.018129   0.004143  -0.000108
    25  C   -0.003949   0.000576   0.000012  -0.000001   0.000000   0.000000
    26  C    0.000416   0.000072  -0.000012   0.000001  -0.000000  -0.000000
    27  F    0.002707   0.001185  -0.000024   0.000003   0.000000  -0.000000
    28  F    0.000007  -0.000001  -0.000000   0.000000   0.000000  -0.000000
    29  F    0.000195   0.000010  -0.000000   0.000000   0.000000   0.000000
    30  C   -0.000115  -0.000124   0.000002  -0.000000   0.000000  -0.000000
    31  H    0.000000  -0.000000  -0.000000   0.000000  -0.000000  -0.000000
    32  H    0.000000   0.000000   0.000000  -0.000000  -0.000000  -0.000000
    33  H   -0.000007   0.000002  -0.000000  -0.000000   0.000000   0.000000
    34  H    0.003201   0.000935  -0.000083   0.000001   0.000000  -0.000000
    35  H   -0.042043   0.367317  -0.032634   0.003546  -0.000048  -0.000000
    36  H    0.003510  -0.033457   0.361541  -0.037883  -0.000594   0.000276
    37  H   -0.000003   0.000007   0.000261   0.004715  -0.005593  -0.037763
    38  H   -0.000000  -0.000000  -0.000000  -0.000005  -0.000051   0.003664
    39  H   -0.000000   0.000000   0.000000  -0.000000  -0.000000  -0.000006
    40  H    0.000000   0.000000   0.000000  -0.000000  -0.000000  -0.000018
    41  H   -0.000000   0.000000  -0.000000  -0.000002  -0.000046   0.003867
    42  H    0.003680   0.000261   0.005162  -0.041793  -0.007854   0.007697
    43  H   -0.037908   0.006525   0.000161   0.003543  -0.000042   0.000002
    44  H   -0.000003  -0.000000  -0.000000  -0.000000   0.000000   0.000000
              13         14         15         16         17         18
     1  N   -0.000000   0.000000   0.000000   0.000000   0.000000   0.000000
     2  C    0.000000   0.000000  -0.000000   0.000000   0.000000   0.000000
     3  C   -0.000000   0.000000   0.000000   0.000000  -0.000000   0.000000
     4  C   -0.000000  -0.000000   0.000000  -0.000000  -0.000000  -0.000000
     5  C    0.000000   0.000000  -0.000000   0.000000   0.000000   0.000000
     6  O    0.000000  -0.000000  -0.000000   0.000000   0.000000   0.000000
     7  C    0.000006   0.000000   0.000000  -0.000000  -0.000000  -0.000001
     8  C   -0.000032   0.000000  -0.000000  -0.000000  -0.000000   0.000010
     9  C    0.000660   0.000001   0.000000   0.000000   0.000006  -0.000218
    10  C   -0.000605  -0.000184   0.000055   0.000000  -0.000108  -0.003525
    11  O   -0.059892   0.004763  -0.000092   0.000000   0.004415  -0.064108
    12  C    0.472700  -0.018403  -0.034234   0.000665  -0.034316   0.445640
    13  C    4.975044   0.488077  -0.011516   0.004691  -0.054192  -0.050132
    14  C    0.488077   4.955419   0.520634  -0.071644  -0.042931  -0.041517
    15  C   -0.011516   0.520634   4.593372   0.308298   0.471772  -0.009584
    16  N    0.004691  -0.071644   0.308298   6.813084  -0.065815   0.004802
    17  C   -0.054192  -0.042931   0.471772  -0.065815   5.078046   0.471095
    18  C   -0.050132  -0.041517  -0.009584   0.004802   0.471095   5.245848
    19  C    0.007089  -0.000446   0.004974  -0.000081  -0.039392   0.273165
    20  F    0.000237  -0.000009  -0.000026   0.000000   0.001293  -0.047637
    21  F    0.000107  -0.000010  -0.000017   0.000000   0.000745  -0.046833
    22  F   -0.000031  -0.000001   0.000856  -0.000001   0.002675  -0.047310
    23  C    0.000693  -0.000311   0.000022  -0.000000  -0.000092   0.000520
    24  C   -0.000215   0.000004  -0.000000  -0.000000   0.000002   0.000011
    25  C   -0.000000  -0.000000   0.000000  -0.000000  -0.000000  -0.000000
    26  C   -0.000000  -0.000000   0.000000  -0.000000  -0.000000   0.000000
    27  F   -0.000000   0.000000   0.000000   0.000000  -0.000000   0.000000
    28  F   -0.000000  -0.000000   0.000000   0.000000   0.000000   0.000000
    29  F    0.000000   0.000000  -0.000000   0.000000  -0.000000   0.000000
    30  C   -0.000000  -0.000000   0.000000   0.000000   0.000000  -0.000000
    31  H    0.000000   0.000000   0.000000   0.000000   0.000000   0.000000
    32  H    0.000000   0.000000   0.000000   0.000000   0.000000  -0.000000
    33  H    0.000000  -0.000000   0.000000   0.000000   0.000000  -0.000000
    34  H    0.000000  -0.000000   0.000000  -0.000000   0.000000  -0.000000
    35  H    0.000000   0.000000  -0.000000   0.000000   0.000000  -0.000000
    36  H   -0.000021  -0.000001   0.000000   0.000000  -0.000000  -0.000014
    37  H    0.364919  -0.033815   0.003389  -0.000101   0.000662   0.005761
    38  H   -0.031060   0.365721  -0.040002  -0.007042   0.005285   0.000471
    39  H    0.000032  -0.008759  -0.025664   0.348459   0.005038  -0.000138
    40  H   -0.000157   0.005049  -0.025257   0.347928  -0.008909   0.000065
    41  H    0.000119   0.005552  -0.033891  -0.007180   0.364694  -0.040927
    42  H    0.001662  -0.000221  -0.000009   0.000001  -0.000043   0.001108
    43  H    0.000001  -0.000000  -0.000000   0.000000  -0.000000   0.000000
    44  H   -0.000000   0.000000  -0.000000   0.000000  -0.000000   0.000000
              19         20         21         22         23         24
     1  N    0.000000   0.000000   0.000000   0.000000  -0.000000  -0.000000
     2  C    0.000000   0.000000  -0.000000   0.000000  -0.000000  -0.000001
     3  C   -0.000000   0.000000   0.000000   0.000000   0.000000   0.000004
     4  C    0.000000   0.000000   0.000000   0.000000  -0.000015   0.000293
     5  C   -0.000000  -0.000000   0.000000  -0.000000  -0.000046   0.000178
     6  O   -0.000000   0.000000   0.000000   0.000000   0.003433  -0.050136
     7  C    0.000001   0.000001   0.000000   0.000000  -0.021149   0.529490
     8  C   -0.000001  -0.000002  -0.000000  -0.000000  -0.036800  -0.059988
     9  C   -0.000081   0.000017  -0.000008  -0.000000  -0.061051  -0.034366
    10  C    0.000411   0.001374   0.000206   0.000005   0.480297  -0.018129
    11  O    0.000334  -0.001250  -0.000433   0.000002  -0.054234   0.004143
    12  C   -0.028972  -0.000012  -0.000752   0.002644   0.003066  -0.000108
    13  C    0.007089   0.000237   0.000107  -0.000031   0.000693  -0.000215
    14  C   -0.000446  -0.000009  -0.000010  -0.000001  -0.000311   0.000004
    15  C    0.004974  -0.000026  -0.000017   0.000856   0.000022  -0.000000
    16  N   -0.000081   0.000000   0.000000  -0.000001  -0.000000  -0.000000
    17  C   -0.039392   0.001293   0.000745   0.002675  -0.000092   0.000002
    18  C    0.273165  -0.047637  -0.046833  -0.047310   0.000520   0.000011
    19  C    4.121546   0.276774   0.280050   0.288337  -0.000043  -0.000007
    20  F    0.276774   9.118694  -0.038350  -0.037160   0.000691   0.000006
    21  F    0.280050  -0.038350   9.117579  -0.037777   0.000002  -0.000000
    22  F    0.288337  -0.037160  -0.037777   9.095123  -0.000001  -0.000000
    23  C   -0.000043   0.000691   0.000002  -0.000001   4.982175   0.483220
    24  C   -0.000007   0.000006  -0.000000  -0.000000   0.483220   4.954277
    25  C   -0.000000  -0.000000   0.000000   0.000000   0.000009  -0.000092
    26  C    0.000000   0.000000  -0.000000   0.000000  -0.000002  -0.000177
    27  F    0.000000   0.000000   0.000000   0.000000  -0.000005  -0.000035
    28  F    0.000000   0.000000   0.000000   0.000000  -0.000000  -0.000000
    29  F   -0.000000   0.000000   0.000000   0.000000  -0.000000  -0.000014
    30  C    0.000000  -0.000000  -0.000000   0.000000  -0.000000   0.000008
    31  H    0.000000   0.000000   0.000000   0.000000   0.000000  -0.000000
    32  H    0.000000   0.000000   0.000000   0.000000   0.000000  -0.000000
    33  H    0.000000  -0.000000  -0.000000   0.000000   0.000000  -0.000000
    34  H    0.000000   0.000000  -0.000000   0.000000   0.000000  -0.000074
    35  H   -0.000000  -0.000000  -0.000000  -0.000000   0.000301   0.004905
    36  H    0.000007   0.000002   0.000001   0.000000   0.006493   0.000170
    37  H   -0.000079   0.000002   0.000001   0.000000   0.001176  -0.000133
    38  H    0.000005  -0.000000  -0.000000  -0.000000   0.000002  -0.000000
    39  H    0.000001  -0.000000  -0.000000  -0.000000  -0.000000  -0.000000
    40  H   -0.000001  -0.000000   0.000000  -0.000002  -0.000000  -0.000000
    41  H   -0.007689   0.000189   0.000206   0.010347  -0.000000  -0.000000
    42  H    0.000084   0.001601   0.000007   0.000001   0.366825  -0.033477
    43  H    0.000000  -0.000000  -0.000000  -0.000000  -0.033019   0.360579
    44  H   -0.000000  -0.000000   0.000000   0.000000   0.000000  -0.000000
              25         26         27         28         29         30
     1  N    0.004727  -0.000083   0.000000  -0.000001   0.000000  -0.065537
     2  C   -0.010549   0.004938  -0.000025   0.000863  -0.000022   0.470606
     3  C   -0.040982  -0.000439  -0.000008  -0.000001  -0.000011  -0.043430
     4  C   -0.048720   0.006923   0.000217  -0.000032   0.000128  -0.053518
     5  C    0.447065  -0.029326  -0.000332   0.002614  -0.000331  -0.035342
     6  O   -0.064537   0.000275  -0.001498   0.000002  -0.000556   0.004444
     7  C   -0.003949   0.000416   0.002707   0.000007   0.000195  -0.000115
     8  C    0.000576   0.000072   0.001185  -0.000001   0.000010  -0.000124
     9  C    0.000012  -0.000012  -0.000024  -0.000000  -0.000000   0.000002
    10  C   -0.000001   0.000001   0.000003   0.000000   0.000000  -0.000000
    11  O    0.000000  -0.000000   0.000000   0.000000   0.000000   0.000000
    12  C    0.000000  -0.000000  -0.000000  -0.000000   0.000000  -0.000000
    13  C   -0.000000  -0.000000  -0.000000  -0.000000   0.000000  -0.000000
    14  C   -0.000000  -0.000000   0.000000  -0.000000   0.000000  -0.000000
    15  C    0.000000   0.000000   0.000000   0.000000  -0.000000   0.000000
    16  N   -0.000000  -0.000000   0.000000   0.000000   0.000000   0.000000
    17  C   -0.000000  -0.000000  -0.000000   0.000000  -0.000000   0.000000
    18  C   -0.000000   0.000000   0.000000   0.000000   0.000000  -0.000000
    19  C   -0.000000   0.000000   0.000000   0.000000  -0.000000   0.000000
    20  F   -0.000000   0.000000   0.000000   0.000000   0.000000  -0.000000
[...]
   300    F   20  dz2    Ryd( 3d)     0.00079

   301    F   21  S      Cor( 1S)     1.99993
   302    F   21  S      Val( 2S)     1.84532
   303    F   21  S      Ryd( 3S)     0.00088
   304    F   21  S      Ryd( 4S)     0.00003
   305    F   21  px     Val( 2p)     1.92844
   306    F   21  px     Ryd( 3p)     0.00018
   307    F   21  py     Val( 2p)     1.88659
   308    F   21  py     Ryd( 3p)     0.00045
   309    F   21  pz     Val( 2p)     1.70371
   310    F   21  pz     Ryd( 3p)     0.00020
   311    F   21  dxy    Ryd( 3d)     0.00031
   312    F   21  dxz    Ryd( 3d)     0.00109
   313    F   21  dyz    Ryd( 3d)     0.00117
   314    F   21  dx2y2  Ryd( 3d)     0.00035
   315    F   21  dz2    Ryd( 3d)     0.00141

   316    F   22  S      Cor( 1S)     1.99993
   317    F   22  S      Val( 2S)     1.84184
   318    F   22  S      Ryd( 3S)     0.00074
   319    F   22  S      Ryd( 4S)     0.00005
   320    F   22  px     Val( 2p)     1.76458
   321    F   22  px     Ryd( 3p)     0.00017
   322    F   22  py     Val( 2p)     1.88665
   323    F   22  py     Ryd( 3p)     0.00037
   324    F   22  pz     Val( 2p)     1.86980
   325    F   22  pz     Ryd( 3p)     0.00021
   326    F   22  dxy    Ryd( 3d)     0.00094
   327    F   22  dxz    Ryd( 3d)     0.00099
   328    F   22  dyz    Ryd( 3d)     0.00057
   329    F   22  dx2y2  Ryd( 3d)     0.00108
   330    F   22  dz2    Ryd( 3d)     0.00080

   331    C   23  S      Cor( 1S)     1.99902
   332    C   23  S      Val( 2S)     0.96699
   333    C   23  S      Ryd( 3S)     0.00069
   334    C   23  S      Ryd( 4S)     0.00005
   335    C   23  px     Val( 2p)     1.16850
   336    C   23  px     Ryd( 3p)     0.00368
   337    C   23  py     Val( 2p)     1.02921
   338    C   23  py     Ryd( 3p)     0.00182
   339    C   23  pz     Val( 2p)     1.10308
   340    C   23  pz     Ryd( 3p)     0.00403
   341    C   23  dxy    Ryd( 3d)     0.00052
   342    C   23  dxz    Ryd( 3d)     0.00054
   343    C   23  dyz    Ryd( 3d)     0.00050
   344    C   23  dx2y2  Ryd( 3d)     0.00048
   345    C   23  dz2    Ryd( 3d)     0.00061

   346    C   24  S      Cor( 1S)     1.99903
   347    C   24  S      Val( 2S)     0.96329
   348    C   24  S      Ryd( 3S)     0.00084
   349    C   24  S      Ryd( 4S)     0.00005
   350    C   24  px     Val( 2p)     1.05240
   351    C   24  px     Ryd( 3p)     0.00502
   352    C   24  py     Val( 2p)     1.05734
   353    C   24  py     Ryd( 3p)     0.00264
   354    C   24  pz     Val( 2p)     1.19459
   355    C   24  pz     Ryd( 3p)     0.00459
   356    C   24  dxy    Ryd( 3d)     0.00051
   357    C   24  dxz    Ryd( 3d)     0.00068
   358    C   24  dyz    Ryd( 3d)     0.00044
   359    C   24  dx2y2  Ryd( 3d)     0.00040
   360    C   24  dz2    Ryd( 3d)     0.00053

   361    C   25  S      Cor( 1S)     1.99877
   362    C   25  S      Val( 2S)     0.89696
   363    C   25  S      Ryd( 3S)     0.00091
   364    C   25  S      Ryd( 4S)     0.00008
   365    C   25  px     Val( 2p)     1.11371
   366    C   25  px     Ryd( 3p)     0.00451
   367    C   25  py     Val( 2p)     1.08404
   368    C   25  py     Ryd( 3p)     0.00483
   369    C   25  pz     Val( 2p)     1.13895
   370    C   25  pz     Ryd( 3p)     0.00412
   371    C   25  dxy    Ryd( 3d)     0.00054
   372    C   25  dxz    Ryd( 3d)     0.00060
   373    C   25  dyz    Ryd( 3d)     0.00051
   374    C   25  dx2y2  Ryd( 3d)     0.00086
   375    C   25  dz2    Ryd( 3d)     0.00057

   376    C   26  S      Cor( 1S)     1.99906
   377    C   26  S      Val( 2S)     0.79473
   378    C   26  S      Ryd( 3S)     0.00522
   379    C   26  S      Ryd( 4S)     0.00032
   380    C   26  px     Val( 2p)     0.56668
   381    C   26  px     Ryd( 3p)     0.01807
   382    C   26  py     Val( 2p)     0.86008
   383    C   26  py     Ryd( 3p)     0.01383
   384    C   26  pz     Val( 2p)     0.59292
   385    C   26  pz     Ryd( 3p)     0.01657
   386    C   26  dxy    Ryd( 3d)     0.00289
   387    C   26  dxz    Ryd( 3d)     0.00403
   388    C   26  dyz    Ryd( 3d)     0.00351
   389    C   26  dx2y2  Ryd( 3d)     0.00312
   390    C   26  dz2    Ryd( 3d)     0.00351

   391    F   27  S      Cor( 1S)     1.99993
   392    F   27  S      Val( 2S)     1.84590
   393    F   27  S      Ryd( 3S)     0.00088
   394    F   27  S      Ryd( 4S)     0.00003
   395    F   27  px     Val( 2p)     1.75062
   396    F   27  px     Ryd( 3p)     0.00025
   397    F   27  py     Val( 2p)     1.92986
   398    F   27  py     Ryd( 3p)     0.00045
   399    F   27  pz     Val( 2p)     1.84188
   400    F   27  pz     Ryd( 3p)     0.00015
   401    F   27  dxy    Ryd( 3d)     0.00086
   402    F   27  dxz    Ryd( 3d)     0.00111
   403    F   27  dyz    Ryd( 3d)     0.00053
   404    F   27  dx2y2  Ryd( 3d)     0.00096
   405    F   27  dz2    Ryd( 3d)     0.00084

   406    F   28  S      Cor( 1S)     1.99993
   407    F   28  S      Val( 2S)     1.84163
   408    F   28  S      Ryd( 3S)     0.00073
   409    F   28  S      Ryd( 4S)     0.00005
   410    F   28  px     Val( 2p)     1.74750
   411    F   28  px     Ryd( 3p)     0.00017
   412    F   28  py     Val( 2p)     1.90340
   413    F   28  py     Ryd( 3p)     0.00037
   414    F   28  pz     Val( 2p)     1.87149
   415    F   28  pz     Ryd( 3p)     0.00022
   416    F   28  dxy    Ryd( 3d)     0.00096
   417    F   28  dxz    Ryd( 3d)     0.00105
   418    F   28  dyz    Ryd( 3d)     0.00050
   419    F   28  dx2y2  Ryd( 3d)     0.00106
   420    F   28  dz2    Ryd( 3d)     0.00079

   421    F   29  S      Cor( 1S)     1.99993
   422    F   29  S      Val( 2S)     1.84535
   423    F   29  S      Ryd( 3S)     0.00090
   424    F   29  S      Ryd( 4S)     0.00003
   425    F   29  px     Val( 2p)     1.92827
   426    F   29  px     Ryd( 3p)     0.00018
   427    F   29  py     Val( 2p)     1.87460
   428    F   29  py     Ryd( 3p)     0.00045
   429    F   29  pz     Val( 2p)     1.71770
   430    F   29  pz     Ryd( 3p)     0.00021
   431    F   29  dxy    Ryd( 3d)     0.00035
   432    F   29  dxz    Ryd( 3d)     0.00104
   433    F   29  dyz    Ryd( 3d)     0.00114
   434    F   29  dx2y2  Ryd( 3d)     0.00040
   435    F   29  dz2    Ryd( 3d)     0.00137

   436    C   30  S      Cor( 1S)     1.99901
   437    C   30  S      Val( 2S)     0.94354
   438    C   30  S      Ryd( 3S)     0.00067
   439    C   30  S      Ryd( 4S)     0.00005
   440    C   30  px     Val( 2p)     1.14037
   441    C   30  px     Ryd( 3p)     0.00407
   442    C   30  py     Val( 2p)     1.08694
   443    C   30  py     Ryd( 3p)     0.00471
   444    C   30  pz     Val( 2p)     1.09894
   445    C   30  pz     Ryd( 3p)     0.00348
   446    C   30  dxy    Ryd( 3d)     0.00054
   447    C   30  dxz    Ryd( 3d)     0.00049
   448    C   30  dyz    Ryd( 3d)     0.00052
   449    C   30  dx2y2  Ryd( 3d)     0.00059
   450    C   30  dz2    Ryd( 3d)     0.00038

   451    H   31  S      Val( 1S)     0.57242
   452    H   31  S      Ryd( 2S)     0.00117
   453    H   31  px     Ryd( 2p)     0.00050
   454    H   31  py     Ryd( 2p)     0.00031
   455    H   31  pz     Ryd( 2p)     0.00042

   456    H   32  S      Val( 1S)     0.57255
   457    H   32  S      Ryd( 2S)     0.00132
   458    H   32  px     Ryd( 2p)     0.00021
   459    H   32  py     Ryd( 2p)     0.00052
   460    H   32  pz     Ryd( 2p)     0.00050

   461    H   33  S      Val( 1S)     0.75130
   462    H   33  S      Ryd( 2S)     0.00087
   463    H   33  px     Ryd( 2p)     0.00007
   464    H   33  py     Ryd( 2p)     0.00040
   465    H   33  pz     Ryd( 2p)     0.00015

   466    H   34  S      Val( 1S)     0.73883
   467    H   34  S      Ryd( 2S)     0.00083
   468    H   34  px     Ryd( 2p)     0.00028
   469    H   34  py     Ryd( 2p)     0.00014
   470    H   34  pz     Ryd( 2p)     0.00018

   471    H   35  S      Val( 1S)     0.72931
   472    H   35  S      Ryd( 2S)     0.00092
   473    H   35  px     Ryd( 2p)     0.00029
   474    H   35  py     Ryd( 2p)     0.00013
   475    H   35  pz     Ryd( 2p)     0.00018

   476    H   36  S      Val( 1S)     0.73245
   477    H   36  S      Ryd( 2S)     0.00104
   478    H   36  px     Ryd( 2p)     0.00007
   479    H   36  py     Ryd( 2p)     0.00015
   480    H   36  pz     Ryd( 2p)     0.00038

   481    H   37  S      Val( 1S)     0.73760
   482    H   37  S      Ryd( 2S)     0.00082
   483    H   37  px     Ryd( 2p)     0.00026
   484    H   37  py     Ryd( 2p)     0.00017
   485    H   37  pz     Ryd( 2p)     0.00017

   486    H   38  S      Val( 1S)     0.74945
   487    H   38  S      Ryd( 2S)     0.00086
   488    H   38  px     Ryd( 2p)     0.00007
   489    H   38  py     Ryd( 2p)     0.00040
   490    H   38  pz     Ryd( 2p)     0.00014

   491    H   39  S      Val( 1S)     0.57430
   492    H   39  S      Ryd( 2S)     0.00125
   493    H   39  px     Ryd( 2p)     0.00027
   494    H   39  py     Ryd( 2p)     0.00057
   495    H   39  pz     Ryd( 2p)     0.00040

   496    H   40  S      Val( 1S)     0.57415
   497    H   40  S      Ryd( 2S)     0.00112
   498    H   40  px     Ryd( 2p)     0.00039
   499    H   40  py     Ryd( 2p)     0.00028
   500    H   40  pz     Ryd( 2p)     0.00056

   501    H   41  S      Val( 1S)     0.74185
   502    H   41  S      Ryd( 2S)     0.00153
   503    H   41  px     Ryd( 2p)     0.00025
   504    H   41  py     Ryd( 2p)     0.00019
   505    H   41  pz     Ryd( 2p)     0.00018

   506    H   42  S      Val( 1S)     0.72957
   507    H   42  S      Ryd( 2S)     0.00087
   508    H   42  px     Ryd( 2p)     0.00029
   509    H   42  py     Ryd( 2p)     0.00013
   510    H   42  pz     Ryd( 2p)     0.00018

   511    H   43  S      Val( 1S)     0.73247
   512    H   43  S      Ryd( 2S)     0.00103
   513    H   43  px     Ryd( 2p)     0.00006
   514    H   43  py     Ryd( 2p)     0.00015
   515    H   43  pz     Ryd( 2p)     0.00038

   516    H   44  S      Val( 1S)     0.74309
   517    H   44  S      Ryd( 2S)     0.00156
   518    H   44  px     Ryd( 2p)     0.00027
   519    H   44  py     Ryd( 2p)     0.00017
   520    H   44  pz     Ryd( 2p)     0.00020

 WARNING:  1 low occupancy (<1.9990e) core orbital  found on  C    2
           1 low occupancy (<1.9990e) core orbital  found on  C    5
           1 low occupancy (<1.9990e) core orbital  found on  C    7
           1 low occupancy (<1.9990e) core orbital  found on  C   10
           1 low occupancy (<1.9990e) core orbital  found on  C   12
           1 low occupancy (<1.9990e) core orbital  found on  C   15
           1 low occupancy (<1.9990e) core orbital  found on  C   18
           1 low occupancy (<1.9990e) core orbital  found on  C   25


 Summary of Natural Population Analysis:                  
                                                          
                                       Natural Population 
                Natural  -----------------------------------------------
    Atom  No    Charge         Core      Valence    Rydberg      Total
 -----------------------------------------------------------------------
      N    1   -0.78514      1.99949     5.77457    0.01108     7.78514
      C    2    0.18346      1.99899     3.79971    0.01784     5.81654
      C    3   -0.32846      1.99905     4.31368    0.01573     6.32846
      C    4   -0.28176      1.99902     4.26740    0.01535     6.28176
      C    5    0.30070      1.99866     3.67697    0.02366     5.69930
      O    6   -0.47248      1.99971     6.46106    0.01172     8.47248
      C    7    0.32571      1.99871     3.65367    0.02191     5.67429
      C    8   -0.27483      1.99902     4.26275    0.01306     6.27483
      C    9   -0.28534      1.99904     4.27062    0.01568     6.28534
      C   10    0.33071      1.99871     3.64870    0.02188     5.66929
      O   11   -0.47842      1.99971     6.46702    0.01169     8.47842
      C   12    0.28936      1.99866     3.68844    0.02353     5.71064
      C   13   -0.27416      1.99902     4.26022    0.01492     6.27416
      C   14   -0.31453      1.99905     4.30055    0.01494     6.31453
      C   15    0.18104      1.99899     3.80222    0.01774     5.81896
      N   16   -0.80661      1.99949     5.79586    0.01126     7.80661
      C   17   -0.27888      1.99901     4.26501    0.01486     6.27888
      C   18   -0.23590      1.99876     4.22003    0.01710     6.23590
      C   19    1.11916      1.99906     2.81089    0.07089     4.88084
      F   20   -0.37244      1.99993     7.36646    0.00605     9.37244
      F   21   -0.37006      1.99993     7.36406    0.00608     9.37006
      F   22   -0.36871      1.99993     7.36287    0.00591     9.36871
      C   23   -0.27974      1.99902     4.26778    0.01294     6.27974
      C   24   -0.28234      1.99903     4.26762    0.01569     6.28234
      C   25   -0.24996      1.99877     4.23367    0.01752     6.24996
      C   26    1.11545      1.99906     2.81441    0.07108     4.88455
      F   27   -0.37424      1.99993     7.36826    0.00605     9.37424
      F   28   -0.36983      1.99993     7.36401    0.00589     9.36983
      F   29   -0.37192      1.99993     7.36592    0.00608     9.37192
      C   30   -0.28430      1.99901     4.26979    0.01550     6.28430
      H   31    0.42518      0.00000     0.57242    0.00240     0.57482
      H   32    0.42490      0.00000     0.57255    0.00256     0.57510
      H   33    0.24721      0.00000     0.75130    0.00149     0.75279
      H   34    0.25974      0.00000     0.73883    0.00143     0.74026
      H   35    0.26917      0.00000     0.72931    0.00152     0.73083
      H   36    0.26592      0.00000     0.73245    0.00163     0.73408
      H   37    0.26098      0.00000     0.73760    0.00142     0.73902
      H   38    0.24908      0.00000     0.74945    0.00147     0.75092
      H   39    0.42321      0.00000     0.57430    0.00249     0.57679
      H   40    0.42350      0.00000     0.57415    0.00236     0.57650
      H   41    0.25599      0.00000     0.74185    0.00216     0.74401
      H   42    0.26896      0.00000     0.72957    0.00147     0.73104
      H   43    0.26591      0.00000     0.73247    0.00162     0.73409
      H   44    0.25471      0.00000     0.74309    0.00220     0.74529
 =======================================================================
   * Total *    0.00000     59.97662   157.46354    0.55983   218.00000

                                 Natural Population      
 --------------------------------------------------------
   Core                      59.97662 ( 99.9610% of  60)
   Valence                  157.46354 ( 99.6605% of 158)
   Natural Minimal Basis    217.44017 ( 99.7432% of 218)
   Natural Rydberg Basis      0.55983 (  0.2568% of 218)
 --------------------------------------------------------

    Atom  No          Natural Electron Configuration
 ----------------------------------------------------------------------------
      N    1      [core]2S( 1.36)2p( 4.41)3p( 0.01)
      C    2      [core]2S( 0.85)2p( 2.95)3p( 0.01)
      C    3      [core]2S( 0.95)2p( 3.36)3p( 0.01)
      C    4      [core]2S( 0.96)2p( 3.31)3p( 0.01)
      C    5      [core]2S( 0.83)2p( 2.85)3p( 0.02)3d( 0.01)
      O    6      [core]2S( 1.57)2p( 4.89)3p( 0.01)3d( 0.01)
      C    7      [core]2S( 0.84)2p( 2.81)3p( 0.01)3d( 0.01)
      C    8      [core]2S( 0.97)2p( 3.30)3p( 0.01)
      C    9      [core]2S( 0.96)2p( 3.31)3p( 0.01)
      C   10      [core]2S( 0.84)2p( 2.81)3p( 0.01)3d( 0.01)
      O   11      [core]2S( 1.57)2p( 4.89)3p( 0.01)3d( 0.01)
      C   12      [core]2S( 0.83)2p( 2.86)3p( 0.02)3d( 0.01)
      C   13      [core]2S( 0.96)2p( 3.30)3p( 0.01)
      C   14      [core]2S( 0.95)2p( 3.35)3p( 0.01)
      C   15      [core]2S( 0.84)2p( 2.96)3p( 0.01)
      N   16      [core]2S( 1.36)2p( 4.44)3p( 0.01)
      C   17      [core]2S( 0.94)2p( 3.32)3p( 0.01)
      C   18      [core]2S( 0.90)2p( 3.32)3p( 0.01)
      C   19      [core]2S( 0.79)2p( 2.02)3S( 0.01)3p( 0.05)3d( 0.02)
      F   20      [core]2S( 1.85)2p( 5.52)
      F   21      [core]2S( 1.85)2p( 5.52)
      F   22      [core]2S( 1.84)2p( 5.52)
      C   23      [core]2S( 0.97)2p( 3.30)3p( 0.01)
      C   24      [core]2S( 0.96)2p( 3.30)3p( 0.01)
      C   25      [core]2S( 0.90)2p( 3.34)3p( 0.01)
      C   26      [core]2S( 0.79)2p( 2.02)3S( 0.01)3p( 0.05)3d( 0.02)
      F   27      [core]2S( 1.85)2p( 5.52)
      F   28      [core]2S( 1.84)2p( 5.52)
      F   29      [core]2S( 1.85)2p( 5.52)
      C   30      [core]2S( 0.94)2p( 3.33)3p( 0.01)
      H   31            1S( 0.57)
      H   32            1S( 0.57)
      H   33            1S( 0.75)
      H   34            1S( 0.74)
      H   35            1S( 0.73)
      H   36            1S( 0.73)
      H   37            1S( 0.74)
      H   38            1S( 0.75)
      H   39            1S( 0.57)
      H   40            1S( 0.57)
      H   41            1S( 0.74)
      H   42            1S( 0.73)
      H   43            1S( 0.73)
      H   44            1S( 0.74)


 NBO analysis skipped by request.
 1\1\GINC-DRG2-W011\SP\RB3LYP TD-FC\6-31G(d,p)\C20H14F6N2O2\QDUEZ\22-Ju
 l-2024\0\\# TD(NStates=10, Root=1) B3LYP/6-31G** SCRF=(Solvent=water) 
 volume pop=NPA density=current Geom=AllCheck Guess=Read\\LACZRKUWKHQVK
 S-UHFFFAOYSA-N_conf_1\\0,1\N,0,-7.098462504,-2.4089208669,-0.584292395
 6\C,0,-5.9749755708,-1.7179250485,-0.1431736259\C,0,-4.8790059599,-2.4
 010446084,0.4176591078\C,0,-3.7332591151,-1.7149594342,0.804857205\C,0
 ,-3.6465488414,-0.3333937678,0.6363840351\O,0,-2.5477049104,0.37524752
 01,1.0999986396\C,0,-1.3177278697,0.1937931904,0.4863566736\C,0,-1.173
 946044,-0.2263739434,-0.8384785346\C,0,0.1011797364,-0.3352830793,-1.3
 902487723\C,0,1.2274284032,-0.0248891367,-0.6253192144\O,0,2.453426700
 4,-0.2014832194,-1.2466339181\C,0,3.578996919,0.418693778,-0.723555369
 8\C,0,3.7479522822,1.7991496149,-0.8232902418\C,0,4.9184439635,2.39980
 7629,-0.3726938887\C,0,5.957169777,1.6294438753,0.1838644441\N,0,7.155
 6662214,2.2185656579,0.5705828266\C,0,5.7773209366,0.2386341037,0.2774
 840289\C,0,4.5990703757,-0.3624423679,-0.1657532842\C,0,4.4224204126,-
 1.8521790603,-0.0526974247\F,0,3.3088206935,-2.1788307448,0.6479803255
 \F,0,4.3077587668,-2.447916176,-1.2630925266\F,0,5.4647395578,-2.44311
 84053,0.5748740405\C,0,1.0836174966,0.3963156576,0.6988325661\C,0,-0.1
 922741055,0.504199464,1.2508902478\C,0,-4.7246609246,0.3615129148,0.07
 41250842\C,0,-4.6364443273,1.8516471482,-0.1115631336\F,0,-3.564025897
 6,2.2050840151,-0.8618804906\F,0,-5.7284851851,2.353731844,-0.73208479
 85\F,0,-4.5199916048,2.5102810035,1.0656859869\C,0,-5.8786099917,-0.32
 52371035,-0.3047762793\H,0,-7.9483732556,-1.8628394508,-0.6374906229\H
 ,0,-7.2584124209,-3.3014542551,-0.1356245027\H,0,-4.9328454607,-3.4768
 440556,0.5570645334\H,0,-2.8994348769,-2.2476605098,1.2500197573\H,0,-
 2.0462025478,-0.4582934919,-1.4383034273\H,0,0.2325135802,-0.657364582
 ,-2.4179122083\H,0,2.9562524442,2.3994156889,-1.259316646\H,0,5.037302
 553,3.4759587182,-0.4587613831\H,0,7.0962896645,3.1996844988,0.8096556
 665\H,0,7.69213639,1.7006284983,1.2541560445\H,0,6.5610474009,-0.37750
 27031,0.7032374647\H,0,1.9548447678,0.6299059482,1.299255717\H,0,-0.32
 3178792,0.8261833595,2.2786333488\H,0,-6.7072578374,0.2250218825,-0.73
 58240549\\Version=ES64L-G16RevA.03\State=1-A\HF=-1629.5958637\RMSD=4.3
 11e-09\Dipole=-0.253254,-0.0109801,0.9626855\Quadrupole=30.2643957,-12
 .2329913,-18.0314044,40.8846727,14.4202674,0.9208347\PG=C01 [X(C20H14F
 6N2O2)]\\@


 ERWIN WITH HIS PSI CAN DO
 CALCULATIONS QUITE A FEW.
 BUT ONE THING HAS NOT BEEN SEEN
 JUST WHAT DOES PSI REALLY MEAN.
 -- WALTER HUCKEL, TRANS. BY FELIX BLOCH
 Job cpu time:       0 days  2 hours 17 minutes 57.7 seconds.
 Elapsed time:       0 days  0 hours 19 minutes 47.9 seconds.
 File lengths (MBytes):  RWF=   2323 Int=      0 D2E=      0 Chk=    133 Scr=      1
 Normal termination of Gaussian 16 at Mon Jul 22 19:17:59 2024.
