 Entering Gaussian System, Link 0=g16
 Initial command:
 /opt/sw/arch/manual/gaussian/G16_A03/g16/l1.exe "/scratch/1380878/Gau-89629.inp" -scrdir="/scratch/1380878/"
 Entering Link 1 = /opt/sw/arch/manual/gaussian/G16_A03/g16/l1.exe PID=     89630.
  
 Copyright (c) 1988,1990,1992,1993,1995,1998,2003,2009,2016,
            Gaussian, Inc.  All Rights Reserved.
  
 This is part of the Gaussian(R) 16 program.  It is based on
 the Gaussian(R) 09 system (copyright 2009, Gaussian, Inc.),
 the Gaussian(R) 03 system (copyright 2003, Gaussian, Inc.),
 the Gaussian(R) 98 system (copyright 1998, Gaussian, Inc.),
 the Gaussian(R) 94 system (copyright 1995, Gaussian, Inc.),
 the Gaussian 92(TM) system (copyright 1992, Gaussian, Inc.),
 the Gaussian 90(TM) system (copyright 1990, Gaussian, Inc.),
 the Gaussian 88(TM) system (copyright 1988, Gaussian, Inc.),
 the Gaussian 86(TM) system (copyright 1986, Carnegie Mellon
 University), and the Gaussian 82(TM) system (copyright 1983,
 Carnegie Mellon University). Gaussian is a federally registered
 trademark of Gaussian, Inc.
  
 This software contains proprietary and confidential information,
 including trade secrets, belonging to Gaussian, Inc.
  
 This software is provided under written license and may be
 used, copied, transmitted, or stored only in accord with that
 written license.
  
 The following legend is applicable only to US Government
 contracts under FAR:
  
                    RESTRICTED RIGHTS LEGEND
  
 Use, reproduction and disclosure by the US Government is
 subject to restrictions as set forth in subparagraphs (a)
 and (c) of the Commercial Computer Software - Restricted
 Rights clause in FAR 52.227-19.
  
 Gaussian, Inc.
 340 Quinnipiac St., Bldg. 40, Wallingford CT 06492
  
  
 ---------------------------------------------------------------
 Warning -- This program may not be used in any manner that
 competes with the business of Gaussian, Inc. or will provide
 assistance to any competitor of Gaussian, Inc.  The licensee
 of this program is prohibited from giving any competitor of
 Gaussian, Inc. access to this program.  By using this program,
 the user acknowledges that Gaussian, Inc. is engaged in the
 business of creating and licensing software in the field of
 computational chemistry and represents and warrants to the
 licensee that it is not a competitor of Gaussian, Inc. and that
 it will not use this program in any manner prohibited above.
 ---------------------------------------------------------------
  

 Cite this work as:
 Gaussian 16, Revision A.03,
 M. J. Frisch, G. W. Trucks, H. B. Schlegel, G. E. Scuseria, 
 M. A. Robb, J. R. Cheeseman, G. Scalmani, V. Barone, 
 G. A. Petersson, H. Nakatsuji, X. Li, M. Caricato, A. V. Marenich, 
 J. Bloino, B. G. Janesko, R. Gomperts, B. Mennucci, H. P. Hratchian, 
 J. V. Ortiz, A. F. Izmaylov, J. L. Sonnenberg, D. Williams-Young, 
 F. Ding, F. Lipparini, F. Egidi, J. Goings, B. Peng, A. Petrone, 
 T. Henderson, D. Ranasinghe, V. G. Zakrzewski, J. Gao, N. Rega, 
 G. Zheng, W. Liang, M. Hada, M. Ehara, K. Toyota, R. Fukuda, 
 J. Hasegawa, M. Ishida, T. Nakajima, Y. Honda, O. Kitao, H. Nakai, 
 T. Vreven, K. Throssell, J. A. Montgomery, Jr., J. E. Peralta, 
 F. Ogliaro, M. J. Bearpark, J. J. Heyd, E. N. Brothers, K. N. Kudin, 
 V. N. Staroverov, T. A. Keith, R. Kobayashi, J. Normand, 
 K. Raghavachari, A. P. Rendell, J. C. Burant, S. S. Iyengar, 
 J. Tomasi, M. Cossi, J. M. Millam, M. Klene, C. Adamo, R. Cammi, 
 J. W. Ochterski, R. L. Martin, K. Morokuma, O. Farkas, 
 J. B. Foresman, and D. J. Fox, Gaussian, Inc., Wallingford CT, 2016.
 
 ******************************************
 Gaussian 16:  ES64L-G16RevA.03 25-Dec-2016
                18-Jul-2024 
 ******************************************
 %nprocshared=6
 Will use up to    6 processors via shared memory.
 %mem=12GB
 %Chk=JCEZOHLWDIONSP-UHFFFAOYSA-N_conf_1_0.chk
 -------------------------------------------------------
 # opt=CalcFc B3LYP/6-31G** SCRF=(Solvent=water) scf=xqc
 -------------------------------------------------------
 1/10=4,18=20,19=15,26=3,38=1/1,3;
 2/9=110,12=2,17=6,18=5,40=1/2;
 3/5=1,6=6,7=101,11=2,25=1,30=1,70=2201,71=2,72=1,74=-5,140=1/1,2,3;
 4//1;
 5/5=2,8=3,13=1,38=5,53=1/2,8;
 8/6=4,10=90,11=11/1;
 11/6=1,8=1,9=11,15=111,16=1/1,2,10;
 10/6=1,13=1/2;
 6/7=2,8=2,9=2,10=2,28=1/1;
 7/10=1,18=20,25=1/1,2,3,16;
 1/10=4,18=20,19=15,26=3/3(2);
 2/9=110/2;
 99//99;
 2/9=110/2;
 3/5=1,6=6,7=101,11=2,25=1,30=1,70=2205,71=1,72=1,74=-5/1,2,3;
 4/5=5,16=3,69=1/1;
 5/5=2,8=3,13=1,38=5,53=1/2,8;
 7//1,2,3,16;
 1/18=20,19=15,26=3/3(-5);
 2/9=110/2;
 6/7=2,8=2,9=2,10=2,19=2,28=1/1;
 99/9=1/99;
 ----------------------------------
 JCEZOHLWDIONSP-UHFFFAOYSA-N_conf_1
 ----------------------------------
 Symbolic Z-matrix:
 Charge =  0 Multiplicity = 1
 N                     6.93193   0.05779  -0.44251 
 C                     6.01982   0.51819   0.6029 
 C                     4.88479   1.3791    0.04752 
 C                     3.94281   0.64479  -0.90167 
 O                     3.36314  -0.46866  -0.22552 
 C                     2.46032  -1.22518  -1.03922 
 C                     1.07185  -0.58505  -1.14277 
 O                     0.42583  -0.63563   0.13324 
 C                    -0.83398   0.03418   0.15485 
 C                    -1.95992  -0.83711  -0.40551 
 O                    -3.2194   -0.16398  -0.39234 
 C                    -3.86901  -0.21447   0.87634 
 C                    -5.2229    0.48326   0.77554 
 C                    -6.16593  -0.24209  -0.18476 
 N                    -7.47251   0.41147  -0.23449 
 H                     7.71281  -0.42844  -0.00152 
 H                     6.45709  -0.65187  -1.00074 
 H                     5.62384  -0.34384   1.15068 
 H                     6.59301   1.11717   1.31939 
 H                     5.29904   2.25723  -0.46244 
 H                     4.30207   1.74855   0.90081 
 H                     4.48034   0.29944  -1.79153 
 H                     3.15772   1.33689  -1.22224 
 H                     2.36701  -2.20662  -0.56217 
 H                     2.89444  -1.37589  -2.03401 
 H                     1.14595   0.45659  -1.46888 
 H                     0.47672  -1.14691  -1.86931 
 H                    -1.04396   0.27323   1.20217 
 H                    -0.77948   0.99639  -0.36858 
 H                    -1.74672  -1.0817   -1.45091 
 H                    -2.01943  -1.79629   0.12302 
 H                    -4.00303  -1.25739   1.18577 
 H                    -3.25838   0.2995    1.62548 
 H                    -5.67213   0.53262   1.77469 
 H                    -5.07427   1.51254   0.42571 
 H                    -5.74669  -0.26581  -1.19614 
 H                    -6.30498  -1.28044   0.13516 
 H                    -7.35665   1.37092  -0.55976 
 H                    -7.86117   0.47754   0.70504 
 

 GradGradGradGradGradGradGradGradGradGradGradGradGradGradGradGradGradGrad
 Berny optimization.
 Initialization pass.
                           ----------------------------
                           !    Initial Parameters    !
                           ! (Angstroms and Degrees)  !
 --------------------------                            --------------------------
 ! Name  Definition              Value          Derivative Info.                !
 --------------------------------------------------------------------------------
 ! R1    R(1,2)                  1.4618         calculate D2E/DX2 analytically  !
 ! R2    R(1,16)                 1.0201         calculate D2E/DX2 analytically  !
 ! R3    R(1,17)                 1.0202         calculate D2E/DX2 analytically  !
 ! R4    R(2,3)                  1.529          calculate D2E/DX2 analytically  !
 ! R5    R(2,18)                 1.0954         calculate D2E/DX2 analytically  !
 ! R6    R(2,19)                 1.0958         calculate D2E/DX2 analytically  !
 ! R7    R(3,4)                  1.5256         calculate D2E/DX2 analytically  !
 ! R8    R(3,20)                 1.0967         calculate D2E/DX2 analytically  !
 ! R9    R(3,21)                 1.0973         calculate D2E/DX2 analytically  !
 ! R10   R(4,5)                  1.4258         calculate D2E/DX2 analytically  !
 ! R11   R(4,22)                 1.0955         calculate D2E/DX2 analytically  !
 ! R12   R(4,23)                 1.0946         calculate D2E/DX2 analytically  !
 ! R13   R(5,6)                  1.4316         calculate D2E/DX2 analytically  !
 ! R14   R(6,7)                  1.5324         calculate D2E/DX2 analytically  !
 ! R15   R(6,24)                 1.0952         calculate D2E/DX2 analytically  !
 ! R16   R(6,25)                 1.0958         calculate D2E/DX2 analytically  !
 ! R17   R(7,8)                  1.4311         calculate D2E/DX2 analytically  !
 ! R18   R(7,26)                 1.094          calculate D2E/DX2 analytically  !
 ! R19   R(7,27)                 1.0944         calculate D2E/DX2 analytically  !
 ! R20   R(8,9)                  1.427          calculate D2E/DX2 analytically  !
 ! R21   R(9,10)                 1.53           calculate D2E/DX2 analytically  !
 ! R22   R(9,28)                 1.0946         calculate D2E/DX2 analytically  !
 ! R23   R(9,29)                 1.0967         calculate D2E/DX2 analytically  !
 ! R24   R(10,11)                1.4281         calculate D2E/DX2 analytically  !
 ! R25   R(10,30)                1.0946         calculate D2E/DX2 analytically  !
 ! R26   R(10,31)                1.0968         calculate D2E/DX2 analytically  !
 ! R27   R(11,12)                1.4262         calculate D2E/DX2 analytically  !
 ! R28   R(12,13)                1.5264         calculate D2E/DX2 analytically  !
 ! R29   R(12,32)                1.0961         calculate D2E/DX2 analytically  !
 ! R30   R(12,33)                1.0946         calculate D2E/DX2 analytically  !
 ! R31   R(13,14)                1.5289         calculate D2E/DX2 analytically  !
 ! R32   R(13,34)                1.0966         calculate D2E/DX2 analytically  !
 ! R33   R(13,35)                1.0972         calculate D2E/DX2 analytically  !
 ! R34   R(14,15)                1.4618         calculate D2E/DX2 analytically  !
 ! R35   R(14,36)                1.0951         calculate D2E/DX2 analytically  !
 ! R36   R(14,37)                1.0954         calculate D2E/DX2 analytically  !
 ! R37   R(15,38)                1.0197         calculate D2E/DX2 analytically  !
 ! R38   R(15,39)                1.0189         calculate D2E/DX2 analytically  !
 ! A1    A(2,1,16)             108.5781         calculate D2E/DX2 analytically  !
 ! A2    A(2,1,17)             108.6628         calculate D2E/DX2 analytically  !
 ! A3    A(16,1,17)            105.1461         calculate D2E/DX2 analytically  !
 ! A4    A(1,2,3)              112.3807         calculate D2E/DX2 analytically  !
 ! A5    A(1,2,18)             109.5923         calculate D2E/DX2 analytically  !
 ! A6    A(1,2,19)             108.2643         calculate D2E/DX2 analytically  !
 ! A7    A(3,2,18)             110.8776         calculate D2E/DX2 analytically  !
 ! A8    A(3,2,19)             108.5444         calculate D2E/DX2 analytically  !
 ! A9    A(18,2,19)            106.9946         calculate D2E/DX2 analytically  !
 ! A10   A(2,3,4)              114.4144         calculate D2E/DX2 analytically  !
 ! A11   A(2,3,20)             109.8362         calculate D2E/DX2 analytically  !
 ! A12   A(2,3,21)             107.5366         calculate D2E/DX2 analytically  !
 ! A13   A(4,3,20)             109.2269         calculate D2E/DX2 analytically  !
 ! A14   A(4,3,21)             108.5398         calculate D2E/DX2 analytically  !
 ! A15   A(20,3,21)            107.0123         calculate D2E/DX2 analytically  !
 ! A16   A(3,4,5)              109.3807         calculate D2E/DX2 analytically  !
 ! A17   A(3,4,22)             110.7418         calculate D2E/DX2 analytically  !
 ! A18   A(3,4,23)             108.7076         calculate D2E/DX2 analytically  !
 ! A19   A(5,4,22)             109.7865         calculate D2E/DX2 analytically  !
 ! A20   A(5,4,23)             109.9413         calculate D2E/DX2 analytically  !
 ! A21   A(22,4,23)            108.2627         calculate D2E/DX2 analytically  !
 ! A22   A(4,5,6)              113.5475         calculate D2E/DX2 analytically  !
 ! A23   A(5,6,7)              112.8957         calculate D2E/DX2 analytically  !
 ! A24   A(5,6,24)             106.242          calculate D2E/DX2 analytically  !
 ! A25   A(5,6,25)             109.8053         calculate D2E/DX2 analytically  !
 ! A26   A(7,6,24)             109.061          calculate D2E/DX2 analytically  !
 ! A27   A(7,6,25)             110.797          calculate D2E/DX2 analytically  !
 ! A28   A(24,6,25)            107.8138         calculate D2E/DX2 analytically  !
 ! A29   A(6,7,8)              109.511          calculate D2E/DX2 analytically  !
 ! A30   A(6,7,26)             110.8859         calculate D2E/DX2 analytically  !
 ! A31   A(6,7,27)             108.8515         calculate D2E/DX2 analytically  !
 ! A32   A(8,7,26)             109.2691         calculate D2E/DX2 analytically  !
 ! A33   A(8,7,27)             109.1648         calculate D2E/DX2 analytically  !
 ! A34   A(26,7,27)            109.1329         calculate D2E/DX2 analytically  !
 ! A35   A(7,8,9)              113.2936         calculate D2E/DX2 analytically  !
 ! A36   A(8,9,10)             112.1391         calculate D2E/DX2 analytically  !
 ! A37   A(8,9,28)             106.6406         calculate D2E/DX2 analytically  !
 ! A38   A(8,9,29)             111.1451         calculate D2E/DX2 analytically  !
 ! A39   A(10,9,28)            109.4895         calculate D2E/DX2 analytically  !
 ! A40   A(10,9,29)            111.1859         calculate D2E/DX2 analytically  !
 ! A41   A(28,9,29)            105.9363         calculate D2E/DX2 analytically  !
 ! A42   A(9,10,11)            112.1615         calculate D2E/DX2 analytically  !
 ! A43   A(9,10,30)            109.4932         calculate D2E/DX2 analytically  !
 ! A44   A(9,10,31)            111.19           calculate D2E/DX2 analytically  !
 ! A45   A(11,10,30)           106.6131         calculate D2E/DX2 analytically  !
 ! A46   A(11,10,31)           111.0945         calculate D2E/DX2 analytically  !
 ! A47   A(30,10,31)           105.9851         calculate D2E/DX2 analytically  !
 ! A48   A(10,11,12)           113.1544         calculate D2E/DX2 analytically  !
 ! A49   A(11,12,13)           109.2123         calculate D2E/DX2 analytically  !
 ! A50   A(11,12,32)           109.907          calculate D2E/DX2 analytically  !
 ! A51   A(11,12,33)           109.7594         calculate D2E/DX2 analytically  !
 ! A52   A(13,12,32)           110.1895         calculate D2E/DX2 analytically  !
 ! A53   A(13,12,33)           108.9868         calculate D2E/DX2 analytically  !
 ! A54   A(32,12,33)           108.7697         calculate D2E/DX2 analytically  !
 ! A55   A(12,13,14)           111.8201         calculate D2E/DX2 analytically  !
 ! A56   A(12,13,34)           108.8901         calculate D2E/DX2 analytically  !
 ! A57   A(12,13,35)           109.2504         calculate D2E/DX2 analytically  !
 ! A58   A(14,13,34)           109.9351         calculate D2E/DX2 analytically  !
 ! A59   A(14,13,35)           109.168          calculate D2E/DX2 analytically  !
 ! A60   A(34,13,35)           107.6838         calculate D2E/DX2 analytically  !
 ! A61   A(13,14,15)           111.1351         calculate D2E/DX2 analytically  !
 ! A62   A(13,14,36)           110.7458         calculate D2E/DX2 analytically  !
 ! A63   A(13,14,37)           110.1557         calculate D2E/DX2 analytically  !
 ! A64   A(15,14,36)           108.6909         calculate D2E/DX2 analytically  !
 ! A65   A(15,14,37)           108.6807         calculate D2E/DX2 analytically  !
 ! A66   A(36,14,37)           107.3254         calculate D2E/DX2 analytically  !
 ! A67   A(14,15,38)           109.2672         calculate D2E/DX2 analytically  !
 ! A68   A(14,15,39)           109.7903         calculate D2E/DX2 analytically  !
 ! A69   A(38,15,39)           106.0493         calculate D2E/DX2 analytically  !
 ! D1    D(16,1,2,3)           174.3995         calculate D2E/DX2 analytically  !
 ! D2    D(16,1,2,18)          -61.8448         calculate D2E/DX2 analytically  !
 ! D3    D(16,1,2,19)           54.5255         calculate D2E/DX2 analytically  !
 ! D4    D(17,1,2,3)           -71.7427         calculate D2E/DX2 analytically  !
 ! D5    D(17,1,2,18)           52.013          calculate D2E/DX2 analytically  !
 ! D6    D(17,1,2,19)          168.3834         calculate D2E/DX2 analytically  !
 ! D7    D(1,2,3,4)             64.0335         calculate D2E/DX2 analytically  !
 ! D8    D(1,2,3,20)           -59.2106         calculate D2E/DX2 analytically  !
 ! D9    D(1,2,3,21)          -175.3262         calculate D2E/DX2 analytically  !
 ! D10   D(18,2,3,4)           -59.0036         calculate D2E/DX2 analytically  !
 ! D11   D(18,2,3,20)          177.7523         calculate D2E/DX2 analytically  !
 ! D12   D(18,2,3,21)           61.6367         calculate D2E/DX2 analytically  !
 ! D13   D(19,2,3,4)          -176.2554         calculate D2E/DX2 analytically  !
 ! D14   D(19,2,3,20)           60.5006         calculate D2E/DX2 analytically  !
 ! D15   D(19,2,3,21)          -55.615          calculate D2E/DX2 analytically  !
 ! D16   D(2,3,4,5)             58.6178         calculate D2E/DX2 analytically  !
 ! D17   D(2,3,4,22)           -62.5095         calculate D2E/DX2 analytically  !
 ! D18   D(2,3,4,23)           178.6728         calculate D2E/DX2 analytically  !
 ! D19   D(20,3,4,5)          -177.8105         calculate D2E/DX2 analytically  !
 ! D20   D(20,3,4,22)           61.0623         calculate D2E/DX2 analytically  !
 ! D21   D(20,3,4,23)          -57.7555         calculate D2E/DX2 analytically  !
 ! D22   D(21,3,4,5)           -61.4649         calculate D2E/DX2 analytically  !
 ! D23   D(21,3,4,22)          177.4079         calculate D2E/DX2 analytically  !
 ! D24   D(21,3,4,23)           58.5901         calculate D2E/DX2 analytically  !
 ! D25   D(3,4,5,6)           -179.9412         calculate D2E/DX2 analytically  !
 ! D26   D(22,4,5,6)           -58.2365         calculate D2E/DX2 analytically  !
 ! D27   D(23,4,5,6)            60.763          calculate D2E/DX2 analytically  !
 ! D28   D(4,5,6,7)            -80.0907         calculate D2E/DX2 analytically  !
 ! D29   D(4,5,6,24)           160.4191         calculate D2E/DX2 analytically  !
 ! D30   D(4,5,6,25)            44.0861         calculate D2E/DX2 analytically  !
 ! D31   D(5,6,7,8)            -67.4234         calculate D2E/DX2 analytically  !
 ! D32   D(5,6,7,26)            53.2364         calculate D2E/DX2 analytically  !
 ! D33   D(5,6,7,27)           173.3013         calculate D2E/DX2 analytically  !
 ! D34   D(24,6,7,8)            50.4261         calculate D2E/DX2 analytically  !
 ! D35   D(24,6,7,26)          171.0859         calculate D2E/DX2 analytically  !
 ! D36   D(24,6,7,27)          -68.8493         calculate D2E/DX2 analytically  !
 ! D37   D(25,6,7,8)           168.9457         calculate D2E/DX2 analytically  !
 ! D38   D(25,6,7,26)          -70.3944         calculate D2E/DX2 analytically  !
 ! D39   D(25,6,7,27)           49.6704         calculate D2E/DX2 analytically  !
 ! D40   D(6,7,8,9)            175.3525         calculate D2E/DX2 analytically  !
 ! D41   D(26,7,8,9)            53.7149         calculate D2E/DX2 analytically  !
 ! D42   D(27,7,8,9)           -65.5655         calculate D2E/DX2 analytically  !
 ! D43   D(7,8,9,10)            81.6703         calculate D2E/DX2 analytically  !
 ! D44   D(7,8,9,28)          -158.4926         calculate D2E/DX2 analytically  !
 ! D45   D(7,8,9,29)           -43.4774         calculate D2E/DX2 analytically  !
 ! D46   D(8,9,10,11)         -179.6108         calculate D2E/DX2 analytically  !
 ! D47   D(8,9,10,30)          -61.4683         calculate D2E/DX2 analytically  !
 ! D48   D(8,9,10,31)           55.3106         calculate D2E/DX2 analytically  !
 ! D49   D(28,9,10,11)          62.2288         calculate D2E/DX2 analytically  !
 ! D50   D(28,9,10,30)        -179.6287         calculate D2E/DX2 analytically  !
 ! D51   D(28,9,10,31)         -62.8499         calculate D2E/DX2 analytically  !
 ! D52   D(29,9,10,11)         -54.4855         calculate D2E/DX2 analytically  !
 ! D53   D(29,9,10,30)          63.657          calculate D2E/DX2 analytically  !
 ! D54   D(29,9,10,31)        -179.5642         calculate D2E/DX2 analytically  !
 ! D55   D(9,10,11,12)         -81.9823         calculate D2E/DX2 analytically  !
 ! D56   D(30,10,11,12)        158.1806         calculate D2E/DX2 analytically  !
 ! D57   D(31,10,11,12)         43.1489         calculate D2E/DX2 analytically  !
 ! D58   D(10,11,12,13)       -177.9052         calculate D2E/DX2 analytically  !
 ! D59   D(10,11,12,32)        -56.9143         calculate D2E/DX2 analytically  !
 ! D60   D(10,11,12,33)         62.6704         calculate D2E/DX2 analytically  !
 ! D61   D(11,12,13,14)         64.0729         calculate D2E/DX2 analytically  !
 ! D62   D(11,12,13,34)       -174.2469         calculate D2E/DX2 analytically  !
 ! D63   D(11,12,13,35)        -56.8876         calculate D2E/DX2 analytically  !
 ! D64   D(32,12,13,14)        -56.7458         calculate D2E/DX2 analytically  !
 ! D65   D(32,12,13,34)         64.9344         calculate D2E/DX2 analytically  !
 ! D66   D(32,12,13,35)       -177.7063         calculate D2E/DX2 analytically  !
 ! D67   D(33,12,13,14)       -176.0257         calculate D2E/DX2 analytically  !
 ! D68   D(33,12,13,34)        -54.3455         calculate D2E/DX2 analytically  !
 ! D69   D(33,12,13,35)         63.0138         calculate D2E/DX2 analytically  !
 ! D70   D(12,13,14,15)        178.0245         calculate D2E/DX2 analytically  !
 ! D71   D(12,13,14,36)        -61.0567         calculate D2E/DX2 analytically  !
 ! D72   D(12,13,14,37)         57.5146         calculate D2E/DX2 analytically  !
 ! D73   D(34,13,14,15)         56.9482         calculate D2E/DX2 analytically  !
 ! D74   D(34,13,14,36)        177.8669         calculate D2E/DX2 analytically  !
 ! D75   D(34,13,14,37)        -63.5618         calculate D2E/DX2 analytically  !
 ! D76   D(35,13,14,15)        -60.9672         calculate D2E/DX2 analytically  !
 ! D77   D(35,13,14,36)         59.9516         calculate D2E/DX2 analytically  !
 ! D78   D(35,13,14,37)        178.5229         calculate D2E/DX2 analytically  !
 ! D79   D(13,14,15,38)         60.3855         calculate D2E/DX2 analytically  !
 ! D80   D(13,14,15,39)        -55.529          calculate D2E/DX2 analytically  !
 ! D81   D(36,14,15,38)        -61.7343         calculate D2E/DX2 analytically  !
 ! D82   D(36,14,15,39)       -177.6488         calculate D2E/DX2 analytically  !
 ! D83   D(37,14,15,38)       -178.2372         calculate D2E/DX2 analytically  !
 ! D84   D(37,14,15,39)         65.8482         calculate D2E/DX2 analytically  !
 --------------------------------------------------------------------------------
 Trust Radius=3.00D-01 FncErr=1.00D-07 GrdErr=1.00D-06 EigMax=2.50D+02 EigMin=1.00D-04
 Number of steps in this run=    201 maximum allowed number of steps=    234.
 GradGradGradGradGradGradGradGradGradGradGradGradGradGradGradGradGradGrad

                          Input orientation:                          
 ---------------------------------------------------------------------
 Center     Atomic      Atomic             Coordinates (Angstroms)
 Number     Number       Type             X           Y           Z
 ---------------------------------------------------------------------
      1          7           0        6.931934    0.057789   -0.442512
      2          6           0        6.019824    0.518194    0.602901
      3          6           0        4.884793    1.379095    0.047518
      4          6           0        3.942808    0.644788   -0.901674
      5          8           0        3.363143   -0.468658   -0.225516
      6          6           0        2.460318   -1.225180   -1.039219
      7          6           0        1.071854   -0.585047   -1.142773
      8          8           0        0.425830   -0.635633    0.133238
      9          6           0       -0.833978    0.034175    0.154849
     10          6           0       -1.959923   -0.837109   -0.405512
     11          8           0       -3.219399   -0.163984   -0.392341
     12          6           0       -3.869012   -0.214469    0.876340
     13          6           0       -5.222903    0.483260    0.775538
     14          6           0       -6.165932   -0.242088   -0.184763
     15          7           0       -7.472513    0.411467   -0.234495
     16          1           0        7.712814   -0.428440   -0.001524
     17          1           0        6.457088   -0.651869   -1.000737
     18          1           0        5.623840   -0.343843    1.150681
     19          1           0        6.593010    1.117169    1.319391
     20          1           0        5.299041    2.257228   -0.462438
     21          1           0        4.302070    1.748545    0.900809
     22          1           0        4.480337    0.299440   -1.791526
     23          1           0        3.157722    1.336888   -1.222243
     24          1           0        2.367013   -2.206625   -0.562169
     25          1           0        2.894444   -1.375890   -2.034010
     26          1           0        1.145950    0.456587   -1.468878
     27          1           0        0.476716   -1.146907   -1.869311
     28          1           0       -1.043957    0.273235    1.202174
     29          1           0       -0.779485    0.996395   -0.368576
     30          1           0       -1.746717   -1.081700   -1.450914
     31          1           0       -2.019435   -1.796291    0.123022
     32          1           0       -4.003025   -1.257393    1.185770
     33          1           0       -3.258380    0.299505    1.625480
     34          1           0       -5.672131    0.532622    1.774690
     35          1           0       -5.074269    1.512538    0.425710
     36          1           0       -5.746688   -0.265812   -1.196139
     37          1           0       -6.304981   -1.280442    0.135156
     38          1           0       -7.356648    1.370921   -0.559759
     39          1           0       -7.861175    0.477541    0.705043
 ---------------------------------------------------------------------
                    Distance matrix (angstroms):
                    1          2          3          4          5
     1  N    0.000000
     2  C    1.461782   0.000000
     3  C    2.485310   1.529018   0.000000
     4  C    3.080629   2.567834   1.525617   0.000000
     5  O    3.613932   2.952644   2.409182   1.425821   0.000000
     6  C    4.690141   4.290222   3.720393   2.390288   1.431619
     7  C    5.936678   5.361616   4.451196   3.132571   2.470812
     8  O    6.568235   5.731027   4.893754   3.883253   2.963848
     9  C    7.788889   6.885466   5.875770   4.930190   4.244214
    10  C    8.936853   8.156600   7.208810   6.106098   5.338838
    11  O   10.153879   9.317678   8.261507   7.225700   6.591701
    12  C   10.884573   9.919710   8.936190   8.057554   7.320025
    13  C   12.223123  11.244107  10.173399   9.319302   8.696461
    14  C   13.103834  12.234831  11.171424  10.172863   9.531855
    15  N   14.410290  13.518720  12.398341  11.437182  10.871346
    16  H    1.020129   2.031664   3.356678   4.021819   4.355619
    17  H    1.020152   2.032708   2.774124   2.830678   3.194844
    18  H    2.100163   1.095433   2.175241   2.831152   2.649575
    19  H    2.083617   1.095751   2.145757   3.489963   3.915817
    20  H    2.739392   2.163034   1.096711   2.152268   3.351759
    21  H    3.402845   2.133821   1.097345   2.143897   2.658229
    22  H    2.808659   2.855023   2.170558   1.095463   2.071349
    23  H    4.060635   3.491854   2.144027   1.094590   2.072597
    24  H    5.097097   4.703728   4.423610   3.275508   2.031290
    25  H    4.570518   4.506536   3.985498   2.542518   2.076873
    26  H    5.889829   5.296293   4.138771   2.859992   2.705176
    27  H    6.719888   6.293683   5.430107   4.019986   3.390214
    28  H    8.146549   7.093387   6.140541   5.425132   4.691614
    29  H    7.768682   6.884987   5.692419   4.765277   4.396386
    30  H    8.811032   8.191275   7.230334   5.971023   5.290377
    31  H    9.158845   8.379547   7.599812   6.523589   5.554839
    32  H   11.133478  10.195585   9.340236   8.432792   7.541503
    33  H   10.400842   9.336946   8.364612   7.639557   6.918152
    34  H   12.806401  11.750537  10.730717   9.981110   9.308037
    35  H   12.125140  11.139974   9.967134   9.155469   8.691327
    36  H   12.705122  11.929042  10.829626   9.736644   9.163639
    37  H   13.316925  12.464137  11.501820  10.478488   9.708846
    38  H   14.349273  13.453956  12.256497  11.327924  10.881621
    39  H   14.843489  13.881435  12.794719  11.914005  11.302502
                    6          7          8          9         10
     6  C    0.000000
     7  C    1.532425   0.000000
     8  O    2.421025   1.431122   0.000000
     9  C    3.723461   2.387353   1.426964   0.000000
    10  C    4.482267   3.130298   2.454111   1.529998   0.000000
    11  O    5.814101   4.376676   3.713001   2.455385   1.428128
    12  C    6.689642   5.350355   4.378955   3.129505   2.382319
    13  C    8.077375   6.666720   5.794191   4.455288   3.712854
    14  C    8.724033   7.308964   6.611151   5.349896   4.253621
    15  N   10.098877   8.650100   7.975931   6.660637   5.654807
    16  H    5.412977   6.740127   7.291174   8.560731   9.689791
    17  H    4.037863   5.387521   6.136956   7.413884   8.440064
    18  H    3.947188   5.102812   5.304681   6.545074   7.757481
    19  H    5.303658   6.280363   6.520229   7.595340   8.941318
    20  H    4.529701   5.139114   5.698391   6.552628   7.891181
    21  H    3.999850   4.478412   4.615052   5.465758   6.899612
    22  H    2.640248   3.580636   4.584551   5.665747   6.685038
    23  H    2.661590   2.837427   3.631996   4.418949   5.619929
    24  H    1.095225   2.155007   2.592258   3.972612   4.541199
    25  H    1.095805   2.177515   3.367343   4.547584   5.148512
    26  H    2.177271   1.093999   2.068403   2.595194   3.528576
    27  H    2.151710   1.094410   2.067412   2.685162   2.859351
    28  H    4.421429   3.272932   2.031979   1.094592   2.157895
    29  H    3.985157   2.554955   2.090003   1.096727   2.180949
    30  H    4.229564   2.878534   2.725522   2.157949   1.094599
    31  H    4.663170   3.553226   2.706760   2.181038   1.096777
    32  H    6.835672   5.623928   4.594471   3.574046   2.623563
    33  H    6.490669   5.215034   4.083463   2.847960   2.665109
    34  H    8.783204   7.432503   6.422173   5.126407   4.517735
    35  H    8.149301   6.680930   5.911959   4.498776   3.988850
    36  H    8.264379   6.826220   6.324871   5.103908   3.910379
    37  H    8.843792   7.518934   6.761626   5.626764   4.400953
    38  H   10.165748   8.672102   8.066812   6.696474   5.832994
    39  H   10.605419   9.183819   8.380964   7.062633   6.147065
                   11         12         13         14         15
    11  O    0.000000
    12  C    1.426217   0.000000
    13  C    2.407674   1.526436   0.000000
    14  C    2.954868   2.530325   1.528925   0.000000
    15  N    4.294769   3.822430   2.466996   1.461767   0.000000
    16  H   10.942392  11.617018  12.991065  13.881206  15.210321
    17  H    9.707861  10.504431  11.868692  12.656001  13.991125
    18  H    8.978649   9.497696  10.884698  11.865601  13.191045
    19  H   10.042647  10.555731  11.845396  12.919004  14.168681
    20  H    8.856128   9.589307  10.742014  11.737517  12.906254
    21  H    7.867814   8.403606   9.609461  10.710749  11.904516
    22  H    7.839542   8.780275  10.038748  10.780444  12.054357
    23  H    6.603713   7.495715   8.657637   9.513151  10.716060
    24  H    5.950565   6.702686   8.162828   8.764302  10.187151
    25  H    6.445376   7.454084   8.788704   9.316417  10.672708
    26  H    4.538756   5.576755   6.752807   7.456588   8.706529
    27  H    4.099858   5.224307   6.491403   6.912392   8.263861
    28  H    2.732432   2.885300   4.205914   5.331395   6.588585
    29  H    2.701893   3.544176   4.616955   5.530049   6.719877
    30  H    2.032627   3.266854   4.414755   4.673067   6.041024
    31  H    2.090441   2.547663   3.985516   4.438887   5.893902
    32  H    2.073656   1.096083   2.164778   2.754518   4.103608
    33  H    2.070735   1.094647   2.148375   3.467587   4.607707
    34  H    3.346218   2.148585   1.096607   2.164133   2.700533
    35  H    2.630680   2.153663   1.097217   2.154789   2.720258
    36  H    2.653988   2.797047   2.173240   1.095085   2.088526
    37  H    3.323484   2.760362   2.166017   1.095383   2.088620
    38  H    4.415970   4.091387   2.669050   2.039663   1.019693
    39  H    4.812680   4.055316   2.639220   2.045353   1.018899
                   16         17         18         19         20
    16  H    0.000000
    17  H    1.620246   0.000000
    18  H    2.387162   2.327613   0.000000
    19  H    2.321138   2.920782   1.761337   0.000000
    20  H    3.640268   3.177056   3.077859   2.479719   0.000000
    21  H    4.145677   3.744592   2.487488   2.412935   1.763846
    22  H    3.766009   2.331926   3.221490   3.848360   2.503934
    23  H    5.035415   3.858761   3.812789   4.278947   2.451445
    24  H    5.661612   4.397535   4.124407   5.696220   5.341603
    25  H    5.314635   3.779456   4.319373   5.580326   4.631574
    26  H    6.786759   5.445734   5.249217   6.154777   4.637176
    27  H    7.507725   6.063360   6.021474   7.259677   6.068134
    28  H    8.866920   7.872376   6.696488   7.684350   6.851335
    29  H    8.618817   7.448784   6.716171   7.564225   6.208622
    30  H    9.592194   8.227382   7.850977   9.058734   7.859277
    31  H    9.828692   8.626932   7.847633   9.170265   8.386529
    32  H   11.804986  10.703337   9.670178  10.859667  10.079563
    33  H   11.115040  10.109027   8.918137   9.890002   9.023388
    34  H   13.536444  12.498958  11.347094  12.287501  11.328973
    35  H   12.940611  11.819120  10.882154  11.708133  10.437861
    36  H   13.513391  12.211444  11.610451  12.669202  11.353950
    37  H   14.044328  12.827928  12.008550  13.172286  12.146010
    38  H   15.186770  13.968014  13.204510  14.077945  12.687059
    39  H   15.616311  14.463675  13.517355  14.481368  13.331226
                   21         22         23         24         25
    21  H    0.000000
    22  H    3.062736   0.000000
    23  H    2.446701   1.774737   0.000000
    24  H    4.639841   3.501117   3.690176   0.000000
    25  H    4.511837   2.319609   2.843844   1.770485   0.000000
    26  H    4.152790   3.353645   2.209747   3.066890   2.595107
    27  H    5.539905   4.257576   3.711566   2.530780   2.434126
    28  H    5.554041   6.283371   4.966212   4.571360   5.357565
    29  H    5.291433   5.493292   4.043053   4.494136   4.679654
    30  H    7.080163   6.387469   5.473150   4.356385   4.686888
    31  H    7.289187   7.092575   6.199153   4.458563   5.382910
    32  H    8.836938   9.124443   7.987810   6.673359   7.612891
    33  H    7.732093   8.459531   7.095917   6.535406   7.352282
    34  H   10.085971  10.763125   9.359206   8.808644   9.567383
    35  H    9.391334   9.883230   8.397159   8.377395   8.825736
    36  H   10.460993  10.259924   9.047532   8.366649   8.752340
    37  H   11.057600  11.069382   9.911392   8.749146   9.452185
    38  H   11.755916  11.949039  10.535274  10.360908  10.714628
    39  H   12.231039  12.592755  11.219135  10.650183  11.252597
                   26         27         28         29         30
    26  H    0.000000
    27  H    1.783091   0.000000
    28  H    3.458877   3.709888   0.000000
    29  H    2.282401   2.902410   1.749332   0.000000
    30  H    3.276304   2.263395   3.060816   2.534852   0.000000
    31  H    4.198722   3.259119   2.529637   3.094874   1.749940
    32  H    6.041260   5.423449   3.331542   4.229275   3.474752
    33  H    5.384964   5.315694   2.254672   3.256813   3.695545
    34  H    7.550678   7.342198   4.670658   5.361591   5.330988
    35  H    6.587535   6.569109   4.287445   4.398007   4.617835
    36  H    6.935756   6.321411   5.306426   5.191449   4.090276
    37  H    7.817069   7.072985   5.588453   5.997403   4.830413
    38  H    8.599806   8.331624   6.645253   6.590591   6.187151
    39  H    9.265779   8.876178   6.838372   7.181379   6.668282
                   31         32         33         34         35
    31  H    0.000000
    32  H    2.313974   0.000000
    33  H    2.860896   1.780947   0.000000
    34  H    4.636166   2.517319   2.429568   0.000000
    35  H    4.513533   3.065578   2.491656   1.771276   0.000000
    36  H    4.239690   3.114015   3.804313   3.077155   2.499014
    37  H    4.316498   2.530478   3.741534   2.525029   3.065911
    38  H    6.243658   4.604529   4.766445   2.998332   2.490072
    39  H    6.295633   4.257513   4.697300   2.437026   2.985982
                   36         37         38         39
    36  H    0.000000
    37  H    1.764515   0.000000
    38  H    2.382403   2.935752   0.000000
    39  H    2.939068   2.415992   1.628619   0.000000
 Stoichiometry    C10H24N2O3
 Framework group  C1[X(C10H24N2O3)]
 Deg. of freedom   111
 Full point group                 C1      NOp   1
 Largest Abelian subgroup         C1      NOp   1
 Largest concise Abelian subgroup C1      NOp   1
                         Standard orientation:                         
 ---------------------------------------------------------------------
 Center     Atomic      Atomic             Coordinates (Angstroms)
 Number     Number       Type             X           Y           Z
 ---------------------------------------------------------------------
      1          7           0        6.919007    0.022577    0.025708
      2          6           0        5.977283   -0.975302   -0.478475
      3          6           0        4.877025   -1.300479    0.532262
      4          6           0        3.958225   -0.128366    0.863119
      5          8           0        3.336707    0.337764   -0.332457
      6          6           0        2.451789    1.443544   -0.123404
      7          6           0        1.078440    1.016381    0.405528
      8          8           0        0.386054    0.276427   -0.605008
      9          6           0       -0.862780   -0.252440   -0.161231
     10          6           0       -1.981632    0.789824   -0.213666
     11          8           0       -3.229776    0.263539    0.238783
     12          6           0       -3.925481   -0.471945   -0.765784
     13          6           0       -5.263457   -0.946503   -0.204874
     14          6           0       -6.182756    0.225405    0.140282
     15          7           0       -7.476013   -0.246267    0.631986
     16          1           0        7.675543    0.126475   -0.650695
     17          1           0        6.453267    0.929978    0.046169
     18          1           0        5.547978   -0.629891   -1.425239
     19          1           0        6.533794   -1.893944   -0.695413
     20          1           0        5.323474   -1.682042    1.458474
     21          1           0        4.269902   -2.111523    0.110629
     22          1           0        4.521896    0.686646    1.330099
     23          1           0        3.196449   -0.468564    1.571702
     24          1           0        2.325559    1.923684   -1.099646
     25          1           0        2.919055    2.170866    0.549985
     26          1           0        1.180995    0.396036    1.300787
     27          1           0        0.500952    1.912187    0.654071
     28          1           0       -1.106550   -1.083861   -0.830145
     29          1           0       -0.773966   -0.688499    0.841154
     30          1           0       -1.734795    1.624387    0.450205
     31          1           0       -2.075594    1.220391   -1.218008
     32          1           0       -4.087326    0.160261   -1.646420
     33          1           0       -3.334098   -1.344101   -1.062198
     34          1           0       -5.747601   -1.596534   -0.943530
     35          1           0       -5.085764   -1.543216    0.698587
     36          1           0       -5.727720    0.863058    0.905496
     37          1           0       -6.349938    0.847599   -0.745600
     38          1           0       -7.333072   -0.802795    1.474373
     39          1           0       -7.897217   -0.873320   -0.051788
 ---------------------------------------------------------------------
 Rotational constants (GHZ):           2.4972045           0.1137724           0.1119480
 Standard basis: 6-31G(d,p) (6D, 7F)
 There are   345 symmetry adapted cartesian basis functions of A   symmetry.
 There are   345 symmetry adapted basis functions of A   symmetry.
   345 basis functions,   588 primitive gaussians,   345 cartesian basis functions
    61 alpha electrons       61 beta electrons
       nuclear repulsion energy      1005.4180979451 Hartrees.
 NAtoms=   39 NActive=   39 NUniq=   39 SFac= 1.00D+00 NAtFMM=   60 NAOKFM=F Big=F
 Integral buffers will be    131072 words long.
 Raffenetti 2 integral format.
 Two-electron integral symmetry is turned on.
 Force inversion solution in PCM.
 ------------------------------------------------------------------------------
 Polarizable Continuum Model (PCM)
 =================================
 Model                : PCM.
 Atomic radii         : UFF (Universal Force Field).
 Polarization charges : Total charges.
 Charge compensation  : None.
 Solution method      : Matrix inversion.
 Cavity type          : Scaled VdW (van der Waals Surface) (Alpha=1.100).
 Cavity algorithm     : GePol (No added spheres)
                        Default sphere list used, NSphG=   39.
                        Lebedev-Laikov grids with approx.  5.0 points / Ang**2.
                        Smoothing algorithm: York/Karplus (Gamma=1.0000).
                        Polarization charges: spherical gaussians, with
                                              point-specific exponents (IZeta= 3).
                        Self-potential: point-specific (ISelfS= 7).
                        Self-field    : sphere-specific E.n sum rule (ISelfD= 2).
 1st derivatives      : Analytical E(r).r(x)/FMM algorithm (CHGder, D1EAlg=3).
                        Cavity 1st derivative terms included.
 2nd derivatives      : Analytical E(r).r(xy)/FMM algorithm (CHGder, D2EAlg=3).
                        Cavity 2nd derivative terms included.
 Solvent              : Water, Eps=  78.355300 Eps(inf)=   1.777849
 ------------------------------------------------------------------------------
 One-electron integrals computed using PRISM.
 NBasis=   345 RedAO= T EigKep=  3.08D-03  NBF=   345
 NBsUse=   345 1.00D-06 EigRej= -1.00D+00 NBFU=   345
 ExpMin= 1.61D-01 ExpMax= 5.48D+03 ExpMxC= 8.25D+02 IAcc=3 IRadAn=         5 AccDes= 0.00D+00
 Harris functional with IExCor=  402 and IRadAn=       5 diagonalized for initial guess.
 HarFok:  IExCor=  402 AccDes= 0.00D+00 IRadAn=         5 IDoV= 1 UseB2=F ITyADJ=14
 ICtDFT=  3500011 ScaDFX=  1.000000  1.000000  1.000000  1.000000
 FoFCou: FMM=F IPFlag=           0 FMFlag=      100000 FMFlg1=           0
         NFxFlg=           0 DoJE=T BraDBF=F KetDBF=T FulRan=T
         wScrn=  0.000000 ICntrl=       500 IOpCl=  0 I1Cent=   200000004 NGrid=           0
         NMat0=    1 NMatS0=      1 NMatT0=    0 NMatD0=    1 NMtDS0=    0 NMtDT0=    0
 Petite list used in FoFCou.
 Requested convergence on RMS density matrix=1.00D-08 within  32 cycles.
 Requested convergence on MAX density matrix=1.00D-06.
 Requested convergence on             energy=1.00D-06.
 No special actions if energy rises.
 Inv3:  Mode=1 IEnd=    22260528.
 Iteration    1 A*A^-1 deviation from unit magnitude is 3.11D-15 for    222.
 Iteration    1 A*A^-1 deviation from orthogonality  is 2.76D-15 for    887    460.
 Iteration    1 A^-1*A deviation from unit magnitude is 3.00D-15 for   1087.
 Iteration    1 A^-1*A deviation from orthogonality  is 2.26D-14 for   2574   2556.
 Error on total polarization charges =  0.01132
 SCF Done:  E(RB3LYP) =  -730.676017845     A.U. after   11 cycles
            NFock= 11  Conv=0.54D-08     -V/T= 2.0092
 QCSCF skips out because SCF is already converged.
 DoSCS=F DFT=T ScalE2(SS,OS)=  1.000000  1.000000
 Range of M.O.s used for correlation:     1   345
 NBasis=   345 NAE=    61 NBE=    61 NFC=     0 NFV=     0
 NROrb=    345 NOA=    61 NOB=    61 NVA=   284 NVB=   284
 Symmetrizing basis deriv contribution to polar:
 IMax=3 JMax=2 DiffMx= 0.00D+00
 G2DrvN: will do    40 centers at a time, making    1 passes.
 Calling FoFCou, ICntrl=  3107 FMM=F I1Cent=   0 AccDes= 0.00D+00.
 NEqPCM:  Using equilibrium solvation (IEInf=0, Eps=  78.3553, EpsInf=   1.7778)
 G2PCM: DoFxE=T DoFxN=T DoGrad=T DoDP/DQ/DG/TGxP=FFFF NFrqRd=   0 IEInf=0 SqF1=F DoCFld=F IF1Alg=4.
 End of G2Drv F.D. properties file   721 does not exist.
 End of G2Drv F.D. properties file   722 does not exist.
 End of G2Drv F.D. properties file   788 does not exist.
          IDoAtm=111111111111111111111111111111111111111
 NEqPCM:  Using equilibrium solvation (IEInf=0, Eps=  78.3553, EpsInf=   1.7778)
          Differentiating once with respect to nuclear coordinates.
 CalDSu exits because no D1Ps are significant.
          There are   120 degrees of freedom in the 1st order CPHF.  IDoFFX=6 NUNeed=     0.
    114 vectors produced by pass  0 Test12= 1.73D-14 1.00D-09 XBig12= 9.31D-02 7.97D-02.
 AX will form   114 AO Fock derivatives at one time.
    114 vectors produced by pass  1 Test12= 1.73D-14 1.00D-09 XBig12= 6.16D-03 2.01D-02.
    114 vectors produced by pass  2 Test12= 1.73D-14 1.00D-09 XBig12= 8.60D-05 1.69D-03.
    114 vectors produced by pass  3 Test12= 1.73D-14 1.00D-09 XBig12= 2.83D-07 5.43D-05.
    114 vectors produced by pass  4 Test12= 1.73D-14 1.00D-09 XBig12= 2.43D-10 1.64D-06.
     52 vectors produced by pass  5 Test12= 1.73D-14 1.00D-09 XBig12= 1.54D-13 3.61D-08.
      3 vectors produced by pass  6 Test12= 1.73D-14 1.00D-09 XBig12= 1.07D-16 1.23D-09.
 InvSVY:  IOpt=1 It=  1 EMax= 4.16D-16
 Solved reduced A of dimension   625 with   120 vectors.
 End of Minotr F.D. properties file   721 does not exist.
 End of Minotr F.D. properties file   722 does not exist.
 End of Minotr F.D. properties file   788 does not exist.

 **********************************************************************

            Population analysis using the SCF density.

 **********************************************************************

 Orbital symmetries:
       Occupied  (A) (A) (A) (A) (A) (A) (A) (A) (A) (A) (A) (A)
                 (A) (A) (A) (A) (A) (A) (A) (A) (A) (A) (A) (A)
                 (A) (A) (A) (A) (A) (A) (A) (A) (A) (A) (A) (A)
                 (A) (A) (A) (A) (A) (A) (A) (A) (A) (A) (A) (A)
                 (A) (A) (A) (A) (A) (A) (A) (A) (A) (A) (A) (A)
                 (A)
       Virtual   (A) (A) (A) (A) (A) (A) (A) (A) (A) (A) (A) (A)
                 (A) (A) (A) (A) (A) (A) (A) (A) (A) (A) (A) (A)
                 (A) (A) (A) (A) (A) (A) (A) (A) (A) (A) (A) (A)
                 (A) (A) (A) (A) (A) (A) (A) (A) (A) (A) (A) (A)
                 (A) (A) (A) (A) (A) (A) (A) (A) (A) (A) (A) (A)
                 (A) (A) (A) (A) (A) (A) (A) (A) (A) (A) (A) (A)
                 (A) (A) (A) (A) (A) (A) (A) (A) (A) (A) (A) (A)
                 (A) (A) (A) (A) (A) (A) (A) (A) (A) (A) (A) (A)
                 (A) (A) (A) (A) (A) (A) (A) (A) (A) (A) (A) (A)
                 (A) (A) (A) (A) (A) (A) (A) (A) (A) (A) (A) (A)
                 (A) (A) (A) (A) (A) (A) (A) (A) (A) (A) (A) (A)
                 (A) (A) (A) (A) (A) (A) (A) (A) (A) (A) (A) (A)
                 (A) (A) (A) (A) (A) (A) (A) (A) (A) (A) (A) (A)
                 (A) (A) (A) (A) (A) (A) (A) (A) (A) (A) (A) (A)
                 (A) (A) (A) (A) (A) (A) (A) (A) (A) (A) (A) (A)
                 (A) (A) (A) (A) (A) (A) (A) (A) (A) (A) (A) (A)
                 (A) (A) (A) (A) (A) (A) (A) (A) (A) (A) (A) (A)
                 (A) (A) (A) (A) (A) (A) (A) (A) (A) (A) (A) (A)
                 (A) (A) (A) (A) (A) (A) (A) (A) (A) (A) (A) (A)
                 (A) (A) (A) (A) (A) (A) (A) (A) (A) (A) (A) (A)
                 (A) (A) (A) (A) (A) (A) (A) (A) (A) (A) (A) (A)
                 (A) (A) (A) (A) (A) (A) (A) (A) (A) (A) (A) (A)
                 (A) (A) (A) (A) (A) (A) (A) (A) (A) (A) (A) (A)
                 (A) (A) (A) (A) (A) (A) (A) (A)
 The electronic state is 1-A.
 Alpha  occ. eigenvalues --  -19.15135 -19.15034 -19.14783 -14.30664 -14.30622
 Alpha  occ. eigenvalues --  -10.23326 -10.23150 -10.22921 -10.22866 -10.22664
 Alpha  occ. eigenvalues --  -10.22615 -10.19987 -10.19903 -10.17927 -10.17696
 Alpha  occ. eigenvalues --   -1.03602  -1.02795  -1.01924  -0.87599  -0.87555
 Alpha  occ. eigenvalues --   -0.77963  -0.76830  -0.74391  -0.70840  -0.66552
 Alpha  occ. eigenvalues --   -0.65191  -0.61998  -0.59906  -0.58277  -0.56772
 Alpha  occ. eigenvalues --   -0.50889  -0.50007  -0.49677  -0.49356  -0.48214
 Alpha  occ. eigenvalues --   -0.47759  -0.46680  -0.45646  -0.44544  -0.44527
 Alpha  occ. eigenvalues --   -0.43111  -0.42456  -0.40982  -0.40227  -0.39239
 Alpha  occ. eigenvalues --   -0.38654  -0.37336  -0.37229  -0.36281  -0.34454
 Alpha  occ. eigenvalues --   -0.34273  -0.34222  -0.33612  -0.32915  -0.31287
 Alpha  occ. eigenvalues --   -0.30559  -0.27639  -0.25534  -0.24358  -0.23288
 Alpha  occ. eigenvalues --   -0.22820
 Alpha virt. eigenvalues --    0.07064   0.08538   0.09047   0.09741   0.11103
 Alpha virt. eigenvalues --    0.11611   0.12224   0.12690   0.12784   0.13255
 Alpha virt. eigenvalues --    0.13971   0.14552   0.15109   0.15847   0.16320
 Alpha virt. eigenvalues --    0.16490   0.17538   0.18045   0.18857   0.19543
 Alpha virt. eigenvalues --    0.19718   0.20131   0.20209   0.20456   0.21146
 Alpha virt. eigenvalues --    0.22332   0.22607   0.24042   0.24436   0.24829
 Alpha virt. eigenvalues --    0.25091   0.25861   0.26380   0.26621   0.26941
 Alpha virt. eigenvalues --    0.27955   0.28103   0.29703   0.50298   0.50675
 Alpha virt. eigenvalues --    0.51407   0.52101   0.52599   0.52984   0.54246
 Alpha virt. eigenvalues --    0.54772   0.55363   0.55629   0.57172   0.57493
 Alpha virt. eigenvalues --    0.58034   0.58878   0.59393   0.61923   0.62236
 Alpha virt. eigenvalues --    0.63673   0.65065   0.65800   0.67516   0.67713
 Alpha virt. eigenvalues --    0.68274   0.69258   0.70374   0.71753   0.72617
 Alpha virt. eigenvalues --    0.74117   0.75642   0.76551   0.77089   0.78295
 Alpha virt. eigenvalues --    0.79207   0.79659   0.81642   0.82942   0.83645
 Alpha virt. eigenvalues --    0.83819   0.84677   0.85703   0.86075   0.86425
 Alpha virt. eigenvalues --    0.86989   0.88581   0.89181   0.89658   0.89970
 Alpha virt. eigenvalues --    0.90777   0.91682   0.92064   0.92410   0.93773
 Alpha virt. eigenvalues --    0.94234   0.94937   0.95469   0.96095   0.96657
 Alpha virt. eigenvalues --    0.97874   0.98980   0.99720   1.00801   1.02238
 Alpha virt. eigenvalues --    1.03156   1.05276   1.09682   1.10770   1.13120
 Alpha virt. eigenvalues --    1.14373   1.16610   1.19307   1.21510   1.24110
 Alpha virt. eigenvalues --    1.27308   1.29029   1.29303   1.32304   1.33685
 Alpha virt. eigenvalues --    1.36835   1.37196   1.40354   1.40724   1.42994
 Alpha virt. eigenvalues --    1.44166   1.46106   1.48391   1.49745   1.51458
 Alpha virt. eigenvalues --    1.54244   1.56170   1.57380   1.58457   1.61110
 Alpha virt. eigenvalues --    1.63166   1.64441   1.65578   1.71571   1.71618
 Alpha virt. eigenvalues --    1.72971   1.73152   1.75175   1.76258   1.78005
 Alpha virt. eigenvalues --    1.79347   1.80381   1.81991   1.82870   1.83135
 Alpha virt. eigenvalues --    1.83658   1.86745   1.88445   1.89971   1.90180
 Alpha virt. eigenvalues --    1.92532   1.93451   1.95218   1.96124   1.97300
 Alpha virt. eigenvalues --    1.97410   1.97733   1.99171   1.99886   2.00150
 Alpha virt. eigenvalues --    2.01025   2.01580   2.01668   2.04686   2.05022
 Alpha virt. eigenvalues --    2.06588   2.07858   2.08984   2.09486   2.10493
 Alpha virt. eigenvalues --    2.12475   2.13153   2.13936   2.14403   2.17237
 Alpha virt. eigenvalues --    2.17714   2.20083   2.21618   2.21741   2.22601
 Alpha virt. eigenvalues --    2.23177   2.25422   2.25968   2.26353   2.27275
 Alpha virt. eigenvalues --    2.28201   2.28978   2.29853   2.32565   2.33628
 Alpha virt. eigenvalues --    2.34607   2.34680   2.35319   2.35810   2.39086
 Alpha virt. eigenvalues --    2.39648   2.40295   2.41752   2.45015   2.45605
 Alpha virt. eigenvalues --    2.48561   2.51059   2.53683   2.56603   2.56847
 Alpha virt. eigenvalues --    2.58807   2.60492   2.60867   2.61593   2.63579
 Alpha virt. eigenvalues --    2.65124   2.65923   2.66462   2.67214   2.68233
 Alpha virt. eigenvalues --    2.69822   2.70954   2.72122   2.73321   2.73965
 Alpha virt. eigenvalues --    2.75022   2.76548   2.78126   2.78338   2.79358
 Alpha virt. eigenvalues --    2.80762   2.81599   2.82111   2.87128   2.87292
 Alpha virt. eigenvalues --    2.89439   2.90265   2.91378   2.92236   2.93074
 Alpha virt. eigenvalues --    2.93905   2.94229   2.94829   2.96955   2.97574
 Alpha virt. eigenvalues --    2.99429   2.99604   3.01613   3.03469   3.07379
 Alpha virt. eigenvalues --    3.23406   3.25674   3.26558   3.28614   3.29653
 Alpha virt. eigenvalues --    3.29744   3.30134   3.30606   3.31382   3.34257
 Alpha virt. eigenvalues --    3.34752   3.35663   3.37773   3.39601   3.40791
 Alpha virt. eigenvalues --    3.43876   3.47575   3.50134   3.52652   3.54364
 Alpha virt. eigenvalues --    3.54503   3.54973   3.56028   3.59212   3.88312
 Alpha virt. eigenvalues --    3.95387   4.00000   4.00849   4.09023   4.35233
 Alpha virt. eigenvalues --    4.35411   4.37741   4.39244   4.51690   4.55003
 Alpha virt. eigenvalues --    4.61151   4.65761   4.68661   4.69873
          Condensed to atoms (all electrons):
               1          2          3          4          5          6
     1  N    6.818022   0.293163  -0.057775  -0.004190  -0.001008  -0.000017
     2  C    0.293163   4.809567   0.362597  -0.038534   0.000995   0.000233
     3  C   -0.057775   0.362597   4.970550   0.381025  -0.048514   0.004830
     4  C   -0.004190  -0.038534   0.381025   4.748643   0.229962  -0.032187
     5  O   -0.001008   0.000995  -0.048514   0.229962   8.267723   0.246012
     6  C   -0.000017   0.000233   0.004830  -0.032187   0.246012   4.762299
     7  C   -0.000001   0.000021  -0.000125  -0.006995  -0.044043   0.350323
     8  O   -0.000000   0.000000  -0.000013   0.000242   0.002076  -0.040677
     9  C   -0.000000   0.000000  -0.000001  -0.000005  -0.000099   0.003691
    10  C   -0.000000   0.000000  -0.000000   0.000000   0.000000   0.000040
    11  O    0.000000  -0.000000   0.000000  -0.000000   0.000000   0.000000
    12  C    0.000000  -0.000000  -0.000000  -0.000000   0.000000   0.000000
    13  C    0.000000  -0.000000   0.000000   0.000000   0.000000  -0.000000
    14  C    0.000000   0.000000  -0.000000   0.000000   0.000000   0.000000
    15  N    0.000000   0.000000   0.000000   0.000000   0.000000  -0.000000
    16  H    0.339184  -0.033172   0.006241   0.000073  -0.000019  -0.000001
    17  H    0.337345  -0.037502  -0.007237   0.004859   0.001397   0.000081
    18  H   -0.051936   0.386647  -0.045689  -0.013276   0.009553  -0.000257
    19  H   -0.040914   0.387309  -0.031433   0.005043   0.000131   0.000004
    20  H    0.003587  -0.034391   0.363390  -0.034533   0.002930  -0.000171
    21  H    0.004400  -0.037365   0.367793  -0.035737   0.001257  -0.000080
    22  H    0.006256  -0.013191  -0.035694   0.364420  -0.042615  -0.009535
    23  H   -0.000130   0.006369  -0.036263   0.375394  -0.041881  -0.002844
    24  H    0.000001  -0.000008  -0.000245   0.005155  -0.036930   0.382845
    25  H    0.000010  -0.000117   0.000202  -0.010523  -0.032965   0.360950
    26  H   -0.000000  -0.000001  -0.000198   0.000720  -0.005023  -0.031578
    27  H    0.000000  -0.000000   0.000001   0.000263   0.003304  -0.031039
    28  H    0.000000  -0.000000   0.000000   0.000001   0.000008  -0.000233
    29  H    0.000000  -0.000000   0.000001  -0.000020  -0.000010   0.000227
    30  H    0.000000  -0.000000   0.000000  -0.000000  -0.000000  -0.000082
    31  H    0.000000  -0.000000   0.000000  -0.000000   0.000000  -0.000024
    32  H    0.000000  -0.000000   0.000000  -0.000000  -0.000000  -0.000000
    33  H   -0.000000   0.000000  -0.000000   0.000000   0.000000  -0.000000
    34  H    0.000000   0.000000  -0.000000  -0.000000  -0.000000  -0.000000
    35  H    0.000000  -0.000000   0.000000  -0.000000   0.000000  -0.000000
    36  H    0.000000   0.000000  -0.000000   0.000000   0.000000  -0.000000
    37  H    0.000000  -0.000000   0.000000   0.000000   0.000000  -0.000000
    38  H    0.000000   0.000000  -0.000000   0.000000   0.000000  -0.000000
    39  H    0.000000   0.000000   0.000000  -0.000000  -0.000000   0.000000
               7          8          9         10         11         12
     1  N   -0.000001  -0.000000  -0.000000  -0.000000   0.000000   0.000000
     2  C    0.000021   0.000000   0.000000   0.000000  -0.000000  -0.000000
     3  C   -0.000125  -0.000013  -0.000001  -0.000000   0.000000  -0.000000
     4  C   -0.006995   0.000242  -0.000005   0.000000  -0.000000  -0.000000
     5  O   -0.044043   0.002076  -0.000099   0.000000   0.000000   0.000000
     6  C    0.350323  -0.040677   0.003691   0.000040   0.000000   0.000000
     7  C    4.826627   0.232339  -0.034710  -0.005951   0.000077   0.000009
     8  O    0.232339   8.271906   0.220036  -0.034248   0.001367   0.000082
     9  C   -0.034710   0.220036   4.831670   0.329576  -0.034203  -0.006335
    10  C   -0.005951  -0.034248   0.329576   4.832181   0.218774  -0.033813
    11  O    0.000077   0.001367  -0.034203   0.218774   8.273522   0.229089
    12  C    0.000009   0.000082  -0.006335  -0.033813   0.229089   4.772990
    13  C    0.000000   0.000000   0.000011   0.003780  -0.046277   0.330443
    14  C   -0.000000  -0.000000   0.000010   0.000394  -0.000600  -0.034884
    15  N   -0.000000  -0.000000   0.000000   0.000003   0.000071   0.006011
    16  H   -0.000000   0.000000  -0.000000   0.000000   0.000000   0.000000
    17  H    0.000006  -0.000000   0.000000  -0.000000  -0.000000  -0.000000
    18  H    0.000012  -0.000000   0.000000  -0.000000   0.000000   0.000000
    19  H    0.000000  -0.000000   0.000000  -0.000000   0.000000   0.000000
    20  H    0.000006  -0.000000  -0.000000  -0.000000   0.000000   0.000000
    21  H   -0.000024   0.000004  -0.000000   0.000000   0.000000   0.000000
    22  H   -0.001568   0.000007  -0.000001  -0.000000   0.000000   0.000000
    23  H    0.003952   0.000082   0.000046   0.000000  -0.000000   0.000000
    24  H   -0.044383   0.000893  -0.000167  -0.000023   0.000000   0.000000
    25  H   -0.045868   0.002746  -0.000151   0.000003  -0.000000   0.000000
    26  H    0.367456  -0.040521  -0.011098  -0.001180   0.000025   0.000002
    27  H    0.351232  -0.044124  -0.000644   0.002324  -0.000174  -0.000002
    28  H    0.005576  -0.031302   0.388647  -0.046242   0.000767   0.001932
    29  H   -0.011722  -0.029653   0.364544  -0.049301   0.005639   0.000021
    30  H    0.002060   0.000750  -0.046629   0.388375  -0.031239   0.005473
    31  H   -0.000018   0.005582  -0.048675   0.364126  -0.029623  -0.010873
    32  H    0.000001   0.000022  -0.001036  -0.011388  -0.040395   0.371430
    33  H   -0.000003  -0.000174   0.001971  -0.000821  -0.043086   0.365903
    34  H    0.000000  -0.000000   0.000002  -0.000159   0.002827  -0.026835
    35  H    0.000000   0.000000  -0.000016  -0.000120   0.001150  -0.029030
    36  H   -0.000000  -0.000000   0.000010  -0.000135   0.009469  -0.004835
    37  H    0.000000   0.000000   0.000000  -0.000026  -0.000378  -0.000833
    38  H   -0.000000  -0.000000   0.000000   0.000000   0.000002   0.000118
    39  H    0.000000   0.000000  -0.000000   0.000000  -0.000001   0.000089
              13         14         15         16         17         18
     1  N    0.000000   0.000000   0.000000   0.339184   0.337345  -0.051936
     2  C   -0.000000   0.000000   0.000000  -0.033172  -0.037502   0.386647
     3  C    0.000000  -0.000000   0.000000   0.006241  -0.007237  -0.045689
     4  C    0.000000   0.000000   0.000000   0.000073   0.004859  -0.013276
     5  O    0.000000   0.000000   0.000000  -0.000019   0.001397   0.009553
     6  C   -0.000000   0.000000  -0.000000  -0.000001   0.000081  -0.000257
     7  C    0.000000  -0.000000  -0.000000  -0.000000   0.000006   0.000012
     8  O    0.000000  -0.000000  -0.000000   0.000000  -0.000000  -0.000000
     9  C    0.000011   0.000010   0.000000  -0.000000   0.000000   0.000000
    10  C    0.003780   0.000394   0.000003   0.000000  -0.000000  -0.000000
    11  O   -0.046277  -0.000600   0.000071   0.000000  -0.000000   0.000000
    12  C    0.330443  -0.034884   0.006011   0.000000  -0.000000   0.000000
    13  C    5.041784   0.374094  -0.070293   0.000000  -0.000000  -0.000000
    14  C    0.374094   4.796604   0.318633   0.000000   0.000000  -0.000000
    15  N   -0.070293   0.318633   6.766674   0.000000   0.000000   0.000000
    16  H    0.000000   0.000000   0.000000   0.476210  -0.031999  -0.002351
    17  H   -0.000000   0.000000   0.000000  -0.031999   0.483178  -0.007006
    18  H   -0.000000  -0.000000   0.000000  -0.002351  -0.007006   0.669511
    19  H   -0.000000   0.000000   0.000000  -0.005886   0.006838  -0.045476
    20  H   -0.000000  -0.000000   0.000000  -0.000072  -0.000496   0.006623
    21  H    0.000000  -0.000000   0.000000  -0.000245  -0.000186   0.000588
    22  H    0.000000  -0.000000   0.000000  -0.000206  -0.001035   0.000919
    23  H   -0.000000  -0.000000  -0.000000   0.000000   0.000031   0.000211
    24  H   -0.000000  -0.000000  -0.000000   0.000000  -0.000014   0.000001
    25  H   -0.000000   0.000000   0.000000   0.000001  -0.000018   0.000028
    26  H   -0.000000  -0.000000  -0.000000   0.000000   0.000000  -0.000000
    27  H   -0.000000   0.000000   0.000000   0.000000  -0.000000  -0.000000
    28  H   -0.000127  -0.000003  -0.000000   0.000000   0.000000  -0.000000
    29  H   -0.000020  -0.000000  -0.000000  -0.000000   0.000000   0.000000
    30  H   -0.000245  -0.000010  -0.000000  -0.000000   0.000000  -0.000000
    31  H    0.000247  -0.000125  -0.000000   0.000000  -0.000000  -0.000000
    32  H   -0.037155  -0.011986   0.000056  -0.000000   0.000000   0.000000
    33  H   -0.031892   0.005505  -0.000154  -0.000000  -0.000000  -0.000000
    34  H    0.370655  -0.036923  -0.001919   0.000000   0.000000   0.000000
    35  H    0.371899  -0.042430  -0.000422   0.000000   0.000000   0.000000
    36  H   -0.044135   0.388588  -0.035630   0.000000  -0.000000  -0.000000
    37  H   -0.049209   0.386269  -0.037551   0.000000   0.000000   0.000000
    38  H   -0.002750  -0.045641   0.347728   0.000000   0.000000   0.000000
    39  H   -0.002922  -0.045879   0.347640   0.000000   0.000000   0.000000
              19         20         21         22         23         24
     1  N   -0.040914   0.003587   0.004400   0.006256  -0.000130   0.000001
     2  C    0.387309  -0.034391  -0.037365  -0.013191   0.006369  -0.000008
     3  C   -0.031433   0.363390   0.367793  -0.035694  -0.036263  -0.000245
     4  C    0.005043  -0.034533  -0.035737   0.364420   0.375394   0.005155
     5  O    0.000131   0.002930   0.001257  -0.042615  -0.041881  -0.036930
     6  C    0.000004  -0.000171  -0.000080  -0.009535  -0.002844   0.382845
     7  C    0.000000   0.000006  -0.000024  -0.001568   0.003952  -0.044383
     8  O   -0.000000  -0.000000   0.000004   0.000007   0.000082   0.000893
     9  C    0.000000  -0.000000  -0.000000  -0.000001   0.000046  -0.000167
    10  C   -0.000000  -0.000000   0.000000  -0.000000   0.000000  -0.000023
    11  O    0.000000   0.000000   0.000000   0.000000  -0.000000   0.000000
    12  C    0.000000   0.000000   0.000000   0.000000   0.000000   0.000000
    13  C   -0.000000  -0.000000   0.000000   0.000000  -0.000000  -0.000000
    14  C    0.000000  -0.000000  -0.000000  -0.000000  -0.000000  -0.000000
    15  N    0.000000   0.000000   0.000000   0.000000  -0.000000  -0.000000
    16  H   -0.005886  -0.000072  -0.000245  -0.000206   0.000000   0.000000
    17  H    0.006838  -0.000496  -0.000186  -0.001035   0.000031  -0.000014
    18  H   -0.045476   0.006623   0.000588   0.000919   0.000211   0.000001
    19  H    0.634018  -0.005845  -0.004038  -0.000082  -0.000106  -0.000001
    20  H   -0.005845   0.624980  -0.028559   0.000428  -0.001124   0.000004
    21  H   -0.004038  -0.028559   0.631004   0.006846  -0.007999   0.000009
    22  H   -0.000082   0.000428   0.006846   0.674923  -0.056620   0.000297
    23  H   -0.000106  -0.001124  -0.007999  -0.056620   0.664403  -0.000292
    24  H   -0.000001   0.000004   0.000009   0.000297  -0.000292   0.607936
    25  H   -0.000000   0.000013   0.000043   0.013541  -0.001839  -0.033257
    26  H   -0.000000   0.000011   0.000011   0.000111   0.003610   0.005834
    27  H   -0.000000  -0.000000   0.000001   0.000070  -0.000481  -0.002304
    28  H   -0.000000   0.000000   0.000000   0.000000  -0.000002   0.000006
    29  H    0.000000  -0.000000   0.000000   0.000000  -0.000006   0.000053
    30  H    0.000000  -0.000000   0.000000   0.000000   0.000000   0.000016
    31  H   -0.000000  -0.000000   0.000000   0.000000  -0.000000   0.000025
    32  H    0.000000   0.000000   0.000000   0.000000   0.000000   0.000000
    33  H   -0.000000  -0.000000   0.000000   0.000000  -0.000000  -0.000000
    34  H    0.000000   0.000000  -0.000000  -0.000000   0.000000  -0.000000
    35  H    0.000000   0.000000   0.000000   0.000000   0.000000   0.000000
    36  H   -0.000000  -0.000000   0.000000  -0.000000  -0.000000  -0.000000
    37  H    0.000000   0.000000   0.000000   0.000000   0.000000   0.000000
    38  H    0.000000  -0.000000  -0.000000  -0.000000   0.000000  -0.000000
    39  H    0.000000   0.000000   0.000000   0.000000   0.000000   0.000000
              25         26         27         28         29         30
     1  N    0.000010  -0.000000   0.000000   0.000000   0.000000   0.000000
     2  C   -0.000117  -0.000001  -0.000000  -0.000000  -0.000000  -0.000000
     3  C    0.000202  -0.000198   0.000001   0.000000   0.000001   0.000000
     4  C   -0.010523   0.000720   0.000263   0.000001  -0.000020  -0.000000
     5  O   -0.032965  -0.005023   0.003304   0.000008  -0.000010  -0.000000
     6  C    0.360950  -0.031578  -0.031039  -0.000233   0.000227  -0.000082
     7  C   -0.045868   0.367456   0.351232   0.005576  -0.011722   0.002060
     8  O    0.002746  -0.040521  -0.044124  -0.031302  -0.029653   0.000750
     9  C   -0.000151  -0.011098  -0.000644   0.388647   0.364544  -0.046629
    10  C    0.000003  -0.001180   0.002324  -0.046242  -0.049301   0.388375
    11  O   -0.000000   0.000025  -0.000174   0.000767   0.005639  -0.031239
    12  C    0.000000   0.000002  -0.000002   0.001932   0.000021   0.005473
    13  C   -0.000000  -0.000000  -0.000000  -0.000127  -0.000020  -0.000245
    14  C    0.000000  -0.000000   0.000000  -0.000003  -0.000000  -0.000010
    15  N    0.000000  -0.000000   0.000000  -0.000000  -0.000000  -0.000000
    16  H    0.000001   0.000000   0.000000   0.000000  -0.000000  -0.000000
    17  H   -0.000018   0.000000  -0.000000   0.000000   0.000000   0.000000
    18  H    0.000028  -0.000000  -0.000000  -0.000000   0.000000  -0.000000
    19  H   -0.000000  -0.000000  -0.000000  -0.000000   0.000000   0.000000
    20  H    0.000013   0.000011  -0.000000   0.000000  -0.000000  -0.000000
    21  H    0.000043   0.000011   0.000001   0.000000   0.000000   0.000000
    22  H    0.013541   0.000111   0.000070   0.000000   0.000000   0.000000
    23  H   -0.001839   0.003610  -0.000481  -0.000002  -0.000006   0.000000
    24  H   -0.033257   0.005834  -0.002304   0.000006   0.000053   0.000016
    25  H    0.641160  -0.000838   0.003082   0.000003   0.000011   0.000000
    26  H   -0.000838   0.644389  -0.050651   0.000254   0.014139   0.000293
    27  H    0.003082  -0.050651   0.669223  -0.000289  -0.001562   0.000743
    28  H    0.000003   0.000254  -0.000289   0.613352  -0.041861   0.005746
    29  H    0.000011   0.014139  -0.001562  -0.041861   0.648454  -0.007051
    30  H    0.000000   0.000293   0.000743   0.005746  -0.007051   0.616044
    31  H    0.000000   0.000105   0.000003  -0.007161   0.006598  -0.042090
    32  H   -0.000000  -0.000000  -0.000000   0.000262   0.000092   0.000286
    33  H    0.000000  -0.000000  -0.000000   0.001430   0.000017  -0.000282
    34  H    0.000000  -0.000000   0.000000   0.000002   0.000000   0.000004
    35  H   -0.000000   0.000000  -0.000000   0.000018   0.000021   0.000008
    36  H    0.000000  -0.000000   0.000000  -0.000001   0.000001  -0.000026
    37  H    0.000000  -0.000000  -0.000000   0.000000   0.000000   0.000000
    38  H    0.000000  -0.000000   0.000000   0.000000  -0.000000   0.000000
    39  H   -0.000000   0.000000  -0.000000   0.000000  -0.000000   0.000000
              31         32         33         34         35         36
     1  N    0.000000   0.000000  -0.000000   0.000000   0.000000   0.000000
     2  C   -0.000000  -0.000000   0.000000   0.000000  -0.000000   0.000000
     3  C    0.000000   0.000000  -0.000000  -0.000000   0.000000  -0.000000
     4  C   -0.000000  -0.000000   0.000000  -0.000000  -0.000000   0.000000
     5  O    0.000000  -0.000000   0.000000  -0.000000   0.000000   0.000000
     6  C   -0.000024  -0.000000  -0.000000  -0.000000  -0.000000  -0.000000
     7  C   -0.000018   0.000001  -0.000003   0.000000   0.000000  -0.000000
     8  O    0.005582   0.000022  -0.000174  -0.000000   0.000000  -0.000000
     9  C   -0.048675  -0.001036   0.001971   0.000002  -0.000016   0.000010
    10  C    0.364126  -0.011388  -0.000821  -0.000159  -0.000120  -0.000135
    11  O   -0.029623  -0.040395  -0.043086   0.002827   0.001150   0.009469
    12  C   -0.010873   0.371430   0.365903  -0.026835  -0.029030  -0.004835
    13  C    0.000247  -0.037155  -0.031892   0.370655   0.371899  -0.044135
    14  C   -0.000125  -0.011986   0.005505  -0.036923  -0.042430   0.388588
    15  N   -0.000000   0.000056  -0.000154  -0.001919  -0.000422  -0.035630
    16  H    0.000000  -0.000000  -0.000000   0.000000   0.000000   0.000000
    17  H   -0.000000   0.000000  -0.000000   0.000000   0.000000  -0.000000
    18  H   -0.000000   0.000000  -0.000000   0.000000   0.000000  -0.000000
    19  H   -0.000000   0.000000  -0.000000   0.000000   0.000000  -0.000000
    20  H   -0.000000   0.000000  -0.000000   0.000000   0.000000  -0.000000
    21  H    0.000000   0.000000   0.000000  -0.000000   0.000000   0.000000
    22  H    0.000000   0.000000   0.000000  -0.000000   0.000000  -0.000000
    23  H   -0.000000   0.000000  -0.000000   0.000000   0.000000  -0.000000
    24  H    0.000025   0.000000  -0.000000  -0.000000   0.000000  -0.000000
    25  H    0.000000  -0.000000   0.000000   0.000000  -0.000000   0.000000
    26  H    0.000105  -0.000000  -0.000000  -0.000000   0.000000  -0.000000
    27  H    0.000003  -0.000000  -0.000000   0.000000  -0.000000   0.000000
    28  H   -0.007161   0.000262   0.001430   0.000002   0.000018  -0.000001
    29  H    0.006598   0.000092   0.000017   0.000000   0.000021   0.000001
    30  H   -0.042090   0.000286  -0.000282   0.000004   0.000008  -0.000026
    31  H    0.648792   0.013521  -0.001612   0.000014   0.000049   0.000048
    32  H    0.013521   0.666943  -0.056131  -0.000265   0.006529  -0.000003
    33  H   -0.001612  -0.056131   0.675694  -0.001765  -0.006768   0.000163
    34  H    0.000014  -0.000265  -0.001765   0.618678  -0.033559   0.005568
    35  H    0.000049   0.006529  -0.006768  -0.033559   0.624576  -0.005535
    36  H    0.000048  -0.000003   0.000163   0.005568  -0.005535   0.611120
    37  H    0.000012   0.006068  -0.000142  -0.005209   0.005921  -0.036723
    38  H   -0.000000   0.000015   0.000004  -0.000429   0.005353  -0.005937
    39  H   -0.000000   0.000016  -0.000010   0.005868  -0.000374   0.006270
              37         38         39
     1  N    0.000000   0.000000   0.000000
     2  C   -0.000000   0.000000   0.000000
     3  C    0.000000  -0.000000   0.000000
     4  C    0.000000   0.000000  -0.000000
     5  O    0.000000   0.000000  -0.000000
     6  C   -0.000000  -0.000000   0.000000
     7  C    0.000000  -0.000000   0.000000
     8  O    0.000000  -0.000000   0.000000
     9  C    0.000000   0.000000  -0.000000
    10  C   -0.000026   0.000000   0.000000
    11  O   -0.000378   0.000002  -0.000001
    12  C   -0.000833   0.000118   0.000089
    13  C   -0.049209  -0.002750  -0.002922
    14  C    0.386269  -0.045641  -0.045879
    15  N   -0.037551   0.347728   0.347640
    16  H    0.000000   0.000000   0.000000
    17  H    0.000000   0.000000   0.000000
    18  H    0.000000   0.000000   0.000000
    19  H    0.000000   0.000000   0.000000
    20  H    0.000000  -0.000000   0.000000
    21  H    0.000000  -0.000000   0.000000
    22  H    0.000000  -0.000000   0.000000
    23  H    0.000000   0.000000   0.000000
    24  H    0.000000  -0.000000   0.000000
    25  H    0.000000   0.000000  -0.000000
    26  H   -0.000000  -0.000000   0.000000
    27  H   -0.000000   0.000000  -0.000000
    28  H    0.000000   0.000000   0.000000
    29  H    0.000000  -0.000000  -0.000000
    30  H    0.000000   0.000000   0.000000
    31  H    0.000012  -0.000000  -0.000000
    32  H    0.006068   0.000015   0.000016
    33  H   -0.000142   0.000004  -0.000010
    34  H   -0.005209  -0.000429   0.005868
    35  H    0.005921   0.005353  -0.000374
    36  H   -0.036723  -0.005937   0.006270
    37  H    0.628520   0.006565  -0.004934
    38  H    0.006565   0.480699  -0.034342
    39  H   -0.004934  -0.034342   0.480565
 Mulliken charges:
               1
     1  N   -0.645998
     2  C   -0.052621
     3  C   -0.193444
     4  C    0.060200
     5  O   -0.512241
     6  C    0.037193
     7  C    0.055715
     8  O   -0.517423
     9  C    0.043556
    10  C    0.043832
    11  O   -0.516801
    12  C    0.063849
    13  C   -0.207888
    14  C   -0.051615
    15  N   -0.640846
    16  H    0.252238
    17  H    0.251757
    18  H    0.091899
    19  H    0.100437
    20  H    0.103221
    21  H    0.102275
    22  H    0.092727
    23  H    0.095487
    24  H    0.114549
    25  H    0.103784
    26  H    0.104131
    27  H    0.101027
    28  H    0.109216
    29  H    0.101391
    30  H    0.107860
    31  H    0.101079
    32  H    0.093118
    33  H    0.092154
    34  H    0.103444
    35  H    0.102731
    36  H    0.111726
    37  H    0.101650
    38  H    0.248615
    39  H    0.248015
 Sum of Mulliken charges =  -0.00000
 Mulliken charges with hydrogens summed into heavy atoms:
               1
     1  N   -0.142003
     2  C    0.139716
     3  C    0.012053
     4  C    0.248414
     5  O   -0.512241
     6  C    0.255526
     7  C    0.260872
     8  O   -0.517423
     9  C    0.254163
    10  C    0.252772
    11  O   -0.516801
    12  C    0.249121
    13  C   -0.001713
    14  C    0.161760
    15  N   -0.144216
 APT charges:
               1
     1  N   -1.366511
     2  C   -0.677083
     3  C   -0.593531
     4  C   -0.484820
     5  O   -0.395622
     6  C   -0.725001
     7  C   -0.410322
     8  O   -0.443039
     9  C   -0.455678
    10  C   -0.487926
    11  O   -0.406895
    12  C   -0.383487
    13  C   -0.695347
    14  C   -0.410952
    15  N   -1.309781
    16  H    1.246923
    17  H   -0.072458
    18  H    0.102411
    19  H    0.813188
    20  H    0.660780
    21  H    0.062181
    22  H    0.554973
    23  H    0.014447
    24  H    0.381978
    25  H    0.534930
    26  H    0.258659
    27  H    0.323674
    28  H    0.373809
    29  H    0.261071
    30  H    0.306201
    31  H    0.361078
    32  H    0.399741
    33  H    0.104683
    34  H    0.662731
    35  H    0.201896
    36  H    0.015024
    37  H    0.447374
    38  H    0.356635
    39  H    0.874064
 Sum of APT charges =  -0.00000
 APT charges with hydrogens summed into heavy atoms:
               1
     1  N   -0.192047
     2  C    0.238517
     3  C    0.129431
     4  C    0.084601
     5  O   -0.395622
     6  C    0.191907
     7  C    0.172011
     8  O   -0.443039
     9  C    0.179202
    10  C    0.179354
    11  O   -0.406895
    12  C    0.120937
    13  C    0.169280
    14  C    0.051445
    15  N   -0.079082
 Electronic spatial extent (au):  <R**2>=           9487.0729
 Charge=             -0.0000 electrons
 Dipole moment (field-independent basis, Debye):
    X=              0.1152    Y=             -0.2711    Z=             -0.3589  Tot=              0.4643
 Quadrupole moment (field-independent basis, Debye-Ang):
   XX=           -111.7111   YY=            -87.2274   ZZ=            -93.2330
   XY=             18.9308   XZ=              3.1120   YZ=             -0.5487
 Traceless Quadrupole moment (field-independent basis, Debye-Ang):
   XX=            -14.3206   YY=             10.1631   ZZ=              4.1575
   XY=             18.9308   XZ=              3.1120   YZ=             -0.5487
 Octapole moment (field-independent basis, Debye-Ang**2):
  XXX=            101.9518  YYY=              7.1236  ZZZ=              0.5989  XYY=              7.1686
  XXY=            -75.6521  XXZ=           -116.9890  XZZ=            -11.1883  YZZ=             -1.0085
  YYZ=             -0.6230  XYZ=              8.9095
 Hexadecapole moment (field-independent basis, Debye-Ang**3):
 XXXX=         -13245.2113 YYYY=           -496.9311 ZZZZ=           -291.0099 XXXY=            951.7691
 XXXZ=           -231.2237 YYYX=             34.2229 YYYZ=              0.7090 ZZZX=            -35.0360
 ZZZY=             -8.6344 XXYY=          -1864.4687 XXZZ=          -1929.4997 YYZZ=           -128.3506
 XXYZ=            -54.8774 YYXZ=             -9.0606 ZZXY=             21.9501
 N-N= 1.005418097945D+03 E-N=-3.713477937080D+03  KE= 7.239926295839D+02
  Exact polarizability:   0.000   0.000   0.000   0.000   0.000   0.000
 Approx polarizability: 181.405   5.700 171.537   1.939   0.455 171.121
 D2PCM: PCM CHGder 2nd derivatives, FixD1E=F FixD2E=F DoIter=F DoCFld=F I1PDM=0
 Calling FoFJK, ICntrl=    100147 FMM=F ISym2X=0 I1Cent= 0 IOpClX= 0 NMat=1 NMatS=1 NMatT=0.
 ***** Axes restored to original set *****
 -------------------------------------------------------------------
 Center     Atomic                   Forces (Hartrees/Bohr)
 Number     Number              X              Y              Z
 -------------------------------------------------------------------
      1        7           0.006803047    0.000757628   -0.008483116
      2        6           0.002327040   -0.003119191    0.002467437
      3        6          -0.001894446   -0.003259440    0.005886342
      4        6          -0.001127760    0.001825004    0.004676637
      5        8          -0.001222151   -0.003285886   -0.001032128
      6        6          -0.000987069    0.005618148    0.008810964
[...]
    92    C    7  S      Val( 2S)     1.03139
    93    C    7  S      Ryd( 3S)     0.00279
    94    C    7  S      Ryd( 4S)     0.00005
    95    C    7  px     Val( 2p)     1.00999
    96    C    7  px     Ryd( 3p)     0.00225
    97    C    7  py     Val( 2p)     1.07117
    98    C    7  py     Ryd( 3p)     0.00216
    99    C    7  pz     Val( 2p)     1.01220
   100    C    7  pz     Ryd( 3p)     0.00329
   101    C    7  dxy    Ryd( 3d)     0.00120
   102    C    7  dxz    Ryd( 3d)     0.00120
   103    C    7  dyz    Ryd( 3d)     0.00141
   104    C    7  dx2y2  Ryd( 3d)     0.00118
   105    C    7  dz2    Ryd( 3d)     0.00131

   106    O    8  S      Cor( 1S)     1.99980
   107    O    8  S      Val( 2S)     1.62148
   108    O    8  S      Ryd( 3S)     0.00197
   109    O    8  S      Ryd( 4S)     0.00008
   110    O    8  px     Val( 2p)     1.52019
   111    O    8  px     Ryd( 3p)     0.00203
   112    O    8  py     Val( 2p)     1.72851
   113    O    8  py     Ryd( 3p)     0.00221
   114    O    8  pz     Val( 2p)     1.71818
   115    O    8  pz     Ryd( 3p)     0.00200
   116    O    8  dxy    Ryd( 3d)     0.00063
   117    O    8  dxz    Ryd( 3d)     0.00121
   118    O    8  dyz    Ryd( 3d)     0.00124
   119    O    8  dx2y2  Ryd( 3d)     0.00045
   120    O    8  dz2    Ryd( 3d)     0.00141

   121    C    9  S      Cor( 1S)     1.99929
   122    C    9  S      Val( 2S)     1.03469
   123    C    9  S      Ryd( 3S)     0.00196
   124    C    9  S      Ryd( 4S)     0.00005
   125    C    9  px     Val( 2p)     0.79739
   126    C    9  px     Ryd( 3p)     0.00542
   127    C    9  py     Val( 2p)     1.09838
   128    C    9  py     Ryd( 3p)     0.00183
   129    C    9  pz     Val( 2p)     1.18798
   130    C    9  pz     Ryd( 3p)     0.00439
   131    C    9  dxy    Ryd( 3d)     0.00152
   132    C    9  dxz    Ryd( 3d)     0.00108
   133    C    9  dyz    Ryd( 3d)     0.00106
   134    C    9  dx2y2  Ryd( 3d)     0.00150
   135    C    9  dz2    Ryd( 3d)     0.00105

   136    C   10  S      Cor( 1S)     1.99929
   137    C   10  S      Val( 2S)     1.03513
   138    C   10  S      Ryd( 3S)     0.00198
   139    C   10  S      Ryd( 4S)     0.00005
   140    C   10  px     Val( 2p)     0.79515
   141    C   10  px     Ryd( 3p)     0.00526
   142    C   10  py     Val( 2p)     1.09701
   143    C   10  py     Ryd( 3p)     0.00177
   144    C   10  pz     Val( 2p)     1.18975
   145    C   10  pz     Ryd( 3p)     0.00446
   146    C   10  dxy    Ryd( 3d)     0.00153
   147    C   10  dxz    Ryd( 3d)     0.00107
   148    C   10  dyz    Ryd( 3d)     0.00106
   149    C   10  dx2y2  Ryd( 3d)     0.00150
   150    C   10  dz2    Ryd( 3d)     0.00104

   151    O   11  S      Cor( 1S)     1.99979
   152    O   11  S      Val( 2S)     1.62106
   153    O   11  S      Ryd( 3S)     0.00170
   154    O   11  S      Ryd( 4S)     0.00005
   155    O   11  px     Val( 2p)     1.52065
   156    O   11  px     Ryd( 3p)     0.00182
   157    O   11  py     Val( 2p)     1.73986
   158    O   11  py     Ryd( 3p)     0.00216
   159    O   11  pz     Val( 2p)     1.71069
   160    O   11  pz     Ryd( 3p)     0.00184
   161    O   11  dxy    Ryd( 3d)     0.00059
   162    O   11  dxz    Ryd( 3d)     0.00122
   163    O   11  dyz    Ryd( 3d)     0.00125
   164    O   11  dx2y2  Ryd( 3d)     0.00043
   165    O   11  dz2    Ryd( 3d)     0.00142

   166    C   12  S      Cor( 1S)     1.99926
   167    C   12  S      Val( 2S)     1.02363
   168    C   12  S      Ryd( 3S)     0.00252
   169    C   12  S      Ryd( 4S)     0.00005
   170    C   12  px     Val( 2p)     1.00071
   171    C   12  px     Ryd( 3p)     0.00229
   172    C   12  py     Val( 2p)     1.07915
   173    C   12  py     Ryd( 3p)     0.00247
   174    C   12  pz     Val( 2p)     0.98862
   175    C   12  pz     Ryd( 3p)     0.00276
   176    C   12  dxy    Ryd( 3d)     0.00123
   177    C   12  dxz    Ryd( 3d)     0.00127
   178    C   12  dyz    Ryd( 3d)     0.00155
   179    C   12  dx2y2  Ryd( 3d)     0.00108
   180    C   12  dz2    Ryd( 3d)     0.00120

   181    C   13  S      Cor( 1S)     1.99931
   182    C   13  S      Val( 2S)     1.05414
   183    C   13  S      Ryd( 3S)     0.00104
   184    C   13  S      Ryd( 4S)     0.00002
   185    C   13  px     Val( 2p)     1.07097
   186    C   13  px     Ryd( 3p)     0.00259
   187    C   13  py     Val( 2p)     1.14764
   188    C   13  py     Ryd( 3p)     0.00170
   189    C   13  pz     Val( 2p)     1.22228
   190    C   13  pz     Ryd( 3p)     0.00339
   191    C   13  dxy    Ryd( 3d)     0.00065
   192    C   13  dxz    Ryd( 3d)     0.00049
   193    C   13  dyz    Ryd( 3d)     0.00101
   194    C   13  dx2y2  Ryd( 3d)     0.00047
   195    C   13  dz2    Ryd( 3d)     0.00043

   196    C   14  S      Cor( 1S)     1.99936
   197    C   14  S      Val( 2S)     1.01991
   198    C   14  S      Ryd( 3S)     0.00173
   199    C   14  S      Ryd( 4S)     0.00004
   200    C   14  px     Val( 2p)     0.92632
   201    C   14  px     Ryd( 3p)     0.00509
   202    C   14  py     Val( 2p)     1.11354
   203    C   14  py     Ryd( 3p)     0.00102
   204    C   14  pz     Val( 2p)     1.19281
   205    C   14  pz     Ryd( 3p)     0.00310
   206    C   14  dxy    Ryd( 3d)     0.00123
   207    C   14  dxz    Ryd( 3d)     0.00091
   208    C   14  dyz    Ryd( 3d)     0.00107
   209    C   14  dx2y2  Ryd( 3d)     0.00098
   210    C   14  dz2    Ryd( 3d)     0.00065

   211    N   15  S      Cor( 1S)     1.99971
   212    N   15  S      Val( 2S)     1.44313
   213    N   15  S      Ryd( 3S)     0.00027
   214    N   15  S      Ryd( 4S)     0.00001
   215    N   15  px     Val( 2p)     1.42182
   216    N   15  px     Ryd( 3p)     0.00371
   217    N   15  py     Val( 2p)     1.67320
   218    N   15  py     Ryd( 3p)     0.00453
   219    N   15  pz     Val( 2p)     1.37100
   220    N   15  pz     Ryd( 3p)     0.00200
   221    N   15  dxy    Ryd( 3d)     0.00114
   222    N   15  dxz    Ryd( 3d)     0.00047
   223    N   15  dyz    Ryd( 3d)     0.00137
   224    N   15  dx2y2  Ryd( 3d)     0.00117
   225    N   15  dz2    Ryd( 3d)     0.00044

   226    H   16  S      Val( 1S)     0.68162
   227    H   16  S      Ryd( 2S)     0.06412
   228    H   16  px     Ryd( 2p)     0.00052
   229    H   16  py     Ryd( 2p)     0.00025
   230    H   16  pz     Ryd( 2p)     0.00044

   231    H   17  S      Val( 1S)     0.71856
   232    H   17  S      Ryd( 2S)     0.08191
   233    H   17  px     Ryd( 2p)     0.00044
   234    H   17  py     Ryd( 2p)     0.00060
   235    H   17  pz     Ryd( 2p)     0.00016

   236    H   18  S      Val( 1S)     0.69123
   237    H   18  S      Ryd( 2S)     0.01609
   238    H   18  px     Ryd( 2p)     0.00018
   239    H   18  py     Ryd( 2p)     0.00007
   240    H   18  pz     Ryd( 2p)     0.00032

   241    H   19  S      Val( 1S)     0.75322
   242    H   19  S      Ryd( 2S)     0.01834
   243    H   19  px     Ryd( 2p)     0.00016
   244    H   19  py     Ryd( 2p)     0.00029
   245    H   19  pz     Ryd( 2p)     0.00006

   246    H   20  S      Val( 1S)     0.74689
   247    H   20  S      Ryd( 2S)     0.00619
   248    H   20  px     Ryd( 2p)     0.00014
   249    H   20  py     Ryd( 2p)     0.00012
   250    H   20  pz     Ryd( 2p)     0.00029

   251    H   21  S      Val( 1S)     0.74705
   252    H   21  S      Ryd( 2S)     0.00551
   253    H   21  px     Ryd( 2p)     0.00019
   254    H   21  py     Ryd( 2p)     0.00025
   255    H   21  pz     Ryd( 2p)     0.00012

   256    H   22  S      Val( 1S)     0.83480
   257    H   22  S      Ryd( 2S)     0.03219
   258    H   22  px     Ryd( 2p)     0.00017
   259    H   22  py     Ryd( 2p)     0.00030
   260    H   22  pz     Ryd( 2p)     0.00016

   261    H   23  S      Val( 1S)     0.81634
   262    H   23  S      Ryd( 2S)     0.01426
   263    H   23  px     Ryd( 2p)     0.00025
   264    H   23  py     Ryd( 2p)     0.00013
   265    H   23  pz     Ryd( 2p)     0.00020

   266    H   24  S      Val( 1S)     0.76958
   267    H   24  S      Ryd( 2S)     0.00252
   268    H   24  px     Ryd( 2p)     0.00009
   269    H   24  py     Ryd( 2p)     0.00011
   270    H   24  pz     Ryd( 2p)     0.00036

   271    H   25  S      Val( 1S)     0.79965
   272    H   25  S      Ryd( 2S)     0.01198
   273    H   25  px     Ryd( 2p)     0.00018
   274    H   25  py     Ryd( 2p)     0.00022
   275    H   25  pz     Ryd( 2p)     0.00019

   276    H   26  S      Val( 1S)     0.79481
   277    H   26  S      Ryd( 2S)     0.00586
   278    H   26  px     Ryd( 2p)     0.00011
   279    H   26  py     Ryd( 2p)     0.00017
   280    H   26  pz     Ryd( 2p)     0.00032

   281    H   27  S      Val( 1S)     0.79591
   282    H   27  S      Ryd( 2S)     0.00446
   283    H   27  px     Ryd( 2p)     0.00020
   284    H   27  py     Ryd( 2p)     0.00032
   285    H   27  pz     Ryd( 2p)     0.00009

   286    H   28  S      Val( 1S)     0.77497
   287    H   28  S      Ryd( 2S)     0.00104
   288    H   28  px     Ryd( 2p)     0.00008
   289    H   28  py     Ryd( 2p)     0.00030
   290    H   28  pz     Ryd( 2p)     0.00019

   291    H   29  S      Val( 1S)     0.79266
   292    H   29  S      Ryd( 2S)     0.00299
   293    H   29  px     Ryd( 2p)     0.00008
   294    H   29  py     Ryd( 2p)     0.00012
   295    H   29  pz     Ryd( 2p)     0.00038

   296    H   30  S      Val( 1S)     0.77444
   297    H   30  S      Ryd( 2S)     0.00147
   298    H   30  px     Ryd( 2p)     0.00008
   299    H   30  py     Ryd( 2p)     0.00030
   300    H   30  pz     Ryd( 2p)     0.00019

   301    H   31  S      Val( 1S)     0.79145
   302    H   31  S      Ryd( 2S)     0.00269
   303    H   31  px     Ryd( 2p)     0.00008
   304    H   31  py     Ryd( 2p)     0.00013
   305    H   31  pz     Ryd( 2p)     0.00038

   306    H   32  S      Val( 1S)     0.79362
   307    H   32  S      Ryd( 2S)     0.00238
   308    H   32  px     Ryd( 2p)     0.00010
   309    H   32  py     Ryd( 2p)     0.00018
   310    H   32  pz     Ryd( 2p)     0.00031

   311    H   33  S      Val( 1S)     0.78732
   312    H   33  S      Ryd( 2S)     0.00197
   313    H   33  px     Ryd( 2p)     0.00020
   314    H   33  py     Ryd( 2p)     0.00031
   315    H   33  pz     Ryd( 2p)     0.00009

   316    H   34  S      Val( 1S)     0.75603
   317    H   34  S      Ryd( 2S)     0.00148
   318    H   34  px     Ryd( 2p)     0.00015
   319    H   34  py     Ryd( 2p)     0.00021
   320    H   34  pz     Ryd( 2p)     0.00019

   321    H   35  S      Val( 1S)     0.76134
   322    H   35  S      Ryd( 2S)     0.00228
   323    H   35  px     Ryd( 2p)     0.00010
   324    H   35  py     Ryd( 2p)     0.00016
   325    H   35  pz     Ryd( 2p)     0.00029

   326    H   36  S      Val( 1S)     0.76700
   327    H   36  S      Ryd( 2S)     0.00205
   328    H   36  px     Ryd( 2p)     0.00016
   329    H   36  py     Ryd( 2p)     0.00022
   330    H   36  pz     Ryd( 2p)     0.00018

   331    H   37  S      Val( 1S)     0.77554
   332    H   37  S      Ryd( 2S)     0.00159
   333    H   37  px     Ryd( 2p)     0.00007
   334    H   37  py     Ryd( 2p)     0.00018
   335    H   37  pz     Ryd( 2p)     0.00030

   336    H   38  S      Val( 1S)     0.61336
   337    H   38  S      Ryd( 2S)     0.00148
   338    H   38  px     Ryd( 2p)     0.00035
   339    H   38  py     Ryd( 2p)     0.00058
   340    H   38  pz     Ryd( 2p)     0.00051

   341    H   39  S      Val( 1S)     0.61414
   342    H   39  S      Ryd( 2S)     0.00150
   343    H   39  px     Ryd( 2p)     0.00040
   344    H   39  py     Ryd( 2p)     0.00063
   345    H   39  pz     Ryd( 2p)     0.00040


 Summary of Natural Population Analysis:                  
                                                          
                                       Natural Population 
                Natural  -----------------------------------------------
    Atom  No    Charge         Core      Valence    Rydberg      Total
 -----------------------------------------------------------------------
      N    1   -0.36822      1.99934     5.34705    0.02183     7.36822
      C    2   -0.36329      1.99928     4.34479    0.01922     6.36329
      C    3   -0.49212      1.99930     4.48048    0.01235     6.49212
      C    4   -0.14201      1.99926     4.11852    0.02422     6.14201
      O    5   -0.61119      1.99979     6.59756    0.01384     8.61119
      C    6   -0.14394      1.99926     4.12062    0.02406     6.14394
      C    7   -0.14085      1.99925     4.12475    0.01685     6.14085
      O    8   -0.60138      1.99980     6.58836    0.01322     8.60138
      C    9   -0.13758      1.99929     4.11844    0.01985     6.13758
      C   10   -0.13605      1.99929     4.11704    0.01972     6.13605
      O   11   -0.60452      1.99979     6.59226    0.01247     8.60452
      C   12   -0.10778      1.99926     4.09211    0.01640     6.10778
      C   13   -0.50613      1.99931     4.49503    0.01180     6.50613
      C   14   -0.26777      1.99936     4.25259    0.01582     6.26777
      N   15   -0.92397      1.99971     5.90915    0.01511     7.92397
      H   16    0.25305      0.00000     0.68162    0.06533     0.74695
      H   17    0.19833      0.00000     0.71856    0.08311     0.80167
      H   18    0.29211      0.00000     0.69123    0.01666     0.70789
      H   19    0.22792      0.00000     0.75322    0.01886     0.77208
      H   20    0.24636      0.00000     0.74689    0.00675     0.75364
      H   21    0.24688      0.00000     0.74705    0.00607     0.75312
      H   22    0.13238      0.00000     0.83480    0.03282     0.86762
      H   23    0.16882      0.00000     0.81634    0.01484     0.83118
      H   24    0.22734      0.00000     0.76958    0.00308     0.77266
      H   25    0.18778      0.00000     0.79965    0.01257     0.81222
      H   26    0.19873      0.00000     0.79481    0.00646     0.80127
      H   27    0.19902      0.00000     0.79591    0.00507     0.80098
      H   28    0.22342      0.00000     0.77497    0.00162     0.77658
      H   29    0.20378      0.00000     0.79266    0.00357     0.79622
      H   30    0.22352      0.00000     0.77444    0.00204     0.77648
      H   31    0.20528      0.00000     0.79145    0.00327     0.79472
      H   32    0.20341      0.00000     0.79362    0.00297     0.79659
      H   33    0.21012      0.00000     0.78732    0.00256     0.78988
      H   34    0.24194      0.00000     0.75603    0.00203     0.75806
      H   35    0.23584      0.00000     0.76134    0.00281     0.76416
      H   36    0.23039      0.00000     0.76700    0.00261     0.76961
      H   37    0.22231      0.00000     0.77554    0.00215     0.77769
      H   38    0.38373      0.00000     0.61336    0.00291     0.61627
      H   39    0.38293      0.00000     0.61414    0.00293     0.61707
 =======================================================================
   * Total *   -0.00142     29.99129    91.45026    0.55986   122.00142

                                 Natural Population      
 --------------------------------------------------------
   Core                      29.99129 ( 99.9710% of  30)
   Valence                   91.45026 ( 99.4025% of  92)
   Natural Minimal Basis    121.44155 ( 99.5423% of 122)
   Natural Rydberg Basis      0.55986 (  0.4589% of 122)
 --------------------------------------------------------

    Atom  No          Natural Electron Configuration
 ----------------------------------------------------------------------------
      N    1      [core]2S( 1.51)2p( 3.84)3S( 0.02)
      C    2      [core]2S( 1.06)2p( 3.29)3p( 0.01)
      C    3      [core]2S( 1.05)2p( 3.43)3p( 0.01)
      C    4      [core]2S( 1.03)2p( 3.09)3p( 0.02)3d( 0.01)
      O    5      [core]2S( 1.63)2p( 4.97)3p( 0.01)
      C    6      [core]2S( 1.02)2p( 3.10)3p( 0.02)3d( 0.01)
      C    7      [core]2S( 1.03)2p( 3.09)3p( 0.01)3d( 0.01)
      O    8      [core]2S( 1.62)2p( 4.97)3p( 0.01)
      C    9      [core]2S( 1.03)2p( 3.08)3p( 0.01)3d( 0.01)
      C   10      [core]2S( 1.04)2p( 3.08)3p( 0.01)3d( 0.01)
      O   11      [core]2S( 1.62)2p( 4.97)3p( 0.01)
      C   12      [core]2S( 1.02)2p( 3.07)3p( 0.01)3d( 0.01)
      C   13      [core]2S( 1.05)2p( 3.44)3p( 0.01)
      C   14      [core]2S( 1.02)2p( 3.23)3p( 0.01)
      N   15      [core]2S( 1.44)2p( 4.47)3p( 0.01)
      H   16            1S( 0.68)2S( 0.06)
      H   17            1S( 0.72)2S( 0.08)
      H   18            1S( 0.69)2S( 0.02)
      H   19            1S( 0.75)2S( 0.02)
      H   20            1S( 0.75)2S( 0.01)
      H   21            1S( 0.75)2S( 0.01)
      H   22            1S( 0.83)2S( 0.03)
      H   23            1S( 0.82)2S( 0.01)
      H   24            1S( 0.77)
      H   25            1S( 0.80)2S( 0.01)
      H   26            1S( 0.79)2S( 0.01)
      H   27            1S( 0.80)
      H   28            1S( 0.77)
      H   29            1S( 0.79)
      H   30            1S( 0.77)
      H   31            1S( 0.79)
      H   32            1S( 0.79)
      H   33            1S( 0.79)
      H   34            1S( 0.76)
      H   35            1S( 0.76)
      H   36            1S( 0.77)
      H   37            1S( 0.78)
      H   38            1S( 0.61)
      H   39            1S( 0.61)


 NBO analysis skipped by request.
 1\1\GINC-DRG2-W002\SP\RB3LYP TD-FC\6-31G(d,p)\C10H24N2O3\QDUEZ\18-Jul-
 2024\0\\# TD(NStates=10, Root=1) B3LYP/6-31G** SCRF=(Solvent=water) vo
 lume pop=NPA density=current Geom=AllCheck Guess=Read\\JCEZOHLWDIONSP-
 UHFFFAOYSA-N_conf_1\\0,1\N,0,6.8605031137,-0.0052811773,-0.5668182624\
 C,0,6.0537266326,0.4372832117,0.5838567465\C,0,4.9104107455,1.36128328
 91,0.1493735503\C,0,3.9126211469,0.7230637004,-0.8112527103\O,0,3.3403
 270421,-0.423060304,-0.1863596803\C,0,2.4745114628,-1.1788470071,-1.02
 08850401\C,0,1.0801418375,-0.587405883,-1.174878398\O,0,0.4431493972,-
 0.5929039367,0.0976976537\C,0,-0.8080136392,0.0822011502,0.1374748119\
 C,0,-1.9553664436,-0.7863151443,-0.3979002202\O,0,-3.2046265306,-0.109
 4147905,-0.3459550795\C,0,-3.8568406212,-0.1595232316,0.9237833757\C,0
 ,-5.2360416301,0.4733297072,0.7854048968\C,0,-6.1708468055,-0.28339140
 57,-0.170950616\N,0,-7.512704965,0.2925959968,-0.3351748219\H,0,7.6867
 540246,-0.4882632492,-0.2191981255\H,0,6.3420042568,-0.7167463722,-1.0
 791245754\H,0,5.6357352799,-0.39601143,1.1689642988\H,0,6.7125006645,0
 .9968018681,1.2574997227\H,0,5.3266736064,2.2486643735,-0.3425898893\H
 ,0,4.3733970957,1.7053085877,1.0417497866\H,0,4.4117768268,0.427393742
 6,-1.748167174\H,0,3.1380496573,1.4569241338,-1.0779360284\H,0,2.38836
 94447,-2.166251533,-0.5551252332\H,0,2.9137638997,-1.3115331117,-2.021
 7108246\H,0,1.1274894935,0.4383935895,-1.5705775835\H,0,0.5302638674,-
 1.1953780718,-1.9091480522\H,0,-0.9845334546,0.3309907943,1.1886902935
 \H,0,-0.7667341645,1.024323491,-0.428935801\H,0,-1.7831490564,-1.02951
 63508,-1.4514069326\H,0,-1.9928859879,-1.7315309596,0.1634404496\H,0,-
 3.9461016436,-1.207811543,1.2526126123\H,0,-3.2736103421,0.3741327793,
 1.6878643462\H,0,-5.6917643218,0.5188046869,1.7832994097\H,0,-5.119518
 649,1.5098076017,0.4421522161\H,0,-5.7022892691,-0.3441438215,-1.15868
 44137\H,0,-6.2866956442,-1.3165966132,0.1823845044\H,0,-7.4208642155,1
 .2495494094,-0.6740874353\H,0,-7.9495821116,0.3790738231,0.5818996955\
 \Version=ES64L-G16RevA.03\State=1-A\HF=-730.679992\RMSD=5.166e-09\Dipo
 le=1.5980524,0.7741388,0.7511703\Quadrupole=7.5316162,-3.536414,-3.995
 2023,-1.2340415,-8.041946,0.4925414\PG=C01 [X(C10H24N2O3)]\\@


 THERE IS MUCH PLEASURE TO BE GAINED FROM USELESS KNOWLEDGE

                                       -- BERTRAND RUSSELL
 Job cpu time:       0 days  0 hours 58 minutes 38.8 seconds.
 Elapsed time:       0 days  0 hours 19 minutes 36.4 seconds.
 File lengths (MBytes):  RWF=   1018 Int=      0 D2E=      0 Chk=     63 Scr=      1
 Normal termination of Gaussian 16 at Thu Jul 18 04:25:49 2024.
