 Entering Gaussian System, Link 0=g16
 Initial command:
 /opt/sw/arch/manual/gaussian/G16_A03/g16/l1.exe "/scratch/1380877/Gau-89331.inp" -scrdir="/scratch/1380877/"
 Entering Link 1 = /opt/sw/arch/manual/gaussian/G16_A03/g16/l1.exe PID=     89332.
  
 Copyright (c) 1988,1990,1992,1993,1995,1998,2003,2009,2016,
            Gaussian, Inc.  All Rights Reserved.
  
 This is part of the Gaussian(R) 16 program.  It is based on
 the Gaussian(R) 09 system (copyright 2009, Gaussian, Inc.),
 the Gaussian(R) 03 system (copyright 2003, Gaussian, Inc.),
 the Gaussian(R) 98 system (copyright 1998, Gaussian, Inc.),
 the Gaussian(R) 94 system (copyright 1995, Gaussian, Inc.),
 the Gaussian 92(TM) system (copyright 1992, Gaussian, Inc.),
 the Gaussian 90(TM) system (copyright 1990, Gaussian, Inc.),
 the Gaussian 88(TM) system (copyright 1988, Gaussian, Inc.),
 the Gaussian 86(TM) system (copyright 1986, Carnegie Mellon
 University), and the Gaussian 82(TM) system (copyright 1983,
 Carnegie Mellon University). Gaussian is a federally registered
 trademark of Gaussian, Inc.
  
 This software contains proprietary and confidential information,
 including trade secrets, belonging to Gaussian, Inc.
  
 This software is provided under written license and may be
 used, copied, transmitted, or stored only in accord with that
 written license.
  
 The following legend is applicable only to US Government
 contracts under FAR:
  
                    RESTRICTED RIGHTS LEGEND
  
 Use, reproduction and disclosure by the US Government is
 subject to restrictions as set forth in subparagraphs (a)
 and (c) of the Commercial Computer Software - Restricted
 Rights clause in FAR 52.227-19.
  
 Gaussian, Inc.
 340 Quinnipiac St., Bldg. 40, Wallingford CT 06492
  
  
 ---------------------------------------------------------------
 Warning -- This program may not be used in any manner that
 competes with the business of Gaussian, Inc. or will provide
 assistance to any competitor of Gaussian, Inc.  The licensee
 of this program is prohibited from giving any competitor of
 Gaussian, Inc. access to this program.  By using this program,
 the user acknowledges that Gaussian, Inc. is engaged in the
 business of creating and licensing software in the field of
 computational chemistry and represents and warrants to the
 licensee that it is not a competitor of Gaussian, Inc. and that
 it will not use this program in any manner prohibited above.
 ---------------------------------------------------------------
  

 Cite this work as:
 Gaussian 16, Revision A.03,
 M. J. Frisch, G. W. Trucks, H. B. Schlegel, G. E. Scuseria, 
 M. A. Robb, J. R. Cheeseman, G. Scalmani, V. Barone, 
 G. A. Petersson, H. Nakatsuji, X. Li, M. Caricato, A. V. Marenich, 
 J. Bloino, B. G. Janesko, R. Gomperts, B. Mennucci, H. P. Hratchian, 
 J. V. Ortiz, A. F. Izmaylov, J. L. Sonnenberg, D. Williams-Young, 
 F. Ding, F. Lipparini, F. Egidi, J. Goings, B. Peng, A. Petrone, 
 T. Henderson, D. Ranasinghe, V. G. Zakrzewski, J. Gao, N. Rega, 
 G. Zheng, W. Liang, M. Hada, M. Ehara, K. Toyota, R. Fukuda, 
 J. Hasegawa, M. Ishida, T. Nakajima, Y. Honda, O. Kitao, H. Nakai, 
 T. Vreven, K. Throssell, J. A. Montgomery, Jr., J. E. Peralta, 
 F. Ogliaro, M. J. Bearpark, J. J. Heyd, E. N. Brothers, K. N. Kudin, 
 V. N. Staroverov, T. A. Keith, R. Kobayashi, J. Normand, 
 K. Raghavachari, A. P. Rendell, J. C. Burant, S. S. Iyengar, 
 J. Tomasi, M. Cossi, J. M. Millam, M. Klene, C. Adamo, R. Cammi, 
 J. W. Ochterski, R. L. Martin, K. Morokuma, O. Farkas, 
 J. B. Foresman, and D. J. Fox, Gaussian, Inc., Wallingford CT, 2016.
 
 ******************************************
 Gaussian 16:  ES64L-G16RevA.03 25-Dec-2016
                18-Jul-2024 
 ******************************************
 %nprocshared=6
 Will use up to    6 processors via shared memory.
 %mem=12GB
 %Chk=JCEZOHLWDIONSP-UHFFFAOYSA-N_conf_0_0.chk
 -------------------------------------------------------
 # opt=CalcFc B3LYP/6-31G** SCRF=(Solvent=water) scf=xqc
 -------------------------------------------------------
 1/10=4,18=20,19=15,26=3,38=1/1,3;
 2/9=110,12=2,17=6,18=5,40=1/2;
 3/5=1,6=6,7=101,11=2,25=1,30=1,70=2201,71=2,72=1,74=-5,140=1/1,2,3;
 4//1;
 5/5=2,8=3,13=1,38=5,53=1/2,8;
 8/6=4,10=90,11=11/1;
 11/6=1,8=1,9=11,15=111,16=1/1,2,10;
 10/6=1,13=1/2;
 6/7=2,8=2,9=2,10=2,28=1/1;
 7/10=1,18=20,25=1/1,2,3,16;
 1/10=4,18=20,19=15,26=3/3(2);
 2/9=110/2;
 99//99;
 2/9=110/2;
 3/5=1,6=6,7=101,11=2,25=1,30=1,70=2205,71=1,72=1,74=-5/1,2,3;
 4/5=5,16=3,69=1/1;
 5/5=2,8=3,13=1,38=5,53=1/2,8;
 7//1,2,3,16;
 1/18=20,19=15,26=3/3(-5);
 2/9=110/2;
 6/7=2,8=2,9=2,10=2,19=2,28=1/1;
 99/9=1/99;
 ----------------------------------
 JCEZOHLWDIONSP-UHFFFAOYSA-N_conf_0
 ----------------------------------
 Symbolic Z-matrix:
 Charge =  0 Multiplicity = 1
 N                     6.7459   -1.50202  -0.79724 
 C                     6.34019  -0.58674   0.26387 
 C                     5.07272   0.1981   -0.06481 
 C                     3.81851  -0.66654  -0.11519 
 O                     2.70055   0.18605  -0.36179 
 C                     1.47423  -0.55252  -0.42503 
 C                     0.30446   0.42235  -0.5557 
 O                     0.01802   0.98582   0.72655 
 C                    -0.8078    2.15295   0.67884 
 C                    -2.22601   1.89944   0.15728 
 O                    -2.91465   1.01152   1.04098 
 C                    -4.22813   0.67509   0.59592 
 C                    -4.18532  -0.51921  -0.35446 
 C                    -5.56505  -0.94989  -0.84857 
 N                    -6.40134  -1.52991   0.19471 
 H                     6.03121  -2.20931  -0.95459 
 H                     6.84108  -0.98988  -1.67396 
 H                     6.20762  -1.1499    1.19408 
 H                     7.1603    0.11919   0.4353 
 H                     5.18879   0.73541  -1.01488 
 H                     4.93149   0.9787    0.69394 
 H                     3.67858  -1.18516   0.84012 
 H                     3.88849  -1.40742  -0.91884 
 H                     1.36432  -1.15982   0.48053 
 H                     1.51047  -1.20339  -1.30524 
 H                     0.55138   1.21689  -1.2687 
 H                    -0.57951  -0.12455  -0.89803 
 H                    -0.86635   2.52584   1.70704 
 H                    -0.30919   2.92019   0.07595 
 H                    -2.76835   2.85095   0.12076 
 H                    -2.19688   1.47571  -0.85025 
 H                    -4.71594   1.54241   0.13575 
 H                    -4.79978   0.41605   1.49267 
 H                    -3.67259  -1.35808   0.13348 
 H                    -3.56755  -0.27095  -1.22542 
 H                    -6.08834  -0.09946  -1.29915 
 H                    -5.44022  -1.69883  -1.63845 
 H                    -6.58838  -0.84882   0.92853 
 H                    -5.90695  -2.30026   0.64527 
 

 GradGradGradGradGradGradGradGradGradGradGradGradGradGradGradGradGradGrad
 Berny optimization.
 Initialization pass.
                           ----------------------------
                           !    Initial Parameters    !
                           ! (Angstroms and Degrees)  !
 --------------------------                            --------------------------
 ! Name  Definition              Value          Derivative Info.                !
 --------------------------------------------------------------------------------
 ! R1    R(1,2)                  1.4589         calculate D2E/DX2 analytically  !
 ! R2    R(1,16)                 1.0177         calculate D2E/DX2 analytically  !
 ! R3    R(1,17)                 1.0198         calculate D2E/DX2 analytically  !
 ! R4    R(2,3)                  1.5266         calculate D2E/DX2 analytically  !
 ! R5    R(2,18)                 1.0955         calculate D2E/DX2 analytically  !
 ! R6    R(2,19)                 1.0956         calculate D2E/DX2 analytically  !
 ! R7    R(3,4)                  1.5242         calculate D2E/DX2 analytically  !
 ! R8    R(3,20)                 1.0976         calculate D2E/DX2 analytically  !
 ! R9    R(3,21)                 1.0977         calculate D2E/DX2 analytically  !
 ! R10   R(4,5)                  1.4274         calculate D2E/DX2 analytically  !
 ! R11   R(4,22)                 1.096          calculate D2E/DX2 analytically  !
 ! R12   R(4,23)                 1.0953         calculate D2E/DX2 analytically  !
 ! R13   R(5,6)                  1.433          calculate D2E/DX2 analytically  !
 ! R14   R(6,7)                  1.5283         calculate D2E/DX2 analytically  !
 ! R15   R(6,24)                 1.0959         calculate D2E/DX2 analytically  !
 ! R16   R(6,25)                 1.0953         calculate D2E/DX2 analytically  !
 ! R17   R(7,8)                  1.4296         calculate D2E/DX2 analytically  !
 ! R18   R(7,26)                 1.0957         calculate D2E/DX2 analytically  !
 ! R19   R(7,27)                 1.0944         calculate D2E/DX2 analytically  !
 ! R20   R(8,9)                  1.4305         calculate D2E/DX2 analytically  !
 ! R21   R(9,10)                 1.5322         calculate D2E/DX2 analytically  !
 ! R22   R(9,28)                 1.0953         calculate D2E/DX2 analytically  !
 ! R23   R(9,29)                 1.0958         calculate D2E/DX2 analytically  !
 ! R24   R(10,11)                1.4295         calculate D2E/DX2 analytically  !
 ! R25   R(10,30)                1.0958         calculate D2E/DX2 analytically  !
 ! R26   R(10,31)                1.0934         calculate D2E/DX2 analytically  !
 ! R27   R(11,12)                1.4271         calculate D2E/DX2 analytically  !
 ! R28   R(12,13)                1.5269         calculate D2E/DX2 analytically  !
 ! R29   R(12,32)                1.0963         calculate D2E/DX2 analytically  !
 ! R30   R(12,33)                1.0945         calculate D2E/DX2 analytically  !
 ! R31   R(13,14)                1.5275         calculate D2E/DX2 analytically  !
 ! R32   R(13,34)                1.0976         calculate D2E/DX2 analytically  !
 ! R33   R(13,35)                1.0963         calculate D2E/DX2 analytically  !
 ! R34   R(14,15)                1.4575         calculate D2E/DX2 analytically  !
 ! R35   R(14,36)                1.0955         calculate D2E/DX2 analytically  !
 ! R36   R(14,37)                1.0956         calculate D2E/DX2 analytically  !
 ! R37   R(15,38)                1.0185         calculate D2E/DX2 analytically  !
 ! R38   R(15,39)                1.0202         calculate D2E/DX2 analytically  !
 ! A1    A(2,1,16)             110.6811         calculate D2E/DX2 analytically  !
 ! A2    A(2,1,17)             109.6445         calculate D2E/DX2 analytically  !
 ! A3    A(16,1,17)            106.3577         calculate D2E/DX2 analytically  !
 ! A4    A(1,2,3)              113.3815         calculate D2E/DX2 analytically  !
 ! A5    A(1,2,18)             109.1932         calculate D2E/DX2 analytically  !
 ! A6    A(1,2,19)             108.0524         calculate D2E/DX2 analytically  !
 ! A7    A(3,2,18)             110.2825         calculate D2E/DX2 analytically  !
 ! A8    A(3,2,19)             108.9007         calculate D2E/DX2 analytically  !
 ! A9    A(18,2,19)            106.7957         calculate D2E/DX2 analytically  !
 ! A10   A(2,3,4)              113.4949         calculate D2E/DX2 analytically  !
 ! A11   A(2,3,20)             110.501          calculate D2E/DX2 analytically  !
 ! A12   A(2,3,21)             108.8805         calculate D2E/DX2 analytically  !
 ! A13   A(4,3,20)             109.639          calculate D2E/DX2 analytically  !
 ! A14   A(4,3,21)             108.686          calculate D2E/DX2 analytically  !
 ! A15   A(20,3,21)            105.2945         calculate D2E/DX2 analytically  !
 ! A16   A(3,4,5)              108.1404         calculate D2E/DX2 analytically  !
 ! A17   A(3,4,22)             110.1624         calculate D2E/DX2 analytically  !
 ! A18   A(3,4,23)             110.8177         calculate D2E/DX2 analytically  !
 ! A19   A(5,4,22)             109.4646         calculate D2E/DX2 analytically  !
 ! A20   A(5,4,23)             109.1056         calculate D2E/DX2 analytically  !
 ! A21   A(22,4,23)            109.1254         calculate D2E/DX2 analytically  !
 ! A22   A(4,5,6)              111.7177         calculate D2E/DX2 analytically  !
 ! A23   A(5,6,7)              109.2707         calculate D2E/DX2 analytically  !
 ! A24   A(5,6,24)             109.5715         calculate D2E/DX2 analytically  !
 ! A25   A(5,6,25)             108.2662         calculate D2E/DX2 analytically  !
 ! A26   A(7,6,24)             110.3269         calculate D2E/DX2 analytically  !
 ! A27   A(7,6,25)             109.6127         calculate D2E/DX2 analytically  !
 ! A28   A(24,6,25)            109.7588         calculate D2E/DX2 analytically  !
 ! A29   A(6,7,8)              109.1527         calculate D2E/DX2 analytically  !
 ! A30   A(6,7,26)             110.2233         calculate D2E/DX2 analytically  !
 ! A31   A(6,7,27)             109.0387         calculate D2E/DX2 analytically  !
 ! A32   A(8,7,26)             110.0589         calculate D2E/DX2 analytically  !
 ! A33   A(8,7,27)             108.4027         calculate D2E/DX2 analytically  !
 ! A34   A(26,7,27)            109.9287         calculate D2E/DX2 analytically  !
 ! A35   A(7,8,9)              114.037          calculate D2E/DX2 analytically  !
 ! A36   A(8,9,10)             114.2487         calculate D2E/DX2 analytically  !
 ! A37   A(8,9,28)             106.0994         calculate D2E/DX2 analytically  !
 ! A38   A(8,9,29)             109.082          calculate D2E/DX2 analytically  !
 ! A39   A(10,9,28)            109.0506         calculate D2E/DX2 analytically  !
 ! A40   A(10,9,29)            110.4713         calculate D2E/DX2 analytically  !
 ! A41   A(28,9,29)            107.6042         calculate D2E/DX2 analytically  !
 ! A42   A(9,10,11)            109.7692         calculate D2E/DX2 analytically  !
 ! A43   A(9,10,30)            109.0124         calculate D2E/DX2 analytically  !
 ! A44   A(9,10,31)            110.6786         calculate D2E/DX2 analytically  !
 ! A45   A(11,10,30)           108.7549         calculate D2E/DX2 analytically  !
 ! A46   A(11,10,31)           109.9838         calculate D2E/DX2 analytically  !
 ! A47   A(30,10,31)           108.601          calculate D2E/DX2 analytically  !
 ! A48   A(10,11,12)           113.3925         calculate D2E/DX2 analytically  !
 ! A49   A(11,12,13)           110.6528         calculate D2E/DX2 analytically  !
 ! A50   A(11,12,32)           110.7279         calculate D2E/DX2 analytically  !
 ! A51   A(11,12,33)           106.3195         calculate D2E/DX2 analytically  !
 ! A52   A(13,12,32)           111.7159         calculate D2E/DX2 analytically  !
 ! A53   A(13,12,33)           109.8446         calculate D2E/DX2 analytically  !
 ! A54   A(32,12,33)           107.3812         calculate D2E/DX2 analytically  !
 ! A55   A(12,13,14)           113.3626         calculate D2E/DX2 analytically  !
 ! A56   A(12,13,34)           109.5238         calculate D2E/DX2 analytically  !
 ! A57   A(12,13,35)           109.4609         calculate D2E/DX2 analytically  !
 ! A58   A(14,13,34)           110.5039         calculate D2E/DX2 analytically  !
 ! A59   A(14,13,35)           108.4124         calculate D2E/DX2 analytically  !
 ! A60   A(34,13,35)           105.2495         calculate D2E/DX2 analytically  !
 ! A61   A(13,14,15)           113.5119         calculate D2E/DX2 analytically  !
 ! A62   A(13,14,36)           110.221          calculate D2E/DX2 analytically  !
 ! A63   A(13,14,37)           108.846          calculate D2E/DX2 analytically  !
 ! A64   A(15,14,36)           109.2242         calculate D2E/DX2 analytically  !
 ! A65   A(15,14,37)           108.0228         calculate D2E/DX2 analytically  !
 ! A66   A(36,14,37)           106.7714         calculate D2E/DX2 analytically  !
 ! A67   A(14,15,38)           110.7919         calculate D2E/DX2 analytically  !
 ! A68   A(14,15,39)           109.7891         calculate D2E/DX2 analytically  !
 ! A69   A(38,15,39)           106.0057         calculate D2E/DX2 analytically  !
 ! D1    D(16,1,2,3)           -62.2989         calculate D2E/DX2 analytically  !
 ! D2    D(16,1,2,18)           61.0952         calculate D2E/DX2 analytically  !
 ! D3    D(16,1,2,19)          176.8974         calculate D2E/DX2 analytically  !
 ! D4    D(17,1,2,3)            54.7265         calculate D2E/DX2 analytically  !
 ! D5    D(17,1,2,18)          178.1206         calculate D2E/DX2 analytically  !
 ! D6    D(17,1,2,19)          -66.0772         calculate D2E/DX2 analytically  !
 ! D7    D(1,2,3,4)             68.4415         calculate D2E/DX2 analytically  !
 ! D8    D(1,2,3,20)           -55.1861         calculate D2E/DX2 analytically  !
 ! D9    D(1,2,3,21)          -170.3687         calculate D2E/DX2 analytically  !
 ! D10   D(18,2,3,4)           -54.3528         calculate D2E/DX2 analytically  !
 ! D11   D(18,2,3,20)         -177.9804         calculate D2E/DX2 analytically  !
 ! D12   D(18,2,3,21)           66.837          calculate D2E/DX2 analytically  !
 ! D13   D(19,2,3,4)          -171.2348         calculate D2E/DX2 analytically  !
 ! D14   D(19,2,3,20)           65.1376         calculate D2E/DX2 analytically  !
 ! D15   D(19,2,3,21)          -50.045          calculate D2E/DX2 analytically  !
 ! D16   D(2,3,4,5)            177.1098         calculate D2E/DX2 analytically  !
 ! D17   D(2,3,4,22)            57.5162         calculate D2E/DX2 analytically  !
 ! D18   D(2,3,4,23)           -63.3485         calculate D2E/DX2 analytically  !
 ! D19   D(20,3,4,5)           -58.7933         calculate D2E/DX2 analytically  !
 ! D20   D(20,3,4,22)         -178.3869         calculate D2E/DX2 analytically  !
 ! D21   D(20,3,4,23)           60.7484         calculate D2E/DX2 analytically  !
 ! D22   D(21,3,4,5)            55.8109         calculate D2E/DX2 analytically  !
 ! D23   D(21,3,4,22)          -63.7827         calculate D2E/DX2 analytically  !
 ! D24   D(21,3,4,23)          175.3526         calculate D2E/DX2 analytically  !
 ! D25   D(3,4,5,6)            179.97           calculate D2E/DX2 analytically  !
 ! D26   D(22,4,5,6)           -59.9977         calculate D2E/DX2 analytically  !
 ! D27   D(23,4,5,6)            59.3546         calculate D2E/DX2 analytically  !
 ! D28   D(4,5,6,7)            174.6107         calculate D2E/DX2 analytically  !
 ! D29   D(4,5,6,24)            53.6227         calculate D2E/DX2 analytically  !
 ! D30   D(4,5,6,25)           -66.0586         calculate D2E/DX2 analytically  !
 ! D31   D(5,6,7,8)            -78.384          calculate D2E/DX2 analytically  !
 ! D32   D(5,6,7,26)            42.6056         calculate D2E/DX2 analytically  !
 ! D33   D(5,6,7,27)           163.3619         calculate D2E/DX2 analytically  !
 ! D34   D(24,6,7,8)            42.1433         calculate D2E/DX2 analytically  !
 ! D35   D(24,6,7,26)          163.1329         calculate D2E/DX2 analytically  !
 ! D36   D(24,6,7,27)          -76.1108         calculate D2E/DX2 analytically  !
 ! D37   D(25,6,7,8)           163.1219         calculate D2E/DX2 analytically  !
 ! D38   D(25,6,7,26)          -75.8885         calculate D2E/DX2 analytically  !
 ! D39   D(25,6,7,27)           44.8678         calculate D2E/DX2 analytically  !
 ! D40   D(6,7,8,9)            164.5284         calculate D2E/DX2 analytically  !
 ! D41   D(26,7,8,9)            43.4386         calculate D2E/DX2 analytically  !
 ! D42   D(27,7,8,9)           -76.8198         calculate D2E/DX2 analytically  !
 ! D43   D(7,8,9,10)            64.9661         calculate D2E/DX2 analytically  !
 ! D44   D(7,8,9,28)          -174.8613         calculate D2E/DX2 analytically  !
 ! D45   D(7,8,9,29)           -59.2076         calculate D2E/DX2 analytically  !
 ! D46   D(8,9,10,11)           63.1007         calculate D2E/DX2 analytically  !
 ! D47   D(8,9,10,30)         -177.8728         calculate D2E/DX2 analytically  !
 ! D48   D(8,9,10,31)          -58.4883         calculate D2E/DX2 analytically  !
 ! D49   D(28,9,10,11)         -55.4088         calculate D2E/DX2 analytically  !
 ! D50   D(28,9,10,30)          63.6178         calculate D2E/DX2 analytically  !
 ! D51   D(28,9,10,31)        -176.9978         calculate D2E/DX2 analytically  !
 ! D52   D(29,9,10,11)        -173.4718         calculate D2E/DX2 analytically  !
 ! D53   D(29,9,10,30)         -54.4453         calculate D2E/DX2 analytically  !
 ! D54   D(29,9,10,31)          64.9392         calculate D2E/DX2 analytically  !
 ! D55   D(9,10,11,12)        -177.3958         calculate D2E/DX2 analytically  !
 ! D56   D(30,10,11,12)         63.4195         calculate D2E/DX2 analytically  !
 ! D57   D(31,10,11,12)        -55.3915         calculate D2E/DX2 analytically  !
 ! D58   D(10,11,12,13)         86.497          calculate D2E/DX2 analytically  !
 ! D59   D(10,11,12,32)        -37.9346         calculate D2E/DX2 analytically  !
 ! D60   D(10,11,12,33)       -154.2691         calculate D2E/DX2 analytically  !
 ! D61   D(11,12,13,14)        178.8814         calculate D2E/DX2 analytically  !
 ! D62   D(11,12,13,34)         54.964          calculate D2E/DX2 analytically  !
 ! D63   D(11,12,13,35)        -59.9509         calculate D2E/DX2 analytically  !
 ! D64   D(32,12,13,14)        -57.2526         calculate D2E/DX2 analytically  !
 ! D65   D(32,12,13,34)        178.8299         calculate D2E/DX2 analytically  !
 ! D66   D(32,12,13,35)         63.9151         calculate D2E/DX2 analytically  !
 ! D67   D(33,12,13,14)         61.7982         calculate D2E/DX2 analytically  !
 ! D68   D(33,12,13,34)        -62.1193         calculate D2E/DX2 analytically  !
 ! D69   D(33,12,13,35)       -177.0341         calculate D2E/DX2 analytically  !
 ! D70   D(12,13,14,15)        -68.4978         calculate D2E/DX2 analytically  !
 ! D71   D(12,13,14,36)         54.3843         calculate D2E/DX2 analytically  !
 ! D72   D(12,13,14,37)        171.1698         calculate D2E/DX2 analytically  !
 ! D73   D(34,13,14,15)         54.8833         calculate D2E/DX2 analytically  !
 ! D74   D(34,13,14,36)        177.7655         calculate D2E/DX2 analytically  !
 ! D75   D(34,13,14,37)        -65.4491         calculate D2E/DX2 analytically  !
 ! D76   D(35,13,14,15)        169.7466         calculate D2E/DX2 analytically  !
 ! D77   D(35,13,14,36)        -67.3713         calculate D2E/DX2 analytically  !
 ! D78   D(35,13,14,37)         49.4141         calculate D2E/DX2 analytically  !
 ! D79   D(13,14,15,38)         62.3865         calculate D2E/DX2 analytically  !
 ! D80   D(13,14,15,39)        -54.3617         calculate D2E/DX2 analytically  !
 ! D81   D(36,14,15,38)        -61.0427         calculate D2E/DX2 analytically  !
 ! D82   D(36,14,15,39)       -177.7909         calculate D2E/DX2 analytically  !
 ! D83   D(37,14,15,38)       -176.8164         calculate D2E/DX2 analytically  !
 ! D84   D(37,14,15,39)         66.4353         calculate D2E/DX2 analytically  !
 --------------------------------------------------------------------------------
 Trust Radius=3.00D-01 FncErr=1.00D-07 GrdErr=1.00D-06 EigMax=2.50D+02 EigMin=1.00D-04
 Number of steps in this run=    201 maximum allowed number of steps=    234.
 GradGradGradGradGradGradGradGradGradGradGradGradGradGradGradGradGradGrad

                          Input orientation:                          
 ---------------------------------------------------------------------
 Center     Atomic      Atomic             Coordinates (Angstroms)
 Number     Number       Type             X           Y           Z
 ---------------------------------------------------------------------
      1          7           0        6.745904   -1.502018   -0.797237
      2          6           0        6.340186   -0.586739    0.263867
      3          6           0        5.072720    0.198099   -0.064808
      4          6           0        3.818507   -0.666542   -0.115194
      5          8           0        2.700553    0.186048   -0.361786
      6          6           0        1.474227   -0.552518   -0.425035
      7          6           0        0.304458    0.422349   -0.555702
      8          8           0        0.018020    0.985823    0.726550
      9          6           0       -0.807801    2.152949    0.678840
     10          6           0       -2.226010    1.899437    0.157281
     11          8           0       -2.914649    1.011517    1.040977
     12          6           0       -4.228131    0.675093    0.595925
     13          6           0       -4.185321   -0.519212   -0.354459
     14          6           0       -5.565046   -0.949888   -0.848571
     15          7           0       -6.401341   -1.529910    0.194710
     16          1           0        6.031207   -2.209310   -0.954585
     17          1           0        6.841082   -0.989875   -1.673959
     18          1           0        6.207619   -1.149902    1.194084
     19          1           0        7.160296    0.119185    0.435301
     20          1           0        5.188793    0.735410   -1.014881
     21          1           0        4.931493    0.978703    0.693938
     22          1           0        3.678576   -1.185158    0.840116
     23          1           0        3.888491   -1.407415   -0.918841
     24          1           0        1.364324   -1.159822    0.480525
     25          1           0        1.510470   -1.203393   -1.305238
     26          1           0        0.551383    1.216885   -1.268698
     27          1           0       -0.579509   -0.124554   -0.898026
     28          1           0       -0.866347    2.525835    1.707041
     29          1           0       -0.309191    2.920192    0.075949
     30          1           0       -2.768348    2.850949    0.120757
     31          1           0       -2.196875    1.475706   -0.850249
     32          1           0       -4.715936    1.542413    0.135754
     33          1           0       -4.799784    0.416051    1.492668
     34          1           0       -3.672588   -1.358079    0.133482
     35          1           0       -3.567549   -0.270948   -1.225420
     36          1           0       -6.088341   -0.099462   -1.299152
     37          1           0       -5.440216   -1.698825   -1.638447
     38          1           0       -6.588378   -0.848816    0.928526
     39          1           0       -5.906950   -2.300255    0.645275
 ---------------------------------------------------------------------
                    Distance matrix (angstroms):
                    1          2          3          4          5
     1  N    0.000000
     2  C    1.458864   0.000000
     3  C    2.495274   1.526587   0.000000
     4  C    3.119752   2.551258   1.524203   0.000000
     5  O    4.405003   3.773005   2.390715   1.427424   0.000000
     6  C    5.369419   4.914602   3.693554   2.367414   1.432953
     7  C    6.727091   6.174137   4.798707   3.705168   2.415515
     8  O    7.333192   6.531218   5.176558   4.228776   3.003348
     9  C    8.520331   7.666278   6.241393   5.475650   4.154534
    10  C    9.642419   8.920323   7.497689   6.572266   5.241771
    11  O   10.150033   9.423922   8.104473   7.034771   5.846336
    12  C   11.274314  10.648559   9.336483   8.188654   7.011636
    13  C   10.984246  10.543870   9.290305   8.008760   6.921901
    14  C   12.323432  11.962606  10.728198   9.416432   8.357478
    15  N   13.184642  12.776575  11.606354  10.260933   9.278937
    16  H    1.017749   2.052518   2.739711   2.825022   4.145167
    17  H    1.019799   2.041711   2.669785   3.416175   4.499842
    18  H    2.092629   1.095458   2.165620   2.766893   4.062635
    19  H    2.078261   1.095581   2.148094   3.476775   4.530908
    20  H    2.734602   2.170019   1.097640   2.156986   2.630526
    21  H    3.416090   2.149415   1.097718   2.144823   2.592287
    22  H    3.491393   2.788250   2.162389   1.095974   2.069130
    23  H    2.861564   2.843082   2.170126   1.095281   2.064130
    24  H    5.541767   5.013439   3.986671   2.573174   2.075178
    25  H    5.268493   5.115517   4.023988   2.651689   2.058385
    26  H    6.781357   6.253964   4.788504   3.943599   2.550304
    27  H    7.454478   7.031770   5.722417   4.499903   3.338088
    28  H    8.968911   7.981540   6.620447   5.954802   4.741036
    29  H    8.372142   7.519847   6.032791   5.471662   4.089708
    30  H   10.502954   9.736713   8.279759   7.470949   6.102740
    31  H    9.425654   8.853042   7.422683   6.427625   5.087889
    32  H   11.895915  11.259997   9.882570   8.819250   7.555897
    33  H   11.925836  11.252310   9.996978   8.833582   7.729616
    34  H   10.460972  10.043287   8.884899   7.527056   6.576211
    35  H   10.395489  10.024017   8.730480   7.479500   6.343801
    36  H   12.920408  12.535899  11.233052   9.993447   8.843350
    37  H   12.216706  11.984716  10.797986   9.439803   8.453091
    38  H   13.461352  12.948290  11.750062  10.460680   9.435046
    39  H   12.759809  12.372306  11.282692   9.890998   9.015818
                    6          7          8          9         10
     6  C    0.000000
     7  C    1.528333   0.000000
     8  O    2.411054   1.429587   0.000000
     9  C    3.707526   2.399206   1.430538   0.000000
    10  C    4.476934   3.015527   2.488862   1.532191   0.000000
    11  O    4.884428   3.641312   2.949589   2.423390   1.429527
    12  C    5.921678   4.683426   4.259508   3.726874   2.387449
    13  C    5.660087   4.591858   4.593669   4.428972   3.154464
    14  C    7.063190   6.034889   6.115440   5.881493   4.503282
    15  N    7.960148   7.024398   6.915198   6.714575   5.403259
    16  H    4.877647   6.315092   7.013808   8.274624   9.289763
    17  H    5.527587   6.780290   7.498000   8.597582   9.690910
    18  H    5.038195   6.354607   6.564377   7.771127   9.027709
    19  H    5.789883   6.933723   7.200555   8.227155   9.557685
    20  H    3.975509   4.915850   5.461884   6.390403   7.596593
    21  H    3.943276   4.824996   4.913586   5.858206   7.236409
    22  H    2.619158   3.989618   4.257431   5.594331   6.696650
    23  H    2.608326   4.040445   4.838951   6.106057   7.034233
    24  H    1.095872   2.168028   2.544966   3.966347   4.728007
    25  H    1.095312   2.158542   3.338897   4.536075   5.072258
    26  H    2.166610   1.095730   2.078191   2.552743   3.195810
    27  H    2.150513   1.094388   2.056508   2.779504   2.814460
    28  H    4.415914   3.303853   2.028572   1.095294   2.154720
    29  H    3.935897   2.648541   2.066913   1.095788   2.173189
    30  H    5.466345   3.974649   3.407276   2.154624   1.095828
    31  H    4.215625   2.730016   2.762615   2.174005   1.093395
    32  H    6.559066   5.190087   4.803038   3.992645   2.515484
    33  H    6.631661   5.499922   4.911498   4.428889   3.256993
    34  H    5.239330   4.411553   4.412052   4.564180   3.564347
    35  H    5.112671   3.990191   4.271530   4.137353   2.902096
    36  H    7.626388   6.457003   6.524490   6.072060   4.586327
    37  H    7.113081   6.218762   6.526323   6.454863   5.148131
    38  H    8.180802   7.164494   6.859387   6.518282   5.213249
    39  H    7.660413   6.887416   6.775706   6.770042   5.605789
                   11         12         13         14         15
    11  O    0.000000
    12  C    1.427055   0.000000
    13  C    2.430017   1.526901   0.000000
    14  C    3.800277   2.552347   1.527504   0.000000
    15  N    4.396821   3.121835   2.496766   1.457481   0.000000
    16  H    9.715160  10.769302  10.372755  11.664925  12.504028
    17  H   10.322342  11.421557  11.115043  12.433619  13.384519
    18  H    9.376084  10.610997  10.526584  11.950234  12.654210
    19  H   10.132503  11.403118  11.390975  12.834546  13.663653
    20  H    8.364721   9.553888   9.480731  10.886365  11.871225
    21  H    7.853882   9.165178   9.298344  10.783141  11.617896
    22  H    6.952434   8.126264   7.981940   9.399551  10.106440
    23  H    7.481633   8.515334   8.142106   9.464863  10.350635
    24  H    4.830986   5.886916   5.648552   7.058805   7.779731
    25  H    5.476516   6.330455   5.814991   7.094768   8.059355
    26  H    4.170150   5.158886   5.127010   6.502470   7.617533
    27  H    3.240875   4.022905   3.667848   5.053633   6.087925
    28  H    2.632935   3.995174   4.953553   6.378838   7.026548
    29  H    3.370865   4.546309   5.199917   6.592137   7.545316
    30  H    2.061970   2.662912   3.686683   4.817414   5.691751
    31  H    2.075429   2.618854   2.859969   4.150673   5.272874
    32  H    2.084685   1.096337   2.184527   2.810952   3.504745
    33  H    2.027890   1.094549   2.159666   2.816525   2.834862
    34  H    2.648208   2.157839   1.097579   2.170816   2.734843
    35  H    2.684688   2.156075   1.096290   2.143122   3.410592
    36  H    4.096682   2.766159   2.165668   1.095484   2.091835
    37  H    4.572063   3.478083   2.148226   1.095625   2.076719
    38  H    4.119437   2.829079   2.743970   2.053167   1.018507
    39  H    4.480879   3.416660   2.671252   2.042538   1.020227
                   16         17         18         19         20
    16  H    0.000000
    17  H    1.631079   0.000000
    18  H    2.402133   2.941522   0.000000
    19  H    2.937433   2.404348   1.758956   0.000000
    20  H    3.063441   2.478115   3.077650   2.523804   0.000000
    21  H    3.753722   3.623364   2.531719   2.402754   1.745124
    22  H    3.131248   4.044768   2.553937   3.739995   3.067629
    23  H    2.288131   3.076091   3.147875   3.856023   2.508328
    24  H    4.994073   5.887747   4.895587   5.935587   4.522688
    25  H    4.644555   5.347614   5.320967   6.057989   4.168132
    26  H    6.470391   6.677900   6.607570   6.912763   4.669241
    27  H    6.931881   7.511060   7.175888   7.857592   5.833224
    28  H    8.779641   9.121175   7.988439   8.475629   6.875987
    29  H    8.220367   8.335299   7.764322   7.985487   6.015896
    30  H   10.207583  10.503052   9.885688  10.302400   8.311515
    31  H    9.016183   9.404375   9.039283   9.541983   7.424502
    32  H   11.435267  11.968801  11.300118  11.964957  10.003942
    33  H   11.410168  12.145531  11.122243  12.010398  10.303468
    34  H    9.801639  10.674253   9.939150  10.937312   9.177446
    35  H    9.796260  10.443067  10.108435  10.862636   8.816496
    36  H   12.306650  12.965466  12.590087  13.363477  11.311568
    37  H   11.503122  12.301795  11.999859  12.898779  10.922004
    38  H   12.831639  13.680030  12.802293  13.791531  12.041111
    39  H   12.045223  13.023374  12.181432  13.291001  11.622688
                   21         22         23         24         25
    21  H    0.000000
    22  H    2.504689   0.000000
    23  H    3.063082   1.785326   0.000000
    24  H    4.164557   2.342159   2.896713   0.000000
    25  H    4.523456   3.050174   2.417833   1.792263   0.000000
    26  H    4.805626   4.471716   4.259771   3.060946   2.603638
    27  H    5.841461   4.719883   4.648568   2.598205   2.386990
    28  H    6.085634   5.931218   6.706280   4.479319   5.350722
    29  H    5.622816   5.774091   6.110509   4.428413   4.714105
    30  H    7.944898   7.640057   7.970442   5.770156   6.064605
    31  H    7.310620   6.667717   6.734150   4.625916   4.596628
    32  H    9.679991   8.854580   9.156955   6.662619   6.955863
    33  H    9.780200   8.652877   9.199268   6.442362   7.090146
    34  H    8.933358   7.387073   7.634117   5.052745   5.381257
    35  H    8.802232   7.590029   7.548383   5.293743   5.163535
    36  H   11.250405  10.057230  10.069387   7.735233   7.678582
    37  H   10.962734   9.463588   9.360958   7.147191   6.976282
    38  H   11.666289  10.272842  10.653149   7.971380   8.408731
    39  H   11.323682   9.652135   9.959633   7.362007   7.747627
                   26         27         28         29         30
    26  H    0.000000
    27  H    1.793257   0.000000
    28  H    3.546593   3.727360   0.000000
    29  H    2.334505   3.208142   1.768163   0.000000
    30  H    3.952387   3.831783   2.497920   2.460540   0.000000
    31  H    2.791954   2.275739   3.068030   2.551026   1.777844
    32  H    5.461052   4.577937   4.272633   4.617494   2.346399
    33  H    6.074657   4.880409   4.468677   5.333220   3.455083
    34  H    5.141836   3.486077   5.043399   5.442367   4.305082
    35  H    4.379625   3.009485   4.870094   4.742766   3.492443
    36  H    6.769020   5.523474   6.572565   6.663917   4.662984
    37  H    6.673630   5.162658   7.068262   7.113501   5.561846
    38  H    7.750554   6.321974   6.688497   7.372957   5.378976
    39  H    7.598923   5.957943   7.058766   7.675422   6.054820
                   31         32         33         34         35
    31  H    0.000000
    32  H    2.705978   0.000000
    33  H    3.658861   1.765485   0.000000
    34  H    3.343021   3.082440   2.503097   0.000000
    35  H    2.251733   2.541627   3.062413   1.743417   0.000000
    36  H    4.222106   2.576472   3.117754   3.077730   2.527694
    37  H    4.606318   3.765369   3.832328   2.525935   2.390880
    38  H    5.277569   3.138870   2.262126   3.064845   3.754840
    39  H    5.500829   4.055148   3.053229   2.478306   3.618064
                   36         37         38         39
    36  H    0.000000
    37  H    1.758735   0.000000
    38  H    2.402940   2.937711   0.000000
    39  H    2.942310   2.407269   1.628266   0.000000
 Stoichiometry    C10H24N2O3
 Framework group  C1[X(C10H24N2O3)]
 Deg. of freedom   111
 Full point group                 C1      NOp   1
 Largest Abelian subgroup         C1      NOp   1
 Largest concise Abelian subgroup C1      NOp   1
                         Standard orientation:                         
 ---------------------------------------------------------------------
 Center     Atomic      Atomic             Coordinates (Angstroms)
 Number     Number       Type             X           Y           Z
 ---------------------------------------------------------------------
      1          7           0       -6.824282   -1.382382    0.118252
      2          6           0       -6.343938   -0.195523   -0.580975
      3          6           0       -5.055442    0.374101    0.007051
      4          6           0       -3.842224   -0.524165   -0.203693
      5          8           0       -2.697328    0.143762    0.326047
      6          6           0       -1.506930   -0.638093    0.167893
      7          6           0       -0.301113    0.180165    0.628607
      8          8           0        0.052329    1.112294   -0.396056
      9          6           0        0.925821    2.156858    0.042509
     10          6           0        2.313420    1.675199    0.478609
     11          8           0        2.992264    1.086243   -0.633077
     12          6           0        4.274272    0.556406   -0.298096
     13          6           0        4.147933   -0.877110    0.212297
     14          6           0        5.490359   -1.515297    0.564257
     15          7           0        6.335321   -1.769386   -0.595798
     16          1           0       -6.146551   -2.138595    0.050166
     17          1           0       -6.926585   -1.176990    1.111900
     18          1           0       -6.204713   -0.433765   -1.641111
     19          1           0       -7.126510    0.569414   -0.528524
     20          1           0       -5.179982    0.580642    1.077866
     21          1           0       -4.855171    1.349663   -0.454636
     22          1           0       -3.692876   -0.712586   -1.272969
     23          1           0       -3.971147   -1.480395    0.314615
     24          1           0       -1.393074   -0.924840   -0.883653
     25          1           0       -1.600837   -1.535785    0.788408
     26          1           0       -0.537217    0.713182    1.556385
     27          1           0        0.546365   -0.493076    0.790511
     28          1           0        1.034935    2.838579   -0.807797
     29          1           0        0.440924    2.712727    0.852839
     30          1           0        2.894897    2.534343    0.831589
     31          1           0        2.232165    0.950595    1.293385
     32          1           0        4.783433    1.201857    0.427234
     33          1           0        4.863962    0.571941   -1.220084
     34          1           0        3.616046   -1.485406   -0.530502
     35          1           0        3.512593   -0.892103    1.105588
     36          1           0        6.034548   -0.884548    1.275665
     37          1           0        5.306787   -2.471852    1.065953
     38          1           0        6.576190   -0.898283   -1.065394
     39          1           0        5.823459   -2.325973   -1.280685
 ---------------------------------------------------------------------
 Rotational constants (GHZ):           1.3862919           0.1302227           0.1223801
 Standard basis: 6-31G(d,p) (6D, 7F)
 There are   345 symmetry adapted cartesian basis functions of A   symmetry.
 There are   345 symmetry adapted basis functions of A   symmetry.
   345 basis functions,   588 primitive gaussians,   345 cartesian basis functions
    61 alpha electrons       61 beta electrons
       nuclear repulsion energy      1013.1772462191 Hartrees.
 NAtoms=   39 NActive=   39 NUniq=   39 SFac= 1.00D+00 NAtFMM=   60 NAOKFM=F Big=F
 Integral buffers will be    131072 words long.
 Raffenetti 2 integral format.
 Two-electron integral symmetry is turned on.
 Force inversion solution in PCM.
 ------------------------------------------------------------------------------
 Polarizable Continuum Model (PCM)
 =================================
 Model                : PCM.
 Atomic radii         : UFF (Universal Force Field).
 Polarization charges : Total charges.
 Charge compensation  : None.
 Solution method      : Matrix inversion.
 Cavity type          : Scaled VdW (van der Waals Surface) (Alpha=1.100).
 Cavity algorithm     : GePol (No added spheres)
                        Default sphere list used, NSphG=   39.
                        Lebedev-Laikov grids with approx.  5.0 points / Ang**2.
                        Smoothing algorithm: York/Karplus (Gamma=1.0000).
                        Polarization charges: spherical gaussians, with
                                              point-specific exponents (IZeta= 3).
                        Self-potential: point-specific (ISelfS= 7).
                        Self-field    : sphere-specific E.n sum rule (ISelfD= 2).
 1st derivatives      : Analytical E(r).r(x)/FMM algorithm (CHGder, D1EAlg=3).
                        Cavity 1st derivative terms included.
 2nd derivatives      : Analytical E(r).r(xy)/FMM algorithm (CHGder, D2EAlg=3).
                        Cavity 2nd derivative terms included.
 Solvent              : Water, Eps=  78.355300 Eps(inf)=   1.777849
 ------------------------------------------------------------------------------
 One-electron integrals computed using PRISM.
 NBasis=   345 RedAO= T EigKep=  3.56D-03  NBF=   345
 NBsUse=   345 1.00D-06 EigRej= -1.00D+00 NBFU=   345
 ExpMin= 1.61D-01 ExpMax= 5.48D+03 ExpMxC= 8.25D+02 IAcc=3 IRadAn=         5 AccDes= 0.00D+00
 Harris functional with IExCor=  402 and IRadAn=       5 diagonalized for initial guess.
 HarFok:  IExCor=  402 AccDes= 0.00D+00 IRadAn=         5 IDoV= 1 UseB2=F ITyADJ=14
 ICtDFT=  3500011 ScaDFX=  1.000000  1.000000  1.000000  1.000000
 FoFCou: FMM=F IPFlag=           0 FMFlag=      100000 FMFlg1=           0
         NFxFlg=           0 DoJE=T BraDBF=F KetDBF=T FulRan=T
         wScrn=  0.000000 ICntrl=       500 IOpCl=  0 I1Cent=   200000004 NGrid=           0
         NMat0=    1 NMatS0=      1 NMatT0=    0 NMatD0=    1 NMtDS0=    0 NMtDT0=    0
 Petite list used in FoFCou.
 Requested convergence on RMS density matrix=1.00D-08 within  32 cycles.
 Requested convergence on MAX density matrix=1.00D-06.
 Requested convergence on             energy=1.00D-06.
 No special actions if energy rises.
 Inv3:  Mode=1 IEnd=    22819692.
 Iteration    1 A*A^-1 deviation from unit magnitude is 3.44D-15 for   1090.
 Iteration    1 A*A^-1 deviation from orthogonality  is 1.60D-15 for   2040    505.
 Iteration    1 A^-1*A deviation from unit magnitude is 2.89D-15 for    401.
 Iteration    1 A^-1*A deviation from orthogonality  is 1.57D-15 for   2185    408.
 Error on total polarization charges =  0.01146
 SCF Done:  E(RB3LYP) =  -730.676920774     A.U. after   11 cycles
            NFock= 11  Conv=0.59D-08     -V/T= 2.0092
 QCSCF skips out because SCF is already converged.
 DoSCS=F DFT=T ScalE2(SS,OS)=  1.000000  1.000000
 Range of M.O.s used for correlation:     1   345
 NBasis=   345 NAE=    61 NBE=    61 NFC=     0 NFV=     0
 NROrb=    345 NOA=    61 NOB=    61 NVA=   284 NVB=   284
 Symmetrizing basis deriv contribution to polar:
 IMax=3 JMax=2 DiffMx= 0.00D+00
 G2DrvN: will do    40 centers at a time, making    1 passes.
 Calling FoFCou, ICntrl=  3107 FMM=F I1Cent=   0 AccDes= 0.00D+00.
 NEqPCM:  Using equilibrium solvation (IEInf=0, Eps=  78.3553, EpsInf=   1.7778)
 G2PCM: DoFxE=T DoFxN=T DoGrad=T DoDP/DQ/DG/TGxP=FFFF NFrqRd=   0 IEInf=0 SqF1=F DoCFld=F IF1Alg=4.
 End of G2Drv F.D. properties file   721 does not exist.
 End of G2Drv F.D. properties file   722 does not exist.
 End of G2Drv F.D. properties file   788 does not exist.
          IDoAtm=111111111111111111111111111111111111111
 NEqPCM:  Using equilibrium solvation (IEInf=0, Eps=  78.3553, EpsInf=   1.7778)
          Differentiating once with respect to nuclear coordinates.
 CalDSu exits because no D1Ps are significant.
          There are   120 degrees of freedom in the 1st order CPHF.  IDoFFX=6 NUNeed=     0.
    114 vectors produced by pass  0 Test12= 1.73D-14 1.00D-09 XBig12= 9.00D-02 6.96D-02.
 AX will form   114 AO Fock derivatives at one time.
    114 vectors produced by pass  1 Test12= 1.73D-14 1.00D-09 XBig12= 6.72D-03 2.47D-02.
    114 vectors produced by pass  2 Test12= 1.73D-14 1.00D-09 XBig12= 1.35D-04 1.56D-03.
    114 vectors produced by pass  3 Test12= 1.73D-14 1.00D-09 XBig12= 3.87D-07 8.07D-05.
    114 vectors produced by pass  4 Test12= 1.73D-14 1.00D-09 XBig12= 3.08D-10 1.63D-06.
     51 vectors produced by pass  5 Test12= 1.73D-14 1.00D-09 XBig12= 1.84D-13 4.64D-08.
      4 vectors produced by pass  6 Test12= 1.73D-14 1.00D-09 XBig12= 1.36D-16 1.80D-09.
 InvSVY:  IOpt=1 It=  1 EMax= 2.78D-16
 Solved reduced A of dimension   625 with   120 vectors.
 End of Minotr F.D. properties file   721 does not exist.
 End of Minotr F.D. properties file   722 does not exist.
 End of Minotr F.D. properties file   788 does not exist.

 **********************************************************************

            Population analysis using the SCF density.

 **********************************************************************

 Orbital symmetries:
       Occupied  (A) (A) (A) (A) (A) (A) (A) (A) (A) (A) (A) (A)
                 (A) (A) (A) (A) (A) (A) (A) (A) (A) (A) (A) (A)
                 (A) (A) (A) (A) (A) (A) (A) (A) (A) (A) (A) (A)
                 (A) (A) (A) (A) (A) (A) (A) (A) (A) (A) (A) (A)
                 (A) (A) (A) (A) (A) (A) (A) (A) (A) (A) (A) (A)
                 (A)
       Virtual   (A) (A) (A) (A) (A) (A) (A) (A) (A) (A) (A) (A)
                 (A) (A) (A) (A) (A) (A) (A) (A) (A) (A) (A) (A)
                 (A) (A) (A) (A) (A) (A) (A) (A) (A) (A) (A) (A)
                 (A) (A) (A) (A) (A) (A) (A) (A) (A) (A) (A) (A)
                 (A) (A) (A) (A) (A) (A) (A) (A) (A) (A) (A) (A)
                 (A) (A) (A) (A) (A) (A) (A) (A) (A) (A) (A) (A)
                 (A) (A) (A) (A) (A) (A) (A) (A) (A) (A) (A) (A)
                 (A) (A) (A) (A) (A) (A) (A) (A) (A) (A) (A) (A)
                 (A) (A) (A) (A) (A) (A) (A) (A) (A) (A) (A) (A)
                 (A) (A) (A) (A) (A) (A) (A) (A) (A) (A) (A) (A)
                 (A) (A) (A) (A) (A) (A) (A) (A) (A) (A) (A) (A)
                 (A) (A) (A) (A) (A) (A) (A) (A) (A) (A) (A) (A)
                 (A) (A) (A) (A) (A) (A) (A) (A) (A) (A) (A) (A)
                 (A) (A) (A) (A) (A) (A) (A) (A) (A) (A) (A) (A)
                 (A) (A) (A) (A) (A) (A) (A) (A) (A) (A) (A) (A)
                 (A) (A) (A) (A) (A) (A) (A) (A) (A) (A) (A) (A)
                 (A) (A) (A) (A) (A) (A) (A) (A) (A) (A) (A) (A)
                 (A) (A) (A) (A) (A) (A) (A) (A) (A) (A) (A) (A)
                 (A) (A) (A) (A) (A) (A) (A) (A) (A) (A) (A) (A)
                 (A) (A) (A) (A) (A) (A) (A) (A) (A) (A) (A) (A)
                 (A) (A) (A) (A) (A) (A) (A) (A) (A) (A) (A) (A)
                 (A) (A) (A) (A) (A) (A) (A) (A) (A) (A) (A) (A)
                 (A) (A) (A) (A) (A) (A) (A) (A) (A) (A) (A) (A)
                 (A) (A) (A) (A) (A) (A) (A) (A)
 The electronic state is 1-A.
 Alpha  occ. eigenvalues --  -19.14757 -19.14553 -19.14549 -14.30928 -14.30908
 Alpha  occ. eigenvalues --  -10.23287 -10.23179 -10.23109 -10.22972 -10.22676
 Alpha  occ. eigenvalues --  -10.22612 -10.20466 -10.20402 -10.17608 -10.17427
 Alpha  occ. eigenvalues --   -1.03471  -1.02489  -1.01503  -0.87921  -0.87918
 Alpha  occ. eigenvalues --   -0.78046  -0.76489  -0.74221  -0.71622  -0.66243
 Alpha  occ. eigenvalues --   -0.65049  -0.62092  -0.59326  -0.58538  -0.57946
 Alpha  occ. eigenvalues --   -0.50628  -0.50187  -0.50073  -0.48657  -0.48547
 Alpha  occ. eigenvalues --   -0.47819  -0.47231  -0.45082  -0.44743  -0.43981
 Alpha  occ. eigenvalues --   -0.42968  -0.42270  -0.40702  -0.40349  -0.39573
 Alpha  occ. eigenvalues --   -0.38984  -0.38421  -0.37071  -0.36854  -0.35809
 Alpha  occ. eigenvalues --   -0.34057  -0.33961  -0.33797  -0.32072  -0.31520
 Alpha  occ. eigenvalues --   -0.30351  -0.26029  -0.25514  -0.25107  -0.23258
 Alpha  occ. eigenvalues --   -0.23076
 Alpha virt. eigenvalues --    0.07899   0.07931   0.08302   0.09630   0.10760
 Alpha virt. eigenvalues --    0.11659   0.12363   0.12812   0.13043   0.13235
 Alpha virt. eigenvalues --    0.13752   0.14532   0.15608   0.15837   0.16058
 Alpha virt. eigenvalues --    0.17470   0.17563   0.17728   0.18079   0.18784
 Alpha virt. eigenvalues --    0.19046   0.19117   0.20097   0.20677   0.21140
 Alpha virt. eigenvalues --    0.21425   0.21819   0.23853   0.24306   0.24694
 Alpha virt. eigenvalues --    0.25590   0.26078   0.26394   0.26788   0.27658
 Alpha virt. eigenvalues --    0.28195   0.29426   0.30759   0.50149   0.50656
 Alpha virt. eigenvalues --    0.51213   0.52634   0.53101   0.53470   0.54010
 Alpha virt. eigenvalues --    0.55051   0.55680   0.56572   0.56957   0.57101
 Alpha virt. eigenvalues --    0.58544   0.58970   0.60278   0.61523   0.63004
 Alpha virt. eigenvalues --    0.63868   0.65643   0.66156   0.67051   0.67713
 Alpha virt. eigenvalues --    0.68044   0.68565   0.69121   0.71677   0.72977
 Alpha virt. eigenvalues --    0.73646   0.74153   0.76440   0.77196   0.77971
 Alpha virt. eigenvalues --    0.78876   0.81090   0.81719   0.81741   0.82501
 Alpha virt. eigenvalues --    0.83332   0.85040   0.85844   0.86385   0.87031
 Alpha virt. eigenvalues --    0.87256   0.87582   0.87936   0.89312   0.89961
 Alpha virt. eigenvalues --    0.90769   0.91029   0.91752   0.92679   0.93197
 Alpha virt. eigenvalues --    0.93836   0.94292   0.94565   0.95950   0.97697
 Alpha virt. eigenvalues --    0.98434   0.99559   0.99723   1.01422   1.01941
 Alpha virt. eigenvalues --    1.05117   1.06476   1.08992   1.11989   1.13223
 Alpha virt. eigenvalues --    1.14157   1.16220   1.18436   1.21343   1.24511
 Alpha virt. eigenvalues --    1.25663   1.28693   1.31265   1.31844   1.33480
 Alpha virt. eigenvalues --    1.34538   1.36570   1.39459   1.41049   1.41604
 Alpha virt. eigenvalues --    1.44806   1.46887   1.48207   1.49810   1.51030
 Alpha virt. eigenvalues --    1.53408   1.55708   1.55955   1.57171   1.60608
 Alpha virt. eigenvalues --    1.62462   1.64819   1.65441   1.68719   1.71091
 Alpha virt. eigenvalues --    1.72363   1.72989   1.73651   1.75894   1.76480
 Alpha virt. eigenvalues --    1.81187   1.82450   1.83227   1.83902   1.85746
 Alpha virt. eigenvalues --    1.86546   1.88894   1.89326   1.90762   1.91773
 Alpha virt. eigenvalues --    1.92878   1.93094   1.95053   1.96273   1.96580
 Alpha virt. eigenvalues --    1.96763   1.97512   1.99132   1.99614   1.99824
 Alpha virt. eigenvalues --    2.01268   2.01626   2.02752   2.03486   2.05011
 Alpha virt. eigenvalues --    2.07011   2.07457   2.07751   2.08163   2.10516
 Alpha virt. eigenvalues --    2.11580   2.12274   2.12699   2.14046   2.15832
 Alpha virt. eigenvalues --    2.18682   2.19759   2.20087   2.22291   2.22568
 Alpha virt. eigenvalues --    2.23900   2.24539   2.25783   2.26664   2.26738
 Alpha virt. eigenvalues --    2.27392   2.28753   2.29435   2.29659   2.32093
 Alpha virt. eigenvalues --    2.33629   2.34864   2.35569   2.36929   2.39840
 Alpha virt. eigenvalues --    2.41370   2.42442   2.45085   2.46894   2.47379
 Alpha virt. eigenvalues --    2.48860   2.52029   2.53223   2.55212   2.56173
 Alpha virt. eigenvalues --    2.57773   2.59784   2.61845   2.63270   2.63464
 Alpha virt. eigenvalues --    2.65236   2.66922   2.67343   2.67805   2.69357
 Alpha virt. eigenvalues --    2.70219   2.70863   2.71753   2.73240   2.74533
 Alpha virt. eigenvalues --    2.74854   2.75804   2.76376   2.77840   2.80474
 Alpha virt. eigenvalues --    2.82237   2.83136   2.83716   2.84689   2.85040
 Alpha virt. eigenvalues --    2.88048   2.89173   2.90515   2.91539   2.92255
 Alpha virt. eigenvalues --    2.94466   2.94943   2.96130   2.97956   2.98177
 Alpha virt. eigenvalues --    2.99517   2.99766   3.00793   3.05205   3.08360
 Alpha virt. eigenvalues --    3.23365   3.24445   3.26344   3.28177   3.28990
 Alpha virt. eigenvalues --    3.29688   3.30629   3.31428   3.31965   3.32001
 Alpha virt. eigenvalues --    3.32481   3.33880   3.39404   3.39940   3.41826
 Alpha virt. eigenvalues --    3.43629   3.44664   3.46161   3.51275   3.52341
 Alpha virt. eigenvalues --    3.55510   3.55924   3.59512   3.59764   3.95201
 Alpha virt. eigenvalues --    3.95723   3.96737   4.01977   4.03237   4.35472
 Alpha virt. eigenvalues --    4.36019   4.37865   4.40145   4.54942   4.56413
 Alpha virt. eigenvalues --    4.58983   4.63046   4.67315   4.69614
          Condensed to atoms (all electrons):
               1          2          3          4          5          6
     1  N    6.758270   0.327277  -0.073607  -0.005920   0.000054   0.000014
     2  C    0.327277   4.802111   0.344769  -0.036908   0.002334  -0.000170
     3  C   -0.073607   0.344769   5.046271   0.379794  -0.039891   0.004485
     4  C   -0.005920  -0.036908   0.379794   4.728897   0.227354  -0.025425
     5  O    0.000054   0.002334  -0.039891   0.227354   8.302428   0.228507
     6  C    0.000014  -0.000170   0.004485  -0.025425   0.228507   4.755893
     7  C    0.000000   0.000002  -0.000280   0.004586  -0.039019   0.375162
     8  O   -0.000000  -0.000000   0.000001  -0.000033   0.001943  -0.038792
     9  C    0.000000   0.000000  -0.000000   0.000007  -0.000108   0.004551
    10  C   -0.000000  -0.000000   0.000000  -0.000000   0.000005   0.000116
    11  O    0.000000  -0.000000  -0.000000  -0.000000  -0.000000  -0.000027
    12  C   -0.000000   0.000000  -0.000000   0.000000  -0.000000   0.000001
    13  C    0.000000  -0.000000   0.000000  -0.000000  -0.000000  -0.000002
    14  C    0.000000  -0.000000   0.000000  -0.000000   0.000000  -0.000000
    15  N    0.000000   0.000000  -0.000000  -0.000000  -0.000000  -0.000000
    16  H    0.351299  -0.044306  -0.003324   0.002503  -0.000068   0.000006
    17  H    0.347551  -0.044717  -0.002905  -0.000941  -0.000005  -0.000000
    18  H   -0.038553   0.389332  -0.046794  -0.008009   0.000011  -0.000002
    19  H   -0.039594   0.386834  -0.041323   0.004404  -0.000056   0.000002
    20  H   -0.004835  -0.031725   0.375176  -0.038641   0.003018  -0.000024
    21  H    0.006010  -0.024333   0.346300  -0.034417   0.002853   0.000025
    22  H   -0.000121  -0.000075  -0.041725   0.369919  -0.040042  -0.008084
    23  H    0.006664  -0.001663  -0.042227   0.360606  -0.039872  -0.005879
    24  H    0.000000   0.000025   0.000121  -0.008547  -0.040172   0.358973
    25  H   -0.000006   0.000014   0.000054  -0.006745  -0.041395   0.360573
    26  H   -0.000000   0.000000  -0.000001  -0.000147   0.000296  -0.032104
    27  H   -0.000000  -0.000000   0.000003  -0.000167   0.002861  -0.036338
    28  H   -0.000000   0.000000   0.000000  -0.000000   0.000002  -0.000227
    29  H   -0.000000  -0.000000  -0.000000  -0.000001  -0.000006   0.000163
    30  H    0.000000  -0.000000   0.000000  -0.000000   0.000000  -0.000004
    31  H    0.000000  -0.000000   0.000000   0.000000  -0.000000  -0.000037
    32  H    0.000000   0.000000  -0.000000  -0.000000  -0.000000  -0.000000
    33  H   -0.000000   0.000000  -0.000000  -0.000000  -0.000000  -0.000000
    34  H    0.000000  -0.000000   0.000000  -0.000000  -0.000000  -0.000000
    35  H    0.000000  -0.000000   0.000000  -0.000000   0.000000  -0.000002
    36  H    0.000000   0.000000  -0.000000   0.000000  -0.000000   0.000000
    37  H    0.000000   0.000000  -0.000000  -0.000000   0.000000   0.000000
    38  H    0.000000   0.000000  -0.000000  -0.000000   0.000000  -0.000000
    39  H    0.000000   0.000000  -0.000000   0.000000  -0.000000   0.000000
               7          8          9         10         11         12
     1  N    0.000000  -0.000000   0.000000  -0.000000   0.000000  -0.000000
     2  C    0.000002  -0.000000   0.000000  -0.000000  -0.000000   0.000000
     3  C   -0.000280   0.000001  -0.000000   0.000000  -0.000000  -0.000000
     4  C    0.004586  -0.000033   0.000007  -0.000000  -0.000000   0.000000
     5  O   -0.039019   0.001943  -0.000108   0.000005  -0.000000  -0.000000
     6  C    0.375162  -0.038792   0.004551   0.000116  -0.000027   0.000001
     7  C    4.769763   0.230433  -0.032647  -0.006597  -0.000477  -0.000003
     8  O    0.230433   8.264064   0.255235  -0.044563   0.002991  -0.000049
     9  C   -0.032647   0.255235   4.757002   0.341863  -0.039719   0.004213
    10  C   -0.006597  -0.044563   0.341863   4.841202   0.229681  -0.029932
    11  O   -0.000477   0.002991  -0.039719   0.229681   8.279414   0.235327
    12  C   -0.000003  -0.000049   0.004213  -0.029932   0.235327   4.740171
    13  C   -0.000142  -0.000002   0.000042  -0.006889  -0.044111   0.365916
    14  C    0.000001  -0.000000  -0.000002   0.000062   0.003139  -0.033369
    15  N   -0.000000   0.000000   0.000000  -0.000000   0.000045  -0.007161
    16  H   -0.000000   0.000000   0.000000   0.000000  -0.000000  -0.000000
    17  H    0.000000  -0.000000  -0.000000  -0.000000  -0.000000  -0.000000
    18  H    0.000000  -0.000000  -0.000000   0.000000  -0.000000   0.000000
    19  H   -0.000000   0.000000  -0.000000   0.000000  -0.000000  -0.000000
    20  H   -0.000003   0.000000   0.000000   0.000000  -0.000000   0.000000
    21  H    0.000011  -0.000001  -0.000000   0.000000  -0.000000   0.000000
    22  H    0.000179  -0.000008   0.000000   0.000000  -0.000000   0.000000
    23  H    0.000025  -0.000000  -0.000000   0.000000  -0.000000   0.000000
    24  H   -0.032564  -0.000044  -0.000078  -0.000031   0.000006  -0.000000
    25  H   -0.035485   0.002940  -0.000169   0.000018  -0.000000   0.000000
    26  H    0.357248  -0.039774  -0.007734  -0.002891   0.000099   0.000000
    27  H    0.362498  -0.042622  -0.005322   0.004602   0.001604  -0.000141
    28  H    0.005469  -0.036699   0.383353  -0.040757   0.001223   0.000052
    29  H   -0.010559  -0.037594   0.364043  -0.049591   0.002980  -0.000154
    30  H    0.000021   0.003087  -0.027455   0.357644  -0.039105  -0.011087
    31  H    0.004442  -0.005665  -0.035396   0.361852  -0.047394   0.000340
    32  H   -0.000007   0.000002   0.000050  -0.010313  -0.031344   0.368791
    33  H   -0.000002   0.000004  -0.000250   0.005314  -0.033376   0.379235
    34  H   -0.000037   0.000005  -0.000007  -0.000215   0.002534  -0.038932
    35  H   -0.000221   0.000003  -0.000190   0.000652  -0.001467  -0.035063
    36  H   -0.000000   0.000000  -0.000000  -0.000002   0.000018  -0.007869
    37  H    0.000000   0.000000  -0.000000  -0.000010  -0.000075   0.004118
    38  H    0.000000   0.000000  -0.000000   0.000004  -0.000052   0.002151
    39  H   -0.000000   0.000000  -0.000000   0.000000  -0.000002  -0.000915
              13         14         15         16         17         18
     1  N    0.000000   0.000000   0.000000   0.351299   0.347551  -0.038553
     2  C   -0.000000  -0.000000   0.000000  -0.044306  -0.044717   0.389332
     3  C    0.000000   0.000000  -0.000000  -0.003324  -0.002905  -0.046794
     4  C   -0.000000  -0.000000  -0.000000   0.002503  -0.000941  -0.008009
     5  O   -0.000000   0.000000  -0.000000  -0.000068  -0.000005   0.000011
     6  C   -0.000002  -0.000000  -0.000000   0.000006  -0.000000  -0.000002
     7  C   -0.000142   0.000001  -0.000000  -0.000000   0.000000   0.000000
     8  O   -0.000002  -0.000000   0.000000   0.000000  -0.000000  -0.000000
     9  C    0.000042  -0.000002   0.000000   0.000000  -0.000000  -0.000000
    10  C   -0.006889   0.000062  -0.000000   0.000000  -0.000000   0.000000
    11  O   -0.044111   0.003139   0.000045  -0.000000  -0.000000  -0.000000
    12  C    0.365916  -0.033369  -0.007161  -0.000000  -0.000000   0.000000
    13  C    5.091186   0.325380  -0.072525  -0.000000  -0.000000  -0.000000
    14  C    0.325380   4.817964   0.328337   0.000000  -0.000000  -0.000000
    15  N   -0.072525   0.328337   6.756908   0.000000   0.000000   0.000000
    16  H   -0.000000   0.000000   0.000000   0.470998  -0.034494  -0.005787
    17  H   -0.000000  -0.000000   0.000000  -0.034494   0.476553   0.006446
    18  H   -0.000000  -0.000000   0.000000  -0.005787   0.006446   0.619414
    19  H    0.000000   0.000000   0.000000   0.006263  -0.004997  -0.035246
    20  H    0.000000   0.000000  -0.000000  -0.000285   0.005608   0.005624
    21  H   -0.000000  -0.000000  -0.000000   0.000023   0.000071  -0.000714
    22  H    0.000000   0.000000  -0.000000  -0.000116   0.000045   0.005682
    23  H   -0.000000  -0.000000   0.000000   0.004538   0.000787   0.000006
    24  H    0.000000   0.000000   0.000000  -0.000001  -0.000000  -0.000001
    25  H   -0.000000  -0.000000  -0.000000   0.000004   0.000000  -0.000000
    26  H   -0.000000  -0.000000   0.000000  -0.000000  -0.000000  -0.000000
    27  H    0.000534   0.000012   0.000000   0.000000   0.000000  -0.000000
    28  H    0.000006  -0.000000  -0.000000  -0.000000   0.000000  -0.000000
    29  H    0.000007  -0.000000  -0.000000   0.000000   0.000000  -0.000000
    30  H   -0.000741   0.000078   0.000000   0.000000   0.000000  -0.000000
    31  H    0.003733  -0.000627   0.000003  -0.000000  -0.000000  -0.000000
    32  H   -0.051721   0.002136  -0.000342  -0.000000  -0.000000  -0.000000
    33  H   -0.050425  -0.002436   0.008167  -0.000000   0.000000  -0.000000
    34  H    0.376890  -0.031946  -0.005127  -0.000000  -0.000000   0.000000
    35  H    0.352263  -0.024446   0.006006  -0.000000   0.000000   0.000000
    36  H   -0.047462   0.389921  -0.038537  -0.000000   0.000000   0.000000
    37  H   -0.039329   0.383269  -0.040409   0.000000   0.000000   0.000000
    38  H   -0.003147  -0.044280   0.351482   0.000000   0.000000   0.000000
    39  H   -0.003063  -0.044706   0.347612  -0.000000   0.000000   0.000000
              19         20         21         22         23         24
     1  N   -0.039594  -0.004835   0.006010  -0.000121   0.006664   0.000000
     2  C    0.386834  -0.031725  -0.024333  -0.000075  -0.001663   0.000025
     3  C   -0.041323   0.375176   0.346300  -0.041725  -0.042227   0.000121
     4  C    0.004404  -0.038641  -0.034417   0.369919   0.360606  -0.008547
     5  O   -0.000056   0.003018   0.002853  -0.040042  -0.039872  -0.040172
     6  C    0.000002  -0.000024   0.000025  -0.008084  -0.005879   0.358973
     7  C   -0.000000  -0.000003   0.000011   0.000179   0.000025  -0.032564
     8  O    0.000000   0.000000  -0.000001  -0.000008  -0.000000  -0.000044
     9  C   -0.000000   0.000000  -0.000000   0.000000  -0.000000  -0.000078
    10  C    0.000000   0.000000   0.000000   0.000000   0.000000  -0.000031
    11  O   -0.000000  -0.000000  -0.000000  -0.000000  -0.000000   0.000006
    12  C   -0.000000   0.000000   0.000000   0.000000   0.000000  -0.000000
    13  C    0.000000   0.000000  -0.000000   0.000000  -0.000000   0.000000
    14  C    0.000000   0.000000  -0.000000   0.000000  -0.000000   0.000000
    15  N    0.000000  -0.000000  -0.000000  -0.000000   0.000000   0.000000
    16  H    0.006263  -0.000285   0.000023  -0.000116   0.004538  -0.000001
    17  H   -0.004997   0.005608   0.000071   0.000045   0.000787  -0.000000
    18  H   -0.035246   0.005624  -0.000714   0.005682   0.000006  -0.000001
    19  H    0.622422  -0.003390  -0.002441  -0.000034  -0.000020   0.000000
    20  H   -0.003390   0.626972  -0.037535   0.006589  -0.007992   0.000043
    21  H   -0.002441  -0.037535   0.647328  -0.007863   0.007495  -0.000053
    22  H   -0.000034   0.006589  -0.007863   0.670030  -0.057526   0.013792
    23  H   -0.000020  -0.007992   0.007495  -0.057526   0.681897  -0.002995
    24  H    0.000000   0.000043  -0.000053   0.013792  -0.002995   0.652912
    25  H   -0.000000  -0.000057   0.000039  -0.002534   0.012159  -0.049088
    26  H   -0.000000   0.000008  -0.000001   0.000048  -0.000027   0.006728
    27  H    0.000000   0.000000   0.000000   0.000009   0.000018  -0.001226
    28  H    0.000000  -0.000000  -0.000000  -0.000000   0.000000  -0.000014
    29  H   -0.000000  -0.000000   0.000000  -0.000000   0.000000   0.000054
    30  H    0.000000  -0.000000   0.000000  -0.000000   0.000000   0.000000
    31  H    0.000000   0.000000  -0.000000   0.000000  -0.000000   0.000001
    32  H   -0.000000  -0.000000  -0.000000   0.000000  -0.000000   0.000000
    33  H   -0.000000  -0.000000   0.000000  -0.000000   0.000000   0.000000
    34  H   -0.000000   0.000000  -0.000000   0.000000  -0.000000   0.000001
    35  H    0.000000  -0.000000  -0.000000  -0.000000  -0.000000   0.000000
    36  H    0.000000  -0.000000  -0.000000  -0.000000  -0.000000   0.000000
    37  H    0.000000  -0.000000   0.000000  -0.000000   0.000000  -0.000000
    38  H    0.000000  -0.000000   0.000000  -0.000000   0.000000   0.000000
    39  H    0.000000  -0.000000  -0.000000  -0.000000   0.000000   0.000000
              25         26         27         28         29         30
     1  N   -0.000006  -0.000000  -0.000000  -0.000000  -0.000000   0.000000
     2  C    0.000014   0.000000  -0.000000   0.000000  -0.000000  -0.000000
     3  C    0.000054  -0.000001   0.000003   0.000000  -0.000000   0.000000
     4  C   -0.006745  -0.000147  -0.000167  -0.000000  -0.000001  -0.000000
     5  O   -0.041395   0.000296   0.002861   0.000002  -0.000006   0.000000
     6  C    0.360573  -0.032104  -0.036338  -0.000227   0.000163  -0.000004
     7  C   -0.035485   0.357248   0.362498   0.005469  -0.010559   0.000021
     8  O    0.002940  -0.039774  -0.042622  -0.036699  -0.037594   0.003087
     9  C   -0.000169  -0.007734  -0.005322   0.383353   0.364043  -0.027455
    10  C    0.000018  -0.002891   0.004602  -0.040757  -0.049591   0.357644
    11  O   -0.000000   0.000099   0.001604   0.001223   0.002980  -0.039105
    12  C    0.000000   0.000000  -0.000141   0.000052  -0.000154  -0.011087
    13  C   -0.000000  -0.000000   0.000534   0.000006   0.000007  -0.000741
    14  C   -0.000000  -0.000000   0.000012  -0.000000  -0.000000   0.000078
    15  N   -0.000000   0.000000   0.000000  -0.000000  -0.000000   0.000000
    16  H    0.000004  -0.000000   0.000000  -0.000000   0.000000   0.000000
    17  H    0.000000  -0.000000   0.000000   0.000000   0.000000   0.000000
    18  H   -0.000000  -0.000000  -0.000000  -0.000000  -0.000000  -0.000000
    19  H   -0.000000  -0.000000   0.000000   0.000000  -0.000000   0.000000
    20  H   -0.000057   0.000008   0.000000  -0.000000  -0.000000  -0.000000
    21  H    0.000039  -0.000001   0.000000  -0.000000   0.000000   0.000000
    22  H   -0.002534   0.000048   0.000009  -0.000000  -0.000000  -0.000000
    23  H    0.012159  -0.000027   0.000018   0.000000   0.000000   0.000000
    24  H   -0.049088   0.006728  -0.001226  -0.000014   0.000054   0.000000
    25  H    0.660580  -0.001696   0.002358   0.000003   0.000003  -0.000000
    26  H   -0.001696   0.650559  -0.048226  -0.000021   0.014179   0.000091
    27  H    0.002358  -0.048226   0.657113  -0.000348  -0.001460  -0.000043
    28  H    0.000003  -0.000021  -0.000348   0.606802  -0.035224  -0.003854
    29  H    0.000003   0.014179  -0.001460  -0.035224   0.648371   0.002992
    30  H   -0.000000   0.000091  -0.000043  -0.003854   0.002992   0.660458
    31  H    0.000011   0.000373  -0.002345   0.006083  -0.001521  -0.053513
    32  H   -0.000000  -0.000000   0.000025   0.000002   0.000011   0.011535
    33  H   -0.000000   0.000000   0.000006  -0.000023   0.000004   0.000391
    34  H   -0.000000   0.000000   0.000280   0.000003   0.000001   0.000055
    35  H   -0.000000  -0.000002   0.001137  -0.000004   0.000006   0.000163
    36  H   -0.000000   0.000000   0.000001   0.000000  -0.000000   0.000001
    37  H   -0.000000   0.000000  -0.000001   0.000000   0.000000  -0.000001
    38  H   -0.000000   0.000000  -0.000000  -0.000000   0.000000   0.000000
    39  H    0.000000   0.000000   0.000000   0.000000   0.000000  -0.000000
              31         32         33         34         35         36
     1  N    0.000000   0.000000  -0.000000   0.000000   0.000000   0.000000
     2  C   -0.000000   0.000000   0.000000  -0.000000  -0.000000   0.000000
     3  C    0.000000  -0.000000  -0.000000   0.000000   0.000000  -0.000000
     4  C    0.000000  -0.000000  -0.000000  -0.000000  -0.000000   0.000000
     5  O   -0.000000  -0.000000  -0.000000  -0.000000   0.000000  -0.000000
     6  C   -0.000037  -0.000000  -0.000000  -0.000000  -0.000002   0.000000
     7  C    0.004442  -0.000007  -0.000002  -0.000037  -0.000221  -0.000000
     8  O   -0.005665   0.000002   0.000004   0.000005   0.000003   0.000000
     9  C   -0.035396   0.000050  -0.000250  -0.000007  -0.000190  -0.000000
    10  C    0.361852  -0.010313   0.005314  -0.000215   0.000652  -0.000002
    11  O   -0.047394  -0.031344  -0.033376   0.002534  -0.001467   0.000018
    12  C    0.000340   0.368791   0.379235  -0.038932  -0.035063  -0.007869
    13  C    0.003733  -0.051721  -0.050425   0.376890   0.352263  -0.047462
    14  C   -0.000627   0.002136  -0.002436  -0.031946  -0.024446   0.389921
    15  N    0.000003  -0.000342   0.008167  -0.005127   0.006006  -0.038537
    16  H   -0.000000  -0.000000  -0.000000  -0.000000  -0.000000  -0.000000
    17  H   -0.000000  -0.000000   0.000000  -0.000000   0.000000   0.000000
    18  H   -0.000000  -0.000000  -0.000000   0.000000   0.000000   0.000000
    19  H    0.000000  -0.000000  -0.000000  -0.000000   0.000000   0.000000
    20  H    0.000000  -0.000000  -0.000000   0.000000  -0.000000  -0.000000
    21  H   -0.000000  -0.000000   0.000000  -0.000000  -0.000000  -0.000000
    22  H    0.000000   0.000000  -0.000000   0.000000  -0.000000  -0.000000
    23  H   -0.000000  -0.000000   0.000000  -0.000000  -0.000000  -0.000000
    24  H    0.000001   0.000000   0.000000   0.000001   0.000000   0.000000
    25  H    0.000011  -0.000000  -0.000000  -0.000000  -0.000000  -0.000000
    26  H    0.000373  -0.000000   0.000000   0.000000  -0.000002   0.000000
    27  H   -0.002345   0.000025   0.000006   0.000280   0.001137   0.000001
    28  H    0.006083   0.000002  -0.000023   0.000003  -0.000004   0.000000
    29  H   -0.001521   0.000011   0.000004   0.000001   0.000006  -0.000000
    30  H   -0.053513   0.011535   0.000391   0.000055   0.000163   0.000001
    31  H    0.667426  -0.001553  -0.000324   0.000071   0.002240   0.000002
    32  H   -0.001553   0.654468  -0.041744   0.006206  -0.006409   0.005300
    33  H   -0.000324  -0.041744   0.633840  -0.006809   0.006704   0.000147
    34  H    0.000071   0.006206  -0.006809   0.625150  -0.037596   0.005559
    35  H    0.002240  -0.006409   0.006704  -0.037596   0.642282  -0.000616
    36  H    0.000002   0.005300   0.000147   0.005559  -0.000616   0.620320
    37  H    0.000036  -0.000097  -0.000022  -0.003206  -0.002432  -0.035495
    38  H   -0.000001   0.000017   0.003995  -0.000222  -0.000002  -0.005853
    39  H    0.000000   0.000049   0.000772   0.005621   0.000074   0.006462
              37         38         39
     1  N    0.000000   0.000000   0.000000
     2  C    0.000000   0.000000   0.000000
     3  C   -0.000000  -0.000000  -0.000000
     4  C   -0.000000  -0.000000   0.000000
     5  O    0.000000   0.000000  -0.000000
     6  C    0.000000  -0.000000   0.000000
     7  C    0.000000   0.000000  -0.000000
     8  O    0.000000   0.000000   0.000000
     9  C   -0.000000  -0.000000  -0.000000
    10  C   -0.000010   0.000004   0.000000
    11  O   -0.000075  -0.000052  -0.000002
    12  C    0.004118   0.002151  -0.000915
    13  C   -0.039329  -0.003147  -0.003063
    14  C    0.383269  -0.044280  -0.044706
    15  N   -0.040409   0.351482   0.347612
    16  H    0.000000   0.000000  -0.000000
    17  H    0.000000   0.000000   0.000000
    18  H    0.000000   0.000000   0.000000
    19  H    0.000000   0.000000   0.000000
    20  H   -0.000000  -0.000000  -0.000000
    21  H    0.000000   0.000000  -0.000000
    22  H   -0.000000  -0.000000  -0.000000
    23  H    0.000000   0.000000   0.000000
    24  H   -0.000000   0.000000   0.000000
    25  H   -0.000000  -0.000000   0.000000
    26  H    0.000000   0.000000   0.000000
    27  H   -0.000001  -0.000000   0.000000
    28  H    0.000000  -0.000000   0.000000
    29  H    0.000000   0.000000   0.000000
    30  H   -0.000001   0.000000  -0.000000
    31  H    0.000036  -0.000001   0.000000
    32  H   -0.000097   0.000017   0.000049
    33  H   -0.000022   0.003995   0.000772
    34  H   -0.003206  -0.000222   0.005621
    35  H   -0.002432  -0.000002   0.000074
    36  H   -0.035495  -0.005853   0.006462
    37  H    0.626938   0.006298  -0.004966
    38  H    0.006298   0.471980  -0.034936
    39  H   -0.004966  -0.034936   0.476924
 Mulliken charges:
               1
     1  N   -0.634504
     2  C   -0.068800
     3  C   -0.204898
     4  C    0.087832
     5  O   -0.531032
     6  C    0.058646
     7  C    0.048202
     8  O   -0.514864
     9  C    0.038722
    10  C    0.048778
    11  O   -0.521911
    12  C    0.064361
    13  C   -0.196397
    14  C   -0.068486
    15  N   -0.634459
    16  H    0.252746
    17  H    0.250997
    18  H    0.108590
    19  H    0.107176
    20  H    0.101448
    21  H    0.097201
    22  H    0.091835
    23  H    0.084007
    24  H    0.102155
    25  H    0.098419
    26  H    0.102996
    27  H    0.105179
    28  H    0.114176
    29  H    0.103297
    30  H    0.099287
    31  H    0.101765
    32  H    0.094938
    33  H    0.096831
    34  H    0.101723
    35  H    0.096919
    36  H    0.108102
    37  H    0.105385
    38  H    0.252565
    39  H    0.251074
 Sum of Mulliken charges =  -0.00000
 Mulliken charges with hydrogens summed into heavy atoms:
               1
     1  N   -0.130761
     2  C    0.146966
     3  C   -0.006248
     4  C    0.263674
     5  O   -0.531032
     6  C    0.259221
     7  C    0.256377
     8  O   -0.514864
     9  C    0.256195
    10  C    0.249829
    11  O   -0.521911
    12  C    0.256131
    13  C    0.002245
    14  C    0.145001
    15  N   -0.130821
 APT charges:
               1
     1  N   -0.240432
     2  C   -1.339387
     3  C   -0.377763
     4  C   -0.493586
     5  O   -0.438247
     6  C   -0.406394
     7  C   -0.448403
     8  O   -0.446136
     9  C   -0.739970
    10  C   -0.551518
    11  O   -0.401216
    12  C   -1.059320
    13  C    0.117848
    14  C   -1.108998
    15  N   -0.536098
    16  H   -0.164400
    17  H    0.514511
    18  H    0.284707
    19  H    0.887057
    20  H    0.367058
    21  H    0.252172
    22  H    0.241131
    23  H    0.333643
    24  H    0.257030
    25  H    0.375459
    26  H    0.356274
    27  H    0.254825
    28  H    0.521843
    29  H    0.374969
    30  H    0.619756
    31  H    0.173734
    32  H    0.550412
    33  H    0.631156
    34  H    0.052355
    35  H    0.029988
    36  H    0.595260
    37  H    0.375914
    38  H    0.444353
    39  H    0.140415
 Sum of APT charges =  -0.00000
 APT charges with hydrogens summed into heavy atoms:
               1
     1  N    0.109679
     2  C   -0.167624
     3  C    0.241466
     4  C    0.081187
     5  O   -0.438247
     6  C    0.226095
     7  C    0.162696
     8  O   -0.446136
     9  C    0.156843
    10  C    0.241972
    11  O   -0.401216
    12  C    0.122248
    13  C    0.200190
    14  C   -0.137824
    15  N    0.048670
 Electronic spatial extent (au):  <R**2>=           8707.4724
 Charge=             -0.0000 electrons
 Dipole moment (field-independent basis, Debye):
    X=              1.2196    Y=             -0.1961    Z=              2.4061  Tot=              2.7047
 Quadrupole moment (field-independent basis, Debye-Ang):
   XX=           -118.1679   YY=            -91.7216   ZZ=            -91.0502
   XY=              7.2936   XZ=             -3.1896   YZ=              2.5329
 Traceless Quadrupole moment (field-independent basis, Debye-Ang):
   XX=            -17.8547   YY=              8.5916   ZZ=              9.2631
   XY=              7.2936   XZ=             -3.1896   YZ=              2.5329
 Octapole moment (field-independent basis, Debye-Ang**2):
  XXX=             49.8999  YYY=             14.1542  ZZZ=             -4.0348  XYY=             -7.8167
  XXY=            121.4466  XXZ=             23.1648  XZZ=              0.8290  YZZ=             -5.1520
  YYZ=              2.2744  XYZ=             17.5503
 Hexadecapole moment (field-independent basis, Debye-Ang**3):
 XXXX=         -13052.8897 YYYY=           -886.9635 ZZZZ=           -265.2898 XXXY=            130.6648
 XXXZ=           -389.0544 YYYX=             62.4200 YYYZ=              2.4819 ZZZX=            -50.6126
 ZZZY=              4.1682 XXYY=          -2077.0210 XXZZ=          -1595.6853 YYZZ=           -188.7600
 XXYZ=            -35.2149 YYXZ=            -22.1584 ZZXY=             -6.7198
 N-N= 1.013177246219D+03 E-N=-3.728895412280D+03  KE= 7.239928095809D+02
  Exact polarizability:   0.000   0.000   0.000   0.000   0.000   0.000
 Approx polarizability: 177.917   0.786 176.303  -3.867   1.322 173.417
 D2PCM: PCM CHGder 2nd derivatives, FixD1E=F FixD2E=F DoIter=F DoCFld=F I1PDM=0
 Calling FoFJK, ICntrl=    100147 FMM=F ISym2X=0 I1Cent= 0 IOpClX= 0 NMat=1 NMatS=1 NMatT=0.
 ***** Axes restored to original set *****
 -------------------------------------------------------------------
 Center     Atomic                   Forces (Hartrees/Bohr)
 Number     Number              X              Y              Z
 -------------------------------------------------------------------
      1        7           0.008935522   -0.008970222   -0.002407263
      2        6          -0.001345660    0.003001137   -0.006905546
      3        6          -0.004598646    0.007857361    0.007266187
      4        6          -0.002213931    0.012138316   -0.002367789
      5        8          -0.004522726   -0.002575444    0.002959910
      6        6           0.005704259    0.014679891   -0.003282914
[...]
    92    C    7  S      Val( 2S)     1.02856
    93    C    7  S      Ryd( 3S)     0.00286
    94    C    7  S      Ryd( 4S)     0.00005
    95    C    7  px     Val( 2p)     1.09799
    96    C    7  px     Ryd( 3p)     0.00275
    97    C    7  py     Val( 2p)     1.10452
    98    C    7  py     Ryd( 3p)     0.00196
    99    C    7  pz     Val( 2p)     0.88454
   100    C    7  pz     Ryd( 3p)     0.00336
   101    C    7  dxy    Ryd( 3d)     0.00109
   102    C    7  dxz    Ryd( 3d)     0.00152
   103    C    7  dyz    Ryd( 3d)     0.00186
   104    C    7  dx2y2  Ryd( 3d)     0.00058
   105    C    7  dz2    Ryd( 3d)     0.00127

   106    O    8  S      Cor( 1S)     1.99979
   107    O    8  S      Val( 2S)     1.61965
   108    O    8  S      Ryd( 3S)     0.00183
   109    O    8  S      Ryd( 4S)     0.00004
   110    O    8  px     Val( 2p)     1.70036
   111    O    8  px     Ryd( 3p)     0.00290
   112    O    8  py     Val( 2p)     1.63354
   113    O    8  py     Ryd( 3p)     0.00194
   114    O    8  pz     Val( 2p)     1.62914
   115    O    8  pz     Ryd( 3p)     0.00157
   116    O    8  dxy    Ryd( 3d)     0.00067
   117    O    8  dxz    Ryd( 3d)     0.00126
   118    O    8  dyz    Ryd( 3d)     0.00124
   119    O    8  dx2y2  Ryd( 3d)     0.00040
   120    O    8  dz2    Ryd( 3d)     0.00142

   121    C    9  S      Cor( 1S)     1.99926
   122    C    9  S      Val( 2S)     1.02696
   123    C    9  S      Ryd( 3S)     0.00184
   124    C    9  S      Ryd( 4S)     0.00006
   125    C    9  px     Val( 2p)     0.91784
   126    C    9  px     Ryd( 3p)     0.00422
   127    C    9  py     Val( 2p)     0.93464
   128    C    9  py     Ryd( 3p)     0.00220
   129    C    9  pz     Val( 2p)     1.23299
   130    C    9  pz     Ryd( 3p)     0.00559
   131    C    9  dxy    Ryd( 3d)     0.00160
   132    C    9  dxz    Ryd( 3d)     0.00071
   133    C    9  dyz    Ryd( 3d)     0.00141
   134    C    9  dx2y2  Ryd( 3d)     0.00165
   135    C    9  dz2    Ryd( 3d)     0.00090

   136    C   10  S      Cor( 1S)     1.99926
   137    C   10  S      Val( 2S)     1.03309
   138    C   10  S      Ryd( 3S)     0.00269
   139    C   10  S      Ryd( 4S)     0.00005
   140    C   10  px     Val( 2p)     1.05476
   141    C   10  px     Ryd( 3p)     0.00202
   142    C   10  py     Val( 2p)     1.08215
   143    C   10  py     Ryd( 3p)     0.00222
   144    C   10  pz     Val( 2p)     0.95988
   145    C   10  pz     Ryd( 3p)     0.00302
   146    C   10  dxy    Ryd( 3d)     0.00114
   147    C   10  dxz    Ryd( 3d)     0.00108
   148    C   10  dyz    Ryd( 3d)     0.00165
   149    C   10  dx2y2  Ryd( 3d)     0.00093
   150    C   10  dz2    Ryd( 3d)     0.00155

   151    O   11  S      Cor( 1S)     1.99980
   152    O   11  S      Val( 2S)     1.62702
   153    O   11  S      Ryd( 3S)     0.00340
   154    O   11  S      Ryd( 4S)     0.00006
   155    O   11  px     Val( 2p)     1.51197
   156    O   11  px     Ryd( 3p)     0.00204
   157    O   11  py     Val( 2p)     1.75352
   158    O   11  py     Ryd( 3p)     0.00262
   159    O   11  pz     Val( 2p)     1.67808
   160    O   11  pz     Ryd( 3p)     0.00185
   161    O   11  dxy    Ryd( 3d)     0.00070
   162    O   11  dxz    Ryd( 3d)     0.00124
   163    O   11  dyz    Ryd( 3d)     0.00109
   164    O   11  dx2y2  Ryd( 3d)     0.00058
   165    O   11  dz2    Ryd( 3d)     0.00127

   166    C   12  S      Cor( 1S)     1.99923
   167    C   12  S      Val( 2S)     1.03813
   168    C   12  S      Ryd( 3S)     0.00208
   169    C   12  S      Ryd( 4S)     0.00007
   170    C   12  px     Val( 2p)     0.79339
   171    C   12  px     Ryd( 3p)     0.00866
   172    C   12  py     Val( 2p)     1.09755
   173    C   12  py     Ryd( 3p)     0.00416
   174    C   12  pz     Val( 2p)     1.18644
   175    C   12  pz     Ryd( 3p)     0.00586
   176    C   12  dxy    Ryd( 3d)     0.00170
   177    C   12  dxz    Ryd( 3d)     0.00117
   178    C   12  dyz    Ryd( 3d)     0.00076
   179    C   12  dx2y2  Ryd( 3d)     0.00155
   180    C   12  dz2    Ryd( 3d)     0.00106

   181    C   13  S      Cor( 1S)     1.99926
   182    C   13  S      Val( 2S)     1.06507
   183    C   13  S      Ryd( 3S)     0.00084
   184    C   13  S      Ryd( 4S)     0.00003
   185    C   13  px     Val( 2p)     1.05582
   186    C   13  px     Ryd( 3p)     0.00375
   187    C   13  py     Val( 2p)     1.14157
   188    C   13  py     Ryd( 3p)     0.00234
   189    C   13  pz     Val( 2p)     1.21440
   190    C   13  pz     Ryd( 3p)     0.00229
   191    C   13  dxy    Ryd( 3d)     0.00071
   192    C   13  dxz    Ryd( 3d)     0.00038
   193    C   13  dyz    Ryd( 3d)     0.00063
   194    C   13  dx2y2  Ryd( 3d)     0.00057
   195    C   13  dz2    Ryd( 3d)     0.00085

   196    C   14  S      Cor( 1S)     1.99934
   197    C   14  S      Val( 2S)     1.05512
   198    C   14  S      Ryd( 3S)     0.00167
   199    C   14  S      Ryd( 4S)     0.00004
   200    C   14  px     Val( 2p)     1.05072
   201    C   14  px     Ryd( 3p)     0.00192
   202    C   14  py     Val( 2p)     1.20727
   203    C   14  py     Ryd( 3p)     0.00410
   204    C   14  pz     Val( 2p)     1.03403
   205    C   14  pz     Ryd( 3p)     0.00822
   206    C   14  dxy    Ryd( 3d)     0.00089
   207    C   14  dxz    Ryd( 3d)     0.00091
   208    C   14  dyz    Ryd( 3d)     0.00125
   209    C   14  dx2y2  Ryd( 3d)     0.00057
   210    C   14  dz2    Ryd( 3d)     0.00082

   211    N   15  S      Cor( 1S)     1.99936
   212    N   15  S      Val( 2S)     1.49078
   213    N   15  S      Ryd( 3S)     0.01581
   214    N   15  S      Ryd( 4S)     0.00001
   215    N   15  px     Val( 2p)     1.17101
   216    N   15  px     Ryd( 3p)     0.00039
   217    N   15  py     Val( 2p)     1.37127
   218    N   15  py     Ryd( 3p)     0.00035
   219    N   15  pz     Val( 2p)     1.34185
   220    N   15  pz     Ryd( 3p)     0.00583
   221    N   15  dxy    Ryd( 3d)     0.00036
   222    N   15  dxz    Ryd( 3d)     0.00041
   223    N   15  dyz    Ryd( 3d)     0.00078
   224    N   15  dx2y2  Ryd( 3d)     0.00002
   225    N   15  dz2    Ryd( 3d)     0.00025

   226    H   16  S      Val( 1S)     0.61246
   227    H   16  S      Ryd( 2S)     0.00129
   228    H   16  px     Ryd( 2p)     0.00058
   229    H   16  py     Ryd( 2p)     0.00047
   230    H   16  pz     Ryd( 2p)     0.00038

   231    H   17  S      Val( 1S)     0.61220
   232    H   17  S      Ryd( 2S)     0.00152
   233    H   17  px     Ryd( 2p)     0.00048
   234    H   17  py     Ryd( 2p)     0.00043
   235    H   17  pz     Ryd( 2p)     0.00049

   236    H   18  S      Val( 1S)     0.77067
   237    H   18  S      Ryd( 2S)     0.00160
   238    H   18  px     Ryd( 2p)     0.00010
   239    H   18  py     Ryd( 2p)     0.00021
   240    H   18  pz     Ryd( 2p)     0.00024

   241    H   19  S      Val( 1S)     0.76386
   242    H   19  S      Ryd( 2S)     0.00128
   243    H   19  px     Ryd( 2p)     0.00022
   244    H   19  py     Ryd( 2p)     0.00021
   245    H   19  pz     Ryd( 2p)     0.00012

   246    H   20  S      Val( 1S)     0.76163
   247    H   20  S      Ryd( 2S)     0.00222
   248    H   20  px     Ryd( 2p)     0.00010
   249    H   20  py     Ryd( 2p)     0.00021
   250    H   20  pz     Ryd( 2p)     0.00023

   251    H   21  S      Val( 1S)     0.75444
   252    H   21  S      Ryd( 2S)     0.00214
   253    H   21  px     Ryd( 2p)     0.00012
   254    H   21  py     Ryd( 2p)     0.00017
   255    H   21  pz     Ryd( 2p)     0.00025

   256    H   22  S      Val( 1S)     0.79459
   257    H   22  S      Ryd( 2S)     0.00236
   258    H   22  px     Ryd( 2p)     0.00011
   259    H   22  py     Ryd( 2p)     0.00021
   260    H   22  pz     Ryd( 2p)     0.00027

   261    H   23  S      Val( 1S)     0.79889
   262    H   23  S      Ryd( 2S)     0.00291
   263    H   23  px     Ryd( 2p)     0.00010
   264    H   23  py     Ryd( 2p)     0.00018
   265    H   23  pz     Ryd( 2p)     0.00032

   266    H   24  S      Val( 1S)     0.78621
   267    H   24  S      Ryd( 2S)     0.00282
   268    H   24  px     Ryd( 2p)     0.00011
   269    H   24  py     Ryd( 2p)     0.00021
   270    H   24  pz     Ryd( 2p)     0.00027

   271    H   25  S      Val( 1S)     0.78387
   272    H   25  S      Ryd( 2S)     0.00209
   273    H   25  px     Ryd( 2p)     0.00010
   274    H   25  py     Ryd( 2p)     0.00018
   275    H   25  pz     Ryd( 2p)     0.00031

   276    H   26  S      Val( 1S)     0.78602
   277    H   26  S      Ryd( 2S)     0.00294
   278    H   26  px     Ryd( 2p)     0.00014
   279    H   26  py     Ryd( 2p)     0.00027
   280    H   26  pz     Ryd( 2p)     0.00018

   281    H   27  S      Val( 1S)     0.78340
   282    H   27  S      Ryd( 2S)     0.00194
   283    H   27  px     Ryd( 2p)     0.00030
   284    H   27  py     Ryd( 2p)     0.00017
   285    H   27  pz     Ryd( 2p)     0.00013

   286    H   28  S      Val( 1S)     0.76464
   287    H   28  S      Ryd( 2S)     0.00194
   288    H   28  px     Ryd( 2p)     0.00008
   289    H   28  py     Ryd( 2p)     0.00013
   290    H   28  pz     Ryd( 2p)     0.00034

   291    H   29  S      Val( 1S)     0.78626
   292    H   29  S      Ryd( 2S)     0.00255
   293    H   29  px     Ryd( 2p)     0.00014
   294    H   29  py     Ryd( 2p)     0.00021
   295    H   29  pz     Ryd( 2p)     0.00023

   296    H   30  S      Val( 1S)     0.78341
   297    H   30  S      Ryd( 2S)     0.00236
   298    H   30  px     Ryd( 2p)     0.00022
   299    H   30  py     Ryd( 2p)     0.00029
   300    H   30  pz     Ryd( 2p)     0.00008

   301    H   31  S      Val( 1S)     0.79099
   302    H   31  S      Ryd( 2S)     0.00256
   303    H   31  px     Ryd( 2p)     0.00011
   304    H   31  py     Ryd( 2p)     0.00019
   305    H   31  pz     Ryd( 2p)     0.00030

   306    H   32  S      Val( 1S)     0.79336
   307    H   32  S      Ryd( 2S)     0.00627
   308    H   32  px     Ryd( 2p)     0.00016
   309    H   32  py     Ryd( 2p)     0.00030
   310    H   32  pz     Ryd( 2p)     0.00013

   311    H   33  S      Val( 1S)     0.80395
   312    H   33  S      Ryd( 2S)     0.03141
   313    H   33  px     Ryd( 2p)     0.00013
   314    H   33  py     Ryd( 2p)     0.00012
   315    H   33  pz     Ryd( 2p)     0.00036

   316    H   34  S      Val( 1S)     0.75839
   317    H   34  S      Ryd( 2S)     0.01912
   318    H   34  px     Ryd( 2p)     0.00021
   319    H   34  py     Ryd( 2p)     0.00024
   320    H   34  pz     Ryd( 2p)     0.00011

   321    H   35  S      Val( 1S)     0.74647
   322    H   35  S      Ryd( 2S)     0.00548
   323    H   35  px     Ryd( 2p)     0.00013
   324    H   35  py     Ryd( 2p)     0.00011
   325    H   35  pz     Ryd( 2p)     0.00031

   326    H   36  S      Val( 1S)     0.74980
   327    H   36  S      Ryd( 2S)     0.02041
   328    H   36  px     Ryd( 2p)     0.00016
   329    H   36  py     Ryd( 2p)     0.00024
   330    H   36  pz     Ryd( 2p)     0.00013

   331    H   37  S      Val( 1S)     0.73534
   332    H   37  S      Ryd( 2S)     0.01768
   333    H   37  px     Ryd( 2p)     0.00008
   334    H   37  py     Ryd( 2p)     0.00021
   335    H   37  pz     Ryd( 2p)     0.00026

   336    H   38  S      Val( 1S)     0.75010
   337    H   38  S      Ryd( 2S)     0.08532
   338    H   38  px     Ryd( 2p)     0.00014
   339    H   38  py     Ryd( 2p)     0.00054
   340    H   38  pz     Ryd( 2p)     0.00047

   341    H   39  S      Val( 1S)     0.69879
   342    H   39  S      Ryd( 2S)     0.07477
   343    H   39  px     Ryd( 2p)     0.00044
   344    H   39  py     Ryd( 2p)     0.00044
   345    H   39  pz     Ryd( 2p)     0.00030


 Summary of Natural Population Analysis:                  
                                                          
                                       Natural Population 
                Natural  -----------------------------------------------
    Atom  No    Charge         Core      Valence    Rydberg      Total
 -----------------------------------------------------------------------
      N    1   -0.92593      1.99970     5.91109    0.01514     7.92593
      C    2   -0.27159      1.99936     4.25604    0.01619     6.27159
      C    3   -0.50475      1.99931     4.49407    0.01137     6.50475
      C    4   -0.10713      1.99927     4.09153    0.01633     6.10713
      O    5   -0.59550      1.99978     6.58272    0.01300     8.59550
      C    6   -0.12757      1.99927     4.11150    0.01680     6.12757
      C    7   -0.13215      1.99925     4.11560    0.01730     6.13215
      O    8   -0.59576      1.99979     6.58268    0.01328     8.59576
      C    9   -0.13186      1.99926     4.11243    0.02018     6.13186
      C   10   -0.14550      1.99926     4.12988    0.01636     6.14550
      O   11   -0.58523      1.99980     6.57059    0.01484     8.58523
      C   12   -0.14179      1.99923     4.11550    0.02706     6.14179
      C   13   -0.48854      1.99926     4.47687    0.01240     6.48854
      C   14   -0.36688      1.99934     4.34714    0.02039     6.36688
      N   15   -0.39848      1.99936     5.37492    0.02420     7.39848
      H   16    0.38482      0.00000     0.61246    0.00272     0.61518
      H   17    0.38487      0.00000     0.61220    0.00293     0.61513
      H   18    0.22718      0.00000     0.77067    0.00215     0.77282
      H   19    0.23431      0.00000     0.76386    0.00183     0.76569
      H   20    0.23561      0.00000     0.76163    0.00276     0.76439
      H   21    0.24287      0.00000     0.75444    0.00269     0.75713
      H   22    0.20246      0.00000     0.79459    0.00295     0.79754
      H   23    0.19760      0.00000     0.79889    0.00351     0.80240
      H   24    0.21038      0.00000     0.78621    0.00341     0.78962
      H   25    0.21345      0.00000     0.78387    0.00268     0.78655
      H   26    0.21046      0.00000     0.78602    0.00352     0.78954
      H   27    0.21406      0.00000     0.78340    0.00255     0.78594
      H   28    0.23286      0.00000     0.76464    0.00250     0.76714
      H   29    0.21060      0.00000     0.78626    0.00314     0.78940
      H   30    0.21364      0.00000     0.78341    0.00295     0.78636
      H   31    0.20584      0.00000     0.79099    0.00317     0.79416
      H   32    0.19978      0.00000     0.79336    0.00687     0.80022
      H   33    0.16404      0.00000     0.80395    0.03201     0.83596
      H   34    0.22193      0.00000     0.75839    0.01968     0.77807
      H   35    0.24750      0.00000     0.74647    0.00603     0.75250
      H   36    0.22927      0.00000     0.74980    0.02094     0.77073
      H   37    0.24644      0.00000     0.73534    0.01822     0.75356
      H   38    0.16344      0.00000     0.75010    0.08646     0.83656
      H   39    0.22526      0.00000     0.69879    0.07596     0.77474
 =======================================================================
   * Total *    0.00000     29.99126    91.44229    0.56645   122.00000

                                 Natural Population      
 --------------------------------------------------------
   Core                      29.99126 ( 99.9709% of  30)
   Valence                   91.44229 ( 99.3938% of  92)
   Natural Minimal Basis    121.43355 ( 99.5357% of 122)
   Natural Rydberg Basis      0.56645 (  0.4643% of 122)
 --------------------------------------------------------

    Atom  No          Natural Electron Configuration
 ----------------------------------------------------------------------------
      N    1      [core]2S( 1.44)2p( 4.47)3p( 0.01)
      C    2      [core]2S( 1.02)2p( 3.24)3p( 0.01)
      C    3      [core]2S( 1.05)2p( 3.44)3p( 0.01)
      C    4      [core]2S( 1.02)2p( 3.07)3p( 0.01)3d( 0.01)
      O    5      [core]2S( 1.62)2p( 4.96)3p( 0.01)3d( 0.01)
      C    6      [core]2S( 1.03)2p( 3.08)3p( 0.01)3d( 0.01)
      C    7      [core]2S( 1.03)2p( 3.09)3p( 0.01)3d( 0.01)
      O    8      [core]2S( 1.62)2p( 4.96)3p( 0.01)
      C    9      [core]2S( 1.03)2p( 3.09)3p( 0.01)3d( 0.01)
      C   10      [core]2S( 1.03)2p( 3.10)3p( 0.01)3d( 0.01)
      O   11      [core]2S( 1.63)2p( 4.94)3p( 0.01)
      C   12      [core]2S( 1.04)2p( 3.08)3p( 0.02)3d( 0.01)
      C   13      [core]2S( 1.07)2p( 3.41)3p( 0.01)
      C   14      [core]2S( 1.06)2p( 3.29)3p( 0.01)
      N   15      [core]2S( 1.49)2p( 3.88)3S( 0.02)3p( 0.01)
      H   16            1S( 0.61)
      H   17            1S( 0.61)
      H   18            1S( 0.77)
      H   19            1S( 0.76)
      H   20            1S( 0.76)
      H   21            1S( 0.75)
      H   22            1S( 0.79)
      H   23            1S( 0.80)
      H   24            1S( 0.79)
      H   25            1S( 0.78)
      H   26            1S( 0.79)
      H   27            1S( 0.78)
      H   28            1S( 0.76)
      H   29            1S( 0.79)
      H   30            1S( 0.78)
      H   31            1S( 0.79)
      H   32            1S( 0.79)2S( 0.01)
      H   33            1S( 0.80)2S( 0.03)
      H   34            1S( 0.76)2S( 0.02)
      H   35            1S( 0.75)2S( 0.01)
      H   36            1S( 0.75)2S( 0.02)
      H   37            1S( 0.74)2S( 0.02)
      H   38            1S( 0.75)2S( 0.09)
      H   39            1S( 0.70)2S( 0.07)


 NBO analysis skipped by request.
 1\1\GINC-DRG2-W002\SP\RB3LYP TD-FC\6-31G(d,p)\C10H24N2O3\QDUEZ\18-Jul-
 2024\0\\# TD(NStates=10, Root=1) B3LYP/6-31G** SCRF=(Solvent=water) vo
 lume pop=NPA density=current Geom=AllCheck Guess=Read\\JCEZOHLWDIONSP-
 UHFFFAOYSA-N_conf_0\\0,1\N,0,6.9252136483,-1.3597684938,-0.6163670372\
 C,0,6.3141325891,-0.7506860646,0.5737695053\C,0,5.0568170783,0.1080193
 65,0.3495425664\C,0,3.8550718318,-0.6839702447,-0.148941441\O,0,2.7657
 690647,0.2109872814,-0.3327289445\C,0,1.5974635817,-0.4341156097,-0.81
 16417117\C,0,0.4899939956,0.5857113816,-0.9781086445\O,0,0.085997893,1
 .0438433917,0.3048765695\C,0,-0.8139471733,2.1440148554,0.2812878826\C
 ,0,-2.2431388235,1.7835627079,-0.1002369666\O,0,-2.7750767418,0.916436
 4104,0.890338639\C,0,-4.1503650449,0.5877099511,0.706230173\C,0,-4.389
 6693057,-0.4805306493,-0.3635368272\C,0,-5.866742223,-0.8990493519,-0.
 4887109859\N,0,-6.4700573858,-1.5713520309,0.6707970666\H,0,6.26451932
 49,-1.9956490357,-1.0580513718\H,0,7.1069183014,-0.6336377924,-1.30794
 48687\H,0,6.0845816432,-1.5576792964,1.2814245019\H,0,7.0755125801,-0.
 1272622146,1.0566489824\H,0,5.2806904499,0.9053236041,-0.3713434143\H,
 0,4.784058014,0.5993745887,1.2921253726\H,0,3.5854098267,-1.4688119626
 ,0.5778393073\H,0,4.0879239582,-1.1903465491,-1.1001974316\H,0,1.27273
 01127,-1.2212275978,-0.1125030874\H,0,1.7884218125,-0.9136528522,-1.78
 54435304\H,0,0.8506091443,1.4266387931,-1.5909282584\H,0,-0.3421538434
 ,0.1104479292,-1.5183269601\H,0,-0.8116484312,2.5531200203,1.296710776
 5\H,0,-0.4529250297,2.9259663453,-0.4049331731\H,0,-2.8317960895,2.714
 1381524,-0.157491852\H,0,-2.2732671279,1.3212950355,-1.0972063087\H,0,
 -4.7288804142,1.4961971006,0.4719090435\H,0,-4.4917771887,0.2226548208
 ,1.6807580229\H,0,-3.777053306,-1.3603613663,-0.1259178914\H,0,-4.0514
 39035,-0.1117960875,-1.3399800212\H,0,-6.4781400138,-0.0165731427,-0.7
 174388231\H,0,-5.9640403674,-1.5697783938,-1.3503877307\H,0,-6.4721650
 233,-0.9466685975,1.4741297897\H,0,-5.8875522823,-2.3625244008,0.94125
 38923\\Version=ES64L-G16RevA.03\State=1-A\HF=-730.6817599\RMSD=1.399e-
 09\Dipole=-1.1714822,-0.0258568,-1.9559778\Quadrupole=-2.7324543,2.386
 7223,0.3457319,3.537037,5.7658907,-0.1358465\PG=C01 [X(C10H24N2O3)]\\@


 The chemist is a guest at the physicist's table and
 frequently dines well.
                   -- Richard Bersohn
 Job cpu time:       0 days  0 hours 59 minutes  3.3 seconds.
 Elapsed time:       0 days  0 hours 19 minutes 45.0 seconds.
 File lengths (MBytes):  RWF=   1022 Int=      0 D2E=      0 Chk=     63 Scr=      1
 Normal termination of Gaussian 16 at Thu Jul 18 04:11:32 2024.
