 Entering Gaussian System, Link 0=g16
 Initial command:
 /opt/sw/arch/manual/gaussian/G16_A03/g16/l1.exe "/scratch/1380880/Gau-28524.inp" -scrdir="/scratch/1380880/"
 Entering Link 1 = /opt/sw/arch/manual/gaussian/G16_A03/g16/l1.exe PID=     28525.
  
 Copyright (c) 1988,1990,1992,1993,1995,1998,2003,2009,2016,
            Gaussian, Inc.  All Rights Reserved.
  
 This is part of the Gaussian(R) 16 program.  It is based on
 the Gaussian(R) 09 system (copyright 2009, Gaussian, Inc.),
 the Gaussian(R) 03 system (copyright 2003, Gaussian, Inc.),
 the Gaussian(R) 98 system (copyright 1998, Gaussian, Inc.),
 the Gaussian(R) 94 system (copyright 1995, Gaussian, Inc.),
 the Gaussian 92(TM) system (copyright 1992, Gaussian, Inc.),
 the Gaussian 90(TM) system (copyright 1990, Gaussian, Inc.),
 the Gaussian 88(TM) system (copyright 1988, Gaussian, Inc.),
 the Gaussian 86(TM) system (copyright 1986, Carnegie Mellon
 University), and the Gaussian 82(TM) system (copyright 1983,
 Carnegie Mellon University). Gaussian is a federally registered
 trademark of Gaussian, Inc.
  
 This software contains proprietary and confidential information,
 including trade secrets, belonging to Gaussian, Inc.
  
 This software is provided under written license and may be
 used, copied, transmitted, or stored only in accord with that
 written license.
  
 The following legend is applicable only to US Government
 contracts under FAR:
  
                    RESTRICTED RIGHTS LEGEND
  
 Use, reproduction and disclosure by the US Government is
 subject to restrictions as set forth in subparagraphs (a)
 and (c) of the Commercial Computer Software - Restricted
 Rights clause in FAR 52.227-19.
  
 Gaussian, Inc.
 340 Quinnipiac St., Bldg. 40, Wallingford CT 06492
  
  
 ---------------------------------------------------------------
 Warning -- This program may not be used in any manner that
 competes with the business of Gaussian, Inc. or will provide
 assistance to any competitor of Gaussian, Inc.  The licensee
 of this program is prohibited from giving any competitor of
 Gaussian, Inc. access to this program.  By using this program,
 the user acknowledges that Gaussian, Inc. is engaged in the
 business of creating and licensing software in the field of
 computational chemistry and represents and warrants to the
 licensee that it is not a competitor of Gaussian, Inc. and that
 it will not use this program in any manner prohibited above.
 ---------------------------------------------------------------
  

 Cite this work as:
 Gaussian 16, Revision A.03,
 M. J. Frisch, G. W. Trucks, H. B. Schlegel, G. E. Scuseria, 
 M. A. Robb, J. R. Cheeseman, G. Scalmani, V. Barone, 
 G. A. Petersson, H. Nakatsuji, X. Li, M. Caricato, A. V. Marenich, 
 J. Bloino, B. G. Janesko, R. Gomperts, B. Mennucci, H. P. Hratchian, 
 J. V. Ortiz, A. F. Izmaylov, J. L. Sonnenberg, D. Williams-Young, 
 F. Ding, F. Lipparini, F. Egidi, J. Goings, B. Peng, A. Petrone, 
 T. Henderson, D. Ranasinghe, V. G. Zakrzewski, J. Gao, N. Rega, 
 G. Zheng, W. Liang, M. Hada, M. Ehara, K. Toyota, R. Fukuda, 
 J. Hasegawa, M. Ishida, T. Nakajima, Y. Honda, O. Kitao, H. Nakai, 
 T. Vreven, K. Throssell, J. A. Montgomery, Jr., J. E. Peralta, 
 F. Ogliaro, M. J. Bearpark, J. J. Heyd, E. N. Brothers, K. N. Kudin, 
 V. N. Staroverov, T. A. Keith, R. Kobayashi, J. Normand, 
 K. Raghavachari, A. P. Rendell, J. C. Burant, S. S. Iyengar, 
 J. Tomasi, M. Cossi, J. M. Millam, M. Klene, C. Adamo, R. Cammi, 
 J. W. Ochterski, R. L. Martin, K. Morokuma, O. Farkas, 
 J. B. Foresman, and D. J. Fox, Gaussian, Inc., Wallingford CT, 2016.
 
 ******************************************
 Gaussian 16:  ES64L-G16RevA.03 25-Dec-2016
                18-Jul-2024 
 ******************************************
 %nprocshared=6
 Will use up to    6 processors via shared memory.
 %mem=12GB
 %Chk=JCEZOHLWDIONSP-UHFFFAOYSA-N_conf_3_0.chk
 -------------------------------------------------------
 # opt=CalcFc B3LYP/6-31G** SCRF=(Solvent=water) scf=xqc
 -------------------------------------------------------
 1/10=4,18=20,19=15,26=3,38=1/1,3;
 2/9=110,12=2,17=6,18=5,40=1/2;
 3/5=1,6=6,7=101,11=2,25=1,30=1,70=2201,71=2,72=1,74=-5,140=1/1,2,3;
 4//1;
 5/5=2,8=3,13=1,38=5,53=1/2,8;
 8/6=4,10=90,11=11/1;
 11/6=1,8=1,9=11,15=111,16=1/1,2,10;
 10/6=1,13=1/2;
 6/7=2,8=2,9=2,10=2,28=1/1;
 7/10=1,18=20,25=1/1,2,3,16;
 1/10=4,18=20,19=15,26=3/3(2);
 2/9=110/2;
 99//99;
 2/9=110/2;
 3/5=1,6=6,7=101,11=2,25=1,30=1,70=2205,71=1,72=1,74=-5/1,2,3;
 4/5=5,16=3,69=1/1;
 5/5=2,8=3,13=1,38=5,53=1/2,8;
 7//1,2,3,16;
 1/18=20,19=15,26=3/3(-5);
 2/9=110/2;
 6/7=2,8=2,9=2,10=2,19=2,28=1/1;
 99/9=1/99;
 ----------------------------------
 JCEZOHLWDIONSP-UHFFFAOYSA-N_conf_3
 ----------------------------------
 Symbolic Z-matrix:
 Charge =  0 Multiplicity = 1
 N                    -6.02281   1.76873   1.54483 
 C                    -5.82496   0.36418   1.20189 
 C                    -4.37801   0.08859   0.80589 
 C                    -4.1764   -1.38281   0.45107 
 O                    -2.8039   -1.65086   0.16895 
 C                    -2.45102  -1.39798  -1.19608 
 C                    -0.94209  -1.56798  -1.36572 
 O                    -0.2729   -0.42215  -0.82536 
 C                     1.14507  -0.5742   -0.86763 
 C                     1.802     0.68857  -0.31436 
 O                     3.22743   0.60928  -0.35925 
 C                     3.78252  -0.04497   0.78201 
 C                     5.30128  -0.1646    0.64497 
 C                     6.01722   1.1845    0.53787 
 N                     5.82026   1.80413  -0.76729 
 H                    -5.40162   2.02232   2.3133 
 H                    -5.74319   2.35694   0.76014 
 H                    -6.10791  -0.25256   2.06182 
 H                    -6.49878   0.1035    0.3785 
 H                    -3.69691   0.35832   1.62322 
 H                    -4.093     0.72143  -0.04276 
 H                    -4.81227  -1.68995  -0.38774 
 H                    -4.44835  -2.0037    1.31168 
 H                    -2.97445  -2.12505  -1.82619 
 H                    -2.74843  -0.38371  -1.48065 
 H                    -0.601    -2.46938  -0.84417 
 H                    -0.69802  -1.64174  -2.43094 
 H                     1.47658  -0.7415   -1.89938 
 H                     1.43821  -1.44885  -0.27709 
 H                     1.50337   1.54216  -0.93357 
 H                     1.44886   0.91165   0.69996 
 H                     3.35627  -1.04873   0.88124 
 H                     3.53498   0.52843   1.68291 
 H                     5.54343  -0.77526  -0.23389 
 H                     5.68636  -0.69711   1.5227 
 H                     5.66132   1.85835   1.32512 
 H                     7.09179   1.03908   0.69044 
 H                     4.82418   1.73539  -1.00626 
 H                     6.03489   2.7975   -0.71362 
 

 GradGradGradGradGradGradGradGradGradGradGradGradGradGradGradGradGradGrad
 Berny optimization.
 Initialization pass.
                           ----------------------------
                           !    Initial Parameters    !
                           ! (Angstroms and Degrees)  !
 --------------------------                            --------------------------
 ! Name  Definition              Value          Derivative Info.                !
 --------------------------------------------------------------------------------
 ! R1    R(1,2)                  1.4593         calculate D2E/DX2 analytically  !
 ! R2    R(1,16)                 1.0202         calculate D2E/DX2 analytically  !
 ! R3    R(1,17)                 1.0198         calculate D2E/DX2 analytically  !
 ! R4    R(2,3)                  1.5253         calculate D2E/DX2 analytically  !
 ! R5    R(2,18)                 1.0954         calculate D2E/DX2 analytically  !
 ! R6    R(2,19)                 1.0954         calculate D2E/DX2 analytically  !
 ! R7    R(3,4)                  1.5269         calculate D2E/DX2 analytically  !
 ! R8    R(3,20)                 1.0976         calculate D2E/DX2 analytically  !
 ! R9    R(3,21)                 1.0963         calculate D2E/DX2 analytically  !
 ! R10   R(4,5)                  1.4266         calculate D2E/DX2 analytically  !
 ! R11   R(4,22)                 1.0965         calculate D2E/DX2 analytically  !
 ! R12   R(4,23)                 1.0955         calculate D2E/DX2 analytically  !
 ! R13   R(5,6)                  1.4324         calculate D2E/DX2 analytically  !
 ! R14   R(6,7)                  1.5279         calculate D2E/DX2 analytically  !
 ! R15   R(6,24)                 1.0953         calculate D2E/DX2 analytically  !
 ! R16   R(6,25)                 1.0946         calculate D2E/DX2 analytically  !
 ! R17   R(7,8)                  1.4327         calculate D2E/DX2 analytically  !
 ! R18   R(7,26)                 1.0959         calculate D2E/DX2 analytically  !
 ! R19   R(7,27)                 1.0953         calculate D2E/DX2 analytically  !
 ! R20   R(8,9)                  1.4267         calculate D2E/DX2 analytically  !
 ! R21   R(9,10)                 1.5272         calculate D2E/DX2 analytically  !
 ! R22   R(9,28)                 1.0965         calculate D2E/DX2 analytically  !
 ! R23   R(9,29)                 1.0953         calculate D2E/DX2 analytically  !
 ! R24   R(10,11)                1.4283         calculate D2E/DX2 analytically  !
 ! R25   R(10,30)                1.096          calculate D2E/DX2 analytically  !
 ! R26   R(10,31)                1.097          calculate D2E/DX2 analytically  !
 ! R27   R(11,12)                1.4278         calculate D2E/DX2 analytically  !
 ! R28   R(12,13)                1.5296         calculate D2E/DX2 analytically  !
 ! R29   R(12,32)                1.095          calculate D2E/DX2 analytically  !
 ! R30   R(12,33)                1.0962         calculate D2E/DX2 analytically  !
 ! R31   R(13,14)                1.531          calculate D2E/DX2 analytically  !
 ! R32   R(13,34)                1.0972         calculate D2E/DX2 analytically  !
 ! R33   R(13,35)                1.0965         calculate D2E/DX2 analytically  !
 ! R34   R(14,15)                1.4581         calculate D2E/DX2 analytically  !
 ! R35   R(14,36)                1.0957         calculate D2E/DX2 analytically  !
 ! R36   R(14,37)                1.095          calculate D2E/DX2 analytically  !
 ! R37   R(15,38)                1.0266         calculate D2E/DX2 analytically  !
 ! R38   R(15,39)                1.0177         calculate D2E/DX2 analytically  !
 ! A1    A(2,1,16)             109.4951         calculate D2E/DX2 analytically  !
 ! A2    A(2,1,17)             109.7046         calculate D2E/DX2 analytically  !
 ! A3    A(16,1,17)            105.6217         calculate D2E/DX2 analytically  !
 ! A4    A(1,2,3)              111.3176         calculate D2E/DX2 analytically  !
 ! A5    A(1,2,18)             108.8079         calculate D2E/DX2 analytically  !
 ! A6    A(1,2,19)             108.8011         calculate D2E/DX2 analytically  !
 ! A7    A(3,2,18)             110.3122         calculate D2E/DX2 analytically  !
 ! A8    A(3,2,19)             110.2057         calculate D2E/DX2 analytically  !
 ! A9    A(18,2,19)            107.2902         calculate D2E/DX2 analytically  !
 ! A10   A(2,3,4)              111.0811         calculate D2E/DX2 analytically  !
 ! A11   A(2,3,20)             110.5458         calculate D2E/DX2 analytically  !
 ! A12   A(2,3,21)             110.0779         calculate D2E/DX2 analytically  !
 ! A13   A(4,3,20)             109.1424         calculate D2E/DX2 analytically  !
 ! A14   A(4,3,21)             110.001          calculate D2E/DX2 analytically  !
 ! A15   A(20,3,21)            105.8583         calculate D2E/DX2 analytically  !
 ! A16   A(3,4,5)              110.7343         calculate D2E/DX2 analytically  !
 ! A17   A(3,4,22)             111.7852         calculate D2E/DX2 analytically  !
 ! A18   A(3,4,23)             109.3186         calculate D2E/DX2 analytically  !
 ! A19   A(5,4,22)             110.7329         calculate D2E/DX2 analytically  !
 ! A20   A(5,4,23)             106.7199         calculate D2E/DX2 analytically  !
 ! A21   A(22,4,23)            107.3529         calculate D2E/DX2 analytically  !
 ! A22   A(4,5,6)              113.0975         calculate D2E/DX2 analytically  !
 ! A23   A(5,6,7)              109.2357         calculate D2E/DX2 analytically  !
 ! A24   A(5,6,24)             108.2589         calculate D2E/DX2 analytically  !
 ! A25   A(5,6,25)             110.1443         calculate D2E/DX2 analytically  !
 ! A26   A(7,6,24)             109.5256         calculate D2E/DX2 analytically  !
 ! A27   A(7,6,25)             110.0329         calculate D2E/DX2 analytically  !
 ! A28   A(24,6,25)            109.6145         calculate D2E/DX2 analytically  !
 ! A29   A(6,7,8)              109.2939         calculate D2E/DX2 analytically  !
 ! A30   A(6,7,26)             110.247          calculate D2E/DX2 analytically  !
 ! A31   A(6,7,27)             109.6049         calculate D2E/DX2 analytically  !
 ! A32   A(8,7,26)             109.4485         calculate D2E/DX2 analytically  !
 ! A33   A(8,7,27)             108.4557         calculate D2E/DX2 analytically  !
 ! A34   A(26,7,27)            109.7615         calculate D2E/DX2 analytically  !
 ! A35   A(7,8,9)              111.58           calculate D2E/DX2 analytically  !
 ! A36   A(8,9,10)             109.1877         calculate D2E/DX2 analytically  !
 ! A37   A(8,9,28)             110.1584         calculate D2E/DX2 analytically  !
 ! A38   A(8,9,29)             109.58           calculate D2E/DX2 analytically  !
 ! A39   A(10,9,28)            109.6933         calculate D2E/DX2 analytically  !
 ! A40   A(10,9,29)            110.4771         calculate D2E/DX2 analytically  !
 ! A41   A(28,9,29)            107.7312         calculate D2E/DX2 analytically  !
 ! A42   A(9,10,11)            111.839          calculate D2E/DX2 analytically  !
 ! A43   A(9,10,30)            108.7901         calculate D2E/DX2 analytically  !
 ! A44   A(9,10,31)            111.3875         calculate D2E/DX2 analytically  !
 ! A45   A(11,10,30)           107.3006         calculate D2E/DX2 analytically  !
 ! A46   A(11,10,31)           111.1995         calculate D2E/DX2 analytically  !
 ! A47   A(30,10,31)           106.04           calculate D2E/DX2 analytically  !
 ! A48   A(10,11,12)           112.8482         calculate D2E/DX2 analytically  !
 ! A49   A(11,12,13)           110.5017         calculate D2E/DX2 analytically  !
 ! A50   A(11,12,32)           109.9457         calculate D2E/DX2 analytically  !
 ! A51   A(11,12,33)           109.2334         calculate D2E/DX2 analytically  !
 ! A52   A(13,12,32)           108.8398         calculate D2E/DX2 analytically  !
 ! A53   A(13,12,33)           109.8006         calculate D2E/DX2 analytically  !
 ! A54   A(32,12,33)           108.4887         calculate D2E/DX2 analytically  !
 ! A55   A(12,13,14)           113.6815         calculate D2E/DX2 analytically  !
 ! A56   A(12,13,34)           109.5365         calculate D2E/DX2 analytically  !
 ! A57   A(12,13,35)           108.3588         calculate D2E/DX2 analytically  !
 ! A58   A(14,13,34)           109.3401         calculate D2E/DX2 analytically  !
 ! A59   A(14,13,35)           108.6458         calculate D2E/DX2 analytically  !
 ! A60   A(34,13,35)           107.0605         calculate D2E/DX2 analytically  !
 ! A61   A(13,14,15)           111.9559         calculate D2E/DX2 analytically  !
 ! A62   A(13,14,36)           109.8627         calculate D2E/DX2 analytically  !
 ! A63   A(13,14,37)           109.3971         calculate D2E/DX2 analytically  !
 ! A64   A(15,14,36)           109.749          calculate D2E/DX2 analytically  !
 ! A65   A(15,14,37)           108.2819         calculate D2E/DX2 analytically  !
 ! A66   A(36,14,37)           107.4764         calculate D2E/DX2 analytically  !
 ! A67   A(14,15,38)           108.1164         calculate D2E/DX2 analytically  !
 ! A68   A(14,15,39)           109.8215         calculate D2E/DX2 analytically  !
 ! A69   A(38,15,39)           106.3944         calculate D2E/DX2 analytically  !
 ! D1    D(16,1,2,3)           -58.5275         calculate D2E/DX2 analytically  !
 ! D2    D(16,1,2,18)           63.2457         calculate D2E/DX2 analytically  !
 ! D3    D(16,1,2,19)          179.837          calculate D2E/DX2 analytically  !
 ! D4    D(17,1,2,3)            56.954          calculate D2E/DX2 analytically  !
 ! D5    D(17,1,2,18)          178.7271         calculate D2E/DX2 analytically  !
 ! D6    D(17,1,2,19)          -64.6815         calculate D2E/DX2 analytically  !
 ! D7    D(1,2,3,4)            179.8805         calculate D2E/DX2 analytically  !
 ! D8    D(1,2,3,20)            58.5624         calculate D2E/DX2 analytically  !
 ! D9    D(1,2,3,21)           -58.0336         calculate D2E/DX2 analytically  !
 ! D10   D(18,2,3,4)            58.9853         calculate D2E/DX2 analytically  !
 ! D11   D(18,2,3,20)          -62.3328         calculate D2E/DX2 analytically  !
 ! D12   D(18,2,3,21)         -178.9288         calculate D2E/DX2 analytically  !
 ! D13   D(19,2,3,4)           -59.3047         calculate D2E/DX2 analytically  !
 ! D14   D(19,2,3,20)          179.3772         calculate D2E/DX2 analytically  !
 ! D15   D(19,2,3,21)           62.7812         calculate D2E/DX2 analytically  !
 ! D16   D(2,3,4,5)           -176.1088         calculate D2E/DX2 analytically  !
 ! D17   D(2,3,4,22)            59.9088         calculate D2E/DX2 analytically  !
 ! D18   D(2,3,4,23)           -58.8072         calculate D2E/DX2 analytically  !
 ! D19   D(20,3,4,5)           -53.9715         calculate D2E/DX2 analytically  !
 ! D20   D(20,3,4,22)         -177.9538         calculate D2E/DX2 analytically  !
 ! D21   D(20,3,4,23)           63.3302         calculate D2E/DX2 analytically  !
 ! D22   D(21,3,4,5)            61.7606         calculate D2E/DX2 analytically  !
 ! D23   D(21,3,4,22)          -62.2218         calculate D2E/DX2 analytically  !
 ! D24   D(21,3,4,23)          179.0623         calculate D2E/DX2 analytically  !
 ! D25   D(3,4,5,6)            -86.3322         calculate D2E/DX2 analytically  !
 ! D26   D(22,4,5,6)            38.2507         calculate D2E/DX2 analytically  !
 ! D27   D(23,4,5,6)           154.7823         calculate D2E/DX2 analytically  !
 ! D28   D(4,5,6,7)            174.0037         calculate D2E/DX2 analytically  !
 ! D29   D(4,5,6,24)           -66.7949         calculate D2E/DX2 analytically  !
 ! D30   D(4,5,6,25)            53.0428         calculate D2E/DX2 analytically  !
 ! D31   D(5,6,7,8)            -76.2363         calculate D2E/DX2 analytically  !
 ! D32   D(5,6,7,26)            44.104          calculate D2E/DX2 analytically  !
 ! D33   D(5,6,7,27)           165.03           calculate D2E/DX2 analytically  !
 ! D34   D(24,6,7,8)           165.3506         calculate D2E/DX2 analytically  !
 ! D35   D(24,6,7,26)          -74.3091         calculate D2E/DX2 analytically  !
 ! D36   D(24,6,7,27)           46.6169         calculate D2E/DX2 analytically  !
 ! D37   D(25,6,7,8)            44.7925         calculate D2E/DX2 analytically  !
 ! D38   D(25,6,7,26)          165.1327         calculate D2E/DX2 analytically  !
 ! D39   D(25,6,7,27)          -73.9413         calculate D2E/DX2 analytically  !
 ! D40   D(6,7,8,9)            175.6335         calculate D2E/DX2 analytically  !
 ! D41   D(26,7,8,9)            54.8055         calculate D2E/DX2 analytically  !
 ! D42   D(27,7,8,9)           -64.9204         calculate D2E/DX2 analytically  !
 ! D43   D(7,8,9,10)           178.5326         calculate D2E/DX2 analytically  !
 ! D44   D(7,8,9,28)            58.0125         calculate D2E/DX2 analytically  !
 ! D45   D(7,8,9,29)           -60.3412         calculate D2E/DX2 analytically  !
 ! D46   D(8,9,10,11)         -178.6498         calculate D2E/DX2 analytically  !
 ! D47   D(8,9,10,30)          -60.3057         calculate D2E/DX2 analytically  !
 ! D48   D(8,9,10,31)           56.2265         calculate D2E/DX2 analytically  !
 ! D49   D(28,9,10,11)         -57.8453         calculate D2E/DX2 analytically  !
 ! D50   D(28,9,10,30)          60.4989         calculate D2E/DX2 analytically  !
 ! D51   D(28,9,10,31)         177.031          calculate D2E/DX2 analytically  !
 ! D52   D(29,9,10,11)          60.7715         calculate D2E/DX2 analytically  !
 ! D53   D(29,9,10,30)         179.1156         calculate D2E/DX2 analytically  !
 ! D54   D(29,9,10,31)         -64.3522         calculate D2E/DX2 analytically  !
 ! D55   D(9,10,11,12)         -85.54           calculate D2E/DX2 analytically  !
 ! D56   D(30,10,11,12)        155.2326         calculate D2E/DX2 analytically  !
 ! D57   D(31,10,11,12)         39.6877         calculate D2E/DX2 analytically  !
 ! D58   D(10,11,12,13)        177.0765         calculate D2E/DX2 analytically  !
 ! D59   D(10,11,12,32)         56.9141         calculate D2E/DX2 analytically  !
 ! D60   D(10,11,12,33)        -62.0268         calculate D2E/DX2 analytically  !
 ! D61   D(11,12,13,14)         60.7942         calculate D2E/DX2 analytically  !
 ! D62   D(11,12,13,34)        -61.8449         calculate D2E/DX2 analytically  !
 ! D63   D(11,12,13,35)       -178.3164         calculate D2E/DX2 analytically  !
 ! D64   D(32,12,13,14)       -178.3824         calculate D2E/DX2 analytically  !
 ! D65   D(32,12,13,34)         58.9786         calculate D2E/DX2 analytically  !
 ! D66   D(32,12,13,35)        -57.4929         calculate D2E/DX2 analytically  !
 ! D67   D(33,12,13,14)        -59.7643         calculate D2E/DX2 analytically  !
 ! D68   D(33,12,13,34)        177.5967         calculate D2E/DX2 analytically  !
 ! D69   D(33,12,13,35)         61.1252         calculate D2E/DX2 analytically  !
 ! D70   D(12,13,14,15)        -73.774          calculate D2E/DX2 analytically  !
 ! D71   D(12,13,14,36)         48.4346         calculate D2E/DX2 analytically  !
 ! D72   D(12,13,14,37)        166.1917         calculate D2E/DX2 analytically  !
 ! D73   D(34,13,14,15)         48.973          calculate D2E/DX2 analytically  !
 ! D74   D(34,13,14,36)        171.1816         calculate D2E/DX2 analytically  !
 ! D75   D(34,13,14,37)        -71.0613         calculate D2E/DX2 analytically  !
 ! D76   D(35,13,14,15)        165.4976         calculate D2E/DX2 analytically  !
 ! D77   D(35,13,14,36)        -72.2938         calculate D2E/DX2 analytically  !
 ! D78   D(35,13,14,37)         45.4633         calculate D2E/DX2 analytically  !
 ! D79   D(13,14,15,38)         45.9697         calculate D2E/DX2 analytically  !
 ! D80   D(13,14,15,39)        161.6659         calculate D2E/DX2 analytically  !
 ! D81   D(36,14,15,38)        -76.3038         calculate D2E/DX2 analytically  !
 ! D82   D(36,14,15,39)         39.3923         calculate D2E/DX2 analytically  !
 ! D83   D(37,14,15,38)        166.6537         calculate D2E/DX2 analytically  !
 ! D84   D(37,14,15,39)        -77.6502         calculate D2E/DX2 analytically  !
 --------------------------------------------------------------------------------
 Trust Radius=3.00D-01 FncErr=1.00D-07 GrdErr=1.00D-06 EigMax=2.50D+02 EigMin=1.00D-04
 Number of steps in this run=    201 maximum allowed number of steps=    234.
 GradGradGradGradGradGradGradGradGradGradGradGradGradGradGradGradGradGrad

                          Input orientation:                          
 ---------------------------------------------------------------------
 Center     Atomic      Atomic             Coordinates (Angstroms)
 Number     Number       Type             X           Y           Z
 ---------------------------------------------------------------------
      1          7           0       -6.022811    1.768726    1.544833
      2          6           0       -5.824958    0.364177    1.201893
      3          6           0       -4.378008    0.088594    0.805894
      4          6           0       -4.176404   -1.382807    0.451069
      5          8           0       -2.803898   -1.650856    0.168947
      6          6           0       -2.451018   -1.397981   -1.196083
      7          6           0       -0.942089   -1.567977   -1.365722
      8          8           0       -0.272896   -0.422151   -0.825359
      9          6           0        1.145066   -0.574202   -0.867633
     10          6           0        1.801997    0.688569   -0.314358
     11          8           0        3.227426    0.609284   -0.359250
     12          6           0        3.782516   -0.044969    0.782013
     13          6           0        5.301280   -0.164597    0.644972
     14          6           0        6.017222    1.184497    0.537870
     15          7           0        5.820258    1.804128   -0.767291
     16          1           0       -5.401624    2.022321    2.313300
     17          1           0       -5.743190    2.356945    0.760140
     18          1           0       -6.107907   -0.252556    2.061817
     19          1           0       -6.498779    0.103504    0.378501
     20          1           0       -3.696905    0.358318    1.623217
     21          1           0       -4.093001    0.721433   -0.042758
     22          1           0       -4.812275   -1.689950   -0.387737
     23          1           0       -4.448353   -2.003699    1.311685
     24          1           0       -2.974451   -2.125049   -1.826190
     25          1           0       -2.748433   -0.383705   -1.480647
     26          1           0       -0.600995   -2.469380   -0.844170
     27          1           0       -0.698018   -1.641738   -2.430942
     28          1           0        1.476585   -0.741503   -1.899378
     29          1           0        1.438210   -1.448852   -0.277088
     30          1           0        1.503375    1.542165   -0.933566
     31          1           0        1.448864    0.911653    0.699957
     32          1           0        3.356274   -1.048725    0.881236
     33          1           0        3.534978    0.528434    1.682905
     34          1           0        5.543427   -0.775260   -0.233887
     35          1           0        5.686358   -0.697113    1.522705
     36          1           0        5.661319    1.858355    1.325124
     37          1           0        7.091788    1.039081    0.690439
     38          1           0        4.824180    1.735388   -1.006259
     39          1           0        6.034891    2.797501   -0.713621
 ---------------------------------------------------------------------
                    Distance matrix (angstroms):
                    1          2          3          4          5
     1  N    0.000000
     2  C    1.459284   0.000000
     3  C    2.464600   1.525263   0.000000
     4  C    3.812833   2.516629   1.526946   0.000000
     5  O    4.893670   3.775465   2.430886   1.426610   0.000000
     6  C    5.504394   4.498772   3.151365   2.385434   1.432402
     7  C    6.739336   5.845363   4.389269   3.714271   2.414210
     8  O    6.593882   5.962672   4.446773   4.217761   2.984012
     9  C    7.917561   7.331079   5.808987   5.541738   4.222321
    10  C    8.114860   7.782974   6.309310   6.373206   5.188522
    11  O    9.515079   9.189281   7.711763   7.709847   6.462514
    12  C   10.000791   9.625344   8.161652   8.077360   6.807024
    13  C   11.523130  11.152709   9.683935   9.557621   8.254058
    14  C   12.096186  11.889116  10.456273  10.512307   9.272944
    15  N   12.066709  11.897992  10.460526  10.562870   9.337533
    16  H    1.020160   2.040558   2.656946   4.069885   4.983840
    17  H    1.019771   2.042781   2.647873   4.066458   5.005139
    18  H    2.088084   1.095394   2.164781   2.757296   4.056436
    19  H    2.088022   1.095427   2.163460   2.758226   4.095588
    20  H    2.721256   2.169367   1.097574   2.152990   2.636123
    21  H    2.709508   2.162512   1.096323   2.163018   2.708202
    22  H    4.142784   2.787811   2.185535   1.096478   2.084467
    23  H    4.094443   2.741155   2.153709   1.095501   2.033367
    24  H    5.984796   4.846744   3.714573   2.679837   2.057795
    25  H    4.950560   4.149741   2.847253   2.601698   2.080843
    26  H    7.284570   6.285317   4.850955   3.954976   2.559134
    27  H    7.469369   6.595961   5.197450   4.524622   3.345779
    28  H    8.625821   8.009553   6.502600   6.155660   4.840188
    29  H    8.327007   7.630731   6.112690   5.662019   4.270273
    30  H    7.926996   7.723490   6.303114   6.537015   5.473894
    31  H    7.567980   7.311645   5.885668   6.080307   4.993437
    32  H    9.815581   9.294844   7.817818   7.552344   6.230380
    33  H    9.638917   9.373726   7.973578   8.039632   6.871879
    34  H   11.975541  11.515205  10.013104   9.762858   8.402784
    35  H   11.966014  11.564585  10.120405   9.944478   8.650244
    36  H   11.686539  11.583708  10.207337  10.394705   9.236406
    37  H   13.162640  12.944474  11.509690  11.528009  10.268024
    38  H   11.142998  10.961765   9.522399   9.636258   8.428246
    39  H   12.310450  12.257498  10.866258  11.095135   9.934334
                    6          7          8          9         10
     6  C    0.000000
     7  C    1.527922   0.000000
     8  O    2.415346   1.432734   0.000000
     9  C    3.703824   2.364719   1.426718   0.000000
    10  C    4.818637   3.705046   2.408319   1.527174   0.000000
    11  O    6.080635   4.810229   3.678773   2.448533   1.428338
    12  C    6.678357   5.408716   4.378616   3.155561   2.379614
    13  C    8.062806   6.707609   5.770584   4.441831   3.727356
    14  C    9.021468   7.722162   6.633649   5.367156   4.329014
    15  N    8.879830   7.580142   6.487390   5.246327   4.194764
    16  H    5.720166   6.805358   6.490799   7.727834   7.783035
    17  H    5.363270   6.555522   6.337294   7.660897   7.801786
    18  H    5.029785   6.337510   6.512442   7.828841   8.312551
    19  H    4.595447   6.059123   6.362956   7.774349   8.350164
    20  H    3.547572   4.498153   4.281179   5.524365   5.839622
    21  H    2.918592   4.113378   4.063675   5.458611   5.901343
    22  H    2.512807   3.993704   4.733369   6.079893   7.029319
    23  H    3.262689   4.433086   4.950020   6.170837   6.997085
    24  H    1.095284   2.157048   3.346628   4.504928   5.746002
    25  H    1.094617   2.163004   2.561087   3.946063   4.818342
    26  H    2.166639   1.095851   2.073439   2.577010   4.003462
    27  H    2.158080   1.095311   2.060586   2.642069   4.019991
    28  H    4.043718   2.611098   2.077543   1.096536   2.159464
    29  H    3.996653   2.620141   2.069444   1.095303   2.168478
    30  H    4.934632   3.979954   2.650544   2.147496   1.096002
    31  H    4.913090   4.016497   2.658963   2.181146   1.096952
    32  H    6.177530   4.877947   4.059056   2.858873   2.619812
    33  H    6.916054   5.808028   4.657779   3.665069   2.649137
    34  H    8.076185   6.631091   5.856974   4.448330   4.018404
    35  H    8.608130   7.282700   6.411062   5.133435   4.514773
    36  H    9.097814   7.911093   6.711199   5.578714   4.353236
    37  H   10.028130   8.692970   7.659727   6.355610   5.395773
    38  H    7.923544   6.655170   5.537859   4.346183   3.272331
    39  H    9.478686   8.255960   7.082854   5.941590   4.745988
                   11         12         13         14         15
    11  O    0.000000
    12  C    1.427814   0.000000
    13  C    2.430684   1.529619   0.000000
    14  C    2.986412   2.562246   1.531045   0.000000
    15  N    2.883909   3.157831   2.477843   1.458144   0.000000
    16  H    9.143287   9.537660  11.050704  11.586378  11.639085
    17  H    9.207568   9.823886  11.329243  11.820801  11.676986
    18  H    9.682601   9.975042  11.497161  12.304726  12.430403
    19  H    9.767249  10.290282  11.806112  12.563608  12.488541
    20  H    7.206908   7.537374   9.066296   9.809425   9.918735
    21  H    7.328124   7.955589   9.461001  10.137464   9.998495
    22  H    8.362061   8.828630  10.279940  11.242651  11.198366
    23  H    8.278725   8.477287   9.943950  10.967755  11.147470
    24  H    6.934823   7.535653   8.856508   9.868742   9.690543
    25  H    6.160718   6.920092   8.328514   9.130739   8.872315
    26  H    4.936611   5.266632   6.508949   7.685158   7.713707
    27  H    4.976757   5.740029   6.901794   7.867395   7.558416
    28  H    2.694821   3.604488   4.629776   5.501549   5.160364
    29  H    2.728363   2.930589   4.174064   5.344721   5.479464
    30  H    2.042660   3.264459   4.452966   4.761079   4.328020
    31  H    2.092039   2.523448   4.000305   4.579368   4.696639
    32  H    2.074705   1.095013   2.149546   3.490820   4.114320
    33  H    2.066766   1.096209   2.162734   2.811238   3.585159
    34  H    2.701211   2.160135   1.097241   2.158874   2.648471
    35  H    3.360770   2.144418   1.096482   2.149379   3.393851
    36  H    3.212651   2.729012   2.164386   1.095683   2.099144
    37  H    4.027390   3.483508   2.157968   1.095041   2.080159
    38  H    2.058241   2.729954   2.562055   2.027600   1.026646
    39  H    3.577113   3.922977   3.340357   2.041648   1.017712
                   16         17         18         19         20
    16  H    0.000000
    17  H    1.625099   0.000000
    18  H    2.395233   2.938856   0.000000
    19  H    2.937525   2.407188   1.764402   0.000000
    20  H    2.480158   2.987757   2.525563   3.076483   0.000000
    21  H    2.992626   2.458184   3.072089   2.519337   1.750490
    22  H    4.628595   4.308315   3.121711   2.578351   3.079511
    23  H    4.256853   4.582141   2.526523   3.084702   2.498170
    24  H    6.342494   5.868841   5.333046   4.716779   4.311318
    25  H    5.217511   4.636902   4.883883   4.214131   3.329290
    26  H    7.293218   7.232523   6.609474   6.549696   4.865032
    27  H    7.619519   7.185140   7.168097   6.677400   5.424920
    28  H    8.526144   8.294490   8.570569   8.337218   6.354784
    29  H    8.095831   8.193438   7.990336   8.113902   5.765971
    30  H    7.645371   7.486335   8.374064   8.235638   5.914520
    31  H    7.125001   7.336085   7.766263   7.995091   5.257141
    32  H    9.390575   9.716661   9.570704   9.934911   7.230328
    33  H    9.082507   9.501544   9.681877  10.127108   7.234130
    34  H   11.580534  11.755276  11.886844  12.089747   9.493028
    35  H   11.443937  11.855097  11.814946  12.264899   9.442969
    36  H   11.108198  11.429375  11.979705  12.322482   9.482369
    37  H   12.636684  12.902646  13.333452  13.626303  10.850319
    38  H   10.754946  10.732000  11.527165  11.523455   9.023268
    39  H   11.855675  11.878099  12.823940  12.866360  10.301373
                   21         22         23         24         25
    21  H    0.000000
    22  H    2.539907   0.000000
    23  H    3.063843   1.766045   0.000000
    24  H    3.540374   2.374038   3.468916   0.000000
    25  H    2.257591   2.675849   3.648456   1.789627   0.000000
    26  H    4.797672   4.307054   4.434719   2.591567   3.060496
    27  H    4.776391   4.593922   5.310677   2.404467   2.586486
    28  H    6.050414   6.537153   6.856308   4.661682   4.260767
    29  H    5.946372   6.256111   6.122392   4.725308   4.484537
    30  H    5.725955   7.115611   7.282676   5.856292   4.699590
    31  H    5.594648   6.866824   6.606865   5.930320   4.904110
    32  H    7.712258   8.291360   7.874609   6.968982   6.579377
    33  H    7.823122   8.881746   8.383501   7.856678   7.093752
    34  H    9.753839  10.397158  10.184966   8.769926   8.394205
    35  H   10.004939  10.717126  10.220766   9.394876   8.959020
    36  H    9.915163  11.190197  10.822251  10.018723   9.144567
    37  H   11.213296  12.260375  11.950704  10.847779  10.176831
    38  H    9.026216  10.245817  10.263212   8.740361   7.877822
    39  H   10.360228  11.743271  11.706912  10.326546   9.373110
                   26         27         28         29         30
    26  H    0.000000
    27  H    1.792275   0.000000
    28  H    2.900924   2.412857   0.000000
    29  H    2.349770   3.039698   1.770209   0.000000
    30  H    4.530878   4.150362   2.479647   3.062906   0.000000
    31  H    4.244719   4.575089   3.080623   2.554743   1.751832
    32  H    4.544807   5.268726   3.370375   2.276134   3.665986
    33  H    5.699059   6.289010   4.322323   3.485351   3.464244
    34  H    6.402844   6.673340   4.394793   4.160337   4.709781
    35  H    6.947937   7.568612   5.425385   4.674518   5.342750
    36  H    7.915283   8.173117   5.888011   5.598155   4.742379
    37  H    8.593209   8.809704   6.434916   6.252109   5.841306
    38  H    6.865776   6.627924   4.258996   4.704877   3.327217
    39  H    8.473020   8.245489   5.891411   6.273082   4.707322
                   31         32         33         34         35
    31  H    0.000000
    32  H    2.741196   0.000000
    33  H    2.337715   1.778213   0.000000
    34  H    4.525835   2.470206   3.067178   0.000000
    35  H    4.606668   2.442212   2.481142   1.764129   0.000000
    36  H    4.362551   3.736493   2.533381   3.062734   2.563217
    37  H    5.644370   4.283620   3.727821   2.558052   2.383751
    38  H    3.870720   3.669968   3.217201   2.723458   3.613318
    39  H    5.156187   4.950961   4.140238   3.638173   4.163527
                   36         37         38         39
    36  H    0.000000
    37  H    1.766431   0.000000
    38  H    2.480175   2.916449   0.000000
    39  H    2.275530   2.486053   1.636931   0.000000
 Stoichiometry    C10H24N2O3
 Framework group  C1[X(C10H24N2O3)]
 Deg. of freedom   111
 Full point group                 C1      NOp   1
 Largest Abelian subgroup         C1      NOp   1
 Largest concise Abelian subgroup C1      NOp   1
                         Standard orientation:                         
 ---------------------------------------------------------------------
 Center     Atomic      Atomic             Coordinates (Angstroms)
 Number     Number       Type             X           Y           Z
 ---------------------------------------------------------------------
      1          7           0       -5.928199    2.577036   -0.305544
      2          6           0       -5.836110    1.206977    0.188387
      3          6           0       -4.398474    0.698937    0.149363
      4          6           0       -4.307901   -0.733665    0.669950
      5          8           0       -2.950373   -1.169947    0.714591
      6          6           0       -2.495952   -1.720507   -0.527246
      7          6           0       -1.000737   -2.019015   -0.428393
      8          8           0       -0.265504   -0.793697   -0.532103
      9          6           0        1.133298   -1.003666   -0.345587
     10          6           0        1.865980    0.326987   -0.503066
     11          8           0        3.278837    0.176094   -0.357416
     12          6           0        3.704743    0.230434    1.004313
     13          6           0        5.212281   -0.008545    1.104065
     14          6           0        6.050535    1.030360    0.354328
     15          7           0        5.987353    0.842294   -1.090256
     16          1           0       -5.333644    3.183417    0.259729
     17          1           0       -5.551235    2.627483   -1.251739
     18          1           0       -6.223388    1.174010    1.212505
     19          1           0       -6.480365    0.566838   -0.424083
     20          1           0       -3.745814    1.343014    0.752577
     21          1           0       -4.008387    0.751450   -0.873867
     22          1           0       -4.917642   -1.422683    0.073515
     23          1           0       -4.684653   -0.770194    1.697980
     24          1           0       -3.043665   -2.651051   -0.710942
     25          1           0       -2.684497   -1.015903   -1.343439
     26          1           0       -0.772793   -2.501411    0.528803
     27          1           0       -0.701372   -2.673938   -1.253719
     28          1           0        1.509296   -1.722141   -1.083701
     29          1           0        1.311851   -1.423920    0.650000
     30          1           0        1.681808    0.714186   -1.511718
     31          1           0        1.474492    1.083461    0.188156
     32          1           0        3.185727   -0.536327    1.588911
     33          1           0        3.456155    1.213210    1.421481
     34          1           0        5.450886   -1.010180    0.724943
     35          1           0        5.495634    0.010486    2.163132
     36          1           0        5.709892    2.039476    0.611559
     37          1           0        7.096932    0.947039    0.666140
     38          1           0        5.005066    0.696013   -1.350479
     39          1           0        6.285970    1.692967   -1.562400
 ---------------------------------------------------------------------
 Rotational constants (GHZ):           1.1292846           0.1320333           0.1244782
 Standard basis: 6-31G(d,p) (6D, 7F)
 There are   345 symmetry adapted cartesian basis functions of A   symmetry.
 There are   345 symmetry adapted basis functions of A   symmetry.
   345 basis functions,   588 primitive gaussians,   345 cartesian basis functions
    61 alpha electrons       61 beta electrons
       nuclear repulsion energy      1009.8974648985 Hartrees.
 NAtoms=   39 NActive=   39 NUniq=   39 SFac= 1.00D+00 NAtFMM=   60 NAOKFM=F Big=F
 Integral buffers will be    131072 words long.
 Raffenetti 2 integral format.
 Two-electron integral symmetry is turned on.
 Force inversion solution in PCM.
 ------------------------------------------------------------------------------
 Polarizable Continuum Model (PCM)
 =================================
 Model                : PCM.
 Atomic radii         : UFF (Universal Force Field).
 Polarization charges : Total charges.
 Charge compensation  : None.
 Solution method      : Matrix inversion.
 Cavity type          : Scaled VdW (van der Waals Surface) (Alpha=1.100).
 Cavity algorithm     : GePol (No added spheres)
                        Default sphere list used, NSphG=   39.
                        Lebedev-Laikov grids with approx.  5.0 points / Ang**2.
                        Smoothing algorithm: York/Karplus (Gamma=1.0000).
                        Polarization charges: spherical gaussians, with
                                              point-specific exponents (IZeta= 3).
                        Self-potential: point-specific (ISelfS= 7).
                        Self-field    : sphere-specific E.n sum rule (ISelfD= 2).
 1st derivatives      : Analytical E(r).r(x)/FMM algorithm (CHGder, D1EAlg=3).
                        Cavity 1st derivative terms included.
 2nd derivatives      : Analytical E(r).r(xy)/FMM algorithm (CHGder, D2EAlg=3).
                        Cavity 2nd derivative terms included.
 Solvent              : Water, Eps=  78.355300 Eps(inf)=   1.777849
 ------------------------------------------------------------------------------
 One-electron integrals computed using PRISM.
 NBasis=   345 RedAO= T EigKep=  3.08D-03  NBF=   345
 NBsUse=   345 1.00D-06 EigRej= -1.00D+00 NBFU=   345
 ExpMin= 1.61D-01 ExpMax= 5.48D+03 ExpMxC= 8.25D+02 IAcc=3 IRadAn=         5 AccDes= 0.00D+00
 Harris functional with IExCor=  402 and IRadAn=       5 diagonalized for initial guess.
 HarFok:  IExCor=  402 AccDes= 0.00D+00 IRadAn=         5 IDoV= 1 UseB2=F ITyADJ=14
 ICtDFT=  3500011 ScaDFX=  1.000000  1.000000  1.000000  1.000000
 FoFCou: FMM=F IPFlag=           0 FMFlag=      100000 FMFlg1=           0
         NFxFlg=           0 DoJE=T BraDBF=F KetDBF=T FulRan=T
         wScrn=  0.000000 ICntrl=       500 IOpCl=  0 I1Cent=   200000004 NGrid=           0
         NMat0=    1 NMatS0=      1 NMatT0=    0 NMatD0=    1 NMtDS0=    0 NMtDT0=    0
 Petite list used in FoFCou.
 Requested convergence on RMS density matrix=1.00D-08 within  32 cycles.
 Requested convergence on MAX density matrix=1.00D-06.
 Requested convergence on             energy=1.00D-06.
 No special actions if energy rises.
 Inv3:  Mode=1 IEnd=    23285388.
 Iteration    1 A*A^-1 deviation from unit magnitude is 3.33D-15 for     75.
 Iteration    1 A*A^-1 deviation from orthogonality  is 3.10D-15 for   2430   1670.
 Iteration    1 A^-1*A deviation from unit magnitude is 3.22D-15 for   2211.
 Iteration    1 A^-1*A deviation from orthogonality  is 8.60D-15 for   2445   2430.
 Error on total polarization charges =  0.01164
 SCF Done:  E(RB3LYP) =  -730.676407042     A.U. after   11 cycles
            NFock= 11  Conv=0.62D-08     -V/T= 2.0092
 QCSCF skips out because SCF is already converged.
 DoSCS=F DFT=T ScalE2(SS,OS)=  1.000000  1.000000
 Range of M.O.s used for correlation:     1   345
 NBasis=   345 NAE=    61 NBE=    61 NFC=     0 NFV=     0
 NROrb=    345 NOA=    61 NOB=    61 NVA=   284 NVB=   284
 Symmetrizing basis deriv contribution to polar:
 IMax=3 JMax=2 DiffMx= 0.00D+00
 G2DrvN: will do    40 centers at a time, making    1 passes.
 Calling FoFCou, ICntrl=  3107 FMM=F I1Cent=   0 AccDes= 0.00D+00.
 NEqPCM:  Using equilibrium solvation (IEInf=0, Eps=  78.3553, EpsInf=   1.7778)
 G2PCM: DoFxE=T DoFxN=T DoGrad=T DoDP/DQ/DG/TGxP=FFFF NFrqRd=   0 IEInf=0 SqF1=F DoCFld=F IF1Alg=4.
 End of G2Drv F.D. properties file   721 does not exist.
 End of G2Drv F.D. properties file   722 does not exist.
 End of G2Drv F.D. properties file   788 does not exist.
          IDoAtm=111111111111111111111111111111111111111
 NEqPCM:  Using equilibrium solvation (IEInf=0, Eps=  78.3553, EpsInf=   1.7778)
          Differentiating once with respect to nuclear coordinates.
 CalDSu exits because no D1Ps are significant.
          There are   120 degrees of freedom in the 1st order CPHF.  IDoFFX=6 NUNeed=     0.
    114 vectors produced by pass  0 Test12= 1.73D-14 1.00D-09 XBig12= 9.06D-02 6.20D-02.
 AX will form   114 AO Fock derivatives at one time.
    114 vectors produced by pass  1 Test12= 1.73D-14 1.00D-09 XBig12= 1.18D-02 2.91D-02.
    114 vectors produced by pass  2 Test12= 1.73D-14 1.00D-09 XBig12= 2.77D-04 2.33D-03.
    114 vectors produced by pass  3 Test12= 1.73D-14 1.00D-09 XBig12= 1.07D-06 1.34D-04.
    114 vectors produced by pass  4 Test12= 1.73D-14 1.00D-09 XBig12= 8.70D-10 2.70D-06.
     50 vectors produced by pass  5 Test12= 1.73D-14 1.00D-09 XBig12= 5.28D-13 7.31D-08.
      3 vectors produced by pass  6 Test12= 1.73D-14 1.00D-09 XBig12= 2.93D-16 1.69D-09.
 InvSVY:  IOpt=1 It=  1 EMax= 3.33D-16
 Solved reduced A of dimension   623 with   120 vectors.
 End of Minotr F.D. properties file   721 does not exist.
 End of Minotr F.D. properties file   722 does not exist.
 End of Minotr F.D. properties file   788 does not exist.

 **********************************************************************

            Population analysis using the SCF density.

 **********************************************************************

 Orbital symmetries:
       Occupied  (A) (A) (A) (A) (A) (A) (A) (A) (A) (A) (A) (A)
                 (A) (A) (A) (A) (A) (A) (A) (A) (A) (A) (A) (A)
                 (A) (A) (A) (A) (A) (A) (A) (A) (A) (A) (A) (A)
                 (A) (A) (A) (A) (A) (A) (A) (A) (A) (A) (A) (A)
                 (A) (A) (A) (A) (A) (A) (A) (A) (A) (A) (A) (A)
                 (A)
       Virtual   (A) (A) (A) (A) (A) (A) (A) (A) (A) (A) (A) (A)
                 (A) (A) (A) (A) (A) (A) (A) (A) (A) (A) (A) (A)
                 (A) (A) (A) (A) (A) (A) (A) (A) (A) (A) (A) (A)
                 (A) (A) (A) (A) (A) (A) (A) (A) (A) (A) (A) (A)
                 (A) (A) (A) (A) (A) (A) (A) (A) (A) (A) (A) (A)
                 (A) (A) (A) (A) (A) (A) (A) (A) (A) (A) (A) (A)
                 (A) (A) (A) (A) (A) (A) (A) (A) (A) (A) (A) (A)
                 (A) (A) (A) (A) (A) (A) (A) (A) (A) (A) (A) (A)
                 (A) (A) (A) (A) (A) (A) (A) (A) (A) (A) (A) (A)
                 (A) (A) (A) (A) (A) (A) (A) (A) (A) (A) (A) (A)
                 (A) (A) (A) (A) (A) (A) (A) (A) (A) (A) (A) (A)
                 (A) (A) (A) (A) (A) (A) (A) (A) (A) (A) (A) (A)
                 (A) (A) (A) (A) (A) (A) (A) (A) (A) (A) (A) (A)
                 (A) (A) (A) (A) (A) (A) (A) (A) (A) (A) (A) (A)
                 (A) (A) (A) (A) (A) (A) (A) (A) (A) (A) (A) (A)
                 (A) (A) (A) (A) (A) (A) (A) (A) (A) (A) (A) (A)
                 (A) (A) (A) (A) (A) (A) (A) (A) (A) (A) (A) (A)
                 (A) (A) (A) (A) (A) (A) (A) (A) (A) (A) (A) (A)
                 (A) (A) (A) (A) (A) (A) (A) (A) (A) (A) (A) (A)
                 (A) (A) (A) (A) (A) (A) (A) (A) (A) (A) (A) (A)
                 (A) (A) (A) (A) (A) (A) (A) (A) (A) (A) (A) (A)
                 (A) (A) (A) (A) (A) (A) (A) (A) (A) (A) (A) (A)
                 (A) (A) (A) (A) (A) (A) (A) (A) (A) (A) (A) (A)
                 (A) (A) (A) (A) (A) (A) (A) (A)
 The electronic state is 1-A.
 Alpha  occ. eigenvalues --  -19.15868 -19.15147 -19.14383 -14.30735 -14.29554
 Alpha  occ. eigenvalues --  -10.23402 -10.23381 -10.23176 -10.23083 -10.23040
 Alpha  occ. eigenvalues --  -10.22520 -10.20320 -10.19863 -10.18262 -10.17343
 Alpha  occ. eigenvalues --   -1.03883  -1.03132  -1.01874  -0.87794  -0.86894
 Alpha  occ. eigenvalues --   -0.78242  -0.76761  -0.74604  -0.71252  -0.65990
 Alpha  occ. eigenvalues --   -0.64335  -0.61000  -0.60734  -0.58801  -0.57954
 Alpha  occ. eigenvalues --   -0.51236  -0.50250  -0.49884  -0.48984  -0.48412
 Alpha  occ. eigenvalues --   -0.47649  -0.46555  -0.45558  -0.44489  -0.43818
 Alpha  occ. eigenvalues --   -0.43221  -0.42068  -0.40893  -0.40396  -0.40064
 Alpha  occ. eigenvalues --   -0.38926  -0.38337  -0.36260  -0.36167  -0.36061
 Alpha  occ. eigenvalues --   -0.34310  -0.34035  -0.33534  -0.32484  -0.31092
 Alpha  occ. eigenvalues --   -0.30998  -0.26677  -0.26083  -0.25561  -0.22480
 Alpha  occ. eigenvalues --   -0.22322
 Alpha virt. eigenvalues --    0.07641   0.08618   0.09052   0.09843   0.11111
 Alpha virt. eigenvalues --    0.11461   0.11773   0.12470   0.13094   0.13201
 Alpha virt. eigenvalues --    0.13919   0.14860   0.15389   0.15890   0.16807
 Alpha virt. eigenvalues --    0.17200   0.17259   0.17812   0.18476   0.18900
 Alpha virt. eigenvalues --    0.19065   0.19852   0.20118   0.20451   0.21251
 Alpha virt. eigenvalues --    0.21969   0.22460   0.22794   0.23728   0.24785
 Alpha virt. eigenvalues --    0.25071   0.25571   0.25792   0.27713   0.28166
 Alpha virt. eigenvalues --    0.28183   0.29739   0.30567   0.49235   0.49964
 Alpha virt. eigenvalues --    0.51692   0.52340   0.52899   0.53804   0.54826
 Alpha virt. eigenvalues --    0.54956   0.55562   0.56104   0.56638   0.57261
 Alpha virt. eigenvalues --    0.57778   0.59171   0.60439   0.62181   0.62762
 Alpha virt. eigenvalues --    0.63687   0.65020   0.66297   0.66571   0.66967
 Alpha virt. eigenvalues --    0.68492   0.69654   0.71016   0.71507   0.73096
 Alpha virt. eigenvalues --    0.73212   0.74930   0.75522   0.78305   0.78864
 Alpha virt. eigenvalues --    0.78957   0.79637   0.81039   0.81880   0.82797
 Alpha virt. eigenvalues --    0.83186   0.84993   0.85349   0.86246   0.87108
 Alpha virt. eigenvalues --    0.87501   0.88465   0.89026   0.89724   0.89783
 Alpha virt. eigenvalues --    0.90506   0.91075   0.91812   0.92142   0.92980
 Alpha virt. eigenvalues --    0.93856   0.94344   0.94763   0.95642   0.97359
 Alpha virt. eigenvalues --    0.97704   0.98571   0.99351   1.01813   1.02494
 Alpha virt. eigenvalues --    1.04755   1.07504   1.09733   1.10686   1.12325
 Alpha virt. eigenvalues --    1.15570   1.17707   1.21705   1.22543   1.25319
 Alpha virt. eigenvalues --    1.27772   1.28766   1.30100   1.31120   1.34556
 Alpha virt. eigenvalues --    1.35105   1.36992   1.40348   1.41074   1.43749
 Alpha virt. eigenvalues --    1.44730   1.46599   1.47173   1.48255   1.49197
 Alpha virt. eigenvalues --    1.54002   1.56711   1.58367   1.59322   1.60653
 Alpha virt. eigenvalues --    1.62183   1.64071   1.68539   1.69440   1.70309
 Alpha virt. eigenvalues --    1.72184   1.73538   1.74394   1.76852   1.77496
 Alpha virt. eigenvalues --    1.79490   1.81816   1.82863   1.84911   1.86047
 Alpha virt. eigenvalues --    1.86647   1.87960   1.89153   1.89596   1.90843
 Alpha virt. eigenvalues --    1.91781   1.92667   1.94234   1.94727   1.95657
 Alpha virt. eigenvalues --    1.97763   1.98061   1.98222   1.99401   2.00099
 Alpha virt. eigenvalues --    2.01163   2.01988   2.02414   2.02910   2.04772
 Alpha virt. eigenvalues --    2.05750   2.06964   2.07831   2.10111   2.10471
 Alpha virt. eigenvalues --    2.10966   2.12793   2.13326   2.14843   2.15545
 Alpha virt. eigenvalues --    2.16950   2.18081   2.19255   2.21899   2.23001
 Alpha virt. eigenvalues --    2.25172   2.25515   2.25894   2.27002   2.27640
 Alpha virt. eigenvalues --    2.29045   2.29995   2.31433   2.32608   2.33404
 Alpha virt. eigenvalues --    2.34726   2.37478   2.38505   2.39740   2.39820
 Alpha virt. eigenvalues --    2.39952   2.42099   2.42743   2.44473   2.45610
 Alpha virt. eigenvalues --    2.48143   2.50509   2.53271   2.54820   2.55701
 Alpha virt. eigenvalues --    2.60684   2.61365   2.61700   2.62319   2.63682
 Alpha virt. eigenvalues --    2.65132   2.67797   2.68228   2.68345   2.69621
 Alpha virt. eigenvalues --    2.70319   2.71471   2.72333   2.73501   2.74892
 Alpha virt. eigenvalues --    2.76087   2.76826   2.76998   2.79157   2.80411
 Alpha virt. eigenvalues --    2.81099   2.82724   2.83713   2.85226   2.86403
 Alpha virt. eigenvalues --    2.86664   2.87755   2.90079   2.91174   2.92176
 Alpha virt. eigenvalues --    2.92732   2.94415   2.95708   2.98474   2.99083
 Alpha virt. eigenvalues --    2.99771   3.00430   3.02382   3.04534   3.08415
 Alpha virt. eigenvalues --    3.23805   3.25103   3.25597   3.27256   3.28405
 Alpha virt. eigenvalues --    3.29981   3.31273   3.31478   3.31926   3.32540
 Alpha virt. eigenvalues --    3.33830   3.35075   3.38686   3.39320   3.39794
 Alpha virt. eigenvalues --    3.41958   3.45098   3.46237   3.51011   3.54037
 Alpha virt. eigenvalues --    3.55218   3.57027   3.58258   3.59209   3.93162
 Alpha virt. eigenvalues --    3.97249   3.99429   4.04677   4.11195   4.33956
 Alpha virt. eigenvalues --    4.34794   4.36328   4.38164   4.51965   4.56768
 Alpha virt. eigenvalues --    4.59851   4.62930   4.68460   4.70905
          Condensed to atoms (all electrons):
               1          2          3          4          5          6
     1  N    6.764288   0.312792  -0.064862   0.005093  -0.000046  -0.000008
     2  C    0.312792   4.818043   0.343390  -0.031696   0.002774   0.000140
     3  C   -0.064862   0.343390   5.081709   0.325161  -0.040986  -0.006879
     4  C    0.005093  -0.031696   0.325161   4.767578   0.224208  -0.028774
     5  O   -0.000046   0.002774  -0.040986   0.224208   8.288941   0.234033
     6  C   -0.000008   0.000140  -0.006879  -0.028774   0.234033   4.763560
     7  C   -0.000000  -0.000002  -0.000010   0.004463  -0.039406   0.374299
     8  O    0.000000   0.000000   0.000031  -0.000121   0.002079  -0.039256
     9  C   -0.000000  -0.000000  -0.000000   0.000005  -0.000014   0.004080
    10  C   -0.000000   0.000000  -0.000000  -0.000000   0.000001  -0.000209
    11  O    0.000000   0.000000   0.000000   0.000000  -0.000000   0.000000
    12  C    0.000000  -0.000000  -0.000000   0.000000  -0.000000   0.000000
    13  C   -0.000000  -0.000000  -0.000000   0.000000  -0.000000   0.000000
    14  C    0.000000   0.000000  -0.000000   0.000000   0.000000  -0.000000
    15  N    0.000000   0.000000   0.000000   0.000000  -0.000000   0.000000
    16  H    0.348222  -0.046158  -0.002597   0.000057  -0.000001  -0.000000
    17  H    0.348373  -0.045769  -0.003191   0.000068  -0.000000  -0.000002
    18  H   -0.036537   0.389590  -0.046866  -0.002177  -0.000022   0.000002
    19  H   -0.036348   0.387671  -0.045704  -0.002287  -0.000051  -0.000006
    20  H   -0.000977  -0.033990   0.375630  -0.032233   0.002066  -0.000256
    21  H   -0.001117  -0.033663   0.377927  -0.031821  -0.001076   0.000937
    22  H   -0.000072   0.000999  -0.050596   0.368969  -0.031508  -0.010249
    23  H   -0.000065  -0.001849  -0.048456   0.389030  -0.034462   0.005147
    24  H   -0.000000   0.000061  -0.000730  -0.010595  -0.040280   0.363516
    25  H    0.000022  -0.000574   0.003869  -0.000179  -0.045170   0.356524
    26  H    0.000000  -0.000000   0.000005   0.000084   0.000613  -0.032818
    27  H    0.000000   0.000000   0.000006  -0.000172   0.002872  -0.033784
    28  H    0.000000   0.000000   0.000000   0.000000   0.000000   0.000057
    29  H   -0.000000   0.000000  -0.000000  -0.000001  -0.000014   0.000206
    30  H   -0.000000   0.000000   0.000000  -0.000000   0.000000   0.000006
    31  H    0.000000   0.000000  -0.000000   0.000000  -0.000001   0.000021
    32  H    0.000000  -0.000000   0.000000  -0.000000   0.000000  -0.000000
    33  H   -0.000000   0.000000   0.000000   0.000000  -0.000000   0.000000
    34  H   -0.000000   0.000000   0.000000  -0.000000  -0.000000   0.000000
    35  H    0.000000   0.000000   0.000000  -0.000000   0.000000  -0.000000
    36  H    0.000000  -0.000000   0.000000   0.000000  -0.000000  -0.000000
    37  H    0.000000   0.000000   0.000000  -0.000000   0.000000  -0.000000
    38  H    0.000000   0.000000  -0.000000  -0.000000   0.000000  -0.000000
    39  H    0.000000   0.000000  -0.000000   0.000000   0.000000  -0.000000
               7          8          9         10         11         12
     1  N   -0.000000   0.000000  -0.000000  -0.000000   0.000000   0.000000
     2  C   -0.000002   0.000000  -0.000000   0.000000   0.000000  -0.000000
     3  C   -0.000010   0.000031  -0.000000  -0.000000   0.000000  -0.000000
     4  C    0.004463  -0.000121   0.000005  -0.000000   0.000000   0.000000
     5  O   -0.039406   0.002079  -0.000014   0.000001  -0.000000  -0.000000
     6  C    0.374299  -0.039256   0.004080  -0.000209   0.000000   0.000000
     7  C    4.752667   0.227553  -0.022609   0.003703  -0.000040  -0.000005
     8  O    0.227553   8.302334   0.208309  -0.032312   0.001097   0.000055
     9  C   -0.022609   0.208309   4.799867   0.355582  -0.035737  -0.006892
    10  C    0.003703  -0.032312   0.355582   4.784347   0.224686  -0.028881
    11  O   -0.000040   0.001097  -0.035737   0.224686   8.256791   0.222664
    12  C   -0.000005   0.000055  -0.006892  -0.028881   0.222664   4.741928
    13  C   -0.000000   0.000000  -0.000051   0.004333  -0.043820   0.379068
    14  C    0.000000  -0.000000   0.000009   0.000186   0.003766  -0.038039
    15  N   -0.000000   0.000000  -0.000012   0.000242  -0.017059   0.000466
    16  H   -0.000000  -0.000000   0.000000  -0.000000   0.000000   0.000000
    17  H    0.000000   0.000000   0.000000  -0.000000  -0.000000  -0.000000
    18  H    0.000000   0.000000   0.000000   0.000000  -0.000000  -0.000000
    19  H   -0.000000  -0.000000   0.000000  -0.000000   0.000000   0.000000
    20  H   -0.000005   0.000018  -0.000000  -0.000000   0.000000  -0.000000
    21  H   -0.000242   0.000026  -0.000000   0.000000  -0.000000  -0.000000
    22  H    0.000125  -0.000000   0.000000  -0.000000  -0.000000  -0.000000
    23  H   -0.000276   0.000003  -0.000000   0.000000  -0.000000  -0.000000
    24  H   -0.032620   0.002880  -0.000145   0.000002  -0.000000  -0.000000
    25  H   -0.034509   0.000212  -0.000202   0.000002   0.000000   0.000000
    26  H    0.359788  -0.040768  -0.008606   0.000053   0.000004  -0.000003
    27  H    0.362106  -0.040794  -0.007298   0.000059   0.000001   0.000001
    28  H   -0.006545  -0.037888   0.363413  -0.037402   0.004161   0.000064
    29  H   -0.007394  -0.036889   0.370850  -0.039386   0.001107   0.001082
    30  H   -0.000113   0.005171  -0.045254   0.381919  -0.031808   0.005187
    31  H   -0.000124   0.005712  -0.047218   0.364763  -0.029086  -0.009301
    32  H    0.000006  -0.000208   0.002482  -0.001229  -0.041799   0.371443
    33  H   -0.000000   0.000014  -0.000765  -0.010863  -0.041147   0.371566
    34  H    0.000000   0.000000   0.000013  -0.000209   0.001241  -0.039765
    35  H    0.000000  -0.000000   0.000001  -0.000167   0.002762  -0.030028
    36  H    0.000000  -0.000000   0.000001  -0.000070  -0.000039  -0.011221
    37  H   -0.000000  -0.000000   0.000000   0.000007  -0.000061   0.005113
    38  H    0.000000  -0.000000   0.000109  -0.000401   0.031865  -0.001940
    39  H    0.000000  -0.000000   0.000000  -0.000011   0.000360   0.000237
              13         14         15         16         17         18
     1  N   -0.000000   0.000000   0.000000   0.348222   0.348373  -0.036537
     2  C   -0.000000   0.000000   0.000000  -0.046158  -0.045769   0.389590
     3  C   -0.000000  -0.000000   0.000000  -0.002597  -0.003191  -0.046866
     4  C    0.000000   0.000000   0.000000   0.000057   0.000068  -0.002177
     5  O   -0.000000   0.000000  -0.000000  -0.000001  -0.000000  -0.000022
     6  C    0.000000  -0.000000   0.000000  -0.000000  -0.000002   0.000002
     7  C   -0.000000   0.000000  -0.000000  -0.000000   0.000000   0.000000
     8  O    0.000000  -0.000000   0.000000  -0.000000   0.000000   0.000000
     9  C   -0.000051   0.000009  -0.000012   0.000000   0.000000   0.000000
    10  C    0.004333   0.000186   0.000242  -0.000000  -0.000000   0.000000
    11  O   -0.043820   0.003766  -0.017059   0.000000  -0.000000  -0.000000
    12  C    0.379068  -0.038039   0.000466   0.000000  -0.000000  -0.000000
    13  C    4.963337   0.371019  -0.049059   0.000000   0.000000  -0.000000
    14  C    0.371019   4.779427   0.306139   0.000000  -0.000000  -0.000000
    15  N   -0.049059   0.306139   6.848674   0.000000   0.000000   0.000000
    16  H    0.000000   0.000000   0.000000   0.479845  -0.034409  -0.005740
    17  H    0.000000  -0.000000   0.000000  -0.034409   0.479071   0.006471
    18  H   -0.000000  -0.000000   0.000000  -0.005740   0.006471   0.621209
    19  H    0.000000   0.000000   0.000000   0.006511  -0.005370  -0.038057
    20  H   -0.000000   0.000000  -0.000000   0.005494  -0.000472  -0.006072
    21  H   -0.000000   0.000000  -0.000000  -0.000481   0.005853   0.005687
    22  H   -0.000000   0.000000  -0.000000   0.000011   0.000007  -0.000577
    23  H   -0.000000   0.000000  -0.000000   0.000006   0.000016   0.005291
    24  H   -0.000000   0.000000  -0.000000  -0.000000   0.000000   0.000002
    25  H    0.000000  -0.000000   0.000000   0.000001  -0.000004  -0.000002
    26  H    0.000000  -0.000000   0.000000  -0.000000  -0.000000  -0.000000
    27  H   -0.000000   0.000000   0.000000  -0.000000  -0.000000   0.000000
    28  H   -0.000008   0.000000  -0.000003  -0.000000  -0.000000  -0.000000
    29  H   -0.000164  -0.000002   0.000000  -0.000000   0.000000   0.000000
    30  H   -0.000241  -0.000022   0.000125  -0.000000   0.000000   0.000000
    31  H    0.000162  -0.000079  -0.000024  -0.000000  -0.000000  -0.000000
    32  H   -0.036655   0.005928  -0.000278  -0.000000   0.000000   0.000000
    33  H   -0.035976  -0.010991  -0.000139  -0.000000   0.000000   0.000000
    34  H    0.370074  -0.043348   0.003089  -0.000000   0.000000   0.000000
    35  H    0.370441  -0.030961   0.003860  -0.000000   0.000000   0.000000
    36  H   -0.040669   0.381241  -0.055561   0.000000   0.000000   0.000000
    37  H   -0.030297   0.386724  -0.050610   0.000000   0.000000   0.000000
    38  H   -0.011258  -0.040767   0.333861  -0.000000  -0.000000   0.000000
    39  H    0.005445  -0.034515   0.336381  -0.000000   0.000000   0.000000
              19         20         21         22         23         24
     1  N   -0.036348  -0.000977  -0.001117  -0.000072  -0.000065  -0.000000
     2  C    0.387671  -0.033990  -0.033663   0.000999  -0.001849   0.000061
     3  C   -0.045704   0.375630   0.377927  -0.050596  -0.048456  -0.000730
     4  C   -0.002287  -0.032233  -0.031821   0.368969   0.389030  -0.010595
     5  O   -0.000051   0.002066  -0.001076  -0.031508  -0.034462  -0.040280
     6  C   -0.000006  -0.000256   0.000937  -0.010249   0.005147   0.363516
     7  C   -0.000000  -0.000005  -0.000242   0.000125  -0.000276  -0.032620
     8  O   -0.000000   0.000018   0.000026  -0.000000   0.000003   0.002880
     9  C    0.000000  -0.000000  -0.000000   0.000000  -0.000000  -0.000145
    10  C   -0.000000  -0.000000   0.000000  -0.000000   0.000000   0.000002
    11  O    0.000000   0.000000  -0.000000  -0.000000  -0.000000  -0.000000
    12  C    0.000000  -0.000000  -0.000000  -0.000000  -0.000000  -0.000000
    13  C    0.000000  -0.000000  -0.000000  -0.000000  -0.000000  -0.000000
    14  C    0.000000   0.000000   0.000000   0.000000   0.000000   0.000000
    15  N    0.000000  -0.000000  -0.000000  -0.000000  -0.000000  -0.000000
    16  H    0.006511   0.005494  -0.000481   0.000011   0.000006  -0.000000
    17  H   -0.005370  -0.000472   0.005853   0.000007   0.000016   0.000000
    18  H   -0.038057  -0.006072   0.005687  -0.000577   0.005291   0.000002
    19  H    0.622062   0.005696  -0.005914   0.004515  -0.000617  -0.000004
    20  H    0.005696   0.625741  -0.041662   0.006154  -0.007130   0.000053
    21  H   -0.005914  -0.041662   0.622893  -0.006687   0.005827   0.000156
    22  H    0.004515   0.006154  -0.006687   0.656573  -0.041447   0.011040
    23  H   -0.000617  -0.007130   0.005827  -0.041447   0.626196   0.000362
    24  H   -0.000004   0.000053   0.000156   0.011040   0.000362   0.654899
    25  H    0.000025   0.000194   0.002060  -0.001303  -0.000322  -0.050012
    26  H    0.000000   0.000006  -0.000008   0.000021  -0.000033  -0.001765
    27  H    0.000000   0.000001   0.000009   0.000016   0.000004   0.001722
    28  H   -0.000000   0.000000   0.000000  -0.000000   0.000000   0.000012
    29  H   -0.000000  -0.000000  -0.000000   0.000000   0.000000   0.000010
    30  H   -0.000000  -0.000000  -0.000000   0.000000   0.000000   0.000000
    31  H    0.000000   0.000000   0.000000  -0.000000  -0.000000   0.000000
    32  H   -0.000000   0.000000  -0.000000   0.000000   0.000000   0.000000
    33  H   -0.000000  -0.000000  -0.000000  -0.000000   0.000000  -0.000000
    34  H   -0.000000  -0.000000  -0.000000  -0.000000   0.000000  -0.000000
    35  H   -0.000000   0.000000   0.000000   0.000000   0.000000   0.000000
    36  H   -0.000000   0.000000  -0.000000   0.000000   0.000000   0.000000
    37  H    0.000000  -0.000000  -0.000000   0.000000   0.000000   0.000000
    38  H   -0.000000   0.000000   0.000000   0.000000   0.000000   0.000000
    39  H    0.000000   0.000000   0.000000   0.000000   0.000000   0.000000
              25         26         27         28         29         30
     1  N    0.000022   0.000000   0.000000   0.000000  -0.000000  -0.000000
     2  C   -0.000574  -0.000000   0.000000   0.000000   0.000000   0.000000
     3  C    0.003869   0.000005   0.000006   0.000000  -0.000000   0.000000
     4  C   -0.000179   0.000084  -0.000172   0.000000  -0.000001  -0.000000
     5  O   -0.045170   0.000613   0.002872   0.000000  -0.000014   0.000000
     6  C    0.356524  -0.032818  -0.033784   0.000057   0.000206   0.000006
     7  C   -0.034509   0.359788   0.362106  -0.006545  -0.007394  -0.000113
     8  O    0.000212  -0.040768  -0.040794  -0.037888  -0.036889   0.005171
     9  C   -0.000202  -0.008606  -0.007298   0.363413   0.370850  -0.045254
    10  C    0.000002   0.000053   0.000059  -0.037402  -0.039386   0.381919
    11  O    0.000000   0.000004   0.000001   0.004161   0.001107  -0.031808
    12  C    0.000000  -0.000003   0.000001   0.000064   0.001082   0.005187
    13  C    0.000000   0.000000  -0.000000  -0.000008  -0.000164  -0.000241
    14  C   -0.000000  -0.000000   0.000000   0.000000  -0.000002  -0.000022
    15  N    0.000000   0.000000   0.000000  -0.000003   0.000000   0.000125
    16  H    0.000001  -0.000000  -0.000000  -0.000000  -0.000000  -0.000000
    17  H   -0.000004  -0.000000  -0.000000  -0.000000   0.000000   0.000000
    18  H   -0.000002  -0.000000   0.000000  -0.000000   0.000000   0.000000
    19  H    0.000025   0.000000   0.000000  -0.000000  -0.000000  -0.000000
    20  H    0.000194   0.000006   0.000001   0.000000  -0.000000  -0.000000
    21  H    0.002060  -0.000008   0.000009   0.000000  -0.000000  -0.000000
    22  H   -0.001303   0.000021   0.000016  -0.000000   0.000000   0.000000
    23  H   -0.000322  -0.000033   0.000004   0.000000   0.000000   0.000000
    24  H   -0.050012  -0.001765   0.001722   0.000012   0.000010   0.000000
    25  H    0.659607   0.006932  -0.001652  -0.000027   0.000046   0.000009
    26  H    0.006932   0.650308  -0.048378  -0.002980   0.013306   0.000043
    27  H   -0.001652  -0.048378   0.653000   0.012336  -0.002509  -0.000051
    28  H   -0.000027  -0.002980   0.012336   0.666618  -0.057665  -0.009552
    29  H    0.000046   0.013306  -0.002509  -0.057665   0.656921   0.006502
    30  H    0.000009   0.000043  -0.000051  -0.009552   0.006502   0.615495
    31  H   -0.000000  -0.000043   0.000034   0.006851  -0.007772  -0.041675
    32  H    0.000000   0.000002  -0.000001  -0.000082   0.002541  -0.000267
    33  H    0.000000   0.000000  -0.000000   0.000043   0.000259   0.000356
    34  H    0.000000   0.000000  -0.000000   0.000009   0.000033   0.000007
    35  H   -0.000000  -0.000000   0.000000   0.000000   0.000005   0.000004
    36  H   -0.000000   0.000000  -0.000000   0.000000   0.000000   0.000001
    37  H    0.000000   0.000000  -0.000000  -0.000000  -0.000000  -0.000000
    38  H   -0.000000   0.000000  -0.000000   0.000026  -0.000008  -0.000518
    39  H   -0.000000  -0.000000  -0.000000   0.000000  -0.000000  -0.000004
              31         32         33         34         35         36
     1  N    0.000000   0.000000  -0.000000  -0.000000   0.000000   0.000000
     2  C    0.000000  -0.000000   0.000000   0.000000   0.000000  -0.000000
     3  C   -0.000000   0.000000   0.000000   0.000000   0.000000   0.000000
     4  C    0.000000  -0.000000   0.000000  -0.000000  -0.000000   0.000000
     5  O   -0.000001   0.000000  -0.000000  -0.000000   0.000000  -0.000000
     6  C    0.000021  -0.000000   0.000000   0.000000  -0.000000  -0.000000
     7  C   -0.000124   0.000006  -0.000000   0.000000   0.000000   0.000000
     8  O    0.005712  -0.000208   0.000014   0.000000  -0.000000  -0.000000
     9  C   -0.047218   0.002482  -0.000765   0.000013   0.000001   0.000001
    10  C    0.364763  -0.001229  -0.010863  -0.000209  -0.000167  -0.000070
    11  O   -0.029086  -0.041799  -0.041147   0.001241   0.002762  -0.000039
    12  C   -0.009301   0.371443   0.371566  -0.039765  -0.030028  -0.011221
    13  C    0.000162  -0.036655  -0.035976   0.370074   0.370441  -0.040669
    14  C   -0.000079   0.005928  -0.010991  -0.043348  -0.030961   0.381241
    15  N   -0.000024  -0.000278  -0.000139   0.003089   0.003860  -0.055561
    16  H   -0.000000  -0.000000  -0.000000  -0.000000  -0.000000   0.000000
    17  H   -0.000000   0.000000   0.000000   0.000000   0.000000   0.000000
    18  H   -0.000000   0.000000   0.000000   0.000000   0.000000   0.000000
    19  H    0.000000  -0.000000  -0.000000  -0.000000  -0.000000  -0.000000
    20  H    0.000000   0.000000  -0.000000  -0.000000   0.000000   0.000000
    21  H    0.000000  -0.000000  -0.000000  -0.000000   0.000000  -0.000000
    22  H   -0.000000   0.000000  -0.000000  -0.000000   0.000000   0.000000
    23  H   -0.000000   0.000000   0.000000   0.000000   0.000000   0.000000
    24  H    0.000000   0.000000  -0.000000  -0.000000   0.000000   0.000000
    25  H   -0.000000   0.000000   0.000000   0.000000  -0.000000  -0.000000
    26  H   -0.000043   0.000002   0.000000   0.000000  -0.000000   0.000000
    27  H    0.000034  -0.000001  -0.000000  -0.000000   0.000000  -0.000000
    28  H    0.006851  -0.000082   0.000043   0.000009   0.000000   0.000000
    29  H   -0.007772   0.002541   0.000259   0.000033   0.000005   0.000000
    30  H   -0.041675  -0.000267   0.000356   0.000007   0.000004   0.000001
    31  H    0.641400  -0.001728   0.011798   0.000036   0.000013  -0.000005
    32  H   -0.001728   0.662561  -0.054011  -0.006520  -0.001828   0.000066
    33  H    0.011798  -0.054011   0.659114   0.006430  -0.000666   0.006206
    34  H    0.000036  -0.006520   0.006430   0.628137  -0.028602   0.007211
    35  H    0.000013  -0.001828  -0.000666  -0.028602   0.609106   0.000232
    36  H   -0.000005   0.000066   0.006206   0.007211   0.000232   0.691790
    37  H   -0.000000  -0.000189  -0.000090  -0.004778  -0.005634  -0.051881
    38  H    0.000203   0.000385   0.000282   0.000008   0.000075  -0.000525
    39  H    0.000002   0.000011  -0.000018  -0.000065  -0.000242  -0.007783
              37         38         39
     1  N    0.000000   0.000000   0.000000
     2  C    0.000000   0.000000   0.000000
     3  C    0.000000  -0.000000  -0.000000
     4  C   -0.000000  -0.000000   0.000000
     5  O    0.000000   0.000000   0.000000
     6  C   -0.000000  -0.000000  -0.000000
     7  C   -0.000000   0.000000   0.000000
     8  O   -0.000000  -0.000000  -0.000000
     9  C    0.000000   0.000109   0.000000
    10  C    0.000007  -0.000401  -0.000011
    11  O   -0.000061   0.031865   0.000360
    12  C    0.005113  -0.001940   0.000237
    13  C   -0.030297  -0.011258   0.005445
    14  C    0.386724  -0.040767  -0.034515
    15  N   -0.050610   0.333861   0.336381
    16  H    0.000000  -0.000000  -0.000000
    17  H    0.000000  -0.000000   0.000000
    18  H    0.000000   0.000000   0.000000
    19  H    0.000000  -0.000000   0.000000
    20  H   -0.000000   0.000000   0.000000
    21  H   -0.000000   0.000000   0.000000
    22  H    0.000000   0.000000   0.000000
    23  H    0.000000   0.000000   0.000000
    24  H    0.000000   0.000000   0.000000
    25  H    0.000000  -0.000000  -0.000000
    26  H    0.000000   0.000000  -0.000000
    27  H   -0.000000  -0.000000  -0.000000
    28  H   -0.000000   0.000026   0.000000
    29  H   -0.000000  -0.000008  -0.000000
    30  H   -0.000000  -0.000518  -0.000004
    31  H   -0.000000   0.000203   0.000002
    32  H   -0.000189   0.000385   0.000011
    33  H   -0.000090   0.000282  -0.000018
    34  H   -0.004778   0.000008  -0.000065
    35  H   -0.005634   0.000075  -0.000242
    36  H   -0.051881  -0.000525  -0.007783
    37  H    0.652045   0.005926  -0.000527
    38  H    0.005926   0.453007  -0.028986
    39  H   -0.000527  -0.028986   0.487385
 Mulliken charges:
               1
     1  N   -0.638756
     2  C   -0.061758
     3  C   -0.196849
     4  C    0.055343
     5  O   -0.524551
     6  C    0.049716
     7  C    0.059188
     8  O   -0.527257
     9  C    0.070084
    10  C    0.031254
    11  O   -0.509909
    12  C    0.067201
    13  C   -0.215683
    14  C   -0.035713
    15  N   -0.660095
    16  H    0.249241
    17  H    0.249359
    18  H    0.107798
    19  H    0.107879
    20  H    0.101743
    21  H    0.101299
    22  H    0.094010
    23  H    0.102777
    24  H    0.101437
    25  H    0.104453
    26  H    0.104235
    27  H    0.102471
    28  H    0.098561
    29  H    0.098937
    30  H    0.114681
    31  H    0.106060
    32  H    0.099368
    33  H    0.098599
    34  H    0.107001
    35  H    0.111630
    36  H    0.081007
    37  H    0.094252
    38  H    0.258657
    39  H    0.242330
 Sum of Mulliken charges =  -0.00000
 Mulliken charges with hydrogens summed into heavy atoms:
               1
     1  N   -0.140156
     2  C    0.153919
     3  C    0.006193
     4  C    0.252129
     5  O   -0.524551
     6  C    0.255607
     7  C    0.265894
     8  O   -0.527257
     9  C    0.267582
    10  C    0.251996
    11  O   -0.509909
    12  C    0.265167
    13  C    0.002949
    14  C    0.139546
    15  N   -0.159109
 APT charges:
               1
     1  N   -0.131405
     2  C   -1.409973
     3  C    0.051016
     4  C   -1.010471
     5  O   -0.391186
     6  C   -0.630265
     7  C   -0.626079
     8  O   -0.434766
     9  C   -0.566290
    10  C   -0.323816
    11  O   -0.399412
    12  C   -0.299374
    13  C   -0.966275
    14  C   -1.136413
    15  N   -0.458253
    16  H    0.088876
    17  H    0.137059
    18  H    0.592239
    19  H    0.645626
    20  H    0.003705
    21  H    0.058943
    22  H    0.598301
    23  H    0.603265
    24  H    0.638707
    25  H    0.253558
    26  H    0.314372
    27  H    0.437611
    28  H    0.433199
    29  H    0.307199
    30  H    0.339509
    31  H    0.177039
    32  H    0.133084
    33  H    0.260779
    34  H    0.394020
    35  H    0.652926
    36  H    0.180325
    37  H    1.040346
    38  H   -0.429587
    39  H    0.871861
 Sum of APT charges =  -0.00000
 APT charges with hydrogens summed into heavy atoms:
               1
     1  N    0.094530
     2  C   -0.172109
     3  C    0.113664
     4  C    0.191094
     5  O   -0.391186
     6  C    0.262000
     7  C    0.125904
     8  O   -0.434766
     9  C    0.174108
    10  C    0.192733
    11  O   -0.399412
    12  C    0.094490
    13  C    0.080671
    14  C    0.084258
    15  N   -0.015980
 Electronic spatial extent (au):  <R**2>=           8666.6921
 Charge=              0.0000 electrons
 Dipole moment (field-independent basis, Debye):
    X=             -1.0469    Y=             -0.4235    Z=              0.5830  Tot=              1.2709
 Quadrupole moment (field-independent basis, Debye-Ang):
   XX=           -120.7042   YY=            -88.2159   ZZ=            -91.2762
   XY=             15.6467   XZ=             12.2146   YZ=              0.9220
 Traceless Quadrupole moment (field-independent basis, Debye-Ang):
   XX=            -20.6388   YY=             11.8495   ZZ=              8.7893
   XY=             15.6467   XZ=             12.2146   YZ=              0.9220
 Octapole moment (field-independent basis, Debye-Ang**2):
  XXX=              8.3250  YYY=             -8.2421  ZZZ=             -5.2397  XYY=             32.2934
  XXY=            -39.3251  XXZ=             55.5169  XZZ=             -7.1313  YZZ=              8.0015
  YYZ=             -9.0955  XYZ=            -18.1009
 Hexadecapole moment (field-independent basis, Debye-Ang**3):
 XXXX=         -11985.8110 YYYY=           -983.3503 ZZZZ=           -389.9390 XXXY=            936.1752
 XXXZ=            265.8827 YYYX=             99.5002 YYYZ=              2.3924 ZZZX=             -5.0624
 ZZZY=            -16.4420 XXYY=          -1953.7941 XXZZ=          -1665.4014 YYZZ=           -218.0361
 XXYZ=            -31.3272 YYXZ=            -29.5878 ZZXY=             -3.2585
 N-N= 1.009897464899D+03 E-N=-3.722310900297D+03  KE= 7.240013819040D+02
  Exact polarizability:   0.000   0.000   0.000   0.000   0.000   0.000
 Approx polarizability: 178.908   2.809 169.591   1.327   0.896 174.996
 D2PCM: PCM CHGder 2nd derivatives, FixD1E=F FixD2E=F DoIter=F DoCFld=F I1PDM=0
 Calling FoFJK, ICntrl=    100147 FMM=F ISym2X=0 I1Cent= 0 IOpClX= 0 NMat=1 NMatS=1 NMatT=0.
 ***** Axes restored to original set *****
 -------------------------------------------------------------------
 Center     Atomic                   Forces (Hartrees/Bohr)
 Number     Number              X              Y              Z
 -------------------------------------------------------------------
      1        7          -0.011519353    0.009473214    0.005463723
      2        6           0.008445794    0.009357905   -0.000848916
      3        6          -0.001687582   -0.011274901   -0.003628199
      4        6           0.009250256    0.003906051    0.003990266
      5        8           0.004493427   -0.003711634   -0.004658434
      6        6           0.005368287   -0.005264695    0.011279448
[...]
    93    C    7  S      Ryd( 3S)     0.00297
    94    C    7  S      Ryd( 4S)     0.00005
    95    C    7  px     Val( 2p)     0.94761
    96    C    7  px     Ryd( 3p)     0.00160
    97    C    7  py     Val( 2p)     0.91246
    98    C    7  py     Ryd( 3p)     0.00331
    99    C    7  pz     Val( 2p)     1.22880
   100    C    7  pz     Ryd( 3p)     0.00267
   101    C    7  dxy    Ryd( 3d)     0.00158
   102    C    7  dxz    Ryd( 3d)     0.00062
   103    C    7  dyz    Ryd( 3d)     0.00185
   104    C    7  dx2y2  Ryd( 3d)     0.00136
   105    C    7  dz2    Ryd( 3d)     0.00092

   106    O    8  S      Cor( 1S)     1.99978
   107    O    8  S      Val( 2S)     1.62928
   108    O    8  S      Ryd( 3S)     0.00329
   109    O    8  S      Ryd( 4S)     0.00008
   110    O    8  px     Val( 2p)     1.40100
   111    O    8  px     Ryd( 3p)     0.00142
   112    O    8  py     Val( 2p)     1.64798
   113    O    8  py     Ryd( 3p)     0.00168
   114    O    8  pz     Val( 2p)     1.92055
   115    O    8  pz     Ryd( 3p)     0.00323
   116    O    8  dxy    Ryd( 3d)     0.00132
   117    O    8  dxz    Ryd( 3d)     0.00029
   118    O    8  dyz    Ryd( 3d)     0.00118
   119    O    8  dx2y2  Ryd( 3d)     0.00125
   120    O    8  dz2    Ryd( 3d)     0.00077

   121    C    9  S      Cor( 1S)     1.99930
   122    C    9  S      Val( 2S)     1.03401
   123    C    9  S      Ryd( 3S)     0.00303
   124    C    9  S      Ryd( 4S)     0.00005
   125    C    9  px     Val( 2p)     0.76102
   126    C    9  px     Ryd( 3p)     0.00793
   127    C    9  py     Val( 2p)     1.11680
   128    C    9  py     Ryd( 3p)     0.00358
   129    C    9  pz     Val( 2p)     1.22175
   130    C    9  pz     Ryd( 3p)     0.00170
   131    C    9  dxy    Ryd( 3d)     0.00130
   132    C    9  dxz    Ryd( 3d)     0.00146
   133    C    9  dyz    Ryd( 3d)     0.00111
   134    C    9  dx2y2  Ryd( 3d)     0.00166
   135    C    9  dz2    Ryd( 3d)     0.00085

   136    C   10  S      Cor( 1S)     1.99932
   137    C   10  S      Val( 2S)     1.02276
   138    C   10  S      Ryd( 3S)     0.00210
   139    C   10  S      Ryd( 4S)     0.00005
   140    C   10  px     Val( 2p)     0.79052
   141    C   10  px     Ryd( 3p)     0.01655
   142    C   10  py     Val( 2p)     1.10170
   143    C   10  py     Ryd( 3p)     0.00175
   144    C   10  pz     Val( 2p)     1.23664
   145    C   10  pz     Ryd( 3p)     0.00428
   146    C   10  dxy    Ryd( 3d)     0.00155
   147    C   10  dxz    Ryd( 3d)     0.00099
   148    C   10  dyz    Ryd( 3d)     0.00097
   149    C   10  dx2y2  Ryd( 3d)     0.00167
   150    C   10  dz2    Ryd( 3d)     0.00094

   151    O   11  S      Cor( 1S)     1.99979
   152    O   11  S      Val( 2S)     1.64809
   153    O   11  S      Ryd( 3S)     0.00337
   154    O   11  S      Ryd( 4S)     0.00025
   155    O   11  px     Val( 2p)     1.47335
   156    O   11  px     Ryd( 3p)     0.00157
   157    O   11  py     Val( 2p)     1.87096
   158    O   11  py     Ryd( 3p)     0.00298
   159    O   11  pz     Val( 2p)     1.61366
   160    O   11  pz     Ryd( 3p)     0.00183
   161    O   11  dxy    Ryd( 3d)     0.00054
   162    O   11  dxz    Ryd( 3d)     0.00112
   163    O   11  dyz    Ryd( 3d)     0.00095
   164    O   11  dx2y2  Ryd( 3d)     0.00073
   165    O   11  dz2    Ryd( 3d)     0.00121

   166    C   12  S      Cor( 1S)     1.99928
   167    C   12  S      Val( 2S)     1.02323
   168    C   12  S      Ryd( 3S)     0.00274
   169    C   12  S      Ryd( 4S)     0.00004
   170    C   12  px     Val( 2p)     1.00324
   171    C   12  px     Ryd( 3p)     0.00183
   172    C   12  py     Val( 2p)     1.21028
   173    C   12  py     Ryd( 3p)     0.00342
   174    C   12  pz     Val( 2p)     0.88334
   175    C   12  pz     Ryd( 3p)     0.00650
   176    C   12  dxy    Ryd( 3d)     0.00073
   177    C   12  dxz    Ryd( 3d)     0.00136
   178    C   12  dyz    Ryd( 3d)     0.00166
   179    C   12  dx2y2  Ryd( 3d)     0.00087
   180    C   12  dz2    Ryd( 3d)     0.00154

   181    C   13  S      Cor( 1S)     1.99931
   182    C   13  S      Val( 2S)     1.04531
   183    C   13  S      Ryd( 3S)     0.00129
   184    C   13  S      Ryd( 4S)     0.00002
   185    C   13  px     Val( 2p)     1.07839
   186    C   13  px     Ryd( 3p)     0.00183
   187    C   13  py     Val( 2p)     1.10768
   188    C   13  py     Ryd( 3p)     0.00160
   189    C   13  pz     Val( 2p)     1.25493
   190    C   13  pz     Ryd( 3p)     0.00483
   191    C   13  dxy    Ryd( 3d)     0.00057
   192    C   13  dxz    Ryd( 3d)     0.00047
   193    C   13  dyz    Ryd( 3d)     0.00072
   194    C   13  dx2y2  Ryd( 3d)     0.00068
   195    C   13  dz2    Ryd( 3d)     0.00062

   196    C   14  S      Cor( 1S)     1.99928
   197    C   14  S      Val( 2S)     1.06640
   198    C   14  S      Ryd( 3S)     0.00197
   199    C   14  S      Ryd( 4S)     0.00004
   200    C   14  px     Val( 2p)     1.23333
   201    C   14  px     Ryd( 3p)     0.00401
   202    C   14  py     Val( 2p)     1.12434
   203    C   14  py     Ryd( 3p)     0.00110
   204    C   14  pz     Val( 2p)     0.90534
   205    C   14  pz     Ryd( 3p)     0.00532
   206    C   14  dxy    Ryd( 3d)     0.00054
   207    C   14  dxz    Ryd( 3d)     0.00047
   208    C   14  dyz    Ryd( 3d)     0.00089
   209    C   14  dx2y2  Ryd( 3d)     0.00098
   210    C   14  dz2    Ryd( 3d)     0.00146

   211    N   15  S      Cor( 1S)     1.99934
   212    N   15  S      Val( 2S)     1.47226
   213    N   15  S      Ryd( 3S)     0.00767
   214    N   15  S      Ryd( 4S)     0.00003
   215    N   15  px     Val( 2p)     1.36139
   216    N   15  px     Ryd( 3p)     0.00071
   217    N   15  py     Val( 2p)     1.27973
   218    N   15  py     Ryd( 3p)     0.00080
   219    N   15  pz     Val( 2p)     1.22912
   220    N   15  pz     Ryd( 3p)     0.00000
   221    N   15  dxy    Ryd( 3d)     0.00000
   222    N   15  dxz    Ryd( 3d)     0.00031
   223    N   15  dyz    Ryd( 3d)     0.00015
   224    N   15  dx2y2  Ryd( 3d)     0.00093
   225    N   15  dz2    Ryd( 3d)     0.00102

   226    H   16  S      Val( 1S)     0.61278
   227    H   16  S      Ryd( 2S)     0.00148
   228    H   16  px     Ryd( 2p)     0.00063
   229    H   16  py     Ryd( 2p)     0.00045
   230    H   16  pz     Ryd( 2p)     0.00035

   231    H   17  S      Val( 1S)     0.61287
   232    H   17  S      Ryd( 2S)     0.00147
   233    H   17  px     Ryd( 2p)     0.00055
   234    H   17  py     Ryd( 2p)     0.00029
   235    H   17  pz     Ryd( 2p)     0.00059

   236    H   18  S      Val( 1S)     0.77238
   237    H   18  S      Ryd( 2S)     0.00158
   238    H   18  px     Ryd( 2p)     0.00011
   239    H   18  py     Ryd( 2p)     0.00006
   240    H   18  pz     Ryd( 2p)     0.00038

   241    H   19  S      Val( 1S)     0.77209
   242    H   19  S      Ryd( 2S)     0.00159
   243    H   19  px     Ryd( 2p)     0.00022
   244    H   19  py     Ryd( 2p)     0.00023
   245    H   19  pz     Ryd( 2p)     0.00011

   246    H   20  S      Val( 1S)     0.76243
   247    H   20  S      Ryd( 2S)     0.00230
   248    H   20  px     Ryd( 2p)     0.00019
   249    H   20  py     Ryd( 2p)     0.00023
   250    H   20  pz     Ryd( 2p)     0.00012

   251    H   21  S      Val( 1S)     0.76625
   252    H   21  S      Ryd( 2S)     0.00160
   253    H   21  px     Ryd( 2p)     0.00011
   254    H   21  py     Ryd( 2p)     0.00009
   255    H   21  pz     Ryd( 2p)     0.00035

   256    H   22  S      Val( 1S)     0.79520
   257    H   22  S      Ryd( 2S)     0.00239
   258    H   22  px     Ryd( 2p)     0.00015
   259    H   22  py     Ryd( 2p)     0.00030
   260    H   22  pz     Ryd( 2p)     0.00013

   261    H   23  S      Val( 1S)     0.77282
   262    H   23  S      Ryd( 2S)     0.00131
   263    H   23  px     Ryd( 2p)     0.00006
   264    H   23  py     Ryd( 2p)     0.00010
   265    H   23  pz     Ryd( 2p)     0.00041

   266    H   24  S      Val( 1S)     0.78874
   267    H   24  S      Ryd( 2S)     0.00274
   268    H   24  px     Ryd( 2p)     0.00022
   269    H   24  py     Ryd( 2p)     0.00030
   270    H   24  pz     Ryd( 2p)     0.00008

   271    H   25  S      Val( 1S)     0.78831
   272    H   25  S      Ryd( 2S)     0.00272
   273    H   25  px     Ryd( 2p)     0.00012
   274    H   25  py     Ryd( 2p)     0.00026
   275    H   25  pz     Ryd( 2p)     0.00022

   276    H   26  S      Val( 1S)     0.79037
   277    H   26  S      Ryd( 2S)     0.00342
   278    H   26  px     Ryd( 2p)     0.00011
   279    H   26  py     Ryd( 2p)     0.00017
   280    H   26  pz     Ryd( 2p)     0.00031

   281    H   27  S      Val( 1S)     0.78773
   282    H   27  S      Ryd( 2S)     0.00264
   283    H   27  px     Ryd( 2p)     0.00013
   284    H   27  py     Ryd( 2p)     0.00015
   285    H   27  pz     Ryd( 2p)     0.00032

   286    H   28  S      Val( 1S)     0.79835
   287    H   28  S      Ryd( 2S)     0.00292
   288    H   28  px     Ryd( 2p)     0.00010
   289    H   28  py     Ryd( 2p)     0.00018
   290    H   28  pz     Ryd( 2p)     0.00032

   291    H   29  S      Val( 1S)     0.79828
   292    H   29  S      Ryd( 2S)     0.00352
   293    H   29  px     Ryd( 2p)     0.00011
   294    H   29  py     Ryd( 2p)     0.00021
   295    H   29  pz     Ryd( 2p)     0.00030

   296    H   30  S      Val( 1S)     0.78313
   297    H   30  S      Ryd( 2S)     0.00769
   298    H   30  px     Ryd( 2p)     0.00010
   299    H   30  py     Ryd( 2p)     0.00020
   300    H   30  pz     Ryd( 2p)     0.00029

   301    H   31  S      Val( 1S)     0.80202
   302    H   31  S      Ryd( 2S)     0.00804
   303    H   31  px     Ryd( 2p)     0.00013
   304    H   31  py     Ryd( 2p)     0.00018
   305    H   31  pz     Ryd( 2p)     0.00028

   306    H   32  S      Val( 1S)     0.80998
   307    H   32  S      Ryd( 2S)     0.01594
   308    H   32  px     Ryd( 2p)     0.00016
   309    H   32  py     Ryd( 2p)     0.00033
   310    H   32  pz     Ryd( 2p)     0.00012

   311    H   33  S      Val( 1S)     0.81172
   312    H   33  S      Ryd( 2S)     0.01878
   313    H   33  px     Ryd( 2p)     0.00013
   314    H   33  py     Ryd( 2p)     0.00026
   315    H   33  pz     Ryd( 2p)     0.00020

   316    H   34  S      Val( 1S)     0.74718
   317    H   34  S      Ryd( 2S)     0.00360
   318    H   34  px     Ryd( 2p)     0.00011
   319    H   34  py     Ryd( 2p)     0.00023
   320    H   34  pz     Ryd( 2p)     0.00020

   321    H   35  S      Val( 1S)     0.79187
   322    H   35  S      Ryd( 2S)     0.01899
   323    H   35  px     Ryd( 2p)     0.00012
   324    H   35  py     Ryd( 2p)     0.00012
   325    H   35  pz     Ryd( 2p)     0.00029

   326    H   36  S      Val( 1S)     0.71105
   327    H   36  S      Ryd( 2S)     0.02918
   328    H   36  px     Ryd( 2p)     0.00014
   329    H   36  py     Ryd( 2p)     0.00021
   330    H   36  pz     Ryd( 2p)     0.00021

   331    H   37  S      Val( 1S)     0.76217
   332    H   37  S      Ryd( 2S)     0.03199
   333    H   37  px     Ryd( 2p)     0.00035
   334    H   37  py     Ryd( 2p)     0.00008
   335    H   37  pz     Ryd( 2p)     0.00012

   336    H   38  S      Val( 1S)     0.61936
   337    H   38  S      Ryd( 2S)     0.04046
   338    H   38  px     Ryd( 2p)     0.00077
   339    H   38  py     Ryd( 2p)     0.00021
   340    H   38  pz     Ryd( 2p)     0.00026

   341    H   39  S      Val( 1S)     0.67061
   342    H   39  S      Ryd( 2S)     0.07074
   343    H   39  px     Ryd( 2p)     0.00025
   344    H   39  py     Ryd( 2p)     0.00062
   345    H   39  pz     Ryd( 2p)     0.00025


 Summary of Natural Population Analysis:                  
                                                          
                                       Natural Population 
                Natural  -----------------------------------------------
    Atom  No    Charge         Core      Valence    Rydberg      Total
 -----------------------------------------------------------------------
      N    1   -0.92243      1.99971     5.90749    0.01524     7.92243
      C    2   -0.26664      1.99936     4.25242    0.01486     6.26664
      C    3   -0.51510      1.99931     4.50491    0.01087     6.51510
      C    4   -0.10833      1.99927     4.09051    0.01855     6.10833
      O    5   -0.59799      1.99980     6.58530    0.01290     8.59799
      C    6   -0.12876      1.99925     4.11245    0.01706     6.12876
      C    7   -0.13201      1.99927     4.11582    0.01692     6.13201
      O    8   -0.61312      1.99978     6.59882    0.01452     8.61312
      C    9   -0.15553      1.99930     4.13358    0.02265     6.15553
      C   10   -0.18179      1.99932     4.15162    0.03086     6.18179
      O   11   -0.62041      1.99979     6.60606    0.01455     8.62041
      C   12   -0.14006      1.99928     4.12008    0.02070     6.14006
      C   13   -0.49827      1.99931     4.48631    0.01265     6.49827
      C   14   -0.34546      1.99928     4.32940    0.01678     6.34546
      N   15   -0.35347      1.99934     5.34250    0.01163     7.35347
      H   16    0.38432      0.00000     0.61278    0.00291     0.61568
      H   17    0.38423      0.00000     0.61287    0.00290     0.61577
      H   18    0.22549      0.00000     0.77238    0.00213     0.77451
      H   19    0.22577      0.00000     0.77209    0.00214     0.77423
      H   20    0.23474      0.00000     0.76243    0.00284     0.76526
      H   21    0.23159      0.00000     0.76625    0.00216     0.76841
      H   22    0.20181      0.00000     0.79520    0.00298     0.79819
      H   23    0.22529      0.00000     0.77282    0.00189     0.77471
      H   24    0.20792      0.00000     0.78874    0.00334     0.79208
      H   25    0.20838      0.00000     0.78831    0.00332     0.79162
      H   26    0.20562      0.00000     0.79037    0.00401     0.79438
      H   27    0.20902      0.00000     0.78773    0.00325     0.79098
      H   28    0.19813      0.00000     0.79835    0.00351     0.80187
      H   29    0.19758      0.00000     0.79828    0.00414     0.80242
      H   30    0.20859      0.00000     0.78313    0.00827     0.79141
      H   31    0.18935      0.00000     0.80202    0.00863     0.81065
      H   32    0.17347      0.00000     0.80998    0.01655     0.82653
      H   33    0.16890      0.00000     0.81172    0.01938     0.83110
      H   34    0.24869      0.00000     0.74718    0.00413     0.75131
      H   35    0.18861      0.00000     0.79187    0.01951     0.81139
      H   36    0.25922      0.00000     0.71105    0.02974     0.74078
      H   37    0.20530      0.00000     0.76217    0.03253     0.79470
      H   38    0.33894      0.00000     0.61936    0.04170     0.66106
      H   39    0.25754      0.00000     0.67061    0.07185     0.74246
 =======================================================================
   * Total *   -0.00089     29.99137    91.46496    0.54455   122.00089

                                 Natural Population      
 --------------------------------------------------------
   Core                      29.99137 ( 99.9712% of  30)
   Valence                   91.46496 ( 99.4184% of  92)
   Natural Minimal Basis    121.45634 ( 99.5544% of 122)
   Natural Rydberg Basis      0.54455 (  0.4464% of 122)
 --------------------------------------------------------

    Atom  No          Natural Electron Configuration
 ----------------------------------------------------------------------------
      N    1      [core]2S( 1.44)2p( 4.46)3p( 0.01)
      C    2      [core]2S( 1.02)2p( 3.23)3p( 0.01)
      C    3      [core]2S( 1.06)2p( 3.45)3p( 0.01)
      C    4      [core]2S( 1.02)2p( 3.07)3p( 0.01)3d( 0.01)
      O    5      [core]2S( 1.62)2p( 4.97)3p( 0.01)
      C    6      [core]2S( 1.03)2p( 3.09)3p( 0.01)3d( 0.01)
      C    7      [core]2S( 1.03)2p( 3.09)3p( 0.01)3d( 0.01)
      O    8      [core]2S( 1.63)2p( 4.97)3p( 0.01)
      C    9      [core]2S( 1.03)2p( 3.10)3p( 0.01)3d( 0.01)
      C   10      [core]2S( 1.02)2p( 3.13)3p( 0.02)3d( 0.01)
      O   11      [core]2S( 1.65)2p( 4.96)3p( 0.01)
      C   12      [core]2S( 1.02)2p( 3.10)3p( 0.01)3d( 0.01)
      C   13      [core]2S( 1.05)2p( 3.44)3p( 0.01)
      C   14      [core]2S( 1.07)2p( 3.26)3p( 0.01)
      N   15      [core]2S( 1.47)2p( 3.87)3S( 0.01)
      H   16            1S( 0.61)
      H   17            1S( 0.61)
      H   18            1S( 0.77)
      H   19            1S( 0.77)
      H   20            1S( 0.76)
      H   21            1S( 0.77)
      H   22            1S( 0.80)
      H   23            1S( 0.77)
      H   24            1S( 0.79)
      H   25            1S( 0.79)
      H   26            1S( 0.79)
      H   27            1S( 0.79)
      H   28            1S( 0.80)
      H   29            1S( 0.80)
      H   30            1S( 0.78)2S( 0.01)
      H   31            1S( 0.80)2S( 0.01)
      H   32            1S( 0.81)2S( 0.02)
      H   33            1S( 0.81)2S( 0.02)
      H   34            1S( 0.75)
      H   35            1S( 0.79)2S( 0.02)
      H   36            1S( 0.71)2S( 0.03)
      H   37            1S( 0.76)2S( 0.03)
      H   38            1S( 0.62)2S( 0.04)
      H   39            1S( 0.67)2S( 0.07)


 NBO analysis skipped by request.
 1\1\GINC-DRG2-W014\SP\RB3LYP TD-FC\6-31G(d,p)\C10H24N2O3\QDUEZ\18-Jul-
 2024\0\\# TD(NStates=10, Root=1) B3LYP/6-31G** SCRF=(Solvent=water) vo
 lume pop=NPA density=current Geom=AllCheck Guess=Read\\JCEZOHLWDIONSP-
 UHFFFAOYSA-N_conf_3\\0,1\N,0,-6.5753422542,1.700821724,1.2511066278\C,
 0,-6.0295198748,0.3375374117,1.1961675969\C,0,-4.5722936751,0.22182827
 02,0.7209171997\C,0,-4.0795494402,-1.2276633994,0.6997159538\O,0,-2.70
 03008833,-1.3623378917,0.3636226641\C,0,-2.4230566837,-1.2380686354,-1
 .0234131328\C,0,-0.9556412452,-1.5258707474,-1.2621018782\O,0,-0.17580
 11587,-0.476924098,-0.7074008724\C,0,1.2182317305,-0.6708168984,-0.880
 1032933\C,0,1.9223840273,0.5310471455,-0.2506477383\O,0,3.3329378141,0
 .474154192,-0.416021405\C,0,4.0143466772,-0.3248441451,0.5563316191\C,
 0,5.5211969906,-0.2071434668,0.3540852074\C,0,6.0956393792,1.196576968
 2,0.5802694742\N,0,5.811777139,2.0892956479,-0.5545251984\H,0,-5.98131
 01909,2.2684750217,1.8543648497\H,0,-6.4949271556,2.1248301524,0.32765
 28161\H,0,-6.1224607847,-0.101774507,2.197724439\H,0,-6.6769715218,-0.
 2565293509,0.5385375753\H,0,-3.9216954463,0.8047230153,1.3858308007\H,
 0,-4.4886940113,0.6653493623,-0.279442646\H,0,-4.6948767585,-1.8303667
 887,0.0123162654\H,0,-4.1808314563,-1.6659230125,1.6991365299\H,0,-3.0
 244019391,-1.9569373147,-1.60279847\H,0,-2.6583420326,-0.2301463595,-1
 .3945241084\H,0,-0.6873887563,-2.4906778794,-0.8040984343\H,0,-0.77845
 71777,-1.6074741449,-2.3463399596\H,0,1.4803505312,-0.7340328776,-1.94
 80681134\H,0,1.539877953,-1.6101624126,-0.4040706668\H,0,1.5815395138,
 1.4440956231,-0.7487612688\H,0,1.6523789126,0.6048880968,0.8125772146\
 H,0,3.7097264321,-1.3778474748,0.4723912876\H,0,3.7403424683,0.0176343
 89,1.5671810593\H,0,5.7828437378,-0.5467706446,-0.6554171509\H,0,5.992
 1363253,-0.9028139317,1.0592256963\H,0,5.7194086318,1.5751806909,1.547
 8593175\H,0,7.1850378605,1.1190958896,0.6837886773\H,0,4.8009360679,2.
 1386383701,-0.6663285124\H,0,6.1207702542,3.0309540104,-0.3201616313\\
 Version=ES64L-G16RevA.03\State=1-A\HF=-730.6819328\RMSD=6.906e-09\Dipo
 le=1.8770804,0.738589,-0.5734277\Quadrupole=5.6275098,-1.1019852,-4.52
 55246,11.3246781,6.4551384,0.9959224\PG=C01 [X(C10H24N2O3)]\\@



 WE LOSE BECAUSE WE WIN

 GAMBLERS,

 RECOLLECTING WHICH,

 TOSS THEIR DICE AGAIN....


                          EMILY DICKINSON  BOLTS OF MELODY NO. 533
 Job cpu time:       0 days  0 hours 58 minutes 23.9 seconds.
 Elapsed time:       0 days  0 hours 19 minutes 31.1 seconds.
 File lengths (MBytes):  RWF=   1022 Int=      0 D2E=      0 Chk=     63 Scr=      1
 Normal termination of Gaussian 16 at Thu Jul 18 04:39:00 2024.
