 Entering Gaussian System, Link 0=g16
 Initial command:
 /opt/sw/arch/manual/gaussian/G16_A03/g16/l1.exe "/scratch/1380881/Gau-91383.inp" -scrdir="/scratch/1380881/"
 Entering Link 1 = /opt/sw/arch/manual/gaussian/G16_A03/g16/l1.exe PID=     91384.
  
 Copyright (c) 1988,1990,1992,1993,1995,1998,2003,2009,2016,
            Gaussian, Inc.  All Rights Reserved.
  
 This is part of the Gaussian(R) 16 program.  It is based on
 the Gaussian(R) 09 system (copyright 2009, Gaussian, Inc.),
 the Gaussian(R) 03 system (copyright 2003, Gaussian, Inc.),
 the Gaussian(R) 98 system (copyright 1998, Gaussian, Inc.),
 the Gaussian(R) 94 system (copyright 1995, Gaussian, Inc.),
 the Gaussian 92(TM) system (copyright 1992, Gaussian, Inc.),
 the Gaussian 90(TM) system (copyright 1990, Gaussian, Inc.),
 the Gaussian 88(TM) system (copyright 1988, Gaussian, Inc.),
 the Gaussian 86(TM) system (copyright 1986, Carnegie Mellon
 University), and the Gaussian 82(TM) system (copyright 1983,
 Carnegie Mellon University). Gaussian is a federally registered
 trademark of Gaussian, Inc.
  
 This software contains proprietary and confidential information,
 including trade secrets, belonging to Gaussian, Inc.
  
 This software is provided under written license and may be
 used, copied, transmitted, or stored only in accord with that
 written license.
  
 The following legend is applicable only to US Government
 contracts under FAR:
  
                    RESTRICTED RIGHTS LEGEND
  
 Use, reproduction and disclosure by the US Government is
 subject to restrictions as set forth in subparagraphs (a)
 and (c) of the Commercial Computer Software - Restricted
 Rights clause in FAR 52.227-19.
  
 Gaussian, Inc.
 340 Quinnipiac St., Bldg. 40, Wallingford CT 06492
  
  
 ---------------------------------------------------------------
 Warning -- This program may not be used in any manner that
 competes with the business of Gaussian, Inc. or will provide
 assistance to any competitor of Gaussian, Inc.  The licensee
 of this program is prohibited from giving any competitor of
 Gaussian, Inc. access to this program.  By using this program,
 the user acknowledges that Gaussian, Inc. is engaged in the
 business of creating and licensing software in the field of
 computational chemistry and represents and warrants to the
 licensee that it is not a competitor of Gaussian, Inc. and that
 it will not use this program in any manner prohibited above.
 ---------------------------------------------------------------
  

 Cite this work as:
 Gaussian 16, Revision A.03,
 M. J. Frisch, G. W. Trucks, H. B. Schlegel, G. E. Scuseria, 
 M. A. Robb, J. R. Cheeseman, G. Scalmani, V. Barone, 
 G. A. Petersson, H. Nakatsuji, X. Li, M. Caricato, A. V. Marenich, 
 J. Bloino, B. G. Janesko, R. Gomperts, B. Mennucci, H. P. Hratchian, 
 J. V. Ortiz, A. F. Izmaylov, J. L. Sonnenberg, D. Williams-Young, 
 F. Ding, F. Lipparini, F. Egidi, J. Goings, B. Peng, A. Petrone, 
 T. Henderson, D. Ranasinghe, V. G. Zakrzewski, J. Gao, N. Rega, 
 G. Zheng, W. Liang, M. Hada, M. Ehara, K. Toyota, R. Fukuda, 
 J. Hasegawa, M. Ishida, T. Nakajima, Y. Honda, O. Kitao, H. Nakai, 
 T. Vreven, K. Throssell, J. A. Montgomery, Jr., J. E. Peralta, 
 F. Ogliaro, M. J. Bearpark, J. J. Heyd, E. N. Brothers, K. N. Kudin, 
 V. N. Staroverov, T. A. Keith, R. Kobayashi, J. Normand, 
 K. Raghavachari, A. P. Rendell, J. C. Burant, S. S. Iyengar, 
 J. Tomasi, M. Cossi, J. M. Millam, M. Klene, C. Adamo, R. Cammi, 
 J. W. Ochterski, R. L. Martin, K. Morokuma, O. Farkas, 
 J. B. Foresman, and D. J. Fox, Gaussian, Inc., Wallingford CT, 2016.
 
 ******************************************
 Gaussian 16:  ES64L-G16RevA.03 25-Dec-2016
                18-Jul-2024 
 ******************************************
 %nprocshared=6
 Will use up to    6 processors via shared memory.
 %mem=12GB
 %Chk=JCEZOHLWDIONSP-UHFFFAOYSA-N_conf_4_0.chk
 -------------------------------------------------------
 # opt=CalcFc B3LYP/6-31G** SCRF=(Solvent=water) scf=xqc
 -------------------------------------------------------
 1/10=4,18=20,19=15,26=3,38=1/1,3;
 2/9=110,12=2,17=6,18=5,40=1/2;
 3/5=1,6=6,7=101,11=2,25=1,30=1,70=2201,71=2,72=1,74=-5,140=1/1,2,3;
 4//1;
 5/5=2,8=3,13=1,38=5,53=1/2,8;
 8/6=4,10=90,11=11/1;
 11/6=1,8=1,9=11,15=111,16=1/1,2,10;
 10/6=1,13=1/2;
 6/7=2,8=2,9=2,10=2,28=1/1;
 7/10=1,18=20,25=1/1,2,3,16;
 1/10=4,18=20,19=15,26=3/3(2);
 2/9=110/2;
 99//99;
 2/9=110/2;
 3/5=1,6=6,7=101,11=2,25=1,30=1,70=2205,71=1,72=1,74=-5/1,2,3;
 4/5=5,16=3,69=1/1;
 5/5=2,8=3,13=1,38=5,53=1/2,8;
 7//1,2,3,16;
 1/18=20,19=15,26=3/3(-5);
 2/9=110/2;
 6/7=2,8=2,9=2,10=2,19=2,28=1/1;
 99/9=1/99;
 ----------------------------------
 JCEZOHLWDIONSP-UHFFFAOYSA-N_conf_4
 ----------------------------------
 Symbolic Z-matrix:
 Charge =  0 Multiplicity = 1
 N                     7.52618  -0.53348  -0.135 
 C                     6.43982  -0.01998  -0.96155 
 C                     5.16372   0.12464  -0.13798 
 C                     4.01587   0.65372  -0.99526 
 O                     2.85208   0.941    -0.22172 
 C                     2.15935  -0.22616   0.23253 
 C                     0.7907    0.18258   0.77966 
 O                    -0.09787   0.4378   -0.31476 
 C                    -1.34062   1.00908   0.09328 
 C                    -2.30787  -0.03706   0.64513 
 O                    -3.54773   0.59361   0.96561 
 C                    -4.52105  -0.31019   1.48894 
 C                    -5.21735  -1.12126   0.39675 
 C                    -5.82247  -0.2775   -0.7261 
 N                    -6.89327   0.59287  -0.24958 
 H                     8.36184  -0.65203  -0.70672 
 H                     7.28746  -1.45914   0.2182 
 H                     6.27308  -0.70078  -1.80357 
 H                     6.73492   0.95163  -1.37209 
 H                     5.32608   0.80247   0.70963 
 H                     4.88861  -0.84428   0.29538 
 H                     4.31708   1.59699  -1.46414 
 H                     3.76624  -0.04233  -1.80474 
 H                     2.03853  -0.93399  -0.59508 
 H                     2.74197  -0.68827   1.03523 
 H                     0.3833   -0.63709   1.37922 
 H                     0.88544   1.08307   1.39669 
 H                    -1.79076   1.47268  -0.79212 
 H                    -1.18244   1.82321   0.811 
 H                    -1.89264  -0.50252   1.54533 
 H                    -2.45522  -0.82417  -0.10197 
 H                    -4.06123  -0.97531   2.22959 
 H                    -5.25899   0.29314   2.02814 
 H                    -4.49691  -1.81202  -0.05648 
 H                    -5.99557  -1.74317   0.85615 
 H                    -6.2375   -0.95047  -1.48461 
 H                    -5.05063   0.32371  -1.2188 
 H                    -7.29444   1.08839  -1.04579 
 H                    -6.48769   1.32062   0.34101 
 

 GradGradGradGradGradGradGradGradGradGradGradGradGradGradGradGradGradGrad
 Berny optimization.
 Initialization pass.
                           ----------------------------
                           !    Initial Parameters    !
                           ! (Angstroms and Degrees)  !
 --------------------------                            --------------------------
 ! Name  Definition              Value          Derivative Info.                !
 --------------------------------------------------------------------------------
 ! R1    R(1,2)                  1.4584         calculate D2E/DX2 analytically  !
 ! R2    R(1,16)                 1.0194         calculate D2E/DX2 analytically  !
 ! R3    R(1,17)                 1.0191         calculate D2E/DX2 analytically  !
 ! R4    R(2,3)                  1.5257         calculate D2E/DX2 analytically  !
 ! R5    R(2,18)                 1.0956         calculate D2E/DX2 analytically  !
 ! R6    R(2,19)                 1.0953         calculate D2E/DX2 analytically  !
 ! R7    R(3,4)                  1.5272         calculate D2E/DX2 analytically  !
 ! R8    R(3,20)                 1.0974         calculate D2E/DX2 analytically  !
 ! R9    R(3,21)                 1.0965         calculate D2E/DX2 analytically  !
 ! R10   R(4,5)                  1.4266         calculate D2E/DX2 analytically  !
 ! R11   R(4,22)                 1.0956         calculate D2E/DX2 analytically  !
 ! R12   R(4,23)                 1.0964         calculate D2E/DX2 analytically  !
 ! R13   R(5,6)                  1.4313         calculate D2E/DX2 analytically  !
 ! R14   R(6,7)                  1.5296         calculate D2E/DX2 analytically  !
 ! R15   R(6,24)                 1.0957         calculate D2E/DX2 analytically  !
 ! R16   R(6,25)                 1.0942         calculate D2E/DX2 analytically  !
 ! R17   R(7,8)                  1.4326         calculate D2E/DX2 analytically  !
 ! R18   R(7,26)                 1.0942         calculate D2E/DX2 analytically  !
 ! R19   R(7,27)                 1.0957         calculate D2E/DX2 analytically  !
 ! R20   R(8,9)                  1.4273         calculate D2E/DX2 analytically  !
 ! R21   R(9,10)                 1.5279         calculate D2E/DX2 analytically  !
 ! R22   R(9,28)                 1.0961         calculate D2E/DX2 analytically  !
 ! R23   R(9,29)                 1.0968         calculate D2E/DX2 analytically  !
 ! R24   R(10,11)                1.4275         calculate D2E/DX2 analytically  !
 ! R25   R(10,30)                1.0952         calculate D2E/DX2 analytically  !
 ! R26   R(10,31)                1.0952         calculate D2E/DX2 analytically  !
 ! R27   R(11,12)                1.4276         calculate D2E/DX2 analytically  !
 ! R28   R(12,13)                1.5282         calculate D2E/DX2 analytically  !
 ! R29   R(12,32)                1.0965         calculate D2E/DX2 analytically  !
 ! R30   R(12,33)                1.0951         calculate D2E/DX2 analytically  !
 ! R31   R(13,14)                1.5293         calculate D2E/DX2 analytically  !
 ! R32   R(13,34)                1.0962         calculate D2E/DX2 analytically  !
 ! R33   R(13,35)                1.097          calculate D2E/DX2 analytically  !
 ! R34   R(14,15)                1.4599         calculate D2E/DX2 analytically  !
 ! R35   R(14,36)                1.0957         calculate D2E/DX2 analytically  !
 ! R36   R(14,37)                1.0954         calculate D2E/DX2 analytically  !
 ! R37   R(15,38)                1.02           calculate D2E/DX2 analytically  !
 ! R38   R(15,39)                1.0212         calculate D2E/DX2 analytically  !
 ! A1    A(2,1,16)             109.4938         calculate D2E/DX2 analytically  !
 ! A2    A(2,1,17)             109.9828         calculate D2E/DX2 analytically  !
 ! A3    A(16,1,17)            106.3051         calculate D2E/DX2 analytically  !
 ! A4    A(1,2,3)              110.517          calculate D2E/DX2 analytically  !
 ! A5    A(1,2,18)             109.278          calculate D2E/DX2 analytically  !
 ! A6    A(1,2,19)             108.9093         calculate D2E/DX2 analytically  !
 ! A7    A(3,2,18)             110.2725         calculate D2E/DX2 analytically  !
 ! A8    A(3,2,19)             110.0963         calculate D2E/DX2 analytically  !
 ! A9    A(18,2,19)            107.7078         calculate D2E/DX2 analytically  !
 ! A10   A(2,3,4)              111.007          calculate D2E/DX2 analytically  !
 ! A11   A(2,3,20)             110.5944         calculate D2E/DX2 analytically  !
 ! A12   A(2,3,21)             109.8427         calculate D2E/DX2 analytically  !
 ! A13   A(4,3,20)             109.3163         calculate D2E/DX2 analytically  !
 ! A14   A(4,3,21)             109.8402         calculate D2E/DX2 analytically  !
 ! A15   A(20,3,21)            106.1213         calculate D2E/DX2 analytically  !
 ! A16   A(3,4,5)              112.2419         calculate D2E/DX2 analytically  !
 ! A17   A(3,4,22)             109.382          calculate D2E/DX2 analytically  !
 ! A18   A(3,4,23)             111.4462         calculate D2E/DX2 analytically  !
 ! A19   A(5,4,22)             106.4365         calculate D2E/DX2 analytically  !
 ! A20   A(5,4,23)             110.0251         calculate D2E/DX2 analytically  !
 ! A21   A(22,4,23)            107.0503         calculate D2E/DX2 analytically  !
 ! A22   A(4,5,6)              113.7473         calculate D2E/DX2 analytically  !
 ! A23   A(5,6,7)              109.1895         calculate D2E/DX2 analytically  !
 ! A24   A(5,6,24)             109.9046         calculate D2E/DX2 analytically  !
 ! A25   A(5,6,25)             108.6332         calculate D2E/DX2 analytically  !
 ! A26   A(7,6,24)             110.129          calculate D2E/DX2 analytically  !
 ! A27   A(7,6,25)             109.0797         calculate D2E/DX2 analytically  !
 ! A28   A(24,6,25)            109.8759         calculate D2E/DX2 analytically  !
 ! A29   A(6,7,8)              109.2282         calculate D2E/DX2 analytically  !
 ! A30   A(6,7,26)             109.2066         calculate D2E/DX2 analytically  !
 ! A31   A(6,7,27)             110.1011         calculate D2E/DX2 analytically  !
 ! A32   A(8,7,26)             108.7296         calculate D2E/DX2 analytically  !
 ! A33   A(8,7,27)             109.7185         calculate D2E/DX2 analytically  !
 ! A34   A(26,7,27)            109.8317         calculate D2E/DX2 analytically  !
 ! A35   A(7,8,9)              113.1375         calculate D2E/DX2 analytically  !
 ! A36   A(8,9,10)             112.3583         calculate D2E/DX2 analytically  !
 ! A37   A(8,9,28)             107.2123         calculate D2E/DX2 analytically  !
 ! A38   A(8,9,29)             111.0142         calculate D2E/DX2 analytically  !
 ! A39   A(10,9,28)            108.7448         calculate D2E/DX2 analytically  !
 ! A40   A(10,9,29)            111.2958         calculate D2E/DX2 analytically  !
 ! A41   A(28,9,29)            105.8944         calculate D2E/DX2 analytically  !
 ! A42   A(9,10,11)            109.1739         calculate D2E/DX2 analytically  !
 ! A43   A(9,10,30)            110.3561         calculate D2E/DX2 analytically  !
 ! A44   A(9,10,31)            109.3218         calculate D2E/DX2 analytically  !
 ! A45   A(11,10,30)           109.423          calculate D2E/DX2 analytically  !
 ! A46   A(11,10,31)           110.7214         calculate D2E/DX2 analytically  !
 ! A47   A(30,10,31)           107.8352         calculate D2E/DX2 analytically  !
 ! A48   A(10,11,12)           113.2516         calculate D2E/DX2 analytically  !
 ! A49   A(11,12,13)           112.6219         calculate D2E/DX2 analytically  !
 ! A50   A(11,12,32)           110.225          calculate D2E/DX2 analytically  !
 ! A51   A(11,12,33)           106.9245         calculate D2E/DX2 analytically  !
 ! A52   A(13,12,32)           110.6017         calculate D2E/DX2 analytically  !
 ! A53   A(13,12,33)           109.7097         calculate D2E/DX2 analytically  !
 ! A54   A(32,12,33)           106.509          calculate D2E/DX2 analytically  !
 ! A55   A(12,13,14)           114.342          calculate D2E/DX2 analytically  !
 ! A56   A(12,13,34)           109.2975         calculate D2E/DX2 analytically  !
 ! A57   A(12,13,35)           108.9533         calculate D2E/DX2 analytically  !
 ! A58   A(14,13,34)           107.7068         calculate D2E/DX2 analytically  !
 ! A59   A(14,13,35)           109.8492         calculate D2E/DX2 analytically  !
 ! A60   A(34,13,35)           106.3888         calculate D2E/DX2 analytically  !
 ! A61   A(13,14,15)           112.3026         calculate D2E/DX2 analytically  !
 ! A62   A(13,14,36)           108.6197         calculate D2E/DX2 analytically  !
 ! A63   A(13,14,37)           110.7471         calculate D2E/DX2 analytically  !
 ! A64   A(15,14,36)           108.3194         calculate D2E/DX2 analytically  !
 ! A65   A(15,14,37)           109.6585         calculate D2E/DX2 analytically  !
 ! A66   A(36,14,37)           107.0161         calculate D2E/DX2 analytically  !
 ! A67   A(14,15,38)           108.8641         calculate D2E/DX2 analytically  !
 ! A68   A(14,15,39)           108.8035         calculate D2E/DX2 analytically  !
 ! A69   A(38,15,39)           105.1548         calculate D2E/DX2 analytically  !
 ! D1    D(16,1,2,3)           178.2081         calculate D2E/DX2 analytically  !
 ! D2    D(16,1,2,18)           56.6866         calculate D2E/DX2 analytically  !
 ! D3    D(16,1,2,19)          -60.7281         calculate D2E/DX2 analytically  !
 ! D4    D(17,1,2,3)            61.7446         calculate D2E/DX2 analytically  !
 ! D5    D(17,1,2,18)          -59.7769         calculate D2E/DX2 analytically  !
 ! D6    D(17,1,2,19)         -177.1916         calculate D2E/DX2 analytically  !
 ! D7    D(1,2,3,4)           -179.6472         calculate D2E/DX2 analytically  !
 ! D8    D(1,2,3,20)            58.8314         calculate D2E/DX2 analytically  !
 ! D9    D(1,2,3,21)           -57.9733         calculate D2E/DX2 analytically  !
 ! D10   D(18,2,3,4)           -58.7155         calculate D2E/DX2 analytically  !
 ! D11   D(18,2,3,20)          179.7631         calculate D2E/DX2 analytically  !
 ! D12   D(18,2,3,21)           62.9584         calculate D2E/DX2 analytically  !
 ! D13   D(19,2,3,4)            59.9968         calculate D2E/DX2 analytically  !
 ! D14   D(19,2,3,20)          -61.5246         calculate D2E/DX2 analytically  !
 ! D15   D(19,2,3,21)         -178.3293         calculate D2E/DX2 analytically  !
 ! D16   D(2,3,4,5)           -173.4365         calculate D2E/DX2 analytically  !
 ! D17   D(2,3,4,22)           -55.5364         calculate D2E/DX2 analytically  !
 ! D18   D(2,3,4,23)            62.6373         calculate D2E/DX2 analytically  !
 ! D19   D(20,3,4,5)           -51.1693         calculate D2E/DX2 analytically  !
 ! D20   D(20,3,4,22)           66.7308         calculate D2E/DX2 analytically  !
 ! D21   D(20,3,4,23)         -175.0955         calculate D2E/DX2 analytically  !
 ! D22   D(21,3,4,5)            64.8881         calculate D2E/DX2 analytically  !
 ! D23   D(21,3,4,22)         -177.2117         calculate D2E/DX2 analytically  !
 ! D24   D(21,3,4,23)          -59.038          calculate D2E/DX2 analytically  !
 ! D25   D(3,4,5,6)            -72.8855         calculate D2E/DX2 analytically  !
 ! D26   D(22,4,5,6)           167.4803         calculate D2E/DX2 analytically  !
 ! D27   D(23,4,5,6)            51.8288         calculate D2E/DX2 analytically  !
 ! D28   D(4,5,6,7)           -167.9173         calculate D2E/DX2 analytically  !
 ! D29   D(4,5,6,24)           -47.0168         calculate D2E/DX2 analytically  !
 ! D30   D(4,5,6,25)            73.2267         calculate D2E/DX2 analytically  !
 ! D31   D(5,6,7,8)             77.3174         calculate D2E/DX2 analytically  !
 ! D32   D(5,6,7,26)          -163.891          calculate D2E/DX2 analytically  !
 ! D33   D(5,6,7,27)           -43.2239         calculate D2E/DX2 analytically  !
 ! D34   D(24,6,7,8)           -43.4463         calculate D2E/DX2 analytically  !
 ! D35   D(24,6,7,26)           75.3453         calculate D2E/DX2 analytically  !
 ! D36   D(24,6,7,27)         -163.9875         calculate D2E/DX2 analytically  !
 ! D37   D(25,6,7,8)          -164.105          calculate D2E/DX2 analytically  !
 ! D38   D(25,6,7,26)          -45.3134         calculate D2E/DX2 analytically  !
 ! D39   D(25,6,7,27)           75.3538         calculate D2E/DX2 analytically  !
 ! D40   D(6,7,8,9)           -171.5659         calculate D2E/DX2 analytically  !
 ! D41   D(26,7,8,9)            69.346          calculate D2E/DX2 analytically  !
 ! D42   D(27,7,8,9)           -50.7909         calculate D2E/DX2 analytically  !
 ! D43   D(7,8,9,10)           -79.518          calculate D2E/DX2 analytically  !
 ! D44   D(7,8,9,28)           161.0633         calculate D2E/DX2 analytically  !
 ! D45   D(7,8,9,29)            45.8406         calculate D2E/DX2 analytically  !
 ! D46   D(8,9,10,11)         -176.99           calculate D2E/DX2 analytically  !
 ! D47   D(8,9,10,30)           62.7094         calculate D2E/DX2 analytically  !
 ! D48   D(8,9,10,31)          -55.7326         calculate D2E/DX2 analytically  !
 ! D49   D(28,9,10,11)         -58.4696         calculate D2E/DX2 analytically  !
 ! D50   D(28,9,10,30)        -178.7702         calculate D2E/DX2 analytically  !
 ! D51   D(28,9,10,31)          62.7878         calculate D2E/DX2 analytically  !
 ! D52   D(29,9,10,11)          57.8054         calculate D2E/DX2 analytically  !
 ! D53   D(29,9,10,30)         -62.4952         calculate D2E/DX2 analytically  !
 ! D54   D(29,9,10,31)         179.0628         calculate D2E/DX2 analytically  !
 ! D55   D(9,10,11,12)         179.8881         calculate D2E/DX2 analytically  !
 ! D56   D(30,10,11,12)        -59.2402         calculate D2E/DX2 analytically  !
 ! D57   D(31,10,11,12)         59.4852         calculate D2E/DX2 analytically  !
 ! D58   D(10,11,12,13)        -79.7415         calculate D2E/DX2 analytically  !
 ! D59   D(10,11,12,32)         44.2984         calculate D2E/DX2 analytically  !
 ! D60   D(10,11,12,33)        159.6808         calculate D2E/DX2 analytically  !
 ! D61   D(11,12,13,14)        -52.9083         calculate D2E/DX2 analytically  !
 ! D62   D(11,12,13,34)         67.8956         calculate D2E/DX2 analytically  !
 ! D63   D(11,12,13,35)       -176.2343         calculate D2E/DX2 analytically  !
 ! D64   D(32,12,13,14)       -176.7399         calculate D2E/DX2 analytically  !
 ! D65   D(32,12,13,34)        -55.9361         calculate D2E/DX2 analytically  !
 ! D66   D(32,12,13,35)         59.9341         calculate D2E/DX2 analytically  !
 ! D67   D(33,12,13,14)         66.0574         calculate D2E/DX2 analytically  !
 ! D68   D(33,12,13,34)       -173.1388         calculate D2E/DX2 analytically  !
 ! D69   D(33,12,13,35)        -57.2686         calculate D2E/DX2 analytically  !
 ! D70   D(12,13,14,15)        -63.8188         calculate D2E/DX2 analytically  !
 ! D71   D(12,13,14,36)        176.3999         calculate D2E/DX2 analytically  !
 ! D72   D(12,13,14,37)         59.1518         calculate D2E/DX2 analytically  !
 ! D73   D(34,13,14,15)        174.4999         calculate D2E/DX2 analytically  !
 ! D74   D(34,13,14,36)         54.7186         calculate D2E/DX2 analytically  !
 ! D75   D(34,13,14,37)        -62.5295         calculate D2E/DX2 analytically  !
 ! D76   D(35,13,14,15)         59.0229         calculate D2E/DX2 analytically  !
 ! D77   D(35,13,14,36)        -60.7584         calculate D2E/DX2 analytically  !
 ! D78   D(35,13,14,37)       -178.0065         calculate D2E/DX2 analytically  !
 ! D79   D(13,14,15,38)       -176.7018         calculate D2E/DX2 analytically  !
 ! D80   D(13,14,15,39)         69.2075         calculate D2E/DX2 analytically  !
 ! D81   D(36,14,15,38)        -56.7458         calculate D2E/DX2 analytically  !
 ! D82   D(36,14,15,39)       -170.8365         calculate D2E/DX2 analytically  !
 ! D83   D(37,14,15,38)         59.7172         calculate D2E/DX2 analytically  !
 ! D84   D(37,14,15,39)        -54.3735         calculate D2E/DX2 analytically  !
 --------------------------------------------------------------------------------
 Trust Radius=3.00D-01 FncErr=1.00D-07 GrdErr=1.00D-06 EigMax=2.50D+02 EigMin=1.00D-04
 Number of steps in this run=    201 maximum allowed number of steps=    234.
 GradGradGradGradGradGradGradGradGradGradGradGradGradGradGradGradGradGrad

                          Input orientation:                          
 ---------------------------------------------------------------------
 Center     Atomic      Atomic             Coordinates (Angstroms)
 Number     Number       Type             X           Y           Z
 ---------------------------------------------------------------------
      1          7           0        7.526178   -0.533481   -0.134999
      2          6           0        6.439824   -0.019983   -0.961545
      3          6           0        5.163719    0.124642   -0.137979
      4          6           0        4.015867    0.653721   -0.995259
      5          8           0        2.852081    0.941001   -0.221724
      6          6           0        2.159352   -0.226159    0.232529
      7          6           0        0.790703    0.182577    0.779658
      8          8           0       -0.097873    0.437800   -0.314764
      9          6           0       -1.340620    1.009079    0.093283
     10          6           0       -2.307870   -0.037063    0.645130
     11          8           0       -3.547731    0.593607    0.965614
     12          6           0       -4.521050   -0.310193    1.488936
     13          6           0       -5.217349   -1.121263    0.396749
     14          6           0       -5.822468   -0.277504   -0.726102
     15          7           0       -6.893272    0.592867   -0.249583
     16          1           0        8.361837   -0.652030   -0.706718
     17          1           0        7.287461   -1.459144    0.218196
     18          1           0        6.273080   -0.700781   -1.803571
     19          1           0        6.734921    0.951625   -1.372087
     20          1           0        5.326076    0.802473    0.709634
     21          1           0        4.888606   -0.844284    0.295375
     22          1           0        4.317078    1.596992   -1.464144
     23          1           0        3.766241   -0.042331   -1.804736
     24          1           0        2.038528   -0.933991   -0.595075
     25          1           0        2.741973   -0.688266    1.035230
     26          1           0        0.383300   -0.637091    1.379223
     27          1           0        0.885439    1.083074    1.396686
     28          1           0       -1.790761    1.472676   -0.792122
     29          1           0       -1.182441    1.823211    0.811005
     30          1           0       -1.892642   -0.502521    1.545329
     31          1           0       -2.455217   -0.824169   -0.101972
     32          1           0       -4.061229   -0.975306    2.229589
     33          1           0       -5.258985    0.293144    2.028144
     34          1           0       -4.496912   -1.812015   -0.056476
     35          1           0       -5.995572   -1.743167    0.856154
     36          1           0       -6.237504   -0.950474   -1.484605
     37          1           0       -5.050634    0.323711   -1.218798
     38          1           0       -7.294445    1.088394   -1.045791
     39          1           0       -6.487690    1.320619    0.341010
 ---------------------------------------------------------------------
                    Distance matrix (angstroms):
                    1          2          3          4          5
     1  N    0.000000
     2  C    1.458432   0.000000
     3  C    2.452416   1.525654   0.000000
     4  C    3.804179   2.516064   1.527225   0.000000
     5  O    4.901918   3.787179   2.452983   1.426634   0.000000
     6  C    5.388167   4.448681   3.047386   2.393387   1.431252
     7  C    6.834907   5.914844   4.468634   3.711333   2.413970
     8  O    7.687773   6.585543   5.273868   4.175231   2.994010
     9  C    9.002872   7.918771   6.568268   5.477514   4.205069
    10  C    9.877425   8.894034   7.514257   6.569453   5.322888
    11  O   11.185398  10.190273   8.793589   7.813875   6.518285
    12  C   12.158236  11.235204   9.830091   8.943115   7.671695
    13  C   12.768153  11.787598  10.469231   9.504764   8.351715
    14  C   13.364179  12.267255  11.009266   9.885974   8.774221
    15  N   14.463828  13.366148  12.066595  10.934763   9.751609
    16  H    1.019432   2.039253   3.339855   4.547053   5.755899
    17  H    1.019110   2.044862   2.673110   4.079215   5.062294
    18  H    2.093412   1.095580   2.164763   2.753735   4.111073
    19  H    2.088543   1.095285   2.162312   2.761159   4.049678
    20  H    2.708989   2.170186   1.097389   2.155327   2.647125
    21  H    2.690466   2.159999   1.096495   2.161349   2.757185
    22  H    4.074784   2.715375   2.154839   1.095601   2.029815
    23  H    4.143232   2.803482   2.181491   1.096382   2.075706
    24  H    5.521447   4.510112   3.331135   2.567265   2.077704
    25  H    4.927678   4.255327   2.811067   2.747112   2.060721
    26  H    7.302349   6.522384   5.072923   4.527682   3.338905
    27  H    7.004193   6.134263   4.645156   3.962995   2.550905
    28  H    9.553105   8.366556   7.114063   5.867613   4.707867
    29  H    9.071326   8.039790   6.637730   5.626074   4.257017
    30  H    9.567582   8.714772   7.281422   6.534674   5.264849
    31  H    9.985682   8.972588   7.677873   6.697541   5.594424
    32  H   11.834462  11.016719   9.587228   8.848325   7.581229
    33  H   12.993186  12.078842  10.646749   9.761858   8.442217
    34  H   12.091133  11.119474   9.853176   8.912271   7.849465
    35  H   13.611886  12.685127  11.358116  10.459528   9.308466
    36  H   13.835977  12.722187  11.530706  10.389636   9.369798
    37  H   12.652494  11.498475  10.273306   9.075259   7.989250
    38  H   14.936896  13.779177  12.528320  11.318774  10.181002
    39  H   14.144001  13.061947  11.722420  10.609198   9.364406
                    6          7          8          9         10
     6  C    0.000000
     7  C    1.529580   0.000000
     8  O    2.415665   1.432643   0.000000
     9  C    3.714163   2.386788   1.427334   0.000000
    10  C    4.490219   3.109259   2.455805   1.527914   0.000000
    11  O    5.812075   4.361827   3.683091   2.409339   1.427483
    12  C    6.798043   5.381507   4.835009   3.715300   2.384276
    13  C    7.432624   6.159814   5.398700   4.433901   3.114844
    14  C    8.039345   6.798016   5.783757   4.734306   3.780277
    15  N    9.102375   7.763449   6.797480   5.578775   4.714152
    16  H    6.287636   7.760666   8.538621   9.876080  10.772572
    17  H    5.274273   6.724459   7.643664   8.975049   9.709529
    18  H    4.614513   6.124529   6.640931   8.030574   8.948149
    19  H    4.989769   6.368294   6.933183   8.207616   9.317657
    20  H    3.363607   4.578077   5.531872   6.698314   7.680242
    21  H    2.799081   4.252268   5.184688   6.502235   7.250049
    22  H    3.295203   4.412543   4.707079   5.897522   7.142066
    23  H    2.601218   3.947594   4.169163   5.548691   6.549557
    24  H    1.095698   2.166491   2.554329   3.958283   4.608011
    25  H    1.094221   2.152008   3.339946   4.520599   5.106580
    26  H    2.153632   1.094217   2.063131   2.708398   2.853300
    27  H    2.166150   1.095716   2.076617   2.580634   3.466520
    28  H    4.420333   3.286153   2.040761   1.096125   2.147651
    29  H    3.962592   2.566313   2.088781   1.096793   2.180533
    30  H    4.268311   2.873317   2.750517   2.167510   1.095182
    31  H    4.665164   3.510955   2.682334   2.154356   1.095175
    32  H    6.576101   5.194636   4.917193   3.987894   2.542652
    33  H    7.650205   6.178161   5.669852   4.428299   3.275797
    34  H    6.848672   5.712826   4.947719   4.235939   2.904240
    35  H    8.318233   7.054635   6.396133   5.461265   4.068718
    36  H    8.601185   7.470367   6.402414   5.505366   4.562030
    37  H    7.375134   6.175351   5.035884   3.994432   3.335737
    38  H    9.629975   8.338008   7.262803   6.062327   5.384403
    39  H    8.784966   7.379875   6.483762   5.162437   4.405302
                   11         12         13         14         15
    11  O    0.000000
    12  C    1.427610   0.000000
    13  C    2.460084   1.528247   0.000000
    14  C    2.965665   2.569271   1.529345   0.000000
    15  N    3.559403   3.076589   2.482882   1.459875   0.000000
    16  H   12.090744  13.073121  13.632025  14.189262  15.312644
    17  H   11.053225  11.932132  12.510648  13.196902  14.336064
    18  H   10.285531  11.291873  11.706758  12.150819  13.320707
    19  H   10.551111  11.682230  12.258972  12.633926  13.679048
    20  H    8.879955   9.940384  10.722056  11.292375  12.258731
    21  H    8.584202   9.500077  10.110259  10.774589  11.881710
    22  H    8.292510   9.511600  10.087474  10.337739  11.320573
    23  H    7.846874   8.921839   9.312117   9.652052  10.791070
    24  H    5.997966   6.910882   7.325745   7.889449   9.067949
    25  H    6.419378   7.286994   7.996622   8.753324   9.804590
    26  H    4.139890   4.916456   5.706746   6.563022   7.557400
    27  H    4.480892   5.583889   6.565287   7.166130   7.966105
    28  H    2.636160   3.979488   4.459086   4.395697   5.206153
    29  H    2.670285   4.019616   5.012187   5.320297   5.937355
    30  H    2.068063   2.636038   3.571520   4.544620   5.424747
    31  H    2.084086   2.657597   2.822474   3.467963   4.661127
    32  H    2.079135   1.096530   2.171916   3.510699   4.077490
    33  H    2.036576   1.095130   2.159567   2.868627   2.819355
    34  H    2.780761   2.155075   1.096167   2.135469   3.400484
    35  H    3.385916   2.151289   1.097018   2.163717   2.735978
    36  H    3.952549   3.492581   2.146947   1.095660   2.082598
    37  H    2.665186   2.830921   2.173876   1.095416   2.099318
    38  H    4.281172   4.009065   3.358248   2.033369   1.020016
    39  H    3.092254   2.800885   2.753118   2.033530   1.021234
                   16         17         18         19         20
    16  H    0.000000
    17  H    1.631313   0.000000
    18  H    2.359739   2.385712   0.000000
    19  H    2.379344   2.940427   1.769158   0.000000
    20  H    3.652050   3.033719   3.077790   2.518065   0.000000
    21  H    3.620011   2.477602   2.518519   3.068321   1.753510
    22  H    4.689549   4.581857   3.036596   2.504184   2.524807
    23  H    4.764123   4.301000   2.591872   3.160410   3.077147
    24  H    6.330576   5.337461   4.409794   5.120098   3.940247
    25  H    5.883754   4.682228   4.530747   4.942474   3.000984
    26  H    8.246722   7.049198   6.695054   7.101888   5.191505
    27  H    7.958104   6.988390   6.515402   6.473007   4.502226
    28  H   10.372893   9.593249   8.412638   8.561256   7.304370
    29  H    9.976148   9.102995   8.294055   8.258945   6.588853
    30  H   10.499924   9.324736   8.827993   9.222835   7.383176
    31  H   10.835313   9.768596   8.893472   9.445913   7.990820
    32  H   12.769454  11.535708  11.096833  11.543049   9.674309
    33  H   13.924784  12.796864  12.192558  12.483948  10.679018
    34  H   12.927327  11.792853  10.967220  11.641417  10.193800
    35  H   14.483381  13.301377  12.596846  13.201985  11.605235
    36  H   14.623096  13.641223  12.517141  13.111615  11.899744
    37  H   13.457662  12.548789  11.384992  11.803265  10.565235
    38  H   15.756370  14.856634  13.705952  14.033826  12.745228
    39  H   15.016575  14.053361  13.096662  13.338227  11.830868
                   21         22         23         24         25
    21  H    0.000000
    22  H    3.063067   0.000000
    23  H    2.512627   1.762613   0.000000
    24  H    2.987289   3.514676   2.289832   0.000000
    25  H    2.275909   3.735001   3.087355   1.792516   0.000000
    26  H    4.638474   5.343264   4.683548   2.593412   2.384175
    27  H    4.577438   4.497178   4.451366   3.060274   2.591335
    28  H    7.152964   6.145955   5.848154   4.527066   5.343647
    29  H    6.651242   5.955853   5.900153   4.466975   4.664635
    30  H    6.903949   7.212871   6.592243   4.496843   4.666301
    31  H    7.354592   7.319940   6.497478   4.522052   5.321887
    32  H    9.157396   9.510858   8.855253   6.722163   6.913208
    33  H   10.357116  10.276044   9.811127   7.851168   8.121846
    34  H    9.441835   9.554542   8.629478   6.616116   7.406489
    35  H   10.935621  11.085630  10.259930   8.204121   8.802817
    36  H   11.268094  10.857680  10.049982   8.323716   9.330024
    37  H   10.121533   9.457033   8.843902   7.226829   8.174929
    38  H   12.408090  11.630183  11.144205   9.560208  10.402733
    39  H   11.580544  10.958010  10.564325   8.868817   9.471232
                   26         27         28         29         30
    26  H    0.000000
    27  H    1.792041   0.000000
    28  H    3.727250   3.479182   0.000000
    29  H    2.971111   2.273093   1.750126   0.000000
    30  H    2.285960   3.202177   3.061937   2.540206   0.000000
    31  H    3.207198   4.128381   2.488636   3.076054   1.770183
    32  H    4.537769   5.422193   4.503152   4.258110   2.322608
    33  H    5.755156   6.227092   4.623178   4.521144   3.492629
    34  H    5.220933   6.281951   4.318984   4.995309   3.326075
    35  H    6.495153   7.458426   5.544267   5.990603   4.341451
    36  H    7.220441   7.948174   5.111235   6.206192   5.315919
    37  H    6.099221   6.531029   3.482664   4.618605   4.277379
    38  H    8.234425   8.536757   5.522912   6.429948   6.198740
    39  H    7.219489   7.452107   4.834072   5.349688   5.088093
                   31         32         33         34         35
    31  H    0.000000
    32  H    2.835188   0.000000
    33  H    3.694170   1.756179   0.000000
    34  H    2.268574   2.473054   3.059100   0.000000
    35  H    3.781094   2.493515   2.462252   1.756023   0.000000
    36  H    4.029060   4.304885   3.852725   2.410699   2.483153
    37  H    3.049773   3.815461   3.253763   2.493778   3.077388
    38  H    5.288366   5.043873   3.771550   4.149375   3.649959
    39  H    4.588811   3.837410   2.326336   3.732906   3.145527
                   36         37         38         39
    36  H    0.000000
    37  H    1.761494   0.000000
    38  H    2.338090   2.376838   0.000000
    39  H    2.924607   2.343492   1.621110   0.000000
 Stoichiometry    C10H24N2O3
 Framework group  C1[X(C10H24N2O3)]
 Deg. of freedom   111
 Full point group                 C1      NOp   1
 Largest Abelian subgroup         C1      NOp   1
 Largest concise Abelian subgroup C1      NOp   1
                         Standard orientation:                         
 ---------------------------------------------------------------------
 Center     Atomic      Atomic             Coordinates (Angstroms)
 Number     Number       Type             X           Y           Z
 ---------------------------------------------------------------------
      1          7           0        7.561048    0.619205    0.398100
      2          6           0        6.531309   -0.411899    0.457148
      3          6           0        5.205702    0.125224   -0.073780
      4          6           0        4.116602   -0.943454   -0.008919
      5          8           0        2.906730   -0.520191   -0.635293
      6          6           0        2.182711    0.461302    0.113672
      7          6           0        0.783234    0.617776   -0.483483
      8          8           0       -0.032853   -0.484029   -0.068160
      9          6           0       -1.297290   -0.525853   -0.729016
     10          6           0       -2.301115    0.455462   -0.125793
     11          8           0       -3.556893    0.308163   -0.788388
     12          6           0       -4.564501    1.187203   -0.288302
     13          6           0       -5.192236    0.683298    1.010762
     14          6           0       -5.721760   -0.749732    0.940594
     15          7           0       -6.818026   -0.889193   -0.013339
     16          1           0        8.431116    0.253534    0.783467
     17          1           0        7.297331    1.408839    0.985907
     18          1           0        6.416493   -0.749526    1.493063
     19          1           0        6.855097   -1.271478   -0.139454
     20          1           0        5.315775    0.468899   -1.110137
     21          1           0        4.900408    1.003457    0.507428
     22          1           0        4.450126   -1.835795   -0.550057
     23          1           0        3.916946   -1.250127    1.024591
     24          1           0        2.112713    0.153075    1.162791
     25          1           0        2.711432    1.416551    0.041063
     26          1           0        0.335786    1.545387   -0.113837
     27          1           0        0.841251    0.643169   -1.577367
     28          1           0       -1.688518   -1.543594   -0.616614
     29          1           0       -1.182662   -0.365571   -1.807962
     30          1           0       -1.945679    1.484640   -0.243618
     31          1           0       -2.402972    0.256436    0.946318
     32          1           0       -4.155014    2.195400   -0.153255
     33          1           0       -5.333430    1.264975   -1.064194
     34          1           0       -4.446536    0.724265    1.813155
     35          1           0       -6.000170    1.365008    1.303956
     36          1           0       -6.089668   -1.035680    1.932233
     37          1           0       -4.918142   -1.448198    0.683146
     38          1           0       -7.165979   -1.847379    0.021902
     39          1           0       -6.448660   -0.773876   -0.958426
 ---------------------------------------------------------------------
 Rotational constants (GHZ):           2.5449177           0.1095816           0.1087279
 Standard basis: 6-31G(d,p) (6D, 7F)
 There are   345 symmetry adapted cartesian basis functions of A   symmetry.
 There are   345 symmetry adapted basis functions of A   symmetry.
   345 basis functions,   588 primitive gaussians,   345 cartesian basis functions
    61 alpha electrons       61 beta electrons
       nuclear repulsion energy       998.8580945887 Hartrees.
 NAtoms=   39 NActive=   39 NUniq=   39 SFac= 1.00D+00 NAtFMM=   60 NAOKFM=F Big=F
 Integral buffers will be    131072 words long.
 Raffenetti 2 integral format.
 Two-electron integral symmetry is turned on.
 Force inversion solution in PCM.
 ------------------------------------------------------------------------------
 Polarizable Continuum Model (PCM)
 =================================
 Model                : PCM.
 Atomic radii         : UFF (Universal Force Field).
 Polarization charges : Total charges.
 Charge compensation  : None.
 Solution method      : Matrix inversion.
 Cavity type          : Scaled VdW (van der Waals Surface) (Alpha=1.100).
 Cavity algorithm     : GePol (No added spheres)
                        Default sphere list used, NSphG=   39.
                        Lebedev-Laikov grids with approx.  5.0 points / Ang**2.
                        Smoothing algorithm: York/Karplus (Gamma=1.0000).
                        Polarization charges: spherical gaussians, with
                                              point-specific exponents (IZeta= 3).
                        Self-potential: point-specific (ISelfS= 7).
                        Self-field    : sphere-specific E.n sum rule (ISelfD= 2).
 1st derivatives      : Analytical E(r).r(x)/FMM algorithm (CHGder, D1EAlg=3).
                        Cavity 1st derivative terms included.
 2nd derivatives      : Analytical E(r).r(xy)/FMM algorithm (CHGder, D2EAlg=3).
                        Cavity 2nd derivative terms included.
 Solvent              : Water, Eps=  78.355300 Eps(inf)=   1.777849
 ------------------------------------------------------------------------------
 One-electron integrals computed using PRISM.
 NBasis=   345 RedAO= T EigKep=  2.90D-03  NBF=   345
 NBsUse=   345 1.00D-06 EigRej= -1.00D+00 NBFU=   345
 ExpMin= 1.61D-01 ExpMax= 5.48D+03 ExpMxC= 8.25D+02 IAcc=3 IRadAn=         5 AccDes= 0.00D+00
 Harris functional with IExCor=  402 and IRadAn=       5 diagonalized for initial guess.
 HarFok:  IExCor=  402 AccDes= 0.00D+00 IRadAn=         5 IDoV= 1 UseB2=F ITyADJ=14
 ICtDFT=  3500011 ScaDFX=  1.000000  1.000000  1.000000  1.000000
 FoFCou: FMM=F IPFlag=           0 FMFlag=      100000 FMFlg1=           0
         NFxFlg=           0 DoJE=T BraDBF=F KetDBF=T FulRan=T
         wScrn=  0.000000 ICntrl=       500 IOpCl=  0 I1Cent=   200000004 NGrid=           0
         NMat0=    1 NMatS0=      1 NMatT0=    0 NMatD0=    1 NMtDS0=    0 NMtDT0=    0
 Petite list used in FoFCou.
 Requested convergence on RMS density matrix=1.00D-08 within  32 cycles.
 Requested convergence on MAX density matrix=1.00D-06.
 Requested convergence on             energy=1.00D-06.
 No special actions if energy rises.
 Inv3:  Mode=1 IEnd=    22555692.
 Iteration    1 A*A^-1 deviation from unit magnitude is 3.00D-15 for    182.
 Iteration    1 A*A^-1 deviation from orthogonality  is 2.65D-15 for   2235    248.
 Iteration    1 A^-1*A deviation from unit magnitude is 3.33D-15 for    904.
 Iteration    1 A^-1*A deviation from orthogonality  is 2.27D-15 for   2234    247.
 Error on total polarization charges =  0.01132
 SCF Done:  E(RB3LYP) =  -730.674036770     A.U. after   11 cycles
            NFock= 11  Conv=0.62D-08     -V/T= 2.0092
 QCSCF skips out because SCF is already converged.
 DoSCS=F DFT=T ScalE2(SS,OS)=  1.000000  1.000000
 Range of M.O.s used for correlation:     1   345
 NBasis=   345 NAE=    61 NBE=    61 NFC=     0 NFV=     0
 NROrb=    345 NOA=    61 NOB=    61 NVA=   284 NVB=   284
 Symmetrizing basis deriv contribution to polar:
 IMax=3 JMax=2 DiffMx= 0.00D+00
 G2DrvN: will do    40 centers at a time, making    1 passes.
 Calling FoFCou, ICntrl=  3107 FMM=F I1Cent=   0 AccDes= 0.00D+00.
 NEqPCM:  Using equilibrium solvation (IEInf=0, Eps=  78.3553, EpsInf=   1.7778)
 G2PCM: DoFxE=T DoFxN=T DoGrad=T DoDP/DQ/DG/TGxP=FFFF NFrqRd=   0 IEInf=0 SqF1=F DoCFld=F IF1Alg=4.
 End of G2Drv F.D. properties file   721 does not exist.
 End of G2Drv F.D. properties file   722 does not exist.
 End of G2Drv F.D. properties file   788 does not exist.
          IDoAtm=111111111111111111111111111111111111111
 NEqPCM:  Using equilibrium solvation (IEInf=0, Eps=  78.3553, EpsInf=   1.7778)
          Differentiating once with respect to nuclear coordinates.
 CalDSu exits because no D1Ps are significant.
          There are   120 degrees of freedom in the 1st order CPHF.  IDoFFX=6 NUNeed=     0.
    114 vectors produced by pass  0 Test12= 1.73D-14 1.00D-09 XBig12= 8.80D-02 7.45D-02.
 AX will form   114 AO Fock derivatives at one time.
    114 vectors produced by pass  1 Test12= 1.73D-14 1.00D-09 XBig12= 6.19D-03 1.57D-02.
    114 vectors produced by pass  2 Test12= 1.73D-14 1.00D-09 XBig12= 1.02D-04 1.11D-03.
    114 vectors produced by pass  3 Test12= 1.73D-14 1.00D-09 XBig12= 2.01D-07 4.60D-05.
    114 vectors produced by pass  4 Test12= 1.73D-14 1.00D-09 XBig12= 2.24D-10 1.68D-06.
     52 vectors produced by pass  5 Test12= 1.73D-14 1.00D-09 XBig12= 1.57D-13 3.36D-08.
      3 vectors produced by pass  6 Test12= 1.73D-14 1.00D-09 XBig12= 1.08D-16 1.54D-09.
 InvSVY:  IOpt=1 It=  1 EMax= 5.00D-16
 Solved reduced A of dimension   625 with   120 vectors.
 End of Minotr F.D. properties file   721 does not exist.
 End of Minotr F.D. properties file   722 does not exist.
 End of Minotr F.D. properties file   788 does not exist.

 **********************************************************************

            Population analysis using the SCF density.

 **********************************************************************

 Orbital symmetries:
       Occupied  (A) (A) (A) (A) (A) (A) (A) (A) (A) (A) (A) (A)
                 (A) (A) (A) (A) (A) (A) (A) (A) (A) (A) (A) (A)
                 (A) (A) (A) (A) (A) (A) (A) (A) (A) (A) (A) (A)
                 (A) (A) (A) (A) (A) (A) (A) (A) (A) (A) (A) (A)
                 (A) (A) (A) (A) (A) (A) (A) (A) (A) (A) (A) (A)
                 (A)
       Virtual   (A) (A) (A) (A) (A) (A) (A) (A) (A) (A) (A) (A)
                 (A) (A) (A) (A) (A) (A) (A) (A) (A) (A) (A) (A)
                 (A) (A) (A) (A) (A) (A) (A) (A) (A) (A) (A) (A)
                 (A) (A) (A) (A) (A) (A) (A) (A) (A) (A) (A) (A)
                 (A) (A) (A) (A) (A) (A) (A) (A) (A) (A) (A) (A)
                 (A) (A) (A) (A) (A) (A) (A) (A) (A) (A) (A) (A)
                 (A) (A) (A) (A) (A) (A) (A) (A) (A) (A) (A) (A)
                 (A) (A) (A) (A) (A) (A) (A) (A) (A) (A) (A) (A)
                 (A) (A) (A) (A) (A) (A) (A) (A) (A) (A) (A) (A)
                 (A) (A) (A) (A) (A) (A) (A) (A) (A) (A) (A) (A)
                 (A) (A) (A) (A) (A) (A) (A) (A) (A) (A) (A) (A)
                 (A) (A) (A) (A) (A) (A) (A) (A) (A) (A) (A) (A)
                 (A) (A) (A) (A) (A) (A) (A) (A) (A) (A) (A) (A)
                 (A) (A) (A) (A) (A) (A) (A) (A) (A) (A) (A) (A)
                 (A) (A) (A) (A) (A) (A) (A) (A) (A) (A) (A) (A)
                 (A) (A) (A) (A) (A) (A) (A) (A) (A) (A) (A) (A)
                 (A) (A) (A) (A) (A) (A) (A) (A) (A) (A) (A) (A)
                 (A) (A) (A) (A) (A) (A) (A) (A) (A) (A) (A) (A)
                 (A) (A) (A) (A) (A) (A) (A) (A) (A) (A) (A) (A)
                 (A) (A) (A) (A) (A) (A) (A) (A) (A) (A) (A) (A)
                 (A) (A) (A) (A) (A) (A) (A) (A) (A) (A) (A) (A)
                 (A) (A) (A) (A) (A) (A) (A) (A) (A) (A) (A) (A)
                 (A) (A) (A) (A) (A) (A) (A) (A) (A) (A) (A) (A)
                 (A) (A) (A) (A) (A) (A) (A) (A)
 The electronic state is 1-A.
 Alpha  occ. eigenvalues --  -19.15258 -19.15068 -19.14529 -14.30666 -14.30662
 Alpha  occ. eigenvalues --  -10.23340 -10.23178 -10.23168 -10.22873 -10.22836
 Alpha  occ. eigenvalues --  -10.22707 -10.20322 -10.19937 -10.17764 -10.17724
 Alpha  occ. eigenvalues --   -1.03585  -1.02755  -1.01889  -0.87663  -0.87568
 Alpha  occ. eigenvalues --   -0.78110  -0.76645  -0.74588  -0.71750  -0.66125
 Alpha  occ. eigenvalues --   -0.64598  -0.62009  -0.59975  -0.58412  -0.56982
 Alpha  occ. eigenvalues --   -0.50785  -0.49825  -0.49420  -0.49065  -0.48515
 Alpha  occ. eigenvalues --   -0.47310  -0.46600  -0.46365  -0.44723  -0.44019
 Alpha  occ. eigenvalues --   -0.43659  -0.42671  -0.41277  -0.41116  -0.39529
 Alpha  occ. eigenvalues --   -0.38269  -0.37482  -0.36872  -0.36016  -0.35489
 Alpha  occ. eigenvalues --   -0.35059  -0.34012  -0.33582  -0.31550  -0.31192
 Alpha  occ. eigenvalues --   -0.30781  -0.26218  -0.25519  -0.25139  -0.23255
 Alpha  occ. eigenvalues --   -0.23055
 Alpha virt. eigenvalues --    0.07223   0.08758   0.08864   0.09864   0.10430
 Alpha virt. eigenvalues --    0.11453   0.11608   0.12229   0.12574   0.13622
 Alpha virt. eigenvalues --    0.14313   0.14481   0.14753   0.15998   0.16200
 Alpha virt. eigenvalues --    0.16844   0.17971   0.18446   0.18797   0.19052
 Alpha virt. eigenvalues --    0.19522   0.19723   0.20159   0.20345   0.21122
 Alpha virt. eigenvalues --    0.22227   0.22780   0.23188   0.23749   0.24422
 Alpha virt. eigenvalues --    0.24918   0.25373   0.26083   0.26876   0.27209
 Alpha virt. eigenvalues --    0.28283   0.29277   0.31407   0.49760   0.50722
 Alpha virt. eigenvalues --    0.51098   0.51293   0.53072   0.54048   0.54267
 Alpha virt. eigenvalues --    0.54818   0.55251   0.56475   0.56501   0.57802
 Alpha virt. eigenvalues --    0.58475   0.59159   0.60597   0.61372   0.63519
 Alpha virt. eigenvalues --    0.63808   0.64941   0.65144   0.65930   0.67642
 Alpha virt. eigenvalues --    0.69123   0.70133   0.71063   0.72016   0.73133
 Alpha virt. eigenvalues --    0.74842   0.75652   0.76333   0.76693   0.78084
 Alpha virt. eigenvalues --    0.79201   0.80490   0.81926   0.82249   0.83816
 Alpha virt. eigenvalues --    0.84180   0.84911   0.85652   0.85850   0.86960
 Alpha virt. eigenvalues --    0.87314   0.87800   0.88255   0.89116   0.90441
 Alpha virt. eigenvalues --    0.90548   0.91290   0.92034   0.92318   0.93623
 Alpha virt. eigenvalues --    0.94159   0.95007   0.95867   0.96859   0.97117
 Alpha virt. eigenvalues --    0.97784   0.98409   0.99782   1.01674   1.01932
 Alpha virt. eigenvalues --    1.05662   1.07344   1.09925   1.12041   1.12718
 Alpha virt. eigenvalues --    1.14103   1.15645   1.17621   1.20716   1.23351
 Alpha virt. eigenvalues --    1.24819   1.29294   1.31350   1.32374   1.32901
 Alpha virt. eigenvalues --    1.34376   1.35688   1.37869   1.39862   1.42967
 Alpha virt. eigenvalues --    1.45085   1.45988   1.49826   1.50413   1.51807
 Alpha virt. eigenvalues --    1.54987   1.57059   1.59177   1.60162   1.61359
 Alpha virt. eigenvalues --    1.62063   1.63872   1.67585   1.68788   1.69924
 Alpha virt. eigenvalues --    1.72321   1.73917   1.75586   1.76786   1.77476
 Alpha virt. eigenvalues --    1.79693   1.80873   1.81248   1.82949   1.83668
 Alpha virt. eigenvalues --    1.85867   1.87714   1.88405   1.89357   1.89725
 Alpha virt. eigenvalues --    1.92027   1.92375   1.93646   1.94604   1.96733
 Alpha virt. eigenvalues --    1.97322   1.99266   2.00120   2.00370   2.01035
 Alpha virt. eigenvalues --    2.01371   2.02190   2.02927   2.03213   2.04808
 Alpha virt. eigenvalues --    2.06105   2.07276   2.07491   2.08485   2.08651
 Alpha virt. eigenvalues --    2.12102   2.12638   2.12943   2.15166   2.16759
 Alpha virt. eigenvalues --    2.18113   2.18963   2.21446   2.22715   2.23661
 Alpha virt. eigenvalues --    2.24971   2.25428   2.26511   2.27030   2.27521
 Alpha virt. eigenvalues --    2.29066   2.29665   2.30324   2.32516   2.33146
 Alpha virt. eigenvalues --    2.34334   2.35204   2.37288   2.38421   2.39534
 Alpha virt. eigenvalues --    2.40634   2.41636   2.42616   2.44472   2.45874
 Alpha virt. eigenvalues --    2.48609   2.50289   2.54328   2.55980   2.57601
 Alpha virt. eigenvalues --    2.58600   2.59573   2.61135   2.62965   2.63523
 Alpha virt. eigenvalues --    2.64627   2.65309   2.66420   2.67660   2.69752
 Alpha virt. eigenvalues --    2.70330   2.71121   2.71469   2.73378   2.74402
 Alpha virt. eigenvalues --    2.76824   2.77776   2.78546   2.78610   2.80331
 Alpha virt. eigenvalues --    2.80767   2.82485   2.83160   2.85736   2.86694
 Alpha virt. eigenvalues --    2.87029   2.88973   2.90084   2.91523   2.93274
 Alpha virt. eigenvalues --    2.93844   2.95581   2.96716   2.97781   2.98025
 Alpha virt. eigenvalues --    2.99550   2.99908   3.01567   3.03016   3.06007
 Alpha virt. eigenvalues --    3.23454   3.24571   3.26607   3.28419   3.29128
 Alpha virt. eigenvalues --    3.29495   3.29769   3.30474   3.31681   3.34181
 Alpha virt. eigenvalues --    3.35256   3.36832   3.37902   3.38604   3.41756
 Alpha virt. eigenvalues --    3.43022   3.48476   3.50096   3.51887   3.54662
 Alpha virt. eigenvalues --    3.54978   3.55128   3.55338   3.57795   3.89629
 Alpha virt. eigenvalues --    3.97350   3.97695   4.03444   4.09799   4.32873
 Alpha virt. eigenvalues --    4.36170   4.37066   4.37893   4.51862   4.58330
 Alpha virt. eigenvalues --    4.58667   4.63203   4.69896   4.71077
          Condensed to atoms (all electrons):
               1          2          3          4          5          6
     1  N    6.819752   0.289615  -0.048821   0.002658  -0.000027  -0.000002
     2  C    0.289615   4.805504   0.343050  -0.029751   0.002620   0.000167
     3  C   -0.048821   0.343050   5.039252   0.343056  -0.044138  -0.006971
     4  C    0.002658  -0.029751   0.343056   4.729202   0.244844  -0.031552
     5  O   -0.000027   0.002620  -0.044138   0.244844   8.273680   0.233367
     6  C   -0.000002   0.000167  -0.006971  -0.031552   0.233367   4.761413
     7  C   -0.000000  -0.000002   0.000138   0.004130  -0.039119   0.375524
     8  O    0.000000   0.000000   0.000002  -0.000091   0.002190  -0.039090
     9  C   -0.000000  -0.000000  -0.000000   0.000007  -0.000071   0.004232
    10  C    0.000000   0.000000   0.000000  -0.000000   0.000001   0.000055
    11  O    0.000000  -0.000000  -0.000000   0.000000   0.000000  -0.000000
    12  C    0.000000   0.000000   0.000000  -0.000000   0.000000  -0.000000
    13  C    0.000000  -0.000000  -0.000000  -0.000000   0.000000   0.000000
    14  C    0.000000  -0.000000  -0.000000   0.000000  -0.000000   0.000000
    15  N    0.000000   0.000000   0.000000  -0.000000   0.000000  -0.000000
    16  H    0.337352  -0.032147   0.005425  -0.000193   0.000001   0.000000
    17  H    0.341559  -0.037599  -0.006260  -0.000122   0.000000  -0.000003
    18  H   -0.053241   0.389092  -0.050090   0.000340  -0.000016  -0.000014
    19  H   -0.041824   0.388230  -0.033469  -0.004920  -0.000001   0.000010
    20  H    0.004643  -0.031378   0.367471  -0.032083   0.003085  -0.000640
    21  H   -0.003368  -0.034740   0.385592  -0.035570  -0.001864   0.002621
    22  H   -0.000061  -0.002827  -0.046639   0.390463  -0.034089   0.005749
    23  H   -0.000113   0.000575  -0.052400   0.369420  -0.035067  -0.012157
    24  H   -0.000000   0.000076  -0.001969  -0.009687  -0.039621   0.359105
    25  H    0.000013  -0.000390   0.004266  -0.001467  -0.044714   0.362963
    26  H    0.000000  -0.000000   0.000013  -0.000153   0.002917  -0.036253
    27  H   -0.000000   0.000000  -0.000034  -0.000077   0.000228  -0.031448
    28  H    0.000000  -0.000000   0.000000  -0.000000   0.000006  -0.000240
    29  H    0.000000  -0.000000   0.000000   0.000000  -0.000022   0.000176
    30  H   -0.000000   0.000000  -0.000000  -0.000000  -0.000001  -0.000003
    31  H    0.000000  -0.000000   0.000000  -0.000000   0.000000  -0.000052
    32  H   -0.000000   0.000000  -0.000000   0.000000  -0.000000   0.000000
    33  H    0.000000  -0.000000  -0.000000   0.000000   0.000000   0.000000
    34  H    0.000000  -0.000000  -0.000000   0.000000   0.000000   0.000000
    35  H    0.000000   0.000000   0.000000   0.000000  -0.000000   0.000000
    36  H    0.000000   0.000000  -0.000000   0.000000  -0.000000   0.000000
    37  H    0.000000  -0.000000   0.000000   0.000000   0.000000   0.000000
    38  H    0.000000   0.000000  -0.000000   0.000000   0.000000  -0.000000
    39  H    0.000000   0.000000  -0.000000   0.000000  -0.000000   0.000000
               7          8          9         10         11         12
     1  N   -0.000000   0.000000  -0.000000   0.000000   0.000000   0.000000
     2  C   -0.000002   0.000000  -0.000000   0.000000  -0.000000   0.000000
     3  C    0.000138   0.000002  -0.000000   0.000000  -0.000000   0.000000
     4  C    0.004130  -0.000091   0.000007  -0.000000   0.000000  -0.000000
     5  O   -0.039119   0.002190  -0.000071   0.000001   0.000000   0.000000
     6  C    0.375524  -0.039090   0.004232   0.000055  -0.000000  -0.000000
     7  C    4.769311   0.229336  -0.032969  -0.006378   0.000024  -0.000004
     8  O    0.229336   8.264176   0.236577  -0.038588   0.001079  -0.000048
     9  C   -0.032969   0.236577   4.773200   0.352499  -0.030202   0.003516
    10  C   -0.006378  -0.038588   0.352499   4.822642   0.206980  -0.028509
    11  O    0.000024   0.001079  -0.030202   0.206980   8.279844   0.239095
    12  C   -0.000004  -0.000048   0.003516  -0.028509   0.239095   4.744915
    13  C    0.000000   0.000001   0.000016  -0.006169  -0.055204   0.357797
    14  C   -0.000000   0.000000  -0.000033  -0.000789   0.000406  -0.041880
    15  N   -0.000000  -0.000000   0.000003   0.000022  -0.001190  -0.003406
    16  H    0.000000   0.000000   0.000000  -0.000000   0.000000   0.000000
    17  H    0.000000  -0.000000   0.000000   0.000000   0.000000  -0.000000
    18  H   -0.000000   0.000000  -0.000000   0.000000  -0.000000   0.000000
    19  H    0.000000  -0.000000   0.000000  -0.000000   0.000000  -0.000000
    20  H   -0.000074   0.000000  -0.000000   0.000000  -0.000000   0.000000
    21  H   -0.000010  -0.000001  -0.000000  -0.000000   0.000000  -0.000000
    22  H   -0.000247   0.000004  -0.000000   0.000000  -0.000000   0.000000
    23  H    0.000165  -0.000020   0.000000   0.000000  -0.000000   0.000000
    24  H   -0.032369   0.000083  -0.000105  -0.000028   0.000000  -0.000000
    25  H   -0.037148   0.002878  -0.000158   0.000007  -0.000000   0.000000
    26  H    0.362777  -0.044005  -0.001289   0.002993  -0.000146   0.000009
    27  H    0.361022  -0.039330  -0.010735  -0.001458   0.000019  -0.000001
    28  H    0.005608  -0.031654   0.382773  -0.045937   0.004871  -0.000214
    29  H   -0.011620  -0.031049   0.364952  -0.049949   0.005834  -0.000033
    30  H    0.002048   0.000521  -0.037798   0.372677  -0.036561  -0.008900
    31  H   -0.000169   0.005095  -0.038269   0.362636  -0.039905  -0.002431
    32  H   -0.000002   0.000004   0.000081  -0.010855  -0.032434   0.376627
    33  H    0.000000   0.000001  -0.000197   0.005030  -0.036353   0.386745
    34  H    0.000000   0.000001  -0.000120   0.001046  -0.002480  -0.035947
    35  H   -0.000000  -0.000000  -0.000001   0.000202   0.003370  -0.030766
    36  H    0.000000   0.000000   0.000001  -0.000047   0.000194   0.004991
    37  H    0.000000   0.000000  -0.000222   0.000557   0.010273  -0.012935
    38  H   -0.000000   0.000000  -0.000000   0.000001  -0.000021   0.000082
    39  H    0.000000   0.000000   0.000000  -0.000072   0.001674   0.004815
              13         14         15         16         17         18
     1  N    0.000000   0.000000   0.000000   0.337352   0.341559  -0.053241
     2  C   -0.000000  -0.000000   0.000000  -0.032147  -0.037599   0.389092
     3  C   -0.000000  -0.000000   0.000000   0.005425  -0.006260  -0.050090
     4  C   -0.000000   0.000000  -0.000000  -0.000193  -0.000122   0.000340
     5  O    0.000000  -0.000000   0.000000   0.000001   0.000000  -0.000016
     6  C    0.000000   0.000000  -0.000000   0.000000  -0.000003  -0.000014
     7  C    0.000000  -0.000000  -0.000000   0.000000   0.000000  -0.000000
     8  O    0.000001   0.000000  -0.000000   0.000000  -0.000000   0.000000
     9  C    0.000016  -0.000033   0.000003   0.000000   0.000000  -0.000000
    10  C   -0.006169  -0.000789   0.000022  -0.000000   0.000000   0.000000
    11  O   -0.055204   0.000406  -0.001190   0.000000   0.000000  -0.000000
    12  C    0.357797  -0.041880  -0.003406   0.000000  -0.000000   0.000000
    13  C    5.034010   0.363147  -0.056825   0.000000   0.000000  -0.000000
    14  C    0.363147   4.804472   0.295570   0.000000   0.000000  -0.000000
    15  N   -0.056825   0.295570   6.817080   0.000000   0.000000   0.000000
    16  H    0.000000   0.000000   0.000000   0.478269  -0.031892  -0.003788
    17  H    0.000000   0.000000   0.000000  -0.031892   0.478393  -0.005339
    18  H   -0.000000  -0.000000   0.000000  -0.003788  -0.005339   0.680446
    19  H    0.000000   0.000000   0.000000  -0.003353   0.006526  -0.049229
    20  H   -0.000000  -0.000000   0.000000  -0.000061  -0.000692   0.006679
    21  H   -0.000000  -0.000000   0.000000   0.000004   0.005558  -0.007421
    22  H    0.000000  -0.000000   0.000000   0.000007   0.000016  -0.000751
    23  H    0.000000   0.000000  -0.000000   0.000008   0.000002   0.004654
    24  H   -0.000000   0.000000   0.000000   0.000000   0.000000   0.000005
    25  H   -0.000000  -0.000000  -0.000000  -0.000000  -0.000005   0.000016
    26  H    0.000000  -0.000000  -0.000000  -0.000000  -0.000000   0.000000
    27  H   -0.000000   0.000000  -0.000000   0.000000  -0.000000   0.000000
    28  H   -0.000058  -0.000007  -0.000005  -0.000000  -0.000000   0.000000
    29  H    0.000016   0.000002   0.000000  -0.000000  -0.000000   0.000000
    30  H   -0.001653   0.000106  -0.000003   0.000000  -0.000000  -0.000000
    31  H    0.004684   0.000778   0.000006  -0.000000   0.000000   0.000000
    32  H   -0.048084   0.005848  -0.000118   0.000000   0.000000  -0.000000
    33  H   -0.047755  -0.009425   0.004974   0.000000   0.000000  -0.000000
    34  H    0.373657  -0.036928   0.004263   0.000000   0.000000  -0.000000
    35  H    0.352881  -0.033655   0.003292   0.000000   0.000000  -0.000000
    36  H   -0.031064   0.386893  -0.041655   0.000000   0.000000  -0.000000
    37  H   -0.045273   0.384850  -0.052721   0.000000  -0.000000  -0.000000
    38  H    0.006209  -0.033198   0.339391   0.000000   0.000000   0.000000
    39  H   -0.007931  -0.038089   0.337433   0.000000   0.000000   0.000000
              19         20         21         22         23         24
     1  N   -0.041824   0.004643  -0.003368  -0.000061  -0.000113  -0.000000
     2  C    0.388230  -0.031378  -0.034740  -0.002827   0.000575   0.000076
     3  C   -0.033469   0.367471   0.385592  -0.046639  -0.052400  -0.001969
     4  C   -0.004920  -0.032083  -0.035570   0.390463   0.369420  -0.009687
     5  O   -0.000001   0.003085  -0.001864  -0.034089  -0.035067  -0.039621
     6  C    0.000010  -0.000640   0.002621   0.005749  -0.012157   0.359105
     7  C    0.000000  -0.000074  -0.000010  -0.000247   0.000165  -0.032369
     8  O   -0.000000   0.000000  -0.000001   0.000004  -0.000020   0.000083
     9  C    0.000000  -0.000000  -0.000000  -0.000000   0.000000  -0.000105
    10  C   -0.000000   0.000000  -0.000000   0.000000   0.000000  -0.000028
    11  O    0.000000  -0.000000   0.000000  -0.000000  -0.000000   0.000000
    12  C   -0.000000   0.000000  -0.000000   0.000000   0.000000  -0.000000
    13  C    0.000000  -0.000000  -0.000000   0.000000   0.000000  -0.000000
    14  C    0.000000  -0.000000  -0.000000  -0.000000   0.000000   0.000000
    15  N    0.000000   0.000000   0.000000   0.000000  -0.000000   0.000000
    16  H   -0.003353  -0.000061   0.000004   0.000007   0.000008   0.000000
    17  H    0.006526  -0.000692   0.005558   0.000016   0.000002   0.000000
    18  H   -0.049229   0.006679  -0.007421  -0.000751   0.004654   0.000005
    19  H    0.629030  -0.007449   0.005704   0.005468  -0.000488   0.000001
    20  H   -0.007449   0.627204  -0.042615  -0.006446   0.006370   0.000258
    21  H    0.005704  -0.042615   0.621540   0.005687  -0.007144   0.000293
    22  H    0.005468  -0.006446   0.005687   0.621038  -0.041661   0.000074
    23  H   -0.000488   0.006370  -0.007144  -0.041661   0.659810   0.015265
    24  H    0.000001   0.000258   0.000293   0.000074   0.015265   0.649543
    25  H   -0.000006   0.000402   0.000243  -0.000305  -0.001515  -0.048864
    26  H   -0.000000   0.000000   0.000001   0.000003   0.000007  -0.001694
    27  H   -0.000000   0.000027   0.000005  -0.000008   0.000056   0.006662
    28  H   -0.000000   0.000000   0.000000   0.000000  -0.000000  -0.000002
    29  H   -0.000000  -0.000000  -0.000000  -0.000000  -0.000000   0.000051
    30  H    0.000000  -0.000000   0.000000   0.000000  -0.000000   0.000009
    31  H   -0.000000   0.000000  -0.000000   0.000000  -0.000000   0.000023
    32  H   -0.000000  -0.000000  -0.000000  -0.000000  -0.000000   0.000000
    33  H    0.000000  -0.000000   0.000000  -0.000000  -0.000000   0.000000
    34  H    0.000000  -0.000000   0.000000  -0.000000  -0.000000  -0.000000
    35  H    0.000000  -0.000000   0.000000   0.000000  -0.000000  -0.000000
    36  H    0.000000  -0.000000   0.000000  -0.000000  -0.000000   0.000000
    37  H   -0.000000  -0.000000   0.000000  -0.000000  -0.000000  -0.000000
    38  H    0.000000  -0.000000   0.000000  -0.000000  -0.000000   0.000000
    39  H    0.000000  -0.000000   0.000000  -0.000000  -0.000000   0.000000
              25         26         27         28         29         30
     1  N    0.000013   0.000000  -0.000000   0.000000   0.000000  -0.000000
     2  C   -0.000390  -0.000000   0.000000  -0.000000  -0.000000   0.000000
     3  C    0.004266   0.000013  -0.000034   0.000000   0.000000  -0.000000
     4  C   -0.001467  -0.000153  -0.000077  -0.000000   0.000000  -0.000000
     5  O   -0.044714   0.002917   0.000228   0.000006  -0.000022  -0.000001
     6  C    0.362963  -0.036253  -0.031448  -0.000240   0.000176  -0.000003
     7  C   -0.037148   0.362777   0.361022   0.005608  -0.011620   0.002048
     8  O    0.002878  -0.044005  -0.039330  -0.031654  -0.031049   0.000521
     9  C   -0.000158  -0.001289  -0.010735   0.382773   0.364952  -0.037798
    10  C    0.000007   0.002993  -0.001458  -0.045937  -0.049949   0.372677
    11  O   -0.000000  -0.000146   0.000019   0.004871   0.005834  -0.036561
    12  C    0.000000   0.000009  -0.000001  -0.000214  -0.000033  -0.008900
    13  C   -0.000000   0.000000  -0.000000  -0.000058   0.000016  -0.001653
    14  C   -0.000000  -0.000000   0.000000  -0.000007   0.000002   0.000106
    15  N   -0.000000  -0.000000  -0.000000  -0.000005   0.000000  -0.000003
    16  H   -0.000000  -0.000000   0.000000  -0.000000  -0.000000   0.000000
    17  H   -0.000005  -0.000000  -0.000000  -0.000000  -0.000000  -0.000000
    18  H    0.000016   0.000000   0.000000   0.000000   0.000000  -0.000000
    19  H   -0.000006  -0.000000  -0.000000  -0.000000  -0.000000   0.000000
    20  H    0.000402   0.000000   0.000027   0.000000  -0.000000  -0.000000
    21  H    0.000243   0.000001   0.000005   0.000000  -0.000000   0.000000
    22  H   -0.000305   0.000003  -0.000008   0.000000  -0.000000   0.000000
    23  H   -0.001515   0.000007   0.000056  -0.000000  -0.000000  -0.000000
    24  H   -0.048864  -0.001694   0.006662  -0.000002   0.000051   0.000009
    25  H    0.659237   0.002690  -0.001625   0.000003   0.000010  -0.000001
    26  H    0.002690   0.656924  -0.048563  -0.000313  -0.001578   0.000985
    27  H   -0.001625  -0.048563   0.643980   0.000233   0.014267   0.000329
    28  H    0.000003  -0.000313   0.000233   0.617123  -0.041962   0.006467
    29  H    0.000010  -0.001578   0.014267  -0.041962   0.650294  -0.008260
    30  H   -0.000001   0.000985   0.000329   0.006467  -0.008260   0.657809
    31  H   -0.000000  -0.000034   0.000134  -0.009236   0.007101  -0.058648
    32  H   -0.000000   0.000001   0.000000   0.000042  -0.000016   0.012609
    33  H   -0.000000  -0.000000   0.000000   0.000017  -0.000003   0.000246
    34  H   -0.000000  -0.000000  -0.000000   0.000027  -0.000003   0.000172
    35  H    0.000000   0.000000   0.000000   0.000001  -0.000000   0.000049
    36  H   -0.000000   0.000000   0.000000   0.000000  -0.000000   0.000002
    37  H    0.000000  -0.000000   0.000000   0.000606  -0.000008   0.000108
    38  H   -0.000000  -0.000000   0.000000  -0.000000   0.000000  -0.000000
    39  H   -0.000000   0.000000   0.000000   0.000003  -0.000000   0.000005
              31         32         33         34         35         36
     1  N    0.000000  -0.000000   0.000000   0.000000   0.000000   0.000000
     2  C   -0.000000   0.000000  -0.000000  -0.000000   0.000000   0.000000
     3  C    0.000000  -0.000000  -0.000000  -0.000000   0.000000  -0.000000
     4  C   -0.000000   0.000000   0.000000   0.000000   0.000000   0.000000
     5  O    0.000000  -0.000000   0.000000   0.000000  -0.000000  -0.000000
     6  C   -0.000052   0.000000   0.000000   0.000000   0.000000   0.000000
     7  C   -0.000169  -0.000002   0.000000   0.000000  -0.000000   0.000000
     8  O    0.005095   0.000004   0.000001   0.000001  -0.000000   0.000000
     9  C   -0.038269   0.000081  -0.000197  -0.000120  -0.000001   0.000001
    10  C    0.362636  -0.010855   0.005030   0.001046   0.000202  -0.000047
    11  O   -0.039905  -0.032434  -0.036353  -0.002480   0.003370   0.000194
    12  C   -0.002431   0.376627   0.386745  -0.035947  -0.030766   0.004991
    13  C    0.004684  -0.048084  -0.047755   0.373657   0.352881  -0.031064
    14  C    0.000778   0.005848  -0.009425  -0.036928  -0.033655   0.386893
    15  N    0.000006  -0.000118   0.004974   0.004263   0.003292  -0.041655
    16  H   -0.000000   0.000000   0.000000   0.000000   0.000000   0.000000
    17  H    0.000000   0.000000   0.000000   0.000000   0.000000   0.000000
    18  H    0.000000  -0.000000  -0.000000  -0.000000  -0.000000  -0.000000
    19  H   -0.000000  -0.000000   0.000000   0.000000   0.000000   0.000000
    20  H    0.000000  -0.000000  -0.000000  -0.000000  -0.000000  -0.000000
    21  H   -0.000000  -0.000000   0.000000   0.000000   0.000000   0.000000
    22  H    0.000000  -0.000000  -0.000000  -0.000000   0.000000  -0.000000
    23  H   -0.000000  -0.000000  -0.000000  -0.000000  -0.000000  -0.000000
    24  H    0.000023   0.000000   0.000000  -0.000000  -0.000000   0.000000
    25  H   -0.000000  -0.000000  -0.000000  -0.000000   0.000000  -0.000000
    26  H   -0.000034   0.000001  -0.000000  -0.000000   0.000000   0.000000
    27  H    0.000134   0.000000   0.000000  -0.000000   0.000000   0.000000
    28  H   -0.009236   0.000042   0.000017   0.000027   0.000001   0.000000
    29  H    0.007101  -0.000016  -0.000003  -0.000003  -0.000000  -0.000000
    30  H   -0.058648   0.012609   0.000246   0.000172   0.000049   0.000002
    31  H    0.667377  -0.001890  -0.000246   0.002091  -0.000405  -0.000066
    32  H   -0.001890   0.645896  -0.039622  -0.006507   0.000723  -0.000106
    33  H   -0.000246  -0.039622   0.624225   0.005989  -0.000587  -0.000039
    34  H    0.002091  -0.006507   0.005989   0.625844  -0.029675  -0.003637
    35  H   -0.000405   0.000723  -0.000587  -0.029675   0.633246  -0.005583
    36  H   -0.000066  -0.000106  -0.000039  -0.003637  -0.005583   0.633672
    37  H   -0.000594   0.000245   0.000765  -0.000003   0.006834  -0.045666
    38  H    0.000000   0.000001  -0.000215  -0.000247  -0.000084  -0.005249
    39  H   -0.000007   0.000019   0.000016  -0.000132  -0.000485   0.006844
              37         38         39
     1  N    0.000000   0.000000   0.000000
     2  C   -0.000000   0.000000   0.000000
     3  C    0.000000  -0.000000  -0.000000
     4  C    0.000000   0.000000   0.000000
     5  O    0.000000   0.000000  -0.000000
     6  C    0.000000  -0.000000   0.000000
     7  C    0.000000  -0.000000   0.000000
     8  O    0.000000   0.000000   0.000000
     9  C   -0.000222  -0.000000   0.000000
    10  C    0.000557   0.000001  -0.000072
    11  O    0.010273  -0.000021   0.001674
    12  C   -0.012935   0.000082   0.004815
    13  C   -0.045273   0.006209  -0.007931
    14  C    0.384850  -0.033198  -0.038089
    15  N   -0.052721   0.339391   0.337433
    16  H    0.000000   0.000000   0.000000
    17  H   -0.000000   0.000000   0.000000
    18  H   -0.000000   0.000000   0.000000
    19  H   -0.000000   0.000000   0.000000
    20  H   -0.000000  -0.000000  -0.000000
    21  H    0.000000   0.000000   0.000000
    22  H   -0.000000  -0.000000  -0.000000
    23  H   -0.000000  -0.000000  -0.000000
    24  H   -0.000000   0.000000   0.000000
    25  H    0.000000  -0.000000  -0.000000
    26  H   -0.000000  -0.000000   0.000000
    27  H    0.000000   0.000000   0.000000
    28  H    0.000606  -0.000000   0.000003
    29  H   -0.000008   0.000000  -0.000000
    30  H    0.000108  -0.000000   0.000005
    31  H   -0.000594   0.000000  -0.000007
    32  H    0.000245   0.000001   0.000019
    33  H    0.000765  -0.000215   0.000016
    34  H   -0.000003  -0.000247  -0.000132
    35  H    0.006834  -0.000084  -0.000485
    36  H   -0.045666  -0.005249   0.006844
    37  H    0.671532  -0.002853  -0.006302
    38  H   -0.002853   0.475889  -0.031958
    39  H   -0.006302  -0.031958   0.483021
 Mulliken charges:
               1
     1  N   -0.648135
     2  C   -0.050097
     3  C   -0.197474
     4  C    0.061547
     5  O   -0.524189
     6  C    0.053043
     7  C    0.050026
     8  O   -0.518071
     9  C    0.034314
    10  C    0.061434
    11  O   -0.519169
    12  C    0.046481
    13  C   -0.192405
    14  C   -0.048066
    15  N   -0.646111
    16  H    0.250367
    17  H    0.249857
    18  H    0.088657
    19  H    0.105769
    20  H    0.105298
    21  H    0.105483
    22  H    0.104525
    23  H    0.094233
    24  H    0.102891
    25  H    0.103473
    26  H    0.104709
    27  H    0.106318
    28  H    0.111850
    29  H    0.101801
    30  H    0.097686
    31  H    0.102029
    32  H    0.097538
    33  H    0.106437
    34  H    0.102588
    35  H    0.100644
    36  H    0.100513
    37  H    0.090807
    38  H    0.252253
    39  H    0.251145
 Sum of Mulliken charges =  -0.00000
 Mulliken charges with hydrogens summed into heavy atoms:
               1
     1  N   -0.147911
     2  C    0.144329
     3  C    0.013306
     4  C    0.260305
     5  O   -0.524189
     6  C    0.259407
     7  C    0.261053
     8  O   -0.518071
     9  C    0.247966
    10  C    0.261149
    11  O   -0.519169
    12  C    0.250456
    13  C    0.010827
    14  C    0.143255
    15  N   -0.142713
 APT charges:
               1
     1  N   -1.963312
     2  C   -0.657985
     3  C   -0.394578
     4  C   -0.606111
     5  O   -0.453075
     6  C   -0.483590
     7  C   -0.493446
     8  O   -0.443925
     9  C   -0.674627
    10  C   -0.226449
    11  O   -0.446285
    12  C   -0.909580
    13  C   -0.721370
    14  C   -0.320628
    15  N   -1.159598
    16  H    1.454608
    17  H    0.241949
    18  H    0.363028
    19  H    0.574889
    20  H    0.359971
    21  H    0.097432
    22  H    0.599029
    23  H    0.217623
    24  H    0.251286
    25  H    0.486671
    26  H    0.289428
    27  H    0.345675
    28  H    0.429635
    29  H    0.345553
    30  H    0.237436
    31  H    0.298293
    32  H    0.228188
    33  H    0.799618
    34  H   -0.038968
    35  H    0.850350
    36  H    0.682399
    37  H   -0.105296
    38  H    0.929231
    39  H    0.016531
 Sum of APT charges =  -0.00000
 APT charges with hydrogens summed into heavy atoms:
               1
     1  N   -0.266756
     2  C    0.279932
     3  C    0.062825
     4  C    0.210541
     5  O   -0.453075
     6  C    0.254367
     7  C    0.141657
     8  O   -0.443925
     9  C    0.100561
    10  C    0.309280
    11  O   -0.446285
    12  C    0.118226
    13  C    0.090013
    14  C    0.256475
    15  N   -0.213836
 Electronic spatial extent (au):  <R**2>=           9794.0309
 Charge=              0.0000 electrons
 Dipole moment (field-independent basis, Debye):
    X=              1.4887    Y=              1.1771    Z=              2.7128  Tot=              3.3108
 Quadrupole moment (field-independent basis, Debye-Ang):
   XX=            -98.8827   YY=            -88.3295   ZZ=            -92.8299
   XY=              1.9117   XZ=             15.3182   YZ=              1.4877
 Traceless Quadrupole moment (field-independent basis, Debye-Ang):
   XX=             -5.5353   YY=              5.0179   ZZ=              0.5175
   XY=              1.9117   XZ=             15.3182   YZ=              1.4877
 Octapole moment (field-independent basis, Debye-Ang**2):
  XXX=            189.8197  YYY=             -5.5017  ZZZ=             -2.2104  XYY=            -20.1654
  XXY=            -70.7416  XXZ=            100.5783  XZZ=             -0.4915  YZZ=             -0.9557
  YYZ=             -0.0406  XYZ=              9.8258
 Hexadecapole moment (field-independent basis, Debye-Ang**3):
 XXXX=         -12749.1862 YYYY=           -419.3356 ZZZZ=           -330.1557 XXXY=             34.9327
 XXXZ=            926.2016 YYYX=             56.6490 YYYZ=              7.8452 ZZZX=             26.5742
 ZZZY=              2.2087 XXYY=          -1855.5284 XXZZ=          -1954.2979 YYZZ=           -128.1031
 XXYZ=            103.0958 YYXZ=             23.5106 ZZXY=             23.0474
 N-N= 9.988580945887D+02 E-N=-3.700424836001D+03  KE= 7.239857369093D+02
  Exact polarizability:   0.000   0.000   0.000   0.000   0.000   0.000
 Approx polarizability: 183.682   0.113 171.624   3.152   1.785 167.576
 D2PCM: PCM CHGder 2nd derivatives, FixD1E=F FixD2E=F DoIter=F DoCFld=F I1PDM=0
 Calling FoFJK, ICntrl=    100147 FMM=F ISym2X=0 I1Cent= 0 IOpClX= 0 NMat=1 NMatS=1 NMatT=0.
 ***** Axes restored to original set *****
 -------------------------------------------------------------------
 Center     Atomic                   Forces (Hartrees/Bohr)
 Number     Number              X              Y              Z
 -------------------------------------------------------------------
      1        7           0.011031869    0.003784124    0.009357985
      2        6           0.001593514   -0.008283775    0.002629159
      3        6          -0.000808366    0.000215368   -0.003694326
      4        6          -0.001974527    0.002939347    0.006909442
      5        8          -0.006072238    0.000236712   -0.004122673
      6        6          -0.000745358    0.013511858    0.002998488
[...]
    94    C    7  S      Ryd( 4S)     0.00005
    95    C    7  px     Val( 2p)     0.96297
    96    C    7  px     Ryd( 3p)     0.00221
    97    C    7  py     Val( 2p)     0.90775
    98    C    7  py     Ryd( 3p)     0.00356
    99    C    7  pz     Val( 2p)     1.21386
   100    C    7  pz     Ryd( 3p)     0.00227
   101    C    7  dxy    Ryd( 3d)     0.00164
   102    C    7  dxz    Ryd( 3d)     0.00080
   103    C    7  dyz    Ryd( 3d)     0.00147
   104    C    7  dx2y2  Ryd( 3d)     0.00139
   105    C    7  dz2    Ryd( 3d)     0.00100

   106    O    8  S      Cor( 1S)     1.99980
   107    O    8  S      Val( 2S)     1.61959
   108    O    8  S      Ryd( 3S)     0.00194
   109    O    8  S      Ryd( 4S)     0.00006
   110    O    8  px     Val( 2p)     1.48236
   111    O    8  px     Ryd( 3p)     0.00189
   112    O    8  py     Val( 2p)     1.64825
   113    O    8  py     Ryd( 3p)     0.00163
   114    O    8  pz     Val( 2p)     1.83734
   115    O    8  pz     Ryd( 3p)     0.00272
   116    O    8  dxy    Ryd( 3d)     0.00118
   117    O    8  dxz    Ryd( 3d)     0.00060
   118    O    8  dyz    Ryd( 3d)     0.00117
   119    O    8  dx2y2  Ryd( 3d)     0.00107
   120    O    8  dz2    Ryd( 3d)     0.00094

   121    C    9  S      Cor( 1S)     1.99927
   122    C    9  S      Val( 2S)     1.02829
   123    C    9  S      Ryd( 3S)     0.00195
   124    C    9  S      Ryd( 4S)     0.00006
   125    C    9  px     Val( 2p)     0.80484
   126    C    9  px     Ryd( 3p)     0.00639
   127    C    9  py     Val( 2p)     1.20748
   128    C    9  py     Ryd( 3p)     0.00465
   129    C    9  pz     Val( 2p)     1.06732
   130    C    9  pz     Ryd( 3p)     0.00202
   131    C    9  dxy    Ryd( 3d)     0.00116
   132    C    9  dxz    Ryd( 3d)     0.00162
   133    C    9  dyz    Ryd( 3d)     0.00079
   134    C    9  dx2y2  Ryd( 3d)     0.00146
   135    C    9  dz2    Ryd( 3d)     0.00122

   136    C   10  S      Cor( 1S)     1.99930
   137    C   10  S      Val( 2S)     1.03317
   138    C   10  S      Ryd( 3S)     0.00289
   139    C   10  S      Ryd( 4S)     0.00005
   140    C   10  px     Val( 2p)     0.82491
   141    C   10  px     Ryd( 3p)     0.00843
   142    C   10  py     Val( 2p)     1.20087
   143    C   10  py     Ryd( 3p)     0.00209
   144    C   10  pz     Val( 2p)     1.08167
   145    C   10  pz     Ryd( 3p)     0.00301
   146    C   10  dxy    Ryd( 3d)     0.00117
   147    C   10  dxz    Ryd( 3d)     0.00166
   148    C   10  dyz    Ryd( 3d)     0.00088
   149    C   10  dx2y2  Ryd( 3d)     0.00135
   150    C   10  dz2    Ryd( 3d)     0.00114

   151    O   11  S      Cor( 1S)     1.99979
   152    O   11  S      Val( 2S)     1.63226
   153    O   11  S      Ryd( 3S)     0.00261
   154    O   11  S      Ryd( 4S)     0.00020
   155    O   11  px     Val( 2p)     1.40234
   156    O   11  px     Ryd( 3p)     0.00151
   157    O   11  py     Val( 2p)     1.80465
   158    O   11  py     Ryd( 3p)     0.00290
   159    O   11  pz     Val( 2p)     1.76545
   160    O   11  pz     Ryd( 3p)     0.00255
   161    O   11  dxy    Ryd( 3d)     0.00061
   162    O   11  dxz    Ryd( 3d)     0.00100
   163    O   11  dyz    Ryd( 3d)     0.00122
   164    O   11  dx2y2  Ryd( 3d)     0.00064
   165    O   11  dz2    Ryd( 3d)     0.00130

   166    C   12  S      Cor( 1S)     1.99928
   167    C   12  S      Val( 2S)     1.01997
   168    C   12  S      Ryd( 3S)     0.00185
   169    C   12  S      Ryd( 4S)     0.00005
   170    C   12  px     Val( 2p)     0.96279
   171    C   12  px     Ryd( 3p)     0.00622
   172    C   12  py     Val( 2p)     1.07787
   173    C   12  py     Ryd( 3p)     0.00737
   174    C   12  pz     Val( 2p)     1.06407
   175    C   12  pz     Ryd( 3p)     0.00485
   176    C   12  dxy    Ryd( 3d)     0.00145
   177    C   12  dxz    Ryd( 3d)     0.00173
   178    C   12  dyz    Ryd( 3d)     0.00072
   179    C   12  dx2y2  Ryd( 3d)     0.00137
   180    C   12  dz2    Ryd( 3d)     0.00092

   181    C   13  S      Cor( 1S)     1.99930
   182    C   13  S      Val( 2S)     1.05299
   183    C   13  S      Ryd( 3S)     0.00113
   184    C   13  S      Ryd( 4S)     0.00002
   185    C   13  px     Val( 2p)     1.21572
   186    C   13  px     Ryd( 3p)     0.00334
   187    C   13  py     Val( 2p)     1.05295
   188    C   13  py     Ryd( 3p)     0.00149
   189    C   13  pz     Val( 2p)     1.17214
   190    C   13  pz     Ryd( 3p)     0.00202
   191    C   13  dxy    Ryd( 3d)     0.00070
   192    C   13  dxz    Ryd( 3d)     0.00078
   193    C   13  dyz    Ryd( 3d)     0.00047
   194    C   13  dx2y2  Ryd( 3d)     0.00053
   195    C   13  dz2    Ryd( 3d)     0.00062

   196    C   14  S      Cor( 1S)     1.99928
   197    C   14  S      Val( 2S)     1.06163
   198    C   14  S      Ryd( 3S)     0.00187
   199    C   14  S      Ryd( 4S)     0.00004
   200    C   14  px     Val( 2p)     1.07887
   201    C   14  px     Ryd( 3p)     0.00577
   202    C   14  py     Val( 2p)     1.11848
   203    C   14  py     Ryd( 3p)     0.00079
   204    C   14  pz     Val( 2p)     1.08205
   205    C   14  pz     Ryd( 3p)     0.00599
   206    C   14  dxy    Ryd( 3d)     0.00084
   207    C   14  dxz    Ryd( 3d)     0.00152
   208    C   14  dyz    Ryd( 3d)     0.00063
   209    C   14  dx2y2  Ryd( 3d)     0.00062
   210    C   14  dz2    Ryd( 3d)     0.00079

   211    N   15  S      Cor( 1S)     1.99934
   212    N   15  S      Val( 2S)     1.50342
   213    N   15  S      Ryd( 3S)     0.01383
   214    N   15  S      Ryd( 4S)     0.00002
   215    N   15  px     Val( 2p)     1.20435
   216    N   15  px     Ryd( 3p)     0.00000
   217    N   15  py     Val( 2p)     1.26504
   218    N   15  py     Ryd( 3p)     0.00072
   219    N   15  pz     Val( 2p)     1.36878
   220    N   15  pz     Ryd( 3p)     0.00260
   221    N   15  dxy    Ryd( 3d)     0.00000
   222    N   15  dxz    Ryd( 3d)     0.00086
   223    N   15  dyz    Ryd( 3d)     0.00015
   224    N   15  dx2y2  Ryd( 3d)     0.00083
   225    N   15  dz2    Ryd( 3d)     0.00051

   226    H   16  S      Val( 1S)     0.60657
   227    H   16  S      Ryd( 2S)     0.00125
   228    H   16  px     Ryd( 2p)     0.00049
   229    H   16  py     Ryd( 2p)     0.00036
   230    H   16  pz     Ryd( 2p)     0.00057

   231    H   17  S      Val( 1S)     0.61326
   232    H   17  S      Ryd( 2S)     0.00147
   233    H   17  px     Ryd( 2p)     0.00029
   234    H   17  py     Ryd( 2p)     0.00046
   235    H   17  pz     Ryd( 2p)     0.00067

   236    H   18  S      Val( 1S)     0.79227
   237    H   18  S      Ryd( 2S)     0.00217
   238    H   18  px     Ryd( 2p)     0.00009
   239    H   18  py     Ryd( 2p)     0.00011
   240    H   18  pz     Ryd( 2p)     0.00037

   241    H   19  S      Val( 1S)     0.77184
   242    H   19  S      Ryd( 2S)     0.00158
   243    H   19  px     Ryd( 2p)     0.00009
   244    H   19  py     Ryd( 2p)     0.00026
   245    H   19  pz     Ryd( 2p)     0.00020

   246    H   20  S      Val( 1S)     0.75781
   247    H   20  S      Ryd( 2S)     0.00268
   248    H   20  px     Ryd( 2p)     0.00009
   249    H   20  py     Ryd( 2p)     0.00011
   250    H   20  pz     Ryd( 2p)     0.00033

   251    H   21  S      Val( 1S)     0.76668
   252    H   21  S      Ryd( 2S)     0.00144
   253    H   21  px     Ryd( 2p)     0.00013
   254    H   21  py     Ryd( 2p)     0.00027
   255    H   21  pz     Ryd( 2p)     0.00017

   256    H   22  S      Val( 1S)     0.77225
   257    H   22  S      Ryd( 2S)     0.00129
   258    H   22  px     Ryd( 2p)     0.00008
   259    H   22  py     Ryd( 2p)     0.00030
   260    H   22  pz     Ryd( 2p)     0.00020

   261    H   23  S      Val( 1S)     0.79421
   262    H   23  S      Ryd( 2S)     0.00222
   263    H   23  px     Ryd( 2p)     0.00009
   264    H   23  py     Ryd( 2p)     0.00013
   265    H   23  pz     Ryd( 2p)     0.00037

   266    H   24  S      Val( 1S)     0.78697
   267    H   24  S      Ryd( 2S)     0.00280
   268    H   24  px     Ryd( 2p)     0.00011
   269    H   24  py     Ryd( 2p)     0.00015
   270    H   24  pz     Ryd( 2p)     0.00033

   271    H   25  S      Val( 1S)     0.78447
   272    H   25  S      Ryd( 2S)     0.00202
   273    H   25  px     Ryd( 2p)     0.00021
   274    H   25  py     Ryd( 2p)     0.00031
   275    H   25  pz     Ryd( 2p)     0.00009

   276    H   26  S      Val( 1S)     0.78368
   277    H   26  S      Ryd( 2S)     0.00206
   278    H   26  px     Ryd( 2p)     0.00018
   279    H   26  py     Ryd( 2p)     0.00024
   280    H   26  pz     Ryd( 2p)     0.00019

   281    H   27  S      Val( 1S)     0.78629
   282    H   27  S      Ryd( 2S)     0.00293
   283    H   27  px     Ryd( 2p)     0.00010
   284    H   27  py     Ryd( 2p)     0.00009
   285    H   27  pz     Ryd( 2p)     0.00039

   286    H   28  S      Val( 1S)     0.77193
   287    H   28  S      Ryd( 2S)     0.00275
   288    H   28  px     Ryd( 2p)     0.00010
   289    H   28  py     Ryd( 2p)     0.00037
   290    H   28  pz     Ryd( 2p)     0.00010

   291    H   29  S      Val( 1S)     0.79314
   292    H   29  S      Ryd( 2S)     0.00271
   293    H   29  px     Ryd( 2p)     0.00008
   294    H   29  py     Ryd( 2p)     0.00017
   295    H   29  pz     Ryd( 2p)     0.00034

   296    H   30  S      Val( 1S)     0.80084
   297    H   30  S      Ryd( 2S)     0.00550
   298    H   30  px     Ryd( 2p)     0.00012
   299    H   30  py     Ryd( 2p)     0.00039
   300    H   30  pz     Ryd( 2p)     0.00010

   301    H   31  S      Val( 1S)     0.80647
   302    H   31  S      Ryd( 2S)     0.00918
   303    H   31  px     Ryd( 2p)     0.00011
   304    H   31  py     Ryd( 2p)     0.00017
   305    H   31  pz     Ryd( 2p)     0.00033

   306    H   32  S      Val( 1S)     0.81229
   307    H   32  S      Ryd( 2S)     0.01330
   308    H   32  px     Ryd( 2p)     0.00012
   309    H   32  py     Ryd( 2p)     0.00035
   310    H   32  pz     Ryd( 2p)     0.00010

   311    H   33  S      Val( 1S)     0.79610
   312    H   33  S      Ryd( 2S)     0.01973
   313    H   33  px     Ryd( 2p)     0.00021
   314    H   33  py     Ryd( 2p)     0.00016
   315    H   33  pz     Ryd( 2p)     0.00025

   316    H   34  S      Val( 1S)     0.76026
   317    H   34  S      Ryd( 2S)     0.01055
   318    H   34  px     Ryd( 2p)     0.00021
   319    H   34  py     Ryd( 2p)     0.00010
   320    H   34  pz     Ryd( 2p)     0.00025

   321    H   35  S      Val( 1S)     0.75162
   322    H   35  S      Ryd( 2S)     0.00768
   323    H   35  px     Ryd( 2p)     0.00026
   324    H   35  py     Ryd( 2p)     0.00020
   325    H   35  pz     Ryd( 2p)     0.00011

   326    H   36  S      Val( 1S)     0.76229
   327    H   36  S      Ryd( 2S)     0.02305
   328    H   36  px     Ryd( 2p)     0.00012
   329    H   36  py     Ryd( 2p)     0.00008
   330    H   36  pz     Ryd( 2p)     0.00032

   331    H   37  S      Val( 1S)     0.70540
   332    H   37  S      Ryd( 2S)     0.02736
   333    H   37  px     Ryd( 2p)     0.00031
   334    H   37  py     Ryd( 2p)     0.00018
   335    H   37  pz     Ryd( 2p)     0.00007

   336    H   38  S      Val( 1S)     0.68522
   337    H   38  S      Ryd( 2S)     0.06757
   338    H   38  px     Ryd( 2p)     0.00025
   339    H   38  py     Ryd( 2p)     0.00072
   340    H   38  pz     Ryd( 2p)     0.00025

   341    H   39  S      Val( 1S)     0.69305
   342    H   39  S      Ryd( 2S)     0.07306
   343    H   39  px     Ryd( 2p)     0.00042
   344    H   39  py     Ryd( 2p)     0.00018
   345    H   39  pz     Ryd( 2p)     0.00063


 Summary of Natural Population Analysis:                  
                                                          
                                       Natural Population 
                Natural  -----------------------------------------------
    Atom  No    Charge         Core      Valence    Rydberg      Total
 -----------------------------------------------------------------------
      N    1   -0.92712      1.99968     5.91252    0.01492     7.92712
      C    2   -0.26245      1.99936     4.24996    0.01313     6.26245
      C    3   -0.50619      1.99932     4.49512    0.01175     6.50619
      C    4   -0.10592      1.99927     4.08828    0.01838     6.10592
      O    5   -0.59699      1.99980     6.58438    0.01281     8.59699
      C    6   -0.12966      1.99925     4.11330    0.01711     6.12966
      C    7   -0.13020      1.99925     4.11373    0.01722     6.13020
      O    8   -0.60053      1.99980     6.58754    0.01320     8.60053
      C    9   -0.12853      1.99927     4.10792    0.02133     6.12853
      C   10   -0.16257      1.99930     4.14062    0.02265     6.16257
      O   11   -0.61906      1.99979     6.60471    0.01455     8.61906
      C   12   -0.15052      1.99928     4.12471    0.02653     6.15052
      C   13   -0.50420      1.99930     4.49379    0.01111     6.50420
      C   14   -0.35917      1.99928     4.34103    0.01886     6.35917
      N   15   -0.36046      1.99934     5.34158    0.01954     7.36046
      H   16    0.39077      0.00000     0.60657    0.00266     0.60923
      H   17    0.38385      0.00000     0.61326    0.00289     0.61615
      H   18    0.20499      0.00000     0.79227    0.00274     0.79501
      H   19    0.22603      0.00000     0.77184    0.00214     0.77397
      H   20    0.23899      0.00000     0.75781    0.00321     0.76101
      H   21    0.23131      0.00000     0.76668    0.00201     0.76869
      H   22    0.22589      0.00000     0.77225    0.00186     0.77411
      H   23    0.20298      0.00000     0.79421    0.00281     0.79702
      H   24    0.20964      0.00000     0.78697    0.00338     0.79036
      H   25    0.21291      0.00000     0.78447    0.00263     0.78709
      H   26    0.21365      0.00000     0.78368    0.00267     0.78635
      H   27    0.21020      0.00000     0.78629    0.00351     0.78980
      H   28    0.22475      0.00000     0.77193    0.00332     0.77525
      H   29    0.20356      0.00000     0.79314    0.00330     0.79644
      H   30    0.19305      0.00000     0.80084    0.00611     0.80695
      H   31    0.18374      0.00000     0.80647    0.00979     0.81626
      H   32    0.17383      0.00000     0.81229    0.01388     0.82617
      H   33    0.18355      0.00000     0.79610    0.02035     0.81645
      H   34    0.22862      0.00000     0.76026    0.01112     0.77138
      H   35    0.24014      0.00000     0.75162    0.00824     0.75986
      H   36    0.21414      0.00000     0.76229    0.02356     0.78586
      H   37    0.26668      0.00000     0.70540    0.02792     0.73332
      H   38    0.24600      0.00000     0.68522    0.06878     0.75400
      H   39    0.23266      0.00000     0.69305    0.07429     0.76734
 =======================================================================
   * Total *   -0.00164     29.99129    91.45409    0.55625   122.00164

                                 Natural Population      
 --------------------------------------------------------
   Core                      29.99129 ( 99.9710% of  30)
   Valence                   91.45409 ( 99.4066% of  92)
   Natural Minimal Basis    121.44538 ( 99.5454% of 122)
   Natural Rydberg Basis      0.55625 (  0.4559% of 122)
 --------------------------------------------------------

    Atom  No          Natural Electron Configuration
 ----------------------------------------------------------------------------
      N    1      [core]2S( 1.45)2p( 4.46)3p( 0.01)
      C    2      [core]2S( 1.02)2p( 3.23)3p( 0.01)
      C    3      [core]2S( 1.05)2p( 3.44)3p( 0.01)
      C    4      [core]2S( 1.02)2p( 3.07)3p( 0.01)3d( 0.01)
      O    5      [core]2S( 1.62)2p( 4.97)3p( 0.01)
      C    6      [core]2S( 1.03)2p( 3.09)3p( 0.01)3d( 0.01)
      C    7      [core]2S( 1.03)2p( 3.08)3p( 0.01)3d( 0.01)
      O    8      [core]2S( 1.62)2p( 4.97)3p( 0.01)
      C    9      [core]2S( 1.03)2p( 3.08)3p( 0.01)3d( 0.01)
      C   10      [core]2S( 1.03)2p( 3.11)3p( 0.01)3d( 0.01)
      O   11      [core]2S( 1.63)2p( 4.97)3p( 0.01)
      C   12      [core]2S( 1.02)2p( 3.10)3p( 0.02)3d( 0.01)
      C   13      [core]2S( 1.05)2p( 3.44)3p( 0.01)
      C   14      [core]2S( 1.06)2p( 3.28)3p( 0.01)
      N   15      [core]2S( 1.50)2p( 3.84)3S( 0.01)
      H   16            1S( 0.61)
      H   17            1S( 0.61)
      H   18            1S( 0.79)
      H   19            1S( 0.77)
      H   20            1S( 0.76)
      H   21            1S( 0.77)
      H   22            1S( 0.77)
      H   23            1S( 0.79)
      H   24            1S( 0.79)
      H   25            1S( 0.78)
      H   26            1S( 0.78)
      H   27            1S( 0.79)
      H   28            1S( 0.77)
      H   29            1S( 0.79)
      H   30            1S( 0.80)2S( 0.01)
      H   31            1S( 0.81)2S( 0.01)
      H   32            1S( 0.81)2S( 0.01)
      H   33            1S( 0.80)2S( 0.02)
      H   34            1S( 0.76)2S( 0.01)
      H   35            1S( 0.75)2S( 0.01)
      H   36            1S( 0.76)2S( 0.02)
      H   37            1S( 0.71)2S( 0.03)
      H   38            1S( 0.69)2S( 0.07)
      H   39            1S( 0.69)2S( 0.07)


 NBO analysis skipped by request.
 1\1\GINC-DRG2-W002\SP\RB3LYP TD-FC\6-31G(d,p)\C10H24N2O3\QDUEZ\18-Jul-
 2024\0\\# TD(NStates=10, Root=1) B3LYP/6-31G** SCRF=(Solvent=water) vo
 lume pop=NPA density=current Geom=AllCheck Guess=Read\\JCEZOHLWDIONSP-
 UHFFFAOYSA-N_conf_4\\0,1\N,0,7.5765408116,-0.3142983591,-0.1425057127\
 C,0,6.4317491727,0.0319917929,-0.9997954224\C,0,5.1576819829,0.1812601
 308,-0.1649460335\C,0,3.9491558358,0.5777039333,-1.0165529668\O,0,2.76
 4663012,0.8061804442,-0.2572490589\C,0,2.1071472272,-0.3763770586,0.17
 2762409\C,0,0.785413503,-0.0045618051,0.812306161\O,0,-0.0886158842,0.
 5038691962,-0.1890960257\C,0,-1.3053270967,1.0407167419,0.307851586\C,
 0,-2.3419009102,-0.0404991902,0.6175682948\O,0,-3.5368670217,0.6293214
 897,0.991558427\C,0,-4.5604177148,-0.2241611176,1.5036792993\C,0,-5.24
 37443515,-1.0911114665,0.4416671414\C,0,-5.7761053625,-0.3003702193,-0
 .758381428\N,0,-6.759908117,0.7152328294,-0.3451457336\H,0,8.411365802
 9,-0.3879918368,-0.7212865087\H,0,7.4320333558,-1.2510312514,0.2326268
 6\H,0,6.251451699,-0.6988139171,-1.8070988997\H,0,6.6583000509,0.98661
 70415,-1.4913647068\H,0,5.3167134372,0.940602219,0.6095375925\H,0,4.95
 67705472,-0.7666602543,0.3513181719\H,0,4.1540666796,1.5235310847,-1.5
 308426014\H,0,3.7588645945,-0.1836674222,-1.7897757964\H,0,1.928335972
 9,-1.0496458229,-0.6804473725\H,0,2.7061210141,-0.9277220683,0.9126284
 916\H,0,0.368318174,-0.8998040808,1.2960407435\H,0,0.9522957331,0.7526
 739028,1.5935913136\H,0,-1.701963105,1.6944196324,-0.4758124391\H,0,-1
 .1305608983,1.655086026,1.2032819667\H,0,-2.0001143958,-0.6936651941,1
 .4353371642\H,0,-2.4841168159,-0.6682466488,-0.2737176026\H,0,-4.15291
 56309,-0.8611288177,2.3036647158\H,0,-5.2931072884,0.4491150652,1.9602
 726114\H,0,-4.5524704786,-1.861776156,0.0797058691\H,0,-6.0735551671,-
 1.6156940754,0.9318105275\H,0,-6.2785840133,-0.9969742123,-1.438714784
 \H,0,-4.9243227291,0.1229881147,-1.3139204018\H,0,-7.1974426157,1.1040
 018263,-1.1782826292\H,0,-6.2649490097,1.4988895039,0.0771516849\\Vers
 ion=ES64L-G16RevA.03\State=1-A\HF=-730.6785152\RMSD=1.605e-09\Dipole=-
 0.87625,-1.5780308,-0.6843418\Quadrupole=16.7681917,-8.454289,-8.31390
 26,-6.7921939,-2.9050048,-1.21436\PG=C01 [X(C10H24N2O3)]\\@


 IF YOU PERCEIVE THAT THERE ARE FOUR POSSIBLE WAYS IN
 WHICH A PROCEDURE CAN GO WRONG AND CIRCUMVENT THESE, 
 THEN A FIFTH WAY WILL DEVELOP.

                              -- MURPHY'S TWELFTH LAW
 Job cpu time:       0 days  1 hours  0 minutes 51.6 seconds.
 Elapsed time:       0 days  0 hours 20 minutes 20.8 seconds.
 File lengths (MBytes):  RWF=   1019 Int=      0 D2E=      0 Chk=     63 Scr=      1
 Normal termination of Gaussian 16 at Thu Jul 18 04:40:39 2024.
