 Entering Gaussian System, Link 0=g16
 Initial command:
 /opt/sw/arch/manual/gaussian/G16_A03/g16/l1.exe "/scratch/1032081.jesse.materianova.be/Gau-27553.inp" -scrdir="/scratch/1032081.jesse.materianova.be/"
 Entering Link 1 = /opt/sw/arch/manual/gaussian/G16_A03/g16/l1.exe PID=     27554.
  
 Copyright (c) 1988,1990,1992,1993,1995,1998,2003,2009,2016,
            Gaussian, Inc.  All Rights Reserved.
  
 This is part of the Gaussian(R) 16 program.  It is based on
 the Gaussian(R) 09 system (copyright 2009, Gaussian, Inc.),
 the Gaussian(R) 03 system (copyright 2003, Gaussian, Inc.),
 the Gaussian(R) 98 system (copyright 1998, Gaussian, Inc.),
 the Gaussian(R) 94 system (copyright 1995, Gaussian, Inc.),
 the Gaussian 92(TM) system (copyright 1992, Gaussian, Inc.),
 the Gaussian 90(TM) system (copyright 1990, Gaussian, Inc.),
 the Gaussian 88(TM) system (copyright 1988, Gaussian, Inc.),
 the Gaussian 86(TM) system (copyright 1986, Carnegie Mellon
 University), and the Gaussian 82(TM) system (copyright 1983,
 Carnegie Mellon University). Gaussian is a federally registered
 trademark of Gaussian, Inc.
  
 This software contains proprietary and confidential information,
 including trade secrets, belonging to Gaussian, Inc.
  
 This software is provided under written license and may be
 used, copied, transmitted, or stored only in accord with that
 written license.
  
 The following legend is applicable only to US Government
 contracts under FAR:
  
                    RESTRICTED RIGHTS LEGEND
  
 Use, reproduction and disclosure by the US Government is
 subject to restrictions as set forth in subparagraphs (a)
 and (c) of the Commercial Computer Software - Restricted
 Rights clause in FAR 52.227-19.
  
 Gaussian, Inc.
 340 Quinnipiac St., Bldg. 40, Wallingford CT 06492
  
  
 ---------------------------------------------------------------
 Warning -- This program may not be used in any manner that
 competes with the business of Gaussian, Inc. or will provide
 assistance to any competitor of Gaussian, Inc.  The licensee
 of this program is prohibited from giving any competitor of
 Gaussian, Inc. access to this program.  By using this program,
 the user acknowledges that Gaussian, Inc. is engaged in the
 business of creating and licensing software in the field of
 computational chemistry and represents and warrants to the
 licensee that it is not a competitor of Gaussian, Inc. and that
 it will not use this program in any manner prohibited above.
 ---------------------------------------------------------------
  

 Cite this work as:
 Gaussian 16, Revision A.03,
 M. J. Frisch, G. W. Trucks, H. B. Schlegel, G. E. Scuseria, 
 M. A. Robb, J. R. Cheeseman, G. Scalmani, V. Barone, 
 G. A. Petersson, H. Nakatsuji, X. Li, M. Caricato, A. V. Marenich, 
 J. Bloino, B. G. Janesko, R. Gomperts, B. Mennucci, H. P. Hratchian, 
 J. V. Ortiz, A. F. Izmaylov, J. L. Sonnenberg, D. Williams-Young, 
 F. Ding, F. Lipparini, F. Egidi, J. Goings, B. Peng, A. Petrone, 
 T. Henderson, D. Ranasinghe, V. G. Zakrzewski, J. Gao, N. Rega, 
 G. Zheng, W. Liang, M. Hada, M. Ehara, K. Toyota, R. Fukuda, 
 J. Hasegawa, M. Ishida, T. Nakajima, Y. Honda, O. Kitao, H. Nakai, 
 T. Vreven, K. Throssell, J. A. Montgomery, Jr., J. E. Peralta, 
 F. Ogliaro, M. J. Bearpark, J. J. Heyd, E. N. Brothers, K. N. Kudin, 
 V. N. Staroverov, T. A. Keith, R. Kobayashi, J. Normand, 
 K. Raghavachari, A. P. Rendell, J. C. Burant, S. S. Iyengar, 
 J. Tomasi, M. Cossi, J. M. Millam, M. Klene, C. Adamo, R. Cammi, 
 J. W. Ochterski, R. L. Martin, K. Morokuma, O. Farkas, 
 J. B. Foresman, and D. J. Fox, Gaussian, Inc., Wallingford CT, 2016.
 
 ******************************************
 Gaussian 16:  EM64L-G16RevA.03 25-Dec-2016
                11-Jul-2024 
 ******************************************
 %nprocshared=3
 Will use up to    3 processors via shared memory.
 %mem=6GB
 %Chk=OCIDXARMXNJACB-UHFFFAOYSA-N_conf_2_0.chk
 -------------------------------------------------------
 # opt=CalcFc B3LYP/6-31G** SCRF=(Solvent=water) scf=xqc
 -------------------------------------------------------
 1/10=4,18=20,19=15,26=3,38=1/1,3;
 2/9=110,12=2,17=6,18=5,40=1/2;
 3/5=1,6=6,7=101,11=2,25=1,30=1,70=2201,71=2,72=1,74=-5,140=1/1,2,3;
 4//1;
 5/5=2,8=3,13=1,38=5,53=1/2,8;
 8/6=4,10=90,11=11/1;
 11/6=1,8=1,9=11,15=111,16=1/1,2,10;
 10/6=1,13=1/2;
 6/7=2,8=2,9=2,10=2,28=1/1;
 7/10=1,18=20,25=1/1,2,3,16;
 1/10=4,18=20,19=15,26=3/3(2);
 2/9=110/2;
 99//99;
 2/9=110/2;
 3/5=1,6=6,7=101,11=2,25=1,30=1,70=2205,71=1,72=1,74=-5/1,2,3;
 4/5=5,16=3,69=1/1;
 5/5=2,8=3,13=1,38=5,53=1/2,8;
 7//1,2,3,16;
 1/18=20,19=15,26=3/3(-5);
 2/9=110/2;
 6/7=2,8=2,9=2,10=2,19=2,28=1/1;
 99/9=1/99;
 ----------------------------------
 OCIDXARMXNJACB-UHFFFAOYSA-N_conf_2
 ----------------------------------
 Symbolic Z-matrix:
 Charge =  0 Multiplicity = 1
 N                     3.45653   1.04093   0.77082 
 C                     2.21083   0.26808   0.77094 
 C                     1.78902  -0.20424  -0.63487 
 N                     0.6101   -1.06555  -0.59777 
 C                    -0.66108  -0.55829  -0.32386 
 C                    -1.67675  -1.45973   0.0302 
 C                    -2.98782  -1.03155   0.26059 
 C                    -3.31498   0.31159   0.11346 
 C                    -2.33378   1.21708  -0.27703 
 C                    -1.02344   0.78083  -0.50697 
 H                     4.20502   0.48879   0.35375 
 H                     3.347     1.86512   0.1808 
 H                     2.34151  -0.60025   1.42694 
 H                     1.42317   0.88261   1.21947 
 H                     1.64665   0.64442  -1.31333 
 H                     2.60695  -0.79482  -1.06606 
 H                     0.78122  -1.948    -0.12159 
 H                    -1.45265  -2.51893   0.13046 
 H                    -3.75068  -1.75095   0.54515 
 H                    -4.33275   0.64923   0.28775 
 H                    -2.58573   2.26529  -0.41446 
 H                    -0.29831   1.51833  -0.8344 
 

 GradGradGradGradGradGradGradGradGradGradGradGradGradGradGradGradGradGrad
 Berny optimization.
 Initialization pass.
                           ----------------------------
                           !    Initial Parameters    !
                           ! (Angstroms and Degrees)  !
 --------------------------                            --------------------------
 ! Name  Definition              Value          Derivative Info.                !
 --------------------------------------------------------------------------------
 ! R1    R(1,2)                  1.466          calculate D2E/DX2 analytically  !
 ! R2    R(1,11)                 1.0193         calculate D2E/DX2 analytically  !
 ! R3    R(1,12)                 1.0195         calculate D2E/DX2 analytically  !
 ! R4    R(2,3)                  1.5419         calculate D2E/DX2 analytically  !
 ! R5    R(2,13)                 1.0961         calculate D2E/DX2 analytically  !
 ! R6    R(2,14)                 1.0951         calculate D2E/DX2 analytically  !
 ! R7    R(3,4)                  1.4605         calculate D2E/DX2 analytically  !
 ! R8    R(3,15)                 1.0958         calculate D2E/DX2 analytically  !
 ! R9    R(3,16)                 1.0971         calculate D2E/DX2 analytically  !
 ! R10   R(4,5)                  1.3958         calculate D2E/DX2 analytically  !
 ! R11   R(4,17)                 1.0172         calculate D2E/DX2 analytically  !
 ! R12   R(5,6)                  1.4034         calculate D2E/DX2 analytically  !
 ! R13   R(5,10)                 1.3993         calculate D2E/DX2 analytically  !
 ! R14   R(6,7)                  1.3983         calculate D2E/DX2 analytically  !
 ! R15   R(6,18)                 1.0873         calculate D2E/DX2 analytically  !
 ! R16   R(7,8)                  1.3902         calculate D2E/DX2 analytically  !
 ! R17   R(7,19)                 1.0865         calculate D2E/DX2 analytically  !
 ! R18   R(8,9)                  1.3911         calculate D2E/DX2 analytically  !
 ! R19   R(8,20)                 1.0864         calculate D2E/DX2 analytically  !
 ! R20   R(9,10)                 1.4001         calculate D2E/DX2 analytically  !
 ! R21   R(9,21)                 1.0868         calculate D2E/DX2 analytically  !
 ! R22   R(10,22)                1.0849         calculate D2E/DX2 analytically  !
 ! A1    A(2,1,11)             109.7816         calculate D2E/DX2 analytically  !
 ! A2    A(2,1,12)             109.5692         calculate D2E/DX2 analytically  !
 ! A3    A(11,1,12)            106.2596         calculate D2E/DX2 analytically  !
 ! A4    A(1,2,3)              113.1968         calculate D2E/DX2 analytically  !
 ! A5    A(1,2,13)             108.4444         calculate D2E/DX2 analytically  !
 ! A6    A(1,2,14)             108.3839         calculate D2E/DX2 analytically  !
 ! A7    A(3,2,13)             109.6102         calculate D2E/DX2 analytically  !
 ! A8    A(3,2,14)             110.4004         calculate D2E/DX2 analytically  !
 ! A9    A(13,2,14)            106.5695         calculate D2E/DX2 analytically  !
 ! A10   A(2,3,4)              112.2298         calculate D2E/DX2 analytically  !
 ! A11   A(2,3,15)             111.2727         calculate D2E/DX2 analytically  !
 ! A12   A(2,3,16)             108.6195         calculate D2E/DX2 analytically  !
 ! A13   A(4,3,15)             111.5664         calculate D2E/DX2 analytically  !
 ! A14   A(4,3,16)             107.1164         calculate D2E/DX2 analytically  !
 ! A15   A(15,3,16)            105.6886         calculate D2E/DX2 analytically  !
 ! A16   A(3,4,5)              121.722          calculate D2E/DX2 analytically  !
 ! A17   A(3,4,17)             112.8114         calculate D2E/DX2 analytically  !
 ! A18   A(5,4,17)             112.124          calculate D2E/DX2 analytically  !
 ! A19   A(4,5,6)              118.3713         calculate D2E/DX2 analytically  !
 ! A20   A(4,5,10)             123.914          calculate D2E/DX2 analytically  !
 ! A21   A(6,5,10)             117.406          calculate D2E/DX2 analytically  !
 ! A22   A(5,6,7)              121.5633         calculate D2E/DX2 analytically  !
 ! A23   A(5,6,18)             119.9891         calculate D2E/DX2 analytically  !
 ! A24   A(7,6,18)             118.4476         calculate D2E/DX2 analytically  !
 ! A25   A(6,7,8)              119.9373         calculate D2E/DX2 analytically  !
 ! A26   A(6,7,19)             119.9155         calculate D2E/DX2 analytically  !
 ! A27   A(8,7,19)             120.1447         calculate D2E/DX2 analytically  !
 ! A28   A(7,8,9)              119.511          calculate D2E/DX2 analytically  !
 ! A29   A(7,8,20)             120.2491         calculate D2E/DX2 analytically  !
 ! A30   A(9,8,20)             120.2337         calculate D2E/DX2 analytically  !
 ! A31   A(8,9,10)             120.2264         calculate D2E/DX2 analytically  !
 ! A32   A(8,9,21)             119.9856         calculate D2E/DX2 analytically  !
 ! A33   A(10,9,21)            119.785          calculate D2E/DX2 analytically  !
 ! A34   A(5,10,9)             121.2697         calculate D2E/DX2 analytically  !
 ! A35   A(5,10,22)            121.1293         calculate D2E/DX2 analytically  !
 ! A36   A(9,10,22)            117.6009         calculate D2E/DX2 analytically  !
 ! D1    D(11,1,2,3)           -56.9729         calculate D2E/DX2 analytically  !
 ! D2    D(11,1,2,13)           64.8863         calculate D2E/DX2 analytically  !
 ! D3    D(11,1,2,14)         -179.7964         calculate D2E/DX2 analytically  !
 ! D4    D(12,1,2,3)            59.3634         calculate D2E/DX2 analytically  !
 ! D5    D(12,1,2,13)         -178.7773         calculate D2E/DX2 analytically  !
 ! D6    D(12,1,2,14)          -63.46           calculate D2E/DX2 analytically  !
 ! D7    D(1,2,3,4)            175.156          calculate D2E/DX2 analytically  !
 ! D8    D(1,2,3,15)           -59.0234         calculate D2E/DX2 analytically  !
 ! D9    D(1,2,3,16)            56.9135         calculate D2E/DX2 analytically  !
 ! D10   D(13,2,3,4)            53.952          calculate D2E/DX2 analytically  !
 ! D11   D(13,2,3,15)          179.7727         calculate D2E/DX2 analytically  !
 ! D12   D(13,2,3,16)          -64.2904         calculate D2E/DX2 analytically  !
 ! D13   D(14,2,3,4)           -63.1451         calculate D2E/DX2 analytically  !
 ! D14   D(14,2,3,15)           62.6755         calculate D2E/DX2 analytically  !
 ! D15   D(14,2,3,16)          178.6124         calculate D2E/DX2 analytically  !
 ! D16   D(2,3,4,5)             72.2516         calculate D2E/DX2 analytically  !
 ! D17   D(2,3,4,17)           -65.5065         calculate D2E/DX2 analytically  !
 ! D18   D(15,3,4,5)           -53.409          calculate D2E/DX2 analytically  !
 ! D19   D(15,3,4,17)          168.8329         calculate D2E/DX2 analytically  !
 ! D20   D(16,3,4,5)          -168.6203         calculate D2E/DX2 analytically  !
 ! D21   D(16,3,4,17)           53.6216         calculate D2E/DX2 analytically  !
 ! D22   D(3,4,5,6)           -164.0269         calculate D2E/DX2 analytically  !
 ! D23   D(3,4,5,10)            22.5303         calculate D2E/DX2 analytically  !
 ! D24   D(17,4,5,6)           -26.0118         calculate D2E/DX2 analytically  !
 ! D25   D(17,4,5,10)          160.5453         calculate D2E/DX2 analytically  !
 ! D26   D(4,5,6,7)           -177.1278         calculate D2E/DX2 analytically  !
 ! D27   D(4,5,6,18)             2.8272         calculate D2E/DX2 analytically  !
 ! D28   D(10,5,6,7)            -3.2556         calculate D2E/DX2 analytically  !
 ! D29   D(10,5,6,18)          176.6993         calculate D2E/DX2 analytically  !
 ! D30   D(4,5,10,9)           176.7981         calculate D2E/DX2 analytically  !
 ! D31   D(4,5,10,22)           -3.0858         calculate D2E/DX2 analytically  !
 ! D32   D(6,5,10,9)             3.2967         calculate D2E/DX2 analytically  !
 ! D33   D(6,5,10,22)         -176.5871         calculate D2E/DX2 analytically  !
 ! D34   D(5,6,7,8)              1.3146         calculate D2E/DX2 analytically  !
 ! D35   D(5,6,7,19)          -179.2591         calculate D2E/DX2 analytically  !
 ! D36   D(18,6,7,8)          -178.6411         calculate D2E/DX2 analytically  !
 ! D37   D(18,6,7,19)            0.7852         calculate D2E/DX2 analytically  !
 ! D38   D(6,7,8,9)              0.6907         calculate D2E/DX2 analytically  !
 ! D39   D(6,7,8,20)           179.7834         calculate D2E/DX2 analytically  !
 ! D40   D(19,7,8,9)          -178.7342         calculate D2E/DX2 analytically  !
 ! D41   D(19,7,8,20)            0.3585         calculate D2E/DX2 analytically  !
 ! D42   D(7,8,9,10)            -0.6423         calculate D2E/DX2 analytically  !
 ! D43   D(7,8,9,21)           178.728          calculate D2E/DX2 analytically  !
 ! D44   D(20,8,9,10)         -179.7351         calculate D2E/DX2 analytically  !
 ! D45   D(20,8,9,21)           -0.3648         calculate D2E/DX2 analytically  !
 ! D46   D(8,9,10,5)            -1.4164         calculate D2E/DX2 analytically  !
 ! D47   D(8,9,10,22)          178.4714         calculate D2E/DX2 analytically  !
 ! D48   D(21,9,10,5)          179.212          calculate D2E/DX2 analytically  !
 ! D49   D(21,9,10,22)          -0.9002         calculate D2E/DX2 analytically  !
 --------------------------------------------------------------------------------
 Trust Radius=3.00D-01 FncErr=1.00D-07 GrdErr=1.00D-06 EigMax=2.50D+02 EigMin=1.00D-04
 Number of steps in this run=    117 maximum allowed number of steps=    132.
 GradGradGradGradGradGradGradGradGradGradGradGradGradGradGradGradGradGrad

                          Input orientation:                          
 ---------------------------------------------------------------------
 Center     Atomic      Atomic             Coordinates (Angstroms)
 Number     Number       Type             X           Y           Z
 ---------------------------------------------------------------------
      1          7           0        3.456529    1.040927    0.770820
      2          6           0        2.210827    0.268082    0.770940
      3          6           0        1.789018   -0.204242   -0.634868
      4          7           0        0.610096   -1.065551   -0.597767
      5          6           0       -0.661079   -0.558293   -0.323859
      6          6           0       -1.676749   -1.459730    0.030204
      7          6           0       -2.987817   -1.031550    0.260590
      8          6           0       -3.314982    0.311588    0.113462
      9          6           0       -2.333775    1.217081   -0.277034
     10          6           0       -1.023445    0.780825   -0.506972
     11          1           0        4.205020    0.488787    0.353751
     12          1           0        3.346997    1.865124    0.180796
     13          1           0        2.341507   -0.600252    1.426945
     14          1           0        1.423165    0.882613    1.219475
     15          1           0        1.646649    0.644424   -1.313329
     16          1           0        2.606947   -0.794819   -1.066060
     17          1           0        0.781216   -1.947996   -0.121593
     18          1           0       -1.452654   -2.518927    0.130457
     19          1           0       -3.750684   -1.750946    0.545147
     20          1           0       -4.332752    0.649231    0.287753
     21          1           0       -2.585730    2.265289   -0.414460
     22          1           0       -0.298307    1.518335   -0.834396
 ---------------------------------------------------------------------
                    Distance matrix (angstroms):
                    1          2          3          4          5
     1  N    0.000000
     2  C    1.465968   0.000000
     3  C    2.511373   1.541853   0.000000
     4  N    3.796374   2.492845   1.460509   0.000000
     5  C    4.550881   3.182660   2.495006   1.395788   0.000000
     6  C    5.757807   4.318249   3.745679   2.404035   1.403402
     7  C    6.788600   5.382881   4.929953   3.699042   2.445253
     8  C    6.842325   5.564956   5.184293   4.220024   2.826861
     9  C    5.886990   4.759439   4.375572   3.738938   2.439684
    10  C    4.665894   3.515179   2.982728   2.466942   1.399313
    11  H    1.019336   2.049284   2.700874   4.030487   5.023390
    12  H    1.019523   2.046875   2.715674   4.084806   4.710870
    13  H    2.089795   1.096094   2.170976   2.704393   3.476003
    14  H    2.088282   1.095100   2.180296   2.785461   2.966844
    15  H    2.788648   2.191828   1.095816   2.123790   2.784095
    16  H    2.732376   2.158990   1.097140   2.068817   3.359583
    17  H    4.109423   2.784135   2.078411   1.017219   2.013058
    18  H    6.097762   4.647444   4.056098   2.626319   2.162656
    19  H    7.732361   6.298180   5.871374   4.559871   3.423924
    20  H    7.814069   6.572455   6.249457   5.306258   3.913229
    21  H    6.277965   5.329256   5.028477   4.619676   3.418348
    22  H    4.111378   3.230478   2.713670   2.749118   2.169016
                    6          7          8          9         10
     6  C    0.000000
     7  C    1.398327   0.000000
     8  C    2.414189   1.390217   0.000000
     9  C    2.773337   2.402738   1.391104   0.000000
    10  C    2.394881   2.780758   2.419972   1.400056   0.000000
    11  H    6.204563   7.352347   7.525926   6.609398   5.306880
    12  H    6.026223   6.966130   6.841051   5.735917   4.555161
    13  H    4.340042   5.472485   5.878142   5.297594   4.119503
    14  H    4.063299   4.903085   4.898915   4.057833   2.996144
    15  H    4.156623   5.173431   5.173422   4.152785   2.792529
    16  H    4.471459   5.754774   6.138782   5.392684   3.996871
    17  H    2.510585   3.897634   4.683995   4.443540   3.294205
    18  H    1.087275   2.141483   3.388269   3.860075   3.388053
    19  H    2.156660   1.086494   2.151798   3.390103   3.867125
    20  H    3.401235   2.152814   1.086386   2.153450   3.405938
    21  H    3.860019   3.389176   2.151152   1.086788   2.157064
    22  H    3.393598   3.864501   3.384524   2.131792   1.084874
                   11         12         13         14         15
    11  H    0.000000
    12  H    1.631080   0.000000
    13  H    2.410484   2.939724   0.000000
    14  H    2.939948   2.396938   1.756498   0.000000
    15  H    3.057555   2.571713   3.088875   2.553777   0.000000
    16  H    2.493460   3.029459   2.514634   3.072261   1.747779
    17  H    4.229219   4.605926   2.578544   3.197329   2.981585
    18  H    6.411356   6.500700   4.444981   4.585496   4.658003
    19  H    8.267180   7.974070   6.262304   5.844576   6.190552
    20  H    8.539534   7.776142   6.885107   5.835508   6.190050
    21  H    7.061190   5.975928   5.989971   4.544532   4.620412
    22  H    4.769865   3.799884   4.070711   2.754268   2.185395
                   16         17         18         19         20
    16  H    0.000000
    17  H    2.356932   0.000000
    18  H    4.569963   2.319412   0.000000
    19  H    6.627944   4.584920   2.458191   0.000000
    20  H    7.216475   5.750289   4.284498   2.483124   0.000000
    21  H    6.062404   5.401284   4.946667   4.290467   2.481296
    22  H    3.720866   3.699852   4.308473   4.950782   4.276834
                   21         22
    21  H    0.000000
    22  H    2.442661   0.000000
 Stoichiometry    C8H12N2
 Framework group  C1[X(C8H12N2)]
 Deg. of freedom    60
 Full point group                 C1      NOp   1
 Largest Abelian subgroup         C1      NOp   1
 Largest concise Abelian subgroup C1      NOp   1
                         Standard orientation:                         
 ---------------------------------------------------------------------
 Center     Atomic      Atomic             Coordinates (Angstroms)
 Number     Number       Type             X           Y           Z
 ---------------------------------------------------------------------
      1          7           0       -3.801316    0.711390   -0.556468
      2          6           0       -2.480929    0.082761   -0.658769
      3          6           0       -1.934914   -0.407338    0.697321
      4          7           0       -0.673212   -1.129409    0.556582
      5          6           0        0.518703   -0.471280    0.249291
      6          6           0        1.605566   -1.235967   -0.201838
      7          6           0        2.848017   -0.654006   -0.471936
      8          6           0        3.034938    0.708457   -0.268323
      9          6           0        1.983814    1.479235    0.217693
     10          6           0        0.742948    0.889362    0.486871
     11          1           0       -4.461789    0.059883   -0.134140
     12          1           0       -3.750135    1.513072    0.071316
     13          1           0       -2.551882   -0.761885   -1.353724
     14          1           0       -1.790049    0.802078   -1.110998
     15          1           0       -1.849009    0.417996    1.413043
     16          1           0       -2.659375   -1.105402    1.135016
     17          1           0       -0.773046   -2.001277    0.042177
     18          1           0        1.492671   -2.307398   -0.348319
     19          1           0        3.667945   -1.269474   -0.831642
     20          1           0        3.999118    1.165218   -0.473170
     21          1           0        2.127568    2.541054    0.399304
     22          1           0       -0.039176    1.524926    0.888484
 ---------------------------------------------------------------------
 Rotational constants (GHZ):           3.2104461           0.6729902           0.6045218
 Standard basis: 6-31G(d,p) (6D, 7F)
 There are   210 symmetry adapted cartesian basis functions of A   symmetry.
 There are   210 symmetry adapted basis functions of A   symmetry.
   210 basis functions,   364 primitive gaussians,   210 cartesian basis functions
    37 alpha electrons       37 beta electrons
       nuclear repulsion energy       499.6011985029 Hartrees.
 NAtoms=   22 NActive=   22 NUniq=   22 SFac= 1.00D+00 NAtFMM=   60 NAOKFM=F Big=F
 Integral buffers will be    131072 words long.
 Raffenetti 2 integral format.
 Two-electron integral symmetry is turned on.
 Force inversion solution in PCM.
 ------------------------------------------------------------------------------
 Polarizable Continuum Model (PCM)
 =================================
 Model                : PCM.
 Atomic radii         : UFF (Universal Force Field).
 Polarization charges : Total charges.
 Charge compensation  : None.
 Solution method      : Matrix inversion.
 Cavity type          : Scaled VdW (van der Waals Surface) (Alpha=1.100).
 Cavity algorithm     : GePol (No added spheres)
                        Default sphere list used, NSphG=   22.
                        Lebedev-Laikov grids with approx.  5.0 points / Ang**2.
                        Smoothing algorithm: York/Karplus (Gamma=1.0000).
                        Polarization charges: spherical gaussians, with
                                              point-specific exponents (IZeta= 3).
                        Self-potential: point-specific (ISelfS= 7).
                        Self-field    : sphere-specific E.n sum rule (ISelfD= 2).
 1st derivatives      : Analytical E(r).r(x)/FMM algorithm (CHGder, D1EAlg=3).
                        Cavity 1st derivative terms included.
 2nd derivatives      : Analytical E(r).r(xy)/FMM algorithm (CHGder, D2EAlg=3).
                        Cavity 2nd derivative terms included.
 Solvent              : Water, Eps=  78.355300 Eps(inf)=   1.777849
 ------------------------------------------------------------------------------
 One-electron integrals computed using PRISM.
 NBasis=   210 RedAO= T EigKep=  4.52D-04  NBF=   210
 NBsUse=   210 1.00D-06 EigRej= -1.00D+00 NBFU=   210
 ExpMin= 1.61D-01 ExpMax= 4.17D+03 ExpMxC= 6.27D+02 IAcc=3 IRadAn=         5 AccDes= 0.00D+00
 Harris functional with IExCor=  402 and IRadAn=       5 diagonalized for initial guess.
 HarFok:  IExCor=  402 AccDes= 0.00D+00 IRadAn=         5 IDoV= 1 UseB2=F ITyADJ=14
 ICtDFT=  3500011 ScaDFX=  1.000000  1.000000  1.000000  1.000000
 FoFCou: FMM=F IPFlag=           0 FMFlag=      100000 FMFlg1=           0
         NFxFlg=           0 DoJE=T BraDBF=F KetDBF=T FulRan=T
         wScrn=  0.000000 ICntrl=       500 IOpCl=  0 I1Cent=   200000004 NGrid=           0
         NMat0=    1 NMatS0=      1 NMatT0=    0 NMatD0=    1 NMtDS0=    0 NMtDT0=    0
 Petite list used in FoFCou.
 Keep R1 ints in memory in canonical form, NReq=250131393.
 Requested convergence on RMS density matrix=1.00D-08 within  32 cycles.
 Requested convergence on MAX density matrix=1.00D-06.
 Requested convergence on             energy=1.00D-06.
 No special actions if energy rises.
 Inv3:  Mode=1 IEnd=     8670000.
 Iteration    1 A*A^-1 deviation from unit magnitude is 5.77D-15 for   1234.
 Iteration    1 A*A^-1 deviation from orthogonality  is 4.18D-15 for   1264    145.
 Iteration    1 A^-1*A deviation from unit magnitude is 6.66D-15 for     76.
 Iteration    1 A^-1*A deviation from orthogonality  is 3.49D-15 for   1312   1028.
 Error on total polarization charges =  0.00906
 SCF Done:  E(RB3LYP) =  -421.596035291     A.U. after   12 cycles
            NFock= 12  Conv=0.47D-08     -V/T= 2.0097
 QCSCF skips out because SCF is already converged.
 DoSCS=F DFT=T ScalE2(SS,OS)=  1.000000  1.000000
 Range of M.O.s used for correlation:     1   210
 NBasis=   210 NAE=    37 NBE=    37 NFC=     0 NFV=     0
 NROrb=    210 NOA=    37 NOB=    37 NVA=   173 NVB=   173
 Symmetrizing basis deriv contribution to polar:
 IMax=3 JMax=2 DiffMx= 0.00D+00
 G2DrvN: will do    23 centers at a time, making    1 passes.
 Calling FoFCou, ICntrl=  3107 FMM=F I1Cent=   0 AccDes= 0.00D+00.
 NEqPCM:  Using equilibrium solvation (IEInf=0, Eps=  78.3553, EpsInf=   1.7778)
 G2PCM: DoFxE=T DoFxN=T DoGrad=T DoDP/DQ/DG/TGxP=FFFF NFrqRd=   0 IEInf=0 SqF1=F DoCFld=F IF1Alg=4.
 End of G2Drv F.D. properties file   721 does not exist.
 End of G2Drv F.D. properties file   722 does not exist.
 End of G2Drv F.D. properties file   788 does not exist.
          IDoAtm=1111111111111111111111
 NEqPCM:  Using equilibrium solvation (IEInf=0, Eps=  78.3553, EpsInf=   1.7778)
          Differentiating once with respect to nuclear coordinates.
 Keep R1 ints in memory in canonical form, NReq=253308507.
          There are    69 degrees of freedom in the 1st order CPHF.  IDoFFX=6 NUNeed=     0.
     63 vectors produced by pass  0 Test12= 9.28D-15 1.45D-09 XBig12= 1.32D-01 1.61D-01.
 AX will form    63 AO Fock derivatives at one time.
     63 vectors produced by pass  1 Test12= 9.28D-15 1.45D-09 XBig12= 2.12D-02 5.04D-02.
     63 vectors produced by pass  2 Test12= 9.28D-15 1.45D-09 XBig12= 1.96D-04 2.35D-03.
     63 vectors produced by pass  3 Test12= 9.28D-15 1.45D-09 XBig12= 5.82D-07 8.57D-05.
     63 vectors produced by pass  4 Test12= 9.28D-15 1.45D-09 XBig12= 6.17D-10 2.99D-06.
     36 vectors produced by pass  5 Test12= 9.28D-15 1.45D-09 XBig12= 3.54D-13 8.91D-08.
      3 vectors produced by pass  6 Test12= 9.28D-15 1.45D-09 XBig12= 2.74D-16 1.80D-09.
 InvSVY:  IOpt=1 It=  1 EMax= 4.44D-16
 Solved reduced A of dimension   354 with    69 vectors.
 End of Minotr F.D. properties file   721 does not exist.
 End of Minotr F.D. properties file   722 does not exist.
 End of Minotr F.D. properties file   788 does not exist.

 **********************************************************************

            Population analysis using the SCF density.

 **********************************************************************

 Orbital symmetries:
       Occupied  (A) (A) (A) (A) (A) (A) (A) (A) (A) (A) (A) (A)
                 (A) (A) (A) (A) (A) (A) (A) (A) (A) (A) (A) (A)
                 (A) (A) (A) (A) (A) (A) (A) (A) (A) (A) (A) (A)
                 (A)
       Virtual   (A) (A) (A) (A) (A) (A) (A) (A) (A) (A) (A) (A)
                 (A) (A) (A) (A) (A) (A) (A) (A) (A) (A) (A) (A)
                 (A) (A) (A) (A) (A) (A) (A) (A) (A) (A) (A) (A)
                 (A) (A) (A) (A) (A) (A) (A) (A) (A) (A) (A) (A)
                 (A) (A) (A) (A) (A) (A) (A) (A) (A) (A) (A) (A)
                 (A) (A) (A) (A) (A) (A) (A) (A) (A) (A) (A) (A)
                 (A) (A) (A) (A) (A) (A) (A) (A) (A) (A) (A) (A)
                 (A) (A) (A) (A) (A) (A) (A) (A) (A) (A) (A) (A)
                 (A) (A) (A) (A) (A) (A) (A) (A) (A) (A) (A) (A)
                 (A) (A) (A) (A) (A) (A) (A) (A) (A) (A) (A) (A)
                 (A) (A) (A) (A) (A) (A) (A) (A) (A) (A) (A) (A)
                 (A) (A) (A) (A) (A) (A) (A) (A) (A) (A) (A) (A)
                 (A) (A) (A) (A) (A) (A) (A) (A) (A) (A) (A) (A)
                 (A) (A) (A) (A) (A) (A) (A) (A) (A) (A) (A) (A)
                 (A) (A) (A) (A) (A)
 The electronic state is 1-A.
 Alpha  occ. eigenvalues --  -14.34040 -14.31186 -10.22484 -10.21192 -10.20407
 Alpha  occ. eigenvalues --  -10.18585 -10.18551 -10.17987 -10.17969 -10.17481
 Alpha  occ. eigenvalues --   -0.93005  -0.87545  -0.83601  -0.74456  -0.73725
 Alpha  occ. eigenvalues --   -0.69273  -0.62178  -0.60430  -0.57905  -0.52727
 Alpha  occ. eigenvalues --   -0.49398  -0.48383  -0.46532  -0.44025  -0.43546
 Alpha  occ. eigenvalues --   -0.41929  -0.41033  -0.39581  -0.38533  -0.36907
 Alpha  occ. eigenvalues --   -0.34964  -0.34180  -0.33453  -0.30061  -0.24621
 Alpha  occ. eigenvalues --   -0.24219  -0.19275
 Alpha virt. eigenvalues --    0.00074   0.01943   0.08069   0.09357   0.10477
 Alpha virt. eigenvalues --    0.12607   0.14377   0.15171   0.16487   0.16963
 Alpha virt. eigenvalues --    0.17119   0.19060   0.19347   0.20189   0.21995
 Alpha virt. eigenvalues --    0.22874   0.25600   0.26134   0.27147   0.31059
 Alpha virt. eigenvalues --    0.33389   0.35041   0.37120   0.46681   0.50520
 Alpha virt. eigenvalues --    0.52377   0.54356   0.54827   0.55352   0.57292
 Alpha virt. eigenvalues --    0.57663   0.58415   0.59546   0.60275   0.60336
 Alpha virt. eigenvalues --    0.61650   0.62130   0.63530   0.65101   0.67004
 Alpha virt. eigenvalues --    0.67244   0.69101   0.71534   0.75054   0.76285
 Alpha virt. eigenvalues --    0.76770   0.79064   0.81214   0.82371   0.82929
 Alpha virt. eigenvalues --    0.83720   0.84930   0.86918   0.89142   0.89558
 Alpha virt. eigenvalues --    0.90575   0.92063   0.92799   0.93276   0.95102
 Alpha virt. eigenvalues --    0.96615   0.98098   0.99909   1.04305   1.07864
 Alpha virt. eigenvalues --    1.09446   1.14763   1.16148   1.18147   1.19054
 Alpha virt. eigenvalues --    1.23017   1.27202   1.28818   1.35116   1.35917
 Alpha virt. eigenvalues --    1.39717   1.40960   1.41902   1.42815   1.44180
 Alpha virt. eigenvalues --    1.45733   1.50699   1.54285   1.59593   1.65481
 Alpha virt. eigenvalues --    1.72031   1.76101   1.77457   1.78438   1.80702
 Alpha virt. eigenvalues --    1.84355   1.84972   1.88504   1.90229   1.92708
 Alpha virt. eigenvalues --    1.93919   1.94328   1.97118   1.97291   1.98071
 Alpha virt. eigenvalues --    2.01032   2.01627   2.03873   2.07725   2.09401
 Alpha virt. eigenvalues --    2.11140   2.14683   2.17942   2.22136   2.23884
 Alpha virt. eigenvalues --    2.25021   2.26628   2.28961   2.30464   2.31160
 Alpha virt. eigenvalues --    2.33786   2.34844   2.36249   2.39075   2.39395
 Alpha virt. eigenvalues --    2.40103   2.42122   2.44935   2.45610   2.46235
 Alpha virt. eigenvalues --    2.48744   2.51575   2.53197   2.55271   2.56879
 Alpha virt. eigenvalues --    2.59904   2.62027   2.62889   2.65299   2.67127
 Alpha virt. eigenvalues --    2.70027   2.72998   2.73737   2.74854   2.78451
 Alpha virt. eigenvalues --    2.83483   2.84866   2.86836   2.89036   2.92750
 Alpha virt. eigenvalues --    2.98573   2.98995   3.06248   3.09360   3.19762
 Alpha virt. eigenvalues --    3.24505   3.25388   3.25965   3.30172   3.30389
 Alpha virt. eigenvalues --    3.35706   3.36852   3.44503   3.47944   3.51542
 Alpha virt. eigenvalues --    3.54287   3.59206   3.90405   3.96580   4.13854
 Alpha virt. eigenvalues --    4.16230   4.17610   4.22522   4.39668   4.44404
 Alpha virt. eigenvalues --    4.46684   4.64444   4.84353
          Condensed to atoms (all electrons):
               1          2          3          4          5          6
     1  N    6.757426   0.302609  -0.058983   0.005518  -0.000122  -0.000004
     2  C    0.302609   4.873701   0.360701  -0.058335  -0.000353   0.000176
     3  C   -0.058983   0.360701   4.939540   0.250474  -0.037029   0.005728
     4  N    0.005518  -0.058335   0.250474   6.952869   0.288008  -0.067246
     5  C   -0.000122  -0.000353  -0.037029   0.288008   4.574023   0.522724
     6  C   -0.000004   0.000176   0.005728  -0.067246   0.522724   4.978599
     7  C   -0.000000   0.000003  -0.000141   0.004687  -0.018444   0.539020
     8  C    0.000000   0.000003  -0.000005   0.000398  -0.036108  -0.046822
     9  C    0.000001  -0.000083  -0.000050   0.004921  -0.019134  -0.043255
    10  C    0.000020  -0.002805  -0.005569  -0.071158   0.530129  -0.055799
    11  H    0.347710  -0.046794  -0.003137   0.000120   0.000013  -0.000000
    12  H    0.347560  -0.044974  -0.003251   0.000071  -0.000023  -0.000000
    13  H   -0.034714   0.385195  -0.046869   0.002115  -0.000544  -0.000105
    14  H   -0.035019   0.386038  -0.044164  -0.002062   0.005900  -0.000074
    15  H    0.003167  -0.046092   0.377027  -0.025765  -0.009951  -0.000131
    16  H    0.002199  -0.047887   0.377959  -0.030474   0.004458  -0.000225
    17  H    0.000008  -0.002210  -0.040400   0.349997  -0.029195  -0.011054
    18  H   -0.000000   0.000001   0.000105  -0.008556  -0.046226   0.365457
    19  H    0.000000  -0.000000   0.000002  -0.000105   0.003752  -0.037249
    20  H   -0.000000   0.000000  -0.000000   0.000004   0.000761   0.004949
    21  H   -0.000000  -0.000002   0.000006  -0.000108   0.003645   0.000861
    22  H   -0.000006  -0.000285   0.003242  -0.008927  -0.042540   0.005466
               7          8          9         10         11         12
     1  N   -0.000000   0.000000   0.000001   0.000020   0.347710   0.347560
     2  C    0.000003   0.000003  -0.000083  -0.002805  -0.046794  -0.044974
     3  C   -0.000141  -0.000005  -0.000050  -0.005569  -0.003137  -0.003251
     4  N    0.004687   0.000398   0.004921  -0.071158   0.000120   0.000071
     5  C   -0.018444  -0.036108  -0.019134   0.530129   0.000013  -0.000023
     6  C    0.539020  -0.046822  -0.043255  -0.055799  -0.000000  -0.000000
     7  C    4.813263   0.545232  -0.033109  -0.042408  -0.000000   0.000000
     8  C    0.545232   4.855460   0.549540  -0.046283   0.000000   0.000000
     9  C   -0.033109   0.549540   4.827688   0.531483  -0.000000   0.000001
    10  C   -0.042408  -0.046283   0.531483   4.949433  -0.000004   0.000028
    11  H   -0.000000   0.000000  -0.000000  -0.000004   0.476370  -0.033476
    12  H    0.000000   0.000000   0.000001   0.000028  -0.033476   0.475637
    13  H   -0.000001  -0.000000   0.000008   0.000136  -0.005105   0.006314
    14  H   -0.000025   0.000005  -0.000145   0.003011   0.006222  -0.005372
    15  H    0.000005  -0.000005   0.000197   0.004435  -0.000343   0.004510
    16  H    0.000002   0.000000  -0.000005   0.000171   0.005676  -0.000418
    17  H    0.000015  -0.000004  -0.000096   0.006377   0.000003   0.000015
    18  H   -0.038043   0.005115   0.000410   0.005635   0.000000  -0.000000
    19  H    0.369261  -0.041550   0.004779   0.000745  -0.000000   0.000000
    20  H   -0.042340   0.370362  -0.041957   0.005004   0.000000  -0.000000
    21  H    0.004677  -0.041282   0.368832  -0.036801  -0.000000  -0.000000
    22  H    0.000436   0.005032  -0.039275   0.365933  -0.000001   0.000018
              13         14         15         16         17         18
     1  N   -0.034714  -0.035019   0.003167   0.002199   0.000008  -0.000000
     2  C    0.385195   0.386038  -0.046092  -0.047887  -0.002210   0.000001
     3  C   -0.046869  -0.044164   0.377027   0.377959  -0.040400   0.000105
     4  N    0.002115  -0.002062  -0.025765  -0.030474   0.349997  -0.008556
     5  C   -0.000544   0.005900  -0.009951   0.004458  -0.029195  -0.046226
     6  C   -0.000105  -0.000074  -0.000131  -0.000225  -0.011054   0.365457
     7  C   -0.000001  -0.000025   0.000005   0.000002   0.000015  -0.038043
     8  C   -0.000000   0.000005  -0.000005   0.000000  -0.000004   0.005115
     9  C    0.000008  -0.000145   0.000197  -0.000005  -0.000096   0.000410
    10  C    0.000136   0.003011   0.004435   0.000171   0.006377   0.005635
    11  H   -0.005105   0.006222  -0.000343   0.005676   0.000003   0.000000
    12  H    0.006314  -0.005372   0.004510  -0.000418   0.000015  -0.000000
    13  H    0.618183  -0.036978   0.005412  -0.005381   0.004097  -0.000009
    14  H   -0.036978   0.611220  -0.006091   0.005573  -0.000512   0.000002
    15  H    0.005412  -0.006091   0.600578  -0.033925   0.005087  -0.000002
    16  H   -0.005381   0.005573  -0.033925   0.615763  -0.004413  -0.000013
    17  H    0.004097  -0.000512   0.005087  -0.004413   0.445866   0.005970
    18  H   -0.000009   0.000002  -0.000002  -0.000013   0.005970   0.627490
    19  H    0.000000  -0.000000   0.000000  -0.000000  -0.000011  -0.006540
    20  H   -0.000000  -0.000000   0.000000  -0.000000  -0.000000  -0.000189
    21  H    0.000000  -0.000004   0.000004  -0.000000   0.000003   0.000015
    22  H   -0.000007   0.000792   0.001887  -0.000088  -0.000092  -0.000178
              19         20         21         22
     1  N    0.000000  -0.000000  -0.000000  -0.000006
     2  C   -0.000000   0.000000  -0.000002  -0.000285
     3  C    0.000002  -0.000000   0.000006   0.003242
     4  N   -0.000105   0.000004  -0.000108  -0.008927
     5  C    0.003752   0.000761   0.003645  -0.042540
     6  C   -0.037249   0.004949   0.000861   0.005466
     7  C    0.369261  -0.042340   0.004677   0.000436
     8  C   -0.041550   0.370362  -0.041282   0.005032
     9  C    0.004779  -0.041957   0.368832  -0.039275
    10  C    0.000745   0.005004  -0.036801   0.365933
    11  H   -0.000000   0.000000  -0.000000  -0.000001
    12  H    0.000000  -0.000000  -0.000000   0.000018
    13  H    0.000000  -0.000000   0.000000  -0.000007
    14  H   -0.000000  -0.000000  -0.000004   0.000792
    15  H    0.000000   0.000000   0.000004   0.001887
    16  H   -0.000000  -0.000000  -0.000000  -0.000088
    17  H   -0.000011  -0.000000   0.000003  -0.000092
    18  H   -0.006540  -0.000189   0.000015  -0.000178
    19  H    0.617552  -0.006074  -0.000202   0.000015
    20  H   -0.006074   0.630364  -0.006015  -0.000191
    21  H   -0.000202  -0.006015   0.616762  -0.006563
    22  H    0.000015  -0.000191  -0.006563   0.623617
 Mulliken charges:
               1
     1  N   -0.637370
     2  C   -0.058608
     3  C   -0.075186
     4  N   -0.586447
     5  C    0.306257
     6  C   -0.161014
     7  C   -0.102091
     8  C   -0.119090
     9  C   -0.110750
    10  C   -0.141712
    11  H    0.252746
    12  H    0.253360
    13  H    0.108253
    14  H    0.111683
    15  H    0.119996
    16  H    0.111027
    17  H    0.270548
    18  H    0.089558
    19  H    0.095627
    20  H    0.085323
    21  H    0.096173
    22  H    0.091717
 Sum of Mulliken charges =  -0.00000
 Mulliken charges with hydrogens summed into heavy atoms:
               1
     1  N   -0.131264
     2  C    0.161328
     3  C    0.155837
     4  N   -0.315899
     5  C    0.306257
     6  C   -0.071457
     7  C   -0.006464
     8  C   -0.033767
     9  C   -0.014577
    10  C   -0.049995
 APT charges:
               1
     1  N   -1.217902
     2  C   -0.429954
     3  C   -0.755073
     4  N   -0.687579
     5  C   -0.240142
     6  C   -0.584504
     7  C   -0.426007
     8  C   -0.494135
     9  C   -0.487844
    10  C   -0.568717
    11  H    0.712887
    12  H    0.429894
    13  H    0.384230
    14  H    0.148440
    15  H    0.313733
    16  H    0.536639
    17  H    0.575617
    18  H    0.453583
    19  H    0.709268
    20  H    0.743751
    21  H    0.567047
    22  H    0.316767
 Sum of APT charges =  -0.00000
 APT charges with hydrogens summed into heavy atoms:
               1
     1  N   -0.075121
     2  C    0.102716
     3  C    0.095299
     4  N   -0.111962
     5  C   -0.240142
     6  C   -0.130921
     7  C    0.283261
     8  C    0.249617
     9  C    0.079203
    10  C   -0.251950
 Electronic spatial extent (au):  <R**2>=           1911.8573
 Charge=             -0.0000 electrons
 Dipole moment (field-independent basis, Debye):
    X=             -1.6327    Y=             -1.0503    Z=              0.9660  Tot=              2.1684
 Quadrupole moment (field-independent basis, Debye-Ang):
   XX=            -58.2472   YY=            -53.7704   ZZ=            -65.5844
   XY=              3.2684   XZ=             -8.7934   YZ=              4.9462
 Traceless Quadrupole moment (field-independent basis, Debye-Ang):
   XX=              0.9535   YY=              5.4303   ZZ=             -6.3837
   XY=              3.2684   XZ=             -8.7934   YZ=              4.9462
 Octapole moment (field-independent basis, Debye-Ang**2):
  XXX=             -5.0240  YYY=             -4.3347  ZZZ=              1.9926  XYY=             -4.1466
  XXY=            -13.4457  XXZ=             24.4707  XZZ=             -2.1364  YZZ=             -0.9417
  YYZ=              0.3190  XYZ=             -6.7831
 Hexadecapole moment (field-independent basis, Debye-Ang**3):
 XXXX=          -1911.8775 YYYY=           -359.9490 ZZZZ=           -179.3337 XXXY=             55.0834
 XXXZ=           -157.7562 YYYX=              1.1801 YYYZ=             13.9855 ZZZX=             -8.8547
 ZZZY=              4.6192 XXYY=           -369.7054 XXZZ=           -403.6149 YYZZ=           -102.1003
 XXYZ=             38.4285 YYXZ=             -9.8281 ZZXY=              4.5358
 N-N= 4.996011985029D+02 E-N=-1.976903563925D+03  KE= 4.175278862303D+02
  Exact polarizability:   0.000   0.000   0.000   0.000   0.000   0.000
 Approx polarizability: 184.949  15.029 166.710 -29.146  14.936  84.038
 D2PCM: PCM CHGder 2nd derivatives, FixD1E=F FixD2E=F DoIter=F DoCFld=F I1PDM=0
 Calling FoFJK, ICntrl=    100147 FMM=F ISym2X=0 I1Cent= 0 IOpClX= 0 NMat=1 NMatS=1 NMatT=0.
 ***** Axes restored to original set *****
 -------------------------------------------------------------------
 Center     Atomic                   Forces (Hartrees/Bohr)
 Number     Number              X              Y              Z
 -------------------------------------------------------------------
      1        7           0.001822706    0.002899829    0.004731218
      2        6           0.006786208    0.006060392   -0.005878615
      3        6           0.000367356   -0.008946732    0.008540058
      4        7          -0.001349973    0.002324489   -0.002457587
      5        6          -0.000174862   -0.006897998   -0.006519915
      6        6          -0.012439542   -0.006273975    0.006870694
      7        6           0.008933107   -0.004219248   -0.001709220
      8        6          -0.009502500    0.006028018    0.001081399
      9        6           0.004626316   -0.004250356   -0.001442181
     10        6          -0.001394804    0.014781049   -0.000396598
     11        1          -0.001217070    0.000750254   -0.000580820
     12        1           0.000599589   -0.001520253   -0.000007773
     13        1          -0.000185367   -0.001276149   -0.001113386
     14        1          -0.000944535   -0.000039467   -0.000814735
     15        1          -0.003358002   -0.000629819    0.001623492
     16        1          -0.000087681    0.000233036    0.000278227
     17        1           0.000503020    0.002979603   -0.003427490
     18        1           0.002457387    0.000070457    0.000260490
     19        1           0.000924040   -0.000649056   -0.000085017
     20        1           0.000086448    0.000093566    0.000254494
     21        1           0.001346368   -0.000240441   -0.000191867
     22        1           0.002201791   -0.001277198    0.000985132
 -------------------------------------------------------------------
 Cartesian Forces:  Max     0.014781049 RMS     0.004266491
 FormGI is forming the generalized inverse of G from B-inverse, IUseBI=4.

 GradGradGradGradGradGradGradGradGradGradGradGradGradGradGradGradGradGrad
 Berny optimization.
 Internal  Forces:  Max     0.012225188 RMS     0.002628690
 Search for a local minimum.
 Step number   1 out of a maximum of  117
 All quantities printed in internal units (Hartrees-Bohrs-Radians)
 Mixed Optimization -- RFO/linear search
 Second derivative matrix not updated -- analytic derivatives used.
 ITU=  0
     Eigenvalues ---    0.00284   0.00338   0.00415   0.00683   0.00994
     Eigenvalues ---    0.01587   0.01724   0.01760   0.02162   0.02200
     Eigenvalues ---    0.02455   0.02799   0.02878   0.03024   0.03200
     Eigenvalues ---    0.04244   0.04484   0.04542   0.05209   0.07945
     Eigenvalues ---    0.08397   0.10770   0.10921   0.11509   0.11878
     Eigenvalues ---    0.12329   0.12446   0.12859   0.13972   0.14512
     Eigenvalues ---    0.17479   0.18489   0.18628   0.19263   0.19506
     Eigenvalues ---    0.21386   0.24880   0.25555   0.25973   0.32405
     Eigenvalues ---    0.32665   0.33102   0.33222   0.33863   0.34785
     Eigenvalues ---    0.35508   0.35672   0.35820   0.36055   0.36336
     Eigenvalues ---    0.37309   0.38395   0.41224   0.44023   0.44228
     Eigenvalues ---    0.44675   0.46455   0.47592   0.48185   0.52043
 RFO step:  Lambda=-3.62006383D-03 EMin= 2.84426374D-03
 Linear search not attempted -- first point.
 Iteration  1 RMS(Cart)=  0.03475759 RMS(Int)=  0.00086317
 Iteration  2 RMS(Cart)=  0.00121041 RMS(Int)=  0.00026076
 Iteration  3 RMS(Cart)=  0.00000100 RMS(Int)=  0.00026076
 Iteration  4 RMS(Cart)=  0.00000000 RMS(Int)=  0.00026076
 Variable       Old X    -DE/DX   Delta X   Delta X   Delta X     New X
                                 (Linear)    (Quad)   (Total)
    R1        2.77028   0.00215   0.00000   0.00081   0.00081   2.77109
    R2        1.92627  -0.00106   0.00000  -0.00050  -0.00050   1.92577
    R3        1.92662  -0.00129   0.00000  -0.00112  -0.00112   1.92550
    R4        2.91368   0.00064   0.00000   0.00063   0.00063   2.91431
    R5        2.07132   0.00032   0.00000   0.00190   0.00190   2.07321
    R6        2.06944   0.00032   0.00000   0.00145   0.00145   2.07089
    R7        2.75996   0.00142   0.00000  -0.00550  -0.00550   2.75447
    R8        2.07079  -0.00106   0.00000  -0.00015  -0.00015   2.07064
    R9        2.07329  -0.00030   0.00000  -0.00174  -0.00174   2.07156
   R10        2.63766   0.00147   0.00000  -0.00511  -0.00511   2.63255
   R11        1.92226  -0.00410   0.00000  -0.00956  -0.00956   1.91271
   R12        2.65204   0.00710   0.00000   0.01562   0.01556   2.66761
   R13        2.64432   0.00723   0.00000   0.01892   0.01887   2.66318
   R14        2.64245  -0.00484   0.00000  -0.01372  -0.01372   2.62873
   R15        2.05465   0.00046   0.00000   0.00050   0.00050   2.05515
   R16        2.62713   0.00786   0.00000   0.01618   0.01624   2.64337
   R17        2.05318  -0.00024   0.00000   0.00048   0.00048   2.05365
   R18        2.62881   0.00462   0.00000   0.00848   0.00854   2.63734
   R19        2.05297  -0.00001   0.00000  -0.00194  -0.00194   2.05103
   R20        2.64572  -0.00254   0.00000  -0.00810  -0.00809   2.63763
   R21        2.05373  -0.00052   0.00000   0.00004   0.00004   2.05377
   R22        2.05012   0.00031   0.00000  -0.00100  -0.00100   2.04911
    A1        1.91605  -0.00080   0.00000  -0.00885  -0.00891   1.90714
    A2        1.91234   0.00006   0.00000  -0.00509  -0.00515   1.90719
    A3        1.85458  -0.00047   0.00000  -0.01448  -0.01462   1.83996
    A4        1.97566   0.00838   0.00000   0.02970   0.02975   2.00541
    A5        1.89271  -0.00166   0.00000   0.00086   0.00097   1.89368
    A6        1.89166  -0.00220   0.00000  -0.00006   0.00008   1.89174
    A7        1.91306  -0.00353   0.00000  -0.01568  -0.01584   1.89721
    A8        1.92685  -0.00301   0.00000  -0.01790  -0.01804   1.90881
    A9        1.85999   0.00169   0.00000   0.00197   0.00174   1.86173
   A10        1.95878   0.01223   0.00000   0.04597   0.04576   2.00454
   A11        1.94208  -0.00369   0.00000  -0.02507  -0.02462   1.91745
   A12        1.89577  -0.00266   0.00000   0.00718   0.00655   1.90232
   A13        1.94720  -0.00647   0.00000  -0.04106  -0.04072   1.90648
   A14        1.86953  -0.00239   0.00000   0.00393   0.00312   1.87265
   A15        1.84461   0.00248   0.00000   0.00935   0.00939   1.85400
   A16        2.12445   0.00177   0.00000   0.02226   0.02133   2.14578
   A17        1.96893  -0.00165   0.00000   0.00917   0.00804   1.97697
   A18        1.95693   0.00060   0.00000   0.01896   0.01794   1.97487
   A19        2.06597   0.00294   0.00000   0.01337   0.01312   2.07908
   A20        2.16271  -0.00482   0.00000  -0.01847  -0.01877   2.14393
   A21        2.04912   0.00203   0.00000   0.01021   0.00956   2.05868
   A22        2.12168  -0.00206   0.00000  -0.01011  -0.01032   2.11136
   A23        2.09420  -0.00133   0.00000  -0.01527  -0.01517   2.07903
   A24        2.06730   0.00339   0.00000   0.02538   0.02548   2.09278
   A25        2.09330   0.00259   0.00000   0.01500   0.01491   2.10821
   A26        2.09292  -0.00243   0.00000  -0.01379  -0.01376   2.07916
   A27        2.09692  -0.00016   0.00000  -0.00113  -0.00110   2.09582
   A28        2.08586  -0.00270   0.00000  -0.01576  -0.01582   2.07004
   A29        2.09874   0.00141   0.00000   0.00764   0.00761   2.10635
   A30        2.09847   0.00129   0.00000   0.00835   0.00832   2.10679
   A31        2.09835   0.00306   0.00000   0.01713   0.01703   2.11538
   A32        2.09414  -0.00021   0.00000  -0.00042  -0.00041   2.09373
   A33        2.09064  -0.00285   0.00000  -0.01658  -0.01657   2.07408
   A34        2.11656  -0.00285   0.00000  -0.01367  -0.01387   2.10269
   A35        2.11410  -0.00107   0.00000  -0.01332  -0.01323   2.10088
   A36        2.05252   0.00392   0.00000   0.02700   0.02709   2.07962
    D1       -0.99436   0.00063   0.00000   0.01070   0.01065  -0.98371
    D2        1.13248   0.00049   0.00000   0.01094   0.01097   1.14345
    D3       -3.13804   0.00044   0.00000   0.01367   0.01357  -3.12447
    D4        1.03609  -0.00036   0.00000  -0.01482  -0.01479   1.02130
    D5       -3.12025  -0.00051   0.00000  -0.01458  -0.01447  -3.13473
    D6       -1.10759  -0.00055   0.00000  -0.01184  -0.01187  -1.11946
    D7        3.05705   0.00181   0.00000   0.04815   0.04835   3.10540
    D8       -1.03015  -0.00021   0.00000   0.00950   0.00949  -1.02066
    D9        0.99333  -0.00087   0.00000   0.01098   0.01081   1.00414
   D10        0.94164   0.00080   0.00000   0.03820   0.03852   0.98016
   D11        3.13762  -0.00122   0.00000  -0.00044  -0.00034   3.13728
   D12       -1.12208  -0.00189   0.00000   0.00104   0.00097  -1.12110
   D13       -1.10209   0.00264   0.00000   0.05578   0.05586  -1.04623
   D14        1.09389   0.00061   0.00000   0.01714   0.01700   1.11089
   D15        3.11737  -0.00005   0.00000   0.01862   0.01831   3.13569
   D16        1.26103  -0.00054   0.00000  -0.02287  -0.02306   1.23797
   D17       -1.14330  -0.00162   0.00000  -0.09793  -0.09823  -1.24153
   D18       -0.93216  -0.00007   0.00000   0.00699   0.00718  -0.92499
   D19        2.94669  -0.00115   0.00000  -0.06807  -0.06799   2.87870
   D20       -2.94298   0.00176   0.00000   0.01513   0.01529  -2.92768
   D21        0.93587   0.00068   0.00000  -0.05993  -0.05987   0.87600
   D22       -2.86281   0.00125   0.00000   0.03172   0.03139  -2.83142
   D23        0.39323  -0.00057   0.00000  -0.02318  -0.02331   0.36992
   D24       -0.45399   0.00148   0.00000   0.10264   0.10277  -0.35122
   D25        2.80204  -0.00035   0.00000   0.04774   0.04807   2.85012
   D26       -3.09146  -0.00005   0.00000   0.00253   0.00200  -3.08946
   D27        0.04934  -0.00015   0.00000  -0.00029  -0.00068   0.04867
   D28       -0.05682   0.00119   0.00000   0.05190   0.05212  -0.00470
   D29        3.08399   0.00109   0.00000   0.04909   0.04944   3.13343
   D30        3.08571   0.00048   0.00000   0.00005  -0.00029   3.08542
   D31       -0.05386   0.00044   0.00000  -0.00050  -0.00082  -0.05468
   D32        0.05754  -0.00139   0.00000  -0.05457  -0.05462   0.00292
   D33       -3.08203  -0.00143   0.00000  -0.05513  -0.05516  -3.13718
   D34        0.02294  -0.00041   0.00000  -0.02005  -0.01998   0.00297
   D35       -3.12866  -0.00025   0.00000  -0.01019  -0.01015  -3.13881
   D36       -3.11787  -0.00032   0.00000  -0.01726  -0.01726  -3.13514
   D37        0.01370  -0.00015   0.00000  -0.00740  -0.00743   0.00628
   D38        0.01206  -0.00034   0.00000  -0.01150  -0.01140   0.00065
   D39        3.13781   0.00019   0.00000   0.00554   0.00554  -3.13983
   D40       -3.11950  -0.00049   0.00000  -0.02132  -0.02126  -3.14076
   D41        0.00626   0.00004   0.00000  -0.00427  -0.00431   0.00194
   D42       -0.01121   0.00017   0.00000   0.00887   0.00877  -0.00244
   D43        3.11939   0.00065   0.00000   0.02260   0.02246  -3.14133
   D44       -3.13697  -0.00036   0.00000  -0.00816  -0.00817   3.13805
   D45       -0.00637   0.00012   0.00000   0.00556   0.00552  -0.00085
   D46       -0.02472   0.00079   0.00000   0.02559   0.02534   0.00062
   D47        3.11491   0.00083   0.00000   0.02608   0.02582   3.14074
   D48        3.12784   0.00030   0.00000   0.01179   0.01170   3.13954
   D49       -0.01571   0.00033   0.00000   0.01228   0.01219  -0.00352
         Item               Value     Threshold  Converged?
 Maximum Force            0.012225     0.000450     NO 
 RMS     Force            0.002629     0.000300     NO 
 Maximum Displacement     0.135041     0.001800     NO 
 RMS     Displacement     0.035006     0.001200     NO 
 Predicted change in Energy=-1.935491D-03
 GradGradGradGradGradGradGradGradGradGradGradGradGradGradGradGradGradGrad

                          Input orientation:                          
 ---------------------------------------------------------------------
 Center     Atomic      Atomic             Coordinates (Angstroms)
 Number     Number       Type             X           Y           Z
 ---------------------------------------------------------------------
      1          7           0        3.462566    1.085713    0.764853
      2          6           0        2.238022    0.279020    0.772963
      3          6           0        1.788330   -0.232645   -0.610623
      4          7           0        0.597869   -1.073582   -0.595523
      5          6           0       -0.677077   -0.577154   -0.333300
      6          6           0       -1.701892   -1.475544    0.034623
      7          6           0       -3.002831   -1.030197    0.245060
      8          6           0       -3.330326    0.321296    0.093782
      9          6           0       -2.323949    1.215564   -0.273989
     10          6           0       -1.014084    0.782682   -0.486230
     11          1           0        4.216097    0.548951    0.337553
     12          1           0        3.328699    1.894222    0.159371
     13          1           0        2.393493   -0.583131    1.433377
     14          1           0        1.434041    0.875520    1.218746
     15          1           0        1.623080    0.614814   -1.285268
     16          1           0        2.598867   -0.823138   -1.053396
     17          1           0        0.759368   -1.988134   -0.193054
     18          1           0       -1.464499   -2.530527    0.150383
     19          1           0       -3.767901   -1.747476    0.530009
     20          1           0       -4.345591    0.667152    0.259992
     21          1           0       -2.553842    2.270577   -0.397462
     22          1           0       -0.258439    1.506018   -0.771869
 ---------------------------------------------------------------------
                    Distance matrix (angstroms):
                    1          2          3          4          5
     1  N    0.000000
     2  C    1.466399   0.000000
     3  C    2.536350   1.542185   0.000000
     4  N    3.836622   2.528318   1.457601   0.000000
     5  C    4.594312   3.233366   2.504760   1.393086   0.000000
     6  C    5.810757   4.375679   3.760690   2.418173   1.411637
     7  C    6.822655   5.427640   4.931886   3.697770   2.439033
     8  C    6.868628   5.609775   5.196505   4.225108   2.833609
     9  C    5.880460   4.773343   4.372810   3.725667   2.435065
    10  C    4.658050   3.523554   2.983267   2.460905   1.409296
    11  H    1.019072   2.043337   2.721027   4.073674   5.065699
    12  H    1.018929   2.043269   2.736639   4.103067   4.732511
    13  H    2.091621   1.097098   2.160324   2.753406   3.542539
    14  H    2.089285   1.095865   2.167981   2.791014   2.995985
    15  H    2.794361   2.174219   1.095737   2.092245   2.760027
    16  H    2.774115   2.163457   1.096221   2.067937   3.363161
    17  H    4.203975   2.873952   2.077226   1.012160   2.018392
    18  H    6.142535   4.689332   4.054663   2.632950   2.160937
    19  H    7.769283   6.343251   5.870899   4.558608   3.415868
    20  H    7.835649   6.614964   6.260398   5.310354   3.918965
    21  H    6.241158   5.319602   5.016574   4.599556   3.411149
    22  H    4.047722   3.181879   2.690393   2.723730   2.169610
                    6          7          8          9         10
     6  C    0.000000
     7  C    1.391064   0.000000
     8  C    2.425681   1.398811   0.000000
     9  C    2.779254   2.402860   1.395623   0.000000
    10  C    2.417427   2.788626   2.431927   1.395772   0.000000
    11  H    6.262024   7.390209   7.553790   6.602315   5.299815
    12  H    6.056214   6.974801   6.842588   5.709712   4.529027
    13  H    4.418721   5.543670   5.947655   5.329602   4.142694
    14  H    4.094353   4.926019   4.926652   4.057879   2.984774
    15  H    4.143325   5.142666   5.150160   4.118570   2.760665
    16  H    4.483966   5.753945   6.146631   5.384970   3.994214
    17  H    2.524358   3.906882   4.705458   4.447142   3.302803
    18  H    1.087541   2.150911   3.408431   3.866774   3.403749
    19  H    2.141903   1.086746   2.159070   3.392789   3.875301
    20  H    3.410436   2.164306   1.085360   2.161695   3.416011
    21  H    3.865998   3.392571   2.154981   1.086808   2.143028
    22  H    3.409355   3.872754   3.404321   2.144430   1.084345
                   11         12         13         14         15
    11  H    0.000000
    12  H    1.621413   0.000000
    13  H    2.409217   2.938534   0.000000
    14  H    2.936492   2.397865   1.759056   0.000000
    15  H    3.059677   2.575462   3.069143   2.524637   0.000000
    16  H    2.536296   3.063903   2.506755   3.066739   1.753178
    17  H    4.320570   4.668871   2.699940   3.263263   2.951994
    18  H    6.464317   6.523284   4.508052   4.598271   4.635451
    19  H    8.309925   7.985053   6.335183   5.866402   6.159409
    20  H    8.562855   7.772423   6.953797   5.862318   6.165678
    21  H    7.023983   5.920811   5.997645   4.523442   4.580003
    22  H    4.708320   3.726322   4.032419   2.687856   2.144280
                   16         17         18         19         20
    16  H    0.000000
    17  H    2.341188   0.000000
    18  H    4.568940   2.314676   0.000000
    19  H    6.625504   4.590958   2.462305   0.000000
    20  H    7.222980   5.772035   4.305560   2.497411   0.000000
    21  H    6.045804   5.399608   4.953525   4.298709   2.492706
    22  H    3.697084   3.685114   4.312636   4.959480   4.298051
                   21         22
    21  H    0.000000
    22  H    2.448184   0.000000
 Stoichiometry    C8H12N2
 Framework group  C1[X(C8H12N2)]
 Deg. of freedom    60
 Full point group                 C1      NOp   1
 Largest Abelian subgroup         C1      NOp   1
 Largest concise Abelian subgroup C1      NOp   1
                         Standard orientation:                         
 ---------------------------------------------------------------------
 Center     Atomic      Atomic             Coordinates (Angstroms)
 Number     Number       Type             X           Y           Z
 ---------------------------------------------------------------------
      1          7           0       -3.819086    0.739157   -0.532690
      2          6           0       -2.513028    0.083383   -0.653104
      3          6           0       -1.931029   -0.452591    0.670657
      4          7           0       -0.655270   -1.145896    0.542721
      5          6           0        0.538092   -0.488940    0.251200
      6          6           0        1.636285   -1.237848   -0.224013
      7          6           0        2.864155   -0.631534   -0.468508
      8          6           0        3.043555    0.737762   -0.245989
      9          6           0        1.964114    1.484753    0.227903
     10          6           0        0.726070    0.889645    0.475443
     11          1           0       -4.481394    0.093594   -0.104781
     12          1           0       -3.744403    1.520742    0.116743
     13          1           0       -2.606114   -0.750680   -1.359713
     14          1           0       -1.808521    0.795167   -1.098024
     15          1           0       -1.825770    0.367215    1.390017
     16          1           0       -2.642893   -1.159011    1.113288
     17          1           0       -0.733887   -2.047792    0.090095
     18          1           0        1.514478   -2.304727   -0.396286
     19          1           0        3.688734   -1.236211   -0.836547
     20          1           0        4.001879    1.209370   -0.438883
     21          1           0        2.078911    2.550330    0.408232
     22          1           0       -0.089810    1.501391    0.844101
 ---------------------------------------------------------------------
 Rotational constants (GHZ):           3.1895896           0.6693008           0.5988167
 Standard basis: 6-31G(d,p) (6D, 7F)
 There are   210 symmetry adapted cartesian basis functions of A   symmetry.
 There are   210 symmetry adapted basis functions of A   symmetry.
   210 basis functions,   364 primitive gaussians,   210 cartesian basis functions
    37 alpha electrons       37 beta electrons
       nuclear repulsion energy       498.4711751943 Hartrees.
 NAtoms=   22 NActive=   22 NUniq=   22 SFac= 1.00D+00 NAtFMM=   60 NAOKFM=F Big=F
 Integral buffers will be    131072 words long.
 Raffenetti 2 integral format.
 Two-electron integral symmetry is turned on.
 ------------------------------------------------------------------------------
 Polarizable Continuum Model (PCM)
 =================================
 Model                : PCM.
 Atomic radii         : UFF (Universal Force Field).
 Polarization charges : Total charges.
 Charge compensation  : None.
 Solution method      : Matrix inversion.
 Cavity type          : Scaled VdW (van der Waals Surface) (Alpha=1.100).
 Cavity algorithm     : GePol (No added spheres)
                        Default sphere list used, NSphG=   22.
                        Lebedev-Laikov grids with approx.  5.0 points / Ang**2.
                        Smoothing algorithm: York/Karplus (Gamma=1.0000).
                        Polarization charges: spherical gaussians, with
                                              point-specific exponents (IZeta= 3).
                        Self-potential: point-specific (ISelfS= 7).
                        Self-field    : sphere-specific E.n sum rule (ISelfD= 2).
 1st derivatives      : Analytical E(r).r(x)/FMM algorithm (CHGder, D1EAlg=3).
                        Cavity 1st derivative terms included.
 Solvent              : Water, Eps=  78.355300 Eps(inf)=   1.777849
 ------------------------------------------------------------------------------
 One-electron integrals computed using PRISM.
 NBasis=   210 RedAO= T EigKep=  4.60D-04  NBF=   210
 NBsUse=   210 1.00D-06 EigRej= -1.00D+00 NBFU=   210
 Initial guess from the checkpoint file:  "OCIDXARMXNJACB-UHFFFAOYSA-N_conf_2_0.chk"
 B after Tr=     0.000000   -0.000000    0.000000
         Rot=    0.999971   -0.007216   -0.000459   -0.002430 Ang=  -0.87 deg.
 ExpMin= 1.61D-01 ExpMax= 4.17D+03 ExpMxC= 6.27D+02 IAcc=2 IRadAn=         4 AccDes= 0.00D+00
 Harris functional with IExCor=  402 and IRadAn=       4 diagonalized for initial guess.
 HarFok:  IExCor=  402 AccDes= 0.00D+00 IRadAn=         4 IDoV= 1 UseB2=F ITyADJ=14
 ICtDFT=  3500011 ScaDFX=  1.000000  1.000000  1.000000  1.000000
 FoFCou: FMM=F IPFlag=           0 FMFlag=      100000 FMFlg1=           0
         NFxFlg=           0 DoJE=T BraDBF=F KetDBF=T FulRan=T
         wScrn=  0.000000 ICntrl=       500 IOpCl=  0 I1Cent=   200000004 NGrid=           0
         NMat0=    1 NMatS0=      1 NMatT0=    0 NMatD0=    1 NMtDS0=    0 NMtDT0=    0
 Petite list used in FoFCou.
 Keep R1 ints in memory in canonical form, NReq=250131393.
 Requested convergence on RMS density matrix=1.00D-08 within  32 cycles.
 Requested convergence on MAX density matrix=1.00D-06.
 Requested convergence on             energy=1.00D-06.
 No special actions if energy rises.
 Inv3:  Mode=1 IEnd=     8670000.
 Iteration    1 A*A^-1 deviation from unit magnitude is 6.33D-15 for   1378.
 Iteration    1 A*A^-1 deviation from orthogonality  is 3.33D-15 for   1412   1390.
 Iteration    1 A^-1*A deviation from unit magnitude is 5.88D-15 for   1378.
 Iteration    1 A^-1*A deviation from orthogonality  is 3.41D-15 for    977    724.
 Error on total polarization charges =  0.00907
 SCF Done:  E(RB3LYP) =  -421.597988689     A.U. after   10 cycles
            NFock= 10  Conv=0.49D-08     -V/T= 2.0099
 QCSCF skips out because SCF is already converged.
 D1PCM: PCM CHGder 1st derivatives, ID1Alg=3 FixD1E=F DoIter=F DoCFld=F I1PDM=0.
 Calling FoFJK, ICntrl=      2127 FMM=F ISym2X=0 I1Cent= 0 IOpClX= 0 NMat=1 NMatS=1 NMatT=0.
 ***** Axes restored to original set *****
 -------------------------------------------------------------------
 Center     Atomic                   Forces (Hartrees/Bohr)
 Number     Number              X              Y              Z
 -------------------------------------------------------------------
      1        7          -0.000031001    0.000175204    0.000262211
      2        6           0.000128653    0.000443361   -0.000267652
      3        6           0.000347006   -0.000738827    0.000199877
      4        7          -0.000421051    0.000533566    0.000824432
      5        6          -0.000143286   -0.000344079   -0.001044771
      6        6          -0.000173879   -0.000307140    0.000576650
      7        6           0.000006150   -0.000101783   -0.000126186
      8        6          -0.000213032    0.000220074    0.000031844
      9        6          -0.000032611   -0.000128108   -0.000154607
     10        6          -0.000012915    0.000588081    0.000105762
     11        1          -0.000013619    0.000033535   -0.000058484
     12        1           0.000049482   -0.000023890   -0.000052594
     13        1           0.000109438    0.000033239    0.000009241
     14        1          -0.000041437   -0.000116275    0.000122205
     15        1           0.000136675    0.000018908   -0.000088699
     16        1           0.000022761    0.000050238   -0.000015204
     17        1           0.000054877   -0.000368035   -0.000722099
     18        1           0.000121535    0.000045066    0.000121889
     19        1           0.000005272   -0.000013309    0.000025291
     20        1          -0.000009910    0.000006099    0.000016016
     21        1           0.000015693    0.000018888    0.000014563
     22        1           0.000095196   -0.000024812    0.000220316
 -------------------------------------------------------------------
 Cartesian Forces:  Max     0.001044771 RMS     0.000282741

 GradGradGradGradGradGradGradGradGradGradGradGradGradGradGradGradGradGrad
 Berny optimization.
 Using GEDIIS/GDIIS optimizer.
 FormGI is forming the generalized inverse of G from B-inverse, IUseBI=4.
 Internal  Forces:  Max     0.000558641 RMS     0.000152637
 Search for a local minimum.
 Step number   2 out of a maximum of  117
 All quantities printed in internal units (Hartrees-Bohrs-Radians)
 Mixed Optimization -- En-DIIS/RFO-DIIS
 Update second derivatives using D2CorX and points    1    2
 DE= -1.95D-03 DEPred=-1.94D-03 R= 1.01D+00
 TightC=F SS=  1.41D+00  RLast= 2.63D-01 DXNew= 5.0454D-01 7.8988D-01
 Trust test= 1.01D+00 RLast= 2.63D-01 DXMaxT set to 5.05D-01
 ITU=  1  0
 Use linear search instead of GDIIS.
     Eigenvalues ---    0.00284   0.00338   0.00415   0.00682   0.00991
     Eigenvalues ---    0.01586   0.01724   0.01759   0.02161   0.02200
     Eigenvalues ---    0.02455   0.02798   0.02876   0.03024   0.03204
     Eigenvalues ---    0.04248   0.04482   0.04536   0.05190   0.07955
     Eigenvalues ---    0.08400   0.10763   0.10920   0.11505   0.11877
     Eigenvalues ---    0.12327   0.12437   0.12861   0.13967   0.14509
     Eigenvalues ---    0.17439   0.18479   0.18627   0.19271   0.19498
     Eigenvalues ---    0.21379   0.24822   0.25567   0.25935   0.32395
     Eigenvalues ---    0.32662   0.33099   0.33221   0.33831   0.34758
     Eigenvalues ---    0.35507   0.35672   0.35820   0.36055   0.36334
     Eigenvalues ---    0.37099   0.38413   0.41214   0.44024   0.44228
     Eigenvalues ---    0.44706   0.46555   0.47561   0.48176   0.51770
 RFO step:  Lambda=-1.02014207D-04 EMin= 2.84349447D-03
 Quartic linear search produced a step of  0.09584.
 Iteration  1 RMS(Cart)=  0.01842715 RMS(Int)=  0.00025650
 Iteration  2 RMS(Cart)=  0.00037173 RMS(Int)=  0.00008184
 Iteration  3 RMS(Cart)=  0.00000005 RMS(Int)=  0.00008184
 Variable       Old X    -DE/DX   Delta X   Delta X   Delta X     New X
                                 (Linear)    (Quad)   (Total)
    R1        2.77109   0.00011   0.00008   0.00025   0.00033   2.77142
    R2        1.92577  -0.00000  -0.00005   0.00015   0.00010   1.92587
    R3        1.92550   0.00001  -0.00011   0.00024   0.00014   1.92563
    R4        2.91431   0.00025   0.00006   0.00075   0.00081   2.91511
    R5        2.07321  -0.00001   0.00018  -0.00037  -0.00019   2.07302
    R6        2.07089   0.00002   0.00014  -0.00019  -0.00005   2.07084
    R7        2.75447   0.00051  -0.00053  -0.00083  -0.00136   2.75311
    R8        2.07064   0.00005  -0.00001   0.00119   0.00118   2.07182
    R9        2.07156  -0.00000  -0.00017  -0.00031  -0.00047   2.07108
   R10        2.63255   0.00026  -0.00049  -0.00401  -0.00450   2.62805
   R11        1.91271   0.00006  -0.00092  -0.00015  -0.00107   1.91164
   R12        2.66761   0.00035   0.00149  -0.00034   0.00114   2.66875
   R13        2.66318   0.00041   0.00181  -0.00006   0.00174   2.66493
   R14        2.62873   0.00011  -0.00132   0.00143   0.00012   2.62885
   R15        2.05515  -0.00000   0.00005  -0.00008  -0.00003   2.05513
   R16        2.64337   0.00026   0.00156  -0.00099   0.00057   2.64394
   R17        2.05365   0.00001   0.00005   0.00004   0.00009   2.05374
   R18        2.63734   0.00011   0.00082  -0.00040   0.00043   2.63778
   R19        2.05103   0.00001  -0.00019   0.00016  -0.00003   2.05101
   R20        2.63763   0.00007  -0.00078   0.00046  -0.00031   2.63732
   R21        2.05377   0.00001   0.00000   0.00011   0.00011   2.05388
   R22        2.04911  -0.00001  -0.00010   0.00014   0.00004   2.04915
    A1        1.90714  -0.00001  -0.00085   0.00066  -0.00020   1.90694
    A2        1.90719   0.00003  -0.00049   0.00024  -0.00026   1.90693
    A3        1.83996  -0.00006  -0.00140   0.00025  -0.00116   1.83880
    A4        2.00541   0.00025   0.00285  -0.00232   0.00053   2.00594
    A5        1.89368  -0.00009   0.00009  -0.00068  -0.00058   1.89310
    A6        1.89174  -0.00010   0.00001   0.00044   0.00047   1.89220
    A7        1.89721  -0.00003  -0.00152   0.00228   0.00074   1.89796
    A8        1.90881  -0.00004  -0.00173   0.00106  -0.00068   1.90813
    A9        1.86173  -0.00001   0.00017  -0.00072  -0.00057   1.86116
   A10        2.00454   0.00056   0.00439  -0.00157   0.00280   2.00734
   A11        1.91745  -0.00029  -0.00236  -0.00133  -0.00365   1.91380
   A12        1.90232  -0.00005   0.00063   0.00118   0.00174   1.90406
   A13        1.90648  -0.00022  -0.00390   0.00370  -0.00017   1.90631
   A14        1.87265  -0.00006   0.00030  -0.00001   0.00021   1.87286
   A15        1.85400   0.00002   0.00090  -0.00202  -0.00112   1.85288
   A16        2.14578   0.00030   0.00204   0.00551   0.00713   2.15291
   A17        1.97697  -0.00006   0.00077   0.00926   0.00955   1.98652
   A18        1.97487   0.00000   0.00172   0.00846   0.00969   1.98456
   A19        2.07908   0.00001   0.00126   0.00120   0.00243   2.08151
   A20        2.14393   0.00002  -0.00180  -0.00027  -0.00211   2.14183
   A21        2.05868  -0.00002   0.00092  -0.00072   0.00011   2.05879
   A22        2.11136  -0.00006  -0.00099   0.00044  -0.00058   2.11078
   A23        2.07903  -0.00007  -0.00145   0.00098  -0.00046   2.07857
   A24        2.09278   0.00013   0.00244  -0.00142   0.00104   2.09382
   A25        2.10821   0.00006   0.00143  -0.00070   0.00071   2.10892
   A26        2.07916  -0.00004  -0.00132   0.00078  -0.00053   2.07863
   A27        2.09582  -0.00002  -0.00011  -0.00008  -0.00019   2.09563
   A28        2.07004  -0.00003  -0.00152   0.00106  -0.00047   2.06957
   A29        2.10635   0.00002   0.00073  -0.00055   0.00018   2.10653
   A30        2.10679   0.00002   0.00080  -0.00051   0.00028   2.10707
   A31        2.11538   0.00010   0.00163  -0.00095   0.00067   2.11604
   A32        2.09373  -0.00004  -0.00004  -0.00019  -0.00023   2.09351
   A33        2.07408  -0.00007  -0.00159   0.00114  -0.00045   2.07363
   A34        2.10269  -0.00006  -0.00133   0.00090  -0.00045   2.10224
   A35        2.10088  -0.00005  -0.00127  -0.00009  -0.00135   2.09953
   A36        2.07962   0.00011   0.00260  -0.00081   0.00180   2.08142
    D1       -0.98371   0.00002   0.00102  -0.00509  -0.00407  -0.98779
    D2        1.14345   0.00008   0.00105  -0.00424  -0.00318   1.14027
    D3       -3.12447  -0.00003   0.00130  -0.00520  -0.00391  -3.12838
    D4        1.02130  -0.00003  -0.00142  -0.00430  -0.00571   1.01559
    D5       -3.13473   0.00003  -0.00139  -0.00344  -0.00482  -3.13954
    D6       -1.11946  -0.00008  -0.00114  -0.00441  -0.00555  -1.12501
    D7        3.10540   0.00022   0.00463   0.02732   0.03198   3.13738
    D8       -1.02066   0.00012   0.00091   0.03001   0.03092  -0.98974
    D9        1.00414  -0.00005   0.00104   0.02751   0.02853   1.03266
   D10        0.98016   0.00019   0.00369   0.02807   0.03180   1.01196
   D11        3.13728   0.00009  -0.00003   0.03076   0.03074  -3.11516
   D12       -1.12110  -0.00008   0.00009   0.02826   0.02835  -1.09276
   D13       -1.04623   0.00023   0.00535   0.02708   0.03244  -1.01379
   D14        1.11089   0.00013   0.00163   0.02977   0.03138   1.14227
   D15        3.13569  -0.00004   0.00176   0.02727   0.02899  -3.11851
   D16        1.23797  -0.00008  -0.00221  -0.01613  -0.01833   1.21964
   D17       -1.24153  -0.00044  -0.00941  -0.05584  -0.06532  -1.30685
   D18       -0.92499   0.00006   0.00069  -0.01616  -0.01541  -0.94040
   D19        2.87870  -0.00030  -0.00652  -0.05586  -0.06241   2.81629
   D20       -2.92768   0.00018   0.00147  -0.01564  -0.01412  -2.94181
   D21        0.87600  -0.00018  -0.00574  -0.05535  -0.06112   0.81488
   D22       -2.83142   0.00006   0.00301   0.00247   0.00540  -2.82602
   D23        0.36992  -0.00015  -0.00223  -0.00174  -0.00403   0.36589
   D24       -0.35122   0.00040   0.00985   0.04240   0.05231  -0.29892
   D25        2.85012   0.00018   0.00461   0.03819   0.04287   2.89299
   D26       -3.08946   0.00000   0.00019   0.00209   0.00222  -3.08725
   D27        0.04867  -0.00001  -0.00006   0.00210   0.00199   0.05065
   D28       -0.00470   0.00020   0.00500   0.00610   0.01112   0.00642
   D29        3.13343   0.00019   0.00474   0.00612   0.01089  -3.13886
   D30        3.08542  -0.00000  -0.00003  -0.00098  -0.00105   3.08437
   D31       -0.05468  -0.00002  -0.00008  -0.00116  -0.00128  -0.05596
   D32        0.00292  -0.00021  -0.00523  -0.00521  -0.01045  -0.00753
   D33       -3.13718  -0.00023  -0.00529  -0.00539  -0.01068   3.13533
   D34        0.00297  -0.00008  -0.00191  -0.00322  -0.00513  -0.00217
   D35       -3.13881  -0.00003  -0.00097  -0.00100  -0.00197  -3.14078
   D36       -3.13514  -0.00007  -0.00165  -0.00324  -0.00490  -3.14003
   D37        0.00628  -0.00002  -0.00071  -0.00102  -0.00174   0.00454
   D38        0.00065  -0.00004  -0.00109  -0.00069  -0.00177  -0.00112
   D39       -3.13983   0.00003   0.00053   0.00027   0.00080  -3.13903
   D40       -3.14076  -0.00009  -0.00204  -0.00293  -0.00496   3.13746
   D41        0.00194  -0.00002  -0.00041  -0.00198  -0.00239  -0.00045
   D42       -0.00244   0.00003   0.00084   0.00157   0.00240  -0.00003
   D43       -3.14133   0.00009   0.00215   0.00204   0.00417  -3.13716
   D44        3.13805  -0.00004  -0.00078   0.00061  -0.00017   3.13788
   D45       -0.00085   0.00002   0.00053   0.00108   0.00160   0.00076
   D46        0.00062   0.00010   0.00243   0.00145   0.00385   0.00447
   D47        3.14074   0.00011   0.00247   0.00163   0.00408  -3.13837
   D48        3.13954   0.00004   0.00112   0.00099   0.00210  -3.14154
   D49       -0.00352   0.00005   0.00117   0.00117   0.00232  -0.00120
[...]
     6  C   -0.039504   0.004668   0.001062   0.005565
     7  C    0.366777  -0.041968   0.004902   0.000365
     8  C   -0.044205   0.366460  -0.044150   0.005322
     9  C    0.004976  -0.042162   0.366164  -0.038688
    10  C    0.000942   0.004749  -0.039026   0.362982
    11  H   -0.000000   0.000000  -0.000000  -0.000001
    12  H    0.000000  -0.000000  -0.000000   0.000054
    13  H    0.000000  -0.000000   0.000000  -0.000007
    14  H   -0.000000  -0.000000  -0.000002   0.001425
    15  H    0.000000  -0.000000   0.000003   0.001233
    16  H   -0.000000  -0.000000  -0.000000   0.000028
    17  H   -0.000016  -0.000000   0.000004  -0.000187
    18  H   -0.007527  -0.000183   0.000015  -0.000192
    19  H    0.661199  -0.006208  -0.000229   0.000015
    20  H   -0.006208   0.635544  -0.006266  -0.000184
    21  H   -0.000229  -0.006266   0.661275  -0.007447
    22  H    0.000015  -0.000184  -0.007447   0.653148
 Mulliken charges:
               1
     1  N   -0.607738
     2  C   -0.058214
     3  C   -0.088871
     4  N   -0.486802
     5  C    0.291512
     6  C   -0.190195
     7  C   -0.171971
     8  C   -0.072243
     9  C   -0.183567
    10  C   -0.162176
    11  H    0.267421
    12  H    0.267413
    13  H    0.128881
    14  H    0.124333
    15  H    0.149722
    16  H    0.144072
    17  H    0.312209
    18  H    0.062980
    19  H    0.059490
    20  H    0.084738
    21  H    0.059518
    22  H    0.069490
 Sum of Mulliken charges =  -0.00000
 Mulliken charges with hydrogens summed into heavy atoms:
               1
     1  N   -0.072905
     2  C    0.195000
     3  C    0.204923
     4  N   -0.174593
     5  C    0.291512
     6  C   -0.127215
     7  C   -0.112481
     8  C    0.012495
     9  C   -0.124049
    10  C   -0.092685
 Electronic spatial extent (au):  <R**2>=           1924.2026
 Charge=              0.0000 electrons
 Dipole moment (field-independent basis, Debye):
    X=             -6.6184    Y=             -2.4732    Z=              1.6356  Tot=              7.2523
 Quadrupole moment (field-independent basis, Debye-Ang):
   XX=            -57.7806   YY=            -55.0566   ZZ=            -65.2865
   XY=              4.6780   XZ=             -8.4707   YZ=              2.8379
 Traceless Quadrupole moment (field-independent basis, Debye-Ang):
   XX=              1.5939   YY=              4.3180   ZZ=             -5.9119
   XY=              4.6780   XZ=             -8.4707   YZ=              2.8379
 Octapole moment (field-independent basis, Debye-Ang**2):
  XXX=            -51.0760  YYY=            -12.4370  ZZZ=              2.9102  XYY=            -15.1931
  XXY=             -8.8622  XXZ=             25.1413  XZZ=             -9.2016  YZZ=             -2.6107
  YYZ=              2.2175  XYZ=             -7.6540
 Hexadecapole moment (field-independent basis, Debye-Ang**3):
 XXXX=          -1885.3228 YYYY=           -379.4565 ZZZZ=           -171.2255 XXXY=             67.2428
 XXXZ=           -142.1781 YYYX=              0.6541 YYYZ=              7.7613 ZZZX=             -6.4257
 ZZZY=             -0.2585 XXYY=           -387.0678 XXZZ=           -400.7322 YYZZ=           -103.1334
 XXYZ=             32.0370 YYXZ=            -13.5076 ZZXY=              5.4517
 N-N= 4.984283135984D+02 E-N=-1.974224063815D+03  KE= 4.175992984311D+02
 Evaluate density.
 Using the total density.
 Monte-Carlo method of calculating molar volume:
 based on  0.001 e/bohr**3 density envelope.
 Number of points per bohr**3 =   20 CutOff= 1.00D-04
 Using the CI density.
 There are       383 points.  Will hold       383 in memory.
 LenV=   805180096 MDV=   805306368.
 Box volume = 7028.766 fraction occupied=0.175
 Integrated density= 5.8288341067143321D+01 error=-1.5711658932856679D+01
 Molar volume = 1229.575 bohr**3/mol (109.726 cm**3/mol)
 Recommended a0 for SCRF calculation =  4.37 angstrom (  8.26 bohr)
 ******************************Gaussian NBO Version 3.1******************************
             N A T U R A L   A T O M I C   O R B I T A L   A N D
          N A T U R A L   B O N D   O R B I T A L   A N A L Y S I S
 ******************************Gaussian NBO Version 3.1******************************
       /RESON  / : Allow strongly delocalized NBO set

 Analyzing the CI density

 Job title: OCIDXARMXNJACB-UHFFFAOYSA-N_conf_2                              

 Storage needed:    133984 in NPA ( 805303728 available)
 GSVD:  LWork=       24900 too small for GESVD, short by       12636 words or       12636 for optimal perf.


 NATURAL POPULATIONS:  Natural atomic orbital occupancies 
                                                          
   NAO  Atom  No  lang   Type(AO)    Occupancy
 --------------------------------------------
     1    N    1  S      Cor( 1S)     1.99970
     2    N    1  S      Val( 2S)     1.44177
     3    N    1  S      Ryd( 3S)     0.00023
     4    N    1  S      Ryd( 4S)     0.00001
     5    N    1  px     Val( 2p)     1.32537
     6    N    1  px     Ryd( 3p)     0.00271
     7    N    1  py     Val( 2p)     1.40410
     8    N    1  py     Ryd( 3p)     0.00241
     9    N    1  pz     Val( 2p)     1.69902
    10    N    1  pz     Ryd( 3p)     0.00461
    11    N    1  dxy    Ryd( 3d)     0.00065
    12    N    1  dxz    Ryd( 3d)     0.00100
    13    N    1  dyz    Ryd( 3d)     0.00151
    14    N    1  dx2y2  Ryd( 3d)     0.00030
    15    N    1  dz2    Ryd( 3d)     0.00111

    16    C    2  S      Cor( 1S)     1.99935
    17    C    2  S      Val( 2S)     1.03464
    18    C    2  S      Ryd( 3S)     0.00165
    19    C    2  S      Ryd( 4S)     0.00004
    20    C    2  px     Val( 2p)     0.97376
    21    C    2  px     Ryd( 3p)     0.00355
    22    C    2  py     Val( 2p)     1.16154
    23    C    2  py     Ryd( 3p)     0.00358
    24    C    2  pz     Val( 2p)     1.09402
    25    C    2  pz     Ryd( 3p)     0.00134
    26    C    2  dxy    Ryd( 3d)     0.00123
    27    C    2  dxz    Ryd( 3d)     0.00107
    28    C    2  dyz    Ryd( 3d)     0.00114
    29    C    2  dx2y2  Ryd( 3d)     0.00078
    30    C    2  dz2    Ryd( 3d)     0.00059

    31    C    3  S      Cor( 1S)     1.99931
    32    C    3  S      Val( 2S)     1.03963
    33    C    3  S      Ryd( 3S)     0.00169
    34    C    3  S      Ryd( 4S)     0.00003
    35    C    3  px     Val( 2p)     0.93952
    36    C    3  px     Ryd( 3p)     0.00419
    37    C    3  py     Val( 2p)     1.17279
    38    C    3  py     Ryd( 3p)     0.00506
    39    C    3  pz     Val( 2p)     1.13934
    40    C    3  pz     Ryd( 3p)     0.00146
    41    C    3  dxy    Ryd( 3d)     0.00113
    42    C    3  dxz    Ryd( 3d)     0.00087
    43    C    3  dyz    Ryd( 3d)     0.00108
    44    C    3  dx2y2  Ryd( 3d)     0.00066
    45    C    3  dz2    Ryd( 3d)     0.00068

    46    N    4  S      Cor( 1S)     1.99940
    47    N    4  S      Val( 2S)     1.27882
    48    N    4  S      Ryd( 3S)     0.00074
    49    N    4  S      Ryd( 4S)     0.00002
    50    N    4  px     Val( 2p)     1.27495
    51    N    4  px     Ryd( 3p)     0.00104
    52    N    4  py     Val( 2p)     1.39832
    53    N    4  py     Ryd( 3p)     0.00245
    54    N    4  pz     Val( 2p)     1.46758
    55    N    4  pz     Ryd( 3p)     0.00349
    56    N    4  dxy    Ryd( 3d)     0.00058
    57    N    4  dxz    Ryd( 3d)     0.00061
    58    N    4  dyz    Ryd( 3d)     0.00074
    59    N    4  dx2y2  Ryd( 3d)     0.00065
    60    N    4  dz2    Ryd( 3d)     0.00053

    61    C    5  S      Cor( 1S)     1.99899
    62    C    5  S      Val( 2S)     0.84579
    63    C    5  S      Ryd( 3S)     0.00141
    64    C    5  S      Ryd( 4S)     0.00009
    65    C    5  px     Val( 2p)     0.92965
    66    C    5  px     Ryd( 3p)     0.00522
    67    C    5  py     Val( 2p)     1.06087
    68    C    5  py     Ryd( 3p)     0.00588
    69    C    5  pz     Val( 2p)     0.98524
    70    C    5  pz     Ryd( 3p)     0.00200
    71    C    5  dxy    Ryd( 3d)     0.00116
    72    C    5  dxz    Ryd( 3d)     0.00093
    73    C    5  dyz    Ryd( 3d)     0.00131
    74    C    5  dx2y2  Ryd( 3d)     0.00092
    75    C    5  dz2    Ryd( 3d)     0.00075

    76    C    6  S      Cor( 1S)     1.99907
    77    C    6  S      Val( 2S)     0.94472
    78    C    6  S      Ryd( 3S)     0.00070
    79    C    6  S      Ryd( 4S)     0.00003
    80    C    6  px     Val( 2p)     1.06502
    81    C    6  px     Ryd( 3p)     0.00509
    82    C    6  py     Val( 2p)     1.18163
    83    C    6  py     Ryd( 3p)     0.00421
    84    C    6  pz     Val( 2p)     1.15398
    85    C    6  pz     Ryd( 3p)     0.00735
    86    C    6  dxy    Ryd( 3d)     0.00059
    87    C    6  dxz    Ryd( 3d)     0.00059
    88    C    6  dyz    Ryd( 3d)     0.00036
    89    C    6  dx2y2  Ryd( 3d)     0.00062
    90    C    6  dz2    Ryd( 3d)     0.00042

    91    C    7  S      Cor( 1S)     1.99914
    92    C    7  S      Val( 2S)     0.95036
    93    C    7  S      Ryd( 3S)     0.00065
    94    C    7  S      Ryd( 4S)     0.00003
    95    C    7  px     Val( 2p)     1.14075
    96    C    7  px     Ryd( 3p)     0.00505
    97    C    7  py     Val( 2p)     1.09937
    98    C    7  py     Ryd( 3p)     0.00539
    99    C    7  pz     Val( 2p)     1.15302
   100    C    7  pz     Ryd( 3p)     0.00604
   101    C    7  dxy    Ryd( 3d)     0.00063
   102    C    7  dxz    Ryd( 3d)     0.00050
   103    C    7  dyz    Ryd( 3d)     0.00045
   104    C    7  dx2y2  Ryd( 3d)     0.00060
   105    C    7  dz2    Ryd( 3d)     0.00035

   106    C    8  S      Cor( 1S)     1.99911
   107    C    8  S      Val( 2S)     0.97183
   108    C    8  S      Ryd( 3S)     0.00049
   109    C    8  S      Ryd( 4S)     0.00003
   110    C    8  px     Val( 2p)     1.15561
   111    C    8  px     Ryd( 3p)     0.00446
   112    C    8  py     Val( 2p)     1.08569
   113    C    8  py     Ryd( 3p)     0.00446
   114    C    8  pz     Val( 2p)     0.94012
   115    C    8  pz     Ryd( 3p)     0.00163
   116    C    8  dxy    Ryd( 3d)     0.00079
   117    C    8  dxz    Ryd( 3d)     0.00040
   118    C    8  dyz    Ryd( 3d)     0.00083
   119    C    8  dx2y2  Ryd( 3d)     0.00065
   120    C    8  dz2    Ryd( 3d)     0.00054

   121    C    9  S      Cor( 1S)     1.99914
   122    C    9  S      Val( 2S)     0.94936
   123    C    9  S      Ryd( 3S)     0.00070
   124    C    9  S      Ryd( 4S)     0.00003
   125    C    9  px     Val( 2p)     1.06126
   126    C    9  px     Ryd( 3p)     0.00571
   127    C    9  py     Val( 2p)     1.18819
   128    C    9  py     Ryd( 3p)     0.00484
   129    C    9  pz     Val( 2p)     1.14805
   130    C    9  pz     Ryd( 3p)     0.00643
   131    C    9  dxy    Ryd( 3d)     0.00059
   132    C    9  dxz    Ryd( 3d)     0.00049
   133    C    9  dyz    Ryd( 3d)     0.00036
   134    C    9  dx2y2  Ryd( 3d)     0.00066
   135    C    9  dz2    Ryd( 3d)     0.00039

   136    C   10  S      Cor( 1S)     1.99907
   137    C   10  S      Val( 2S)     0.94515
   138    C   10  S      Ryd( 3S)     0.00066
   139    C   10  S      Ryd( 4S)     0.00004
   140    C   10  px     Val( 2p)     1.15709
   141    C   10  px     Ryd( 3p)     0.00388
   142    C   10  py     Val( 2p)     1.08458
   143    C   10  py     Ryd( 3p)     0.00482
   144    C   10  pz     Val( 2p)     1.15822
   145    C   10  pz     Ryd( 3p)     0.00709
   146    C   10  dxy    Ryd( 3d)     0.00056
   147    C   10  dxz    Ryd( 3d)     0.00056
   148    C   10  dyz    Ryd( 3d)     0.00048
   149    C   10  dx2y2  Ryd( 3d)     0.00066
   150    C   10  dz2    Ryd( 3d)     0.00036

   151    H   11  S      Val( 1S)     0.60278
   152    H   11  S      Ryd( 2S)     0.00136
   153    H   11  px     Ryd( 2p)     0.00044
   154    H   11  py     Ryd( 2p)     0.00042
   155    H   11  pz     Ryd( 2p)     0.00056

   156    H   12  S      Val( 1S)     0.60295
   157    H   12  S      Ryd( 2S)     0.00141
   158    H   12  px     Ryd( 2p)     0.00030
   159    H   12  py     Ryd( 2p)     0.00049
   160    H   12  pz     Ryd( 2p)     0.00063

   161    H   13  S      Val( 1S)     0.75875
   162    H   13  S      Ryd( 2S)     0.00149
   163    H   13  px     Ryd( 2p)     0.00005
   164    H   13  py     Ryd( 2p)     0.00025
   165    H   13  pz     Ryd( 2p)     0.00024

   166    H   14  S      Val( 1S)     0.75601
   167    H   14  S      Ryd( 2S)     0.00338
   168    H   14  px     Ryd( 2p)     0.00020
   169    H   14  py     Ryd( 2p)     0.00019
   170    H   14  pz     Ryd( 2p)     0.00015

   171    H   15  S      Val( 1S)     0.74330
   172    H   15  S      Ryd( 2S)     0.00191
   173    H   15  px     Ryd( 2p)     0.00006
   174    H   15  py     Ryd( 2p)     0.00023
   175    H   15  pz     Ryd( 2p)     0.00024

   176    H   16  S      Val( 1S)     0.73657
   177    H   16  S      Ryd( 2S)     0.00141
   178    H   16  px     Ryd( 2p)     0.00020
   179    H   16  py     Ryd( 2p)     0.00019
   180    H   16  pz     Ryd( 2p)     0.00014

   181    H   17  S      Val( 1S)     0.55601
   182    H   17  S      Ryd( 2S)     0.00231
   183    H   17  px     Ryd( 2p)     0.00017
   184    H   17  py     Ryd( 2p)     0.00058
   185    H   17  pz     Ryd( 2p)     0.00044

   186    H   18  S      Val( 1S)     0.77338
   187    H   18  S      Ryd( 2S)     0.00117
   188    H   18  px     Ryd( 2p)     0.00007
   189    H   18  py     Ryd( 2p)     0.00038
   190    H   18  pz     Ryd( 2p)     0.00022

   191    H   19  S      Val( 1S)     0.77176
   192    H   19  S      Ryd( 2S)     0.00077
   193    H   19  px     Ryd( 2p)     0.00027
   194    H   19  py     Ryd( 2p)     0.00016
   195    H   19  pz     Ryd( 2p)     0.00023

   196    H   20  S      Val( 1S)     0.76545
   197    H   20  S      Ryd( 2S)     0.00083
   198    H   20  px     Ryd( 2p)     0.00035
   199    H   20  py     Ryd( 2p)     0.00014
   200    H   20  pz     Ryd( 2p)     0.00012

   201    H   21  S      Val( 1S)     0.77228
   202    H   21  S      Ryd( 2S)     0.00079
   203    H   21  px     Ryd( 2p)     0.00008
   204    H   21  py     Ryd( 2p)     0.00038
   205    H   21  pz     Ryd( 2p)     0.00021

   206    H   22  S      Val( 1S)     0.77026
   207    H   22  S      Ryd( 2S)     0.00106
   208    H   22  px     Ryd( 2p)     0.00026
   209    H   22  py     Ryd( 2p)     0.00017
   210    H   22  pz     Ryd( 2p)     0.00025

 WARNING:  1 low occupancy (<1.9990e) core orbital  found on  C    5


 Summary of Natural Population Analysis:                  
                                                          
                                       Natural Population 
                Natural  -----------------------------------------------
    Atom  No    Charge         Core      Valence    Rydberg      Total
 -----------------------------------------------------------------------
      N    1   -0.88449      1.99970     5.87027    0.01453     7.88449
      C    2   -0.27828      1.99935     4.26396    0.01497     6.27828
      C    3   -0.30743      1.99931     4.29128    0.01684     6.30743
      N    4   -0.42992      1.99940     5.41967    0.01085     7.42992
      C    5    0.15978      1.99899     3.82155    0.01967     5.84022
      C    6   -0.36439      1.99907     4.34536    0.01996     6.36439
      C    7   -0.36235      1.99914     4.34351    0.01970     6.36235
      C    8   -0.16662      1.99911     4.15325    0.01426     6.16662
      C    9   -0.36620      1.99914     4.34686    0.02020     6.36620
      C   10   -0.36321      1.99907     4.34504    0.01910     6.36321
      H   11    0.39444      0.00000     0.60278    0.00278     0.60556
      H   12    0.39422      0.00000     0.60295    0.00283     0.60578
      H   13    0.23922      0.00000     0.75875    0.00204     0.76078
      H   14    0.24006      0.00000     0.75601    0.00393     0.75994
      H   15    0.25424      0.00000     0.74330    0.00245     0.74576
      H   16    0.26149      0.00000     0.73657    0.00194     0.73851
      H   17    0.44050      0.00000     0.55601    0.00349     0.55950
      H   18    0.22478      0.00000     0.77338    0.00184     0.77522
      H   19    0.22680      0.00000     0.77176    0.00144     0.77320
      H   20    0.23310      0.00000     0.76545    0.00145     0.76690
      H   21    0.22626      0.00000     0.77228    0.00146     0.77374
      H   22    0.22799      0.00000     0.77026    0.00175     0.77201
 =======================================================================
   * Total *    0.00000     19.99228    53.81025    0.19748    74.00000

                                 Natural Population      
 --------------------------------------------------------
   Core                      19.99228 ( 99.9614% of  20)
   Valence                   53.81025 ( 99.6486% of  54)
   Natural Minimal Basis     73.80252 ( 99.7331% of  74)
   Natural Rydberg Basis      0.19748 (  0.2669% of  74)
 --------------------------------------------------------

    Atom  No          Natural Electron Configuration
 ----------------------------------------------------------------------------
      N    1      [core]2S( 1.44)2p( 4.43)3p( 0.01)
      C    2      [core]2S( 1.03)2p( 3.23)3p( 0.01)
      C    3      [core]2S( 1.04)2p( 3.25)3p( 0.01)
      N    4      [core]2S( 1.28)2p( 4.14)3p( 0.01)
      C    5      [core]2S( 0.85)2p( 2.98)3p( 0.01)3d( 0.01)
      C    6      [core]2S( 0.94)2p( 3.40)3p( 0.02)
      C    7      [core]2S( 0.95)2p( 3.39)3p( 0.02)
      C    8      [core]2S( 0.97)2p( 3.18)3p( 0.01)
      C    9      [core]2S( 0.95)2p( 3.40)3p( 0.02)
      C   10      [core]2S( 0.95)2p( 3.40)3p( 0.02)
      H   11            1S( 0.60)
      H   12            1S( 0.60)
      H   13            1S( 0.76)
      H   14            1S( 0.76)
      H   15            1S( 0.74)
      H   16            1S( 0.74)
      H   17            1S( 0.56)
      H   18            1S( 0.77)
      H   19            1S( 0.77)
      H   20            1S( 0.77)
      H   21            1S( 0.77)
      H   22            1S( 0.77)


 NBO analysis skipped by request.
 1\1\GINC-CN13\SP\RB3LYP TD-FC\6-31G(d,p)\C8H12N2\QDUEZ\11-Jul-2024\0\\
 # TD(NStates=10, Root=1) B3LYP/6-31G** SCRF=(Solvent=water) volume pop
 =NPA density=current Geom=AllCheck Guess=Read\\OCIDXARMXNJACB-UHFFFAOY
 SA-N_conf_2\\0,1\N,0,3.4490393584,1.1145201406,0.7514793123\C,0,2.2430
 028858,0.2804988845,0.7746940112\C,0,1.7937327438,-0.2508684832,-0.602
 3025686\N,0,0.5956773563,-1.0789630345,-0.5818929886\C,0,-0.6775478595
 ,-0.5821289211,-0.3273073032\C,0,-1.7085978881,-1.4776292239,0.0330801
 136\C,0,-3.0091210034,-1.0270027831,0.2348010149\C,0,-3.3298327161,0.3
 269650757,0.0881491682\C,0,-2.3156852686,1.2190158444,-0.2640959275\C,
 0,-1.0060155101,0.7821385919,-0.468299364\H,0,4.2120873066,0.590326373
 5,0.325338264\H,0,3.2939138811,1.9126670237,0.1372134913\H,0,2.4230670
 785,-0.5723664679,1.4406791625\H,0,1.4289223768,0.8616418284,1.2224253
 846\H,0,1.6402650917,0.5902244291,-1.2887996719\H,0,2.600254746,-0.854
 127439,-1.0343646534\H,0,0.7480082834,-2.0158012953,-0.2325244309\H,0,
 -1.4752617472,-2.5334258707,0.149326929\H,0,-3.7791615551,-1.742038610
 7,0.5121036613\H,0,-4.3448365882,0.676411057,0.2482579034\H,0,-2.53915
 75944,2.2763356182,-0.3799713996\H,0,-0.2427533776,1.5036072624,-0.737
 9901086\\Version=EM64L-G16RevA.03\State=1-A\HF=-421.5980611\RMSD=4.514
 e-09\Dipole=2.7291802,-0.6157636,-0.559905\Quadrupole=2.5962206,2.7489
 103,-5.3451309,-3.0638892,-5.9020973,-2.463625\PG=C01 [X(C8H12N2)]\\@


 ALMOST ANYTHING IS EASIER TO GET INTO THAN OUT OF.

                         -- AGNES ALLEN'S LAW FROM
                PAUL DICKSON'S "THE OFFICIAL RULES"
 Job cpu time:       0 days  0 hours 43 minutes 35.3 seconds.
 Elapsed time:       0 days  0 hours 29 minutes  7.5 seconds.
 File lengths (MBytes):  RWF=    410 Int=      0 D2E=      0 Chk=     26 Scr=      1
 Normal termination of Gaussian 16 at Thu Jul 11 21:46:11 2024.
