 Entering Gaussian System, Link 0=g16
 Initial command:
 /opt/sw/arch/manual/gaussian/G16_A03/g16/l1.exe "/scratch/1032080.jesse.materianova.be/Gau-24538.inp" -scrdir="/scratch/1032080.jesse.materianova.be/"
 Entering Link 1 = /opt/sw/arch/manual/gaussian/G16_A03/g16/l1.exe PID=     24539.
  
 Copyright (c) 1988,1990,1992,1993,1995,1998,2003,2009,2016,
            Gaussian, Inc.  All Rights Reserved.
  
 This is part of the Gaussian(R) 16 program.  It is based on
 the Gaussian(R) 09 system (copyright 2009, Gaussian, Inc.),
 the Gaussian(R) 03 system (copyright 2003, Gaussian, Inc.),
 the Gaussian(R) 98 system (copyright 1998, Gaussian, Inc.),
 the Gaussian(R) 94 system (copyright 1995, Gaussian, Inc.),
 the Gaussian 92(TM) system (copyright 1992, Gaussian, Inc.),
 the Gaussian 90(TM) system (copyright 1990, Gaussian, Inc.),
 the Gaussian 88(TM) system (copyright 1988, Gaussian, Inc.),
 the Gaussian 86(TM) system (copyright 1986, Carnegie Mellon
 University), and the Gaussian 82(TM) system (copyright 1983,
 Carnegie Mellon University). Gaussian is a federally registered
 trademark of Gaussian, Inc.
  
 This software contains proprietary and confidential information,
 including trade secrets, belonging to Gaussian, Inc.
  
 This software is provided under written license and may be
 used, copied, transmitted, or stored only in accord with that
 written license.
  
 The following legend is applicable only to US Government
 contracts under FAR:
  
                    RESTRICTED RIGHTS LEGEND
  
 Use, reproduction and disclosure by the US Government is
 subject to restrictions as set forth in subparagraphs (a)
 and (c) of the Commercial Computer Software - Restricted
 Rights clause in FAR 52.227-19.
  
 Gaussian, Inc.
 340 Quinnipiac St., Bldg. 40, Wallingford CT 06492
  
  
 ---------------------------------------------------------------
 Warning -- This program may not be used in any manner that
 competes with the business of Gaussian, Inc. or will provide
 assistance to any competitor of Gaussian, Inc.  The licensee
 of this program is prohibited from giving any competitor of
 Gaussian, Inc. access to this program.  By using this program,
 the user acknowledges that Gaussian, Inc. is engaged in the
 business of creating and licensing software in the field of
 computational chemistry and represents and warrants to the
 licensee that it is not a competitor of Gaussian, Inc. and that
 it will not use this program in any manner prohibited above.
 ---------------------------------------------------------------
  

 Cite this work as:
 Gaussian 16, Revision A.03,
 M. J. Frisch, G. W. Trucks, H. B. Schlegel, G. E. Scuseria, 
 M. A. Robb, J. R. Cheeseman, G. Scalmani, V. Barone, 
 G. A. Petersson, H. Nakatsuji, X. Li, M. Caricato, A. V. Marenich, 
 J. Bloino, B. G. Janesko, R. Gomperts, B. Mennucci, H. P. Hratchian, 
 J. V. Ortiz, A. F. Izmaylov, J. L. Sonnenberg, D. Williams-Young, 
 F. Ding, F. Lipparini, F. Egidi, J. Goings, B. Peng, A. Petrone, 
 T. Henderson, D. Ranasinghe, V. G. Zakrzewski, J. Gao, N. Rega, 
 G. Zheng, W. Liang, M. Hada, M. Ehara, K. Toyota, R. Fukuda, 
 J. Hasegawa, M. Ishida, T. Nakajima, Y. Honda, O. Kitao, H. Nakai, 
 T. Vreven, K. Throssell, J. A. Montgomery, Jr., J. E. Peralta, 
 F. Ogliaro, M. J. Bearpark, J. J. Heyd, E. N. Brothers, K. N. Kudin, 
 V. N. Staroverov, T. A. Keith, R. Kobayashi, J. Normand, 
 K. Raghavachari, A. P. Rendell, J. C. Burant, S. S. Iyengar, 
 J. Tomasi, M. Cossi, J. M. Millam, M. Klene, C. Adamo, R. Cammi, 
 J. W. Ochterski, R. L. Martin, K. Morokuma, O. Farkas, 
 J. B. Foresman, and D. J. Fox, Gaussian, Inc., Wallingford CT, 2016.
 
 ******************************************
 Gaussian 16:  EM64L-G16RevA.03 25-Dec-2016
                11-Jul-2024 
 ******************************************
 %nprocshared=3
 Will use up to    3 processors via shared memory.
 %mem=6GB
 %Chk=OCIDXARMXNJACB-UHFFFAOYSA-N_conf_1_0.chk
 -------------------------------------------------------
 # opt=CalcFc B3LYP/6-31G** SCRF=(Solvent=water) scf=xqc
 -------------------------------------------------------
 1/10=4,18=20,19=15,26=3,38=1/1,3;
 2/9=110,12=2,17=6,18=5,40=1/2;
 3/5=1,6=6,7=101,11=2,25=1,30=1,70=2201,71=2,72=1,74=-5,140=1/1,2,3;
 4//1;
 5/5=2,8=3,13=1,38=5,53=1/2,8;
 8/6=4,10=90,11=11/1;
 11/6=1,8=1,9=11,15=111,16=1/1,2,10;
 10/6=1,13=1/2;
 6/7=2,8=2,9=2,10=2,28=1/1;
 7/10=1,18=20,25=1/1,2,3,16;
 1/10=4,18=20,19=15,26=3/3(2);
 2/9=110/2;
 99//99;
 2/9=110/2;
 3/5=1,6=6,7=101,11=2,25=1,30=1,70=2205,71=1,72=1,74=-5/1,2,3;
 4/5=5,16=3,69=1/1;
 5/5=2,8=3,13=1,38=5,53=1/2,8;
 7//1,2,3,16;
 1/18=20,19=15,26=3/3(-5);
 2/9=110/2;
 6/7=2,8=2,9=2,10=2,19=2,28=1/1;
 99/9=1/99;
 ----------------------------------
 OCIDXARMXNJACB-UHFFFAOYSA-N_conf_1
 ----------------------------------
 Symbolic Z-matrix:
 Charge =  0 Multiplicity = 1
 N                    -3.24918   0.3462   -0.46057 
 C                    -2.54851  -0.1163    0.74532 
 C                    -1.543    -1.23784   0.41948 
 N                    -0.61618  -0.81716  -0.6375 
 C                     0.63629  -0.27878  -0.34517 
 C                     0.97613   0.28952   0.88726 
 C                     2.22874   0.87943   1.09546 
 C                     3.15689   0.93576   0.06079 
 C                     2.82673   0.41312  -1.18437 
 C                     1.57397  -0.17509  -1.38416 
 H                    -3.65134   1.26396  -0.27922 
 H                    -2.52269   0.49496  -1.16923 
 H                    -2.0247    0.73594   1.19083 
 H                    -3.28199  -0.4747    1.47445 
 H                    -1.01917  -1.57334   1.32166 
 H                    -2.10049  -2.10775   0.04984 
 H                    -0.58578  -1.47769  -1.41014 
 H                     0.2768    0.28835   1.71649 
 H                     2.4718    1.30251   2.06655 
 H                     4.12748   1.39686   0.2208 
 H                     3.53629   0.46858  -2.0053 
 H                     1.33192  -0.55653  -2.37328 
 

 GradGradGradGradGradGradGradGradGradGradGradGradGradGradGradGradGradGrad
 Berny optimization.
 Initialization pass.
                           ----------------------------
                           !    Initial Parameters    !
                           ! (Angstroms and Degrees)  !
 --------------------------                            --------------------------
 ! Name  Definition              Value          Derivative Info.                !
 --------------------------------------------------------------------------------
 ! R1    R(1,2)                  1.4694         calculate D2E/DX2 analytically  !
 ! R2    R(1,11)                 1.0183         calculate D2E/DX2 analytically  !
 ! R3    R(1,12)                 1.0257         calculate D2E/DX2 analytically  !
 ! R4    R(2,3)                  1.5411         calculate D2E/DX2 analytically  !
 ! R5    R(2,13)                 1.0951         calculate D2E/DX2 analytically  !
 ! R6    R(2,14)                 1.0946         calculate D2E/DX2 analytically  !
 ! R7    R(3,4)                  1.4674         calculate D2E/DX2 analytically  !
 ! R8    R(3,15)                 1.0958         calculate D2E/DX2 analytically  !
 ! R9    R(3,16)                 1.0973         calculate D2E/DX2 analytically  !
 ! R10   R(4,5)                  1.3943         calculate D2E/DX2 analytically  !
 ! R11   R(4,17)                 1.017          calculate D2E/DX2 analytically  !
 ! R12   R(5,6)                  1.399          calculate D2E/DX2 analytically  !
 ! R13   R(5,10)                 1.4034         calculate D2E/DX2 analytically  !
 ! R14   R(6,7)                  1.4001         calculate D2E/DX2 analytically  !
 ! R15   R(6,18)                 1.0847         calculate D2E/DX2 analytically  !
 ! R16   R(7,8)                  1.3911         calculate D2E/DX2 analytically  !
 ! R17   R(7,19)                 1.0868         calculate D2E/DX2 analytically  !
 ! R18   R(8,9)                  1.3902         calculate D2E/DX2 analytically  !
 ! R19   R(8,20)                 1.0864         calculate D2E/DX2 analytically  !
 ! R20   R(9,10)                 1.3983         calculate D2E/DX2 analytically  !
 ! R21   R(9,21)                 1.0865         calculate D2E/DX2 analytically  !
 ! R22   R(10,22)                1.0874         calculate D2E/DX2 analytically  !
 ! A1    A(2,1,11)             109.0178         calculate D2E/DX2 analytically  !
 ! A2    A(2,1,12)             105.9572         calculate D2E/DX2 analytically  !
 ! A3    A(11,1,12)            105.7868         calculate D2E/DX2 analytically  !
 ! A4    A(1,2,3)              111.5104         calculate D2E/DX2 analytically  !
 ! A5    A(1,2,13)             108.4822         calculate D2E/DX2 analytically  !
 ! A6    A(1,2,14)             109.2817         calculate D2E/DX2 analytically  !
 ! A7    A(3,2,13)             109.8941         calculate D2E/DX2 analytically  !
 ! A8    A(3,2,14)             109.8628         calculate D2E/DX2 analytically  !
 ! A9    A(13,2,14)            107.7205         calculate D2E/DX2 analytically  !
 ! A10   A(2,3,4)              110.8402         calculate D2E/DX2 analytically  !
 ! A11   A(2,3,15)             111.1383         calculate D2E/DX2 analytically  !
 ! A12   A(2,3,16)             108.4608         calculate D2E/DX2 analytically  !
 ! A13   A(4,3,15)             112.2641         calculate D2E/DX2 analytically  !
 ! A14   A(4,3,16)             107.7886         calculate D2E/DX2 analytically  !
 ! A15   A(15,3,16)            106.1091         calculate D2E/DX2 analytically  !
 ! A16   A(3,4,5)              121.8065         calculate D2E/DX2 analytically  !
 ! A17   A(3,4,17)             112.3305         calculate D2E/DX2 analytically  !
 ! A18   A(5,4,17)             112.5346         calculate D2E/DX2 analytically  !
 ! A19   A(4,5,6)              124.0384         calculate D2E/DX2 analytically  !
 ! A20   A(4,5,10)             118.2621         calculate D2E/DX2 analytically  !
 ! A21   A(6,5,10)             117.3783         calculate D2E/DX2 analytically  !
 ! A22   A(5,6,7)              121.2949         calculate D2E/DX2 analytically  !
 ! A23   A(5,6,18)             121.0885         calculate D2E/DX2 analytically  !
 ! A24   A(7,6,18)             117.6166         calculate D2E/DX2 analytically  !
 ! A25   A(6,7,8)              120.223          calculate D2E/DX2 analytically  !
 ! A26   A(6,7,19)             119.7998         calculate D2E/DX2 analytically  !
 ! A27   A(8,7,19)             119.9748         calculate D2E/DX2 analytically  !
 ! A28   A(7,8,9)              119.5053         calculate D2E/DX2 analytically  !
 ! A29   A(7,8,20)             120.2462         calculate D2E/DX2 analytically  !
 ! A30   A(9,8,20)             120.2433         calculate D2E/DX2 analytically  !
 ! A31   A(8,9,10)             119.9273         calculate D2E/DX2 analytically  !
 ! A32   A(8,9,21)             120.1628         calculate D2E/DX2 analytically  !
 ! A33   A(10,9,21)            119.9075         calculate D2E/DX2 analytically  !
 ! A34   A(5,10,9)             121.594          calculate D2E/DX2 analytically  !
 ! A35   A(5,10,22)            119.9195         calculate D2E/DX2 analytically  !
 ! A36   A(9,10,22)            118.4864         calculate D2E/DX2 analytically  !
 ! D1    D(11,1,2,3)          -161.0195         calculate D2E/DX2 analytically  !
 ! D2    D(11,1,2,13)          -39.8626         calculate D2E/DX2 analytically  !
 ! D3    D(11,1,2,14)           77.3266         calculate D2E/DX2 analytically  !
 ! D4    D(12,1,2,3)           -47.5755         calculate D2E/DX2 analytically  !
 ! D5    D(12,1,2,13)           73.5814         calculate D2E/DX2 analytically  !
 ! D6    D(12,1,2,14)         -169.2293         calculate D2E/DX2 analytically  !
 ! D7    D(1,2,3,4)             54.0326         calculate D2E/DX2 analytically  !
 ! D8    D(1,2,3,15)           179.6116         calculate D2E/DX2 analytically  !
 ! D9    D(1,2,3,16)           -64.1124         calculate D2E/DX2 analytically  !
 ! D10   D(13,2,3,4)           -66.2982         calculate D2E/DX2 analytically  !
 ! D11   D(13,2,3,15)           59.2808         calculate D2E/DX2 analytically  !
 ! D12   D(13,2,3,16)          175.5568         calculate D2E/DX2 analytically  !
 ! D13   D(14,2,3,4)           175.3491         calculate D2E/DX2 analytically  !
 ! D14   D(14,2,3,15)          -59.0719         calculate D2E/DX2 analytically  !
 ! D15   D(14,2,3,16)           57.204          calculate D2E/DX2 analytically  !
 ! D16   D(2,3,4,5)             95.2921         calculate D2E/DX2 analytically  !
 ! D17   D(2,3,4,17)          -126.7834         calculate D2E/DX2 analytically  !
 ! D18   D(15,3,4,5)           -29.6532         calculate D2E/DX2 analytically  !
 ! D19   D(15,3,4,17)          108.2713         calculate D2E/DX2 analytically  !
 ! D20   D(16,3,4,5)          -146.155          calculate D2E/DX2 analytically  !
 ! D21   D(16,3,4,17)           -8.2305         calculate D2E/DX2 analytically  !
 ! D22   D(3,4,5,6)            -20.4879         calculate D2E/DX2 analytically  !
 ! D23   D(3,4,5,10)           166.2025         calculate D2E/DX2 analytically  !
 ! D24   D(17,4,5,6)          -158.3362         calculate D2E/DX2 analytically  !
 ! D25   D(17,4,5,10)           28.3542         calculate D2E/DX2 analytically  !
 ! D26   D(4,5,6,7)           -176.4768         calculate D2E/DX2 analytically  !
 ! D27   D(4,5,6,18)             3.5261         calculate D2E/DX2 analytically  !
 ! D28   D(10,5,6,7)            -3.1128         calculate D2E/DX2 analytically  !
 ! D29   D(10,5,6,18)          176.8901         calculate D2E/DX2 analytically  !
 ! D30   D(4,5,10,9)           176.8435         calculate D2E/DX2 analytically  !
 ! D31   D(4,5,10,22)           -3.0813         calculate D2E/DX2 analytically  !
 ! D32   D(6,5,10,9)             3.0851         calculate D2E/DX2 analytically  !
 ! D33   D(6,5,10,22)         -176.8396         calculate D2E/DX2 analytically  !
 ! D34   D(5,6,7,8)              1.3415         calculate D2E/DX2 analytically  !
 ! D35   D(5,6,7,19)          -179.2246         calculate D2E/DX2 analytically  !
 ! D36   D(18,6,7,8)          -178.6613         calculate D2E/DX2 analytically  !
 ! D37   D(18,6,7,19)            0.7726         calculate D2E/DX2 analytically  !
 ! D38   D(6,7,8,9)              0.5892         calculate D2E/DX2 analytically  !
 ! D39   D(6,7,8,20)           179.7609         calculate D2E/DX2 analytically  !
 ! D40   D(19,7,8,9)          -178.8436         calculate D2E/DX2 analytically  !
 ! D41   D(19,7,8,20)            0.328          calculate D2E/DX2 analytically  !
 ! D42   D(7,8,9,10)            -0.6243         calculate D2E/DX2 analytically  !
 ! D43   D(7,8,9,21)           178.8208         calculate D2E/DX2 analytically  !
 ! D44   D(20,8,9,10)         -179.796          calculate D2E/DX2 analytically  !
 ! D45   D(20,8,9,21)           -0.3509         calculate D2E/DX2 analytically  !
 ! D46   D(8,9,10,5)            -1.267          calculate D2E/DX2 analytically  !
 ! D47   D(8,9,10,22)          178.6588         calculate D2E/DX2 analytically  !
 ! D48   D(21,9,10,5)          179.2865         calculate D2E/DX2 analytically  !
 ! D49   D(21,9,10,22)          -0.7878         calculate D2E/DX2 analytically  !
 --------------------------------------------------------------------------------
 Trust Radius=3.00D-01 FncErr=1.00D-07 GrdErr=1.00D-06 EigMax=2.50D+02 EigMin=1.00D-04
 Number of steps in this run=    117 maximum allowed number of steps=    132.
 GradGradGradGradGradGradGradGradGradGradGradGradGradGradGradGradGradGrad

                          Input orientation:                          
 ---------------------------------------------------------------------
 Center     Atomic      Atomic             Coordinates (Angstroms)
 Number     Number       Type             X           Y           Z
 ---------------------------------------------------------------------
      1          7           0       -3.249178    0.346202   -0.460572
      2          6           0       -2.548513   -0.116302    0.745325
      3          6           0       -1.542998   -1.237840    0.419484
      4          7           0       -0.616183   -0.817159   -0.637501
      5          6           0        0.636289   -0.278777   -0.345168
      6          6           0        0.976126    0.289519    0.887264
      7          6           0        2.228743    0.879434    1.095460
      8          6           0        3.156893    0.935760    0.060791
      9          6           0        2.826726    0.413118   -1.184365
     10          6           0        1.573974   -0.175092   -1.384160
     11          1           0       -3.651345    1.263957   -0.279224
     12          1           0       -2.522692    0.494961   -1.169230
     13          1           0       -2.024696    0.735937    1.190827
     14          1           0       -3.281993   -0.474702    1.474446
     15          1           0       -1.019170   -1.573344    1.321662
     16          1           0       -2.100490   -2.107746    0.049835
     17          1           0       -0.585778   -1.477692   -1.410144
     18          1           0        0.276795    0.288351    1.716486
     19          1           0        2.471801    1.302506    2.066555
     20          1           0        4.127476    1.396859    0.220803
     21          1           0        3.536288    0.468582   -2.005297
     22          1           0        1.331923   -0.556534   -2.373277
 ---------------------------------------------------------------------
                    Distance matrix (angstroms):
                    1          2          3          4          5
     1  N    0.000000
     2  C    1.469363   0.000000
     3  C    2.488923   1.541129   0.000000
     4  N    2.883986   2.477359   1.467370   0.000000
     5  C    3.937102   3.370243   2.500757   1.394275   0.000000
     6  C    4.435434   3.550763   2.982890   2.466799   1.399049
     7  C    5.719545   4.892470   4.377878   3.738340   2.439830
     8  C    6.454235   5.841839   5.190585   4.218584   2.827251
     9  C    6.119230   5.735607   4.938875   3.696792   2.445605
    10  C    4.938376   4.640373   3.754741   2.401362   1.403391
    11  H    1.018282   2.042315   3.345490   3.697514   4.557212
    12  H    1.025723   2.009932   2.546843   2.374694   3.355132
    13  H    2.092455   1.095066   2.173200   2.781870   3.235702
    14  H    2.102202   1.094560   2.172424   3.418207   4.324617
    15  H    3.440051   2.189526   1.095848   2.138349   2.682307
    16  H    2.757148   2.156451   1.097349   2.083557   3.315285
    17  H    3.364815   3.217415   2.078783   1.016959   2.016190
    18  H    4.144323   3.014841   2.706126   2.749694   2.168245
    19  H    6.326965   5.381656   5.028400   4.619583   3.418474
    20  H    7.482191   6.865393   6.255828   5.304797   3.913626
    21  H    6.960151   6.703194   5.881376   4.557084   3.424115
    22  H    5.045777   4.997726   4.065571   2.622206   2.162009
                    6          7          8          9         10
     6  C    0.000000
     7  C    1.400140   0.000000
     8  C    2.420006   1.391106   0.000000
     9  C    2.780584   2.402632   1.390173   0.000000
    10  C    2.394296   2.772952   2.414024   1.398319   0.000000
    11  H    4.870699   6.050872   6.824619   6.596106   5.531338
    12  H    4.063632   5.277573   5.827946   5.350066   4.156662
    13  H    3.048995   4.256927   5.307144   5.411289   4.517848
    14  H    4.365821   5.687313   6.741445   6.721157   5.642854
    15  H    2.764085   4.076300   5.032385   5.001712   4.000122
    16  H    3.989203   5.362726   6.074794   5.670579   4.392400
    17  H    3.292517   4.444730   4.689988   3.907854   2.522294
    18  H    1.084746   2.131936   3.384587   3.864279   3.392853
    19  H    2.157292   1.086781   2.151032   3.389021   3.859640
    20  H    3.406080   2.153588   1.086392   2.152718   3.401075
    21  H    3.866963   3.390157   2.151956   1.086500   2.156572
    22  H    3.387260   3.859849   3.388532   2.142002   1.087401
                   11         12         13         14         15
    11  H    0.000000
    12  H    1.630129   0.000000
    13  H    2.255181   2.424034   0.000000
    14  H    2.496941   2.916471   1.768300   0.000000
    15  H    4.188252   3.569735   2.522098   2.520064   0.000000
    16  H    3.725830   2.904903   3.064987   2.468258   1.752821
    17  H    4.265362   2.775074   3.706169   4.073871   2.767624
    18  H    4.512754   4.025813   2.402813   3.647713   2.302459
    19  H    6.557216   6.005614   4.615884   6.051050   4.583913
    20  H    7.796009   6.853492   6.263145   7.744327   6.043341
    21  H    7.434650   6.116449   6.419597   7.712804   5.999193
    22  H    5.703701   4.172940   5.063616   6.008318   4.496011
                   16         17         18         19         20
    16  H    0.000000
    17  H    2.196101   0.000000
    18  H    3.764371   3.693069   0.000000
    19  H    6.050027   5.400530   2.443176   0.000000
    20  H    7.148360   5.756544   4.277102   2.481323   0.000000
    21  H    6.529494   4.597131   4.950600   4.290517   2.483289
    22  H    4.478749   2.335323   4.307353   4.946460   4.284871
                   21         22
    21  H    0.000000
    22  H    2.458760   0.000000
 Stoichiometry    C8H12N2
 Framework group  C1[X(C8H12N2)]
 Deg. of freedom    60
 Full point group                 C1      NOp   1
 Largest Abelian subgroup         C1      NOp   1
 Largest concise Abelian subgroup C1      NOp   1
                         Standard orientation:                         
 ---------------------------------------------------------------------
 Center     Atomic      Atomic             Coordinates (Angstroms)
 Number     Number       Type             X           Y           Z
 ---------------------------------------------------------------------
      1          7           0        3.296548   -0.291570    1.037142
      2          6           0        2.761259    0.701481    0.095685
      3          6           0        1.930756    0.034204   -1.017906
      4          7           0        0.880186   -0.816489   -0.447118
      5          6           0       -0.420643   -0.351284   -0.258890
      6          6           0       -0.765392    1.002717   -0.187006
      7          6           0       -2.080262    1.405445    0.076283
      8          6           0       -3.071815    0.455892    0.300664
      9          6           0       -2.744806   -0.895003    0.273672
     10          6           0       -1.429521   -1.289237    0.009284
     11          1           0        3.556310    0.177946    1.902576
     12          1           0        2.510233   -0.904795    1.277502
     13          1           0        2.137346    1.407681    0.653524
     14          1           0        3.589679    1.264947   -0.345096
     15          1           0        1.528949    0.780601   -1.712402
     16          1           0        2.595706   -0.606512   -1.610781
     17          1           0        0.905744   -1.763184   -0.817687
     18          1           0       -0.021666    1.778624   -0.333684
     19          1           0       -2.323577    2.463957    0.114238
     20          1           0       -4.091369    0.768027    0.508822
     21          1           0       -3.506826   -1.645110    0.466407
     22          1           0       -1.195116   -2.351053    0.015697
 ---------------------------------------------------------------------
 Rotational constants (GHZ):           3.1811517           0.7043892           0.6449531
 Standard basis: 6-31G(d,p) (6D, 7F)
 There are   210 symmetry adapted cartesian basis functions of A   symmetry.
 There are   210 symmetry adapted basis functions of A   symmetry.
   210 basis functions,   364 primitive gaussians,   210 cartesian basis functions
    37 alpha electrons       37 beta electrons
       nuclear repulsion energy       503.5479485837 Hartrees.
 NAtoms=   22 NActive=   22 NUniq=   22 SFac= 1.00D+00 NAtFMM=   60 NAOKFM=F Big=F
 Integral buffers will be    131072 words long.
 Raffenetti 2 integral format.
 Two-electron integral symmetry is turned on.
 Force inversion solution in PCM.
 ------------------------------------------------------------------------------
 Polarizable Continuum Model (PCM)
 =================================
 Model                : PCM.
 Atomic radii         : UFF (Universal Force Field).
 Polarization charges : Total charges.
 Charge compensation  : None.
 Solution method      : Matrix inversion.
 Cavity type          : Scaled VdW (van der Waals Surface) (Alpha=1.100).
 Cavity algorithm     : GePol (No added spheres)
                        Default sphere list used, NSphG=   22.
                        Lebedev-Laikov grids with approx.  5.0 points / Ang**2.
                        Smoothing algorithm: York/Karplus (Gamma=1.0000).
                        Polarization charges: spherical gaussians, with
                                              point-specific exponents (IZeta= 3).
                        Self-potential: point-specific (ISelfS= 7).
                        Self-field    : sphere-specific E.n sum rule (ISelfD= 2).
 1st derivatives      : Analytical E(r).r(x)/FMM algorithm (CHGder, D1EAlg=3).
                        Cavity 1st derivative terms included.
 2nd derivatives      : Analytical E(r).r(xy)/FMM algorithm (CHGder, D2EAlg=3).
                        Cavity 2nd derivative terms included.
 Solvent              : Water, Eps=  78.355300 Eps(inf)=   1.777849
 ------------------------------------------------------------------------------
 One-electron integrals computed using PRISM.
 NBasis=   210 RedAO= T EigKep=  4.53D-04  NBF=   210
 NBsUse=   210 1.00D-06 EigRej= -1.00D+00 NBFU=   210
 ExpMin= 1.61D-01 ExpMax= 4.17D+03 ExpMxC= 6.27D+02 IAcc=3 IRadAn=         5 AccDes= 0.00D+00
 Harris functional with IExCor=  402 and IRadAn=       5 diagonalized for initial guess.
 HarFok:  IExCor=  402 AccDes= 0.00D+00 IRadAn=         5 IDoV= 1 UseB2=F ITyADJ=14
 ICtDFT=  3500011 ScaDFX=  1.000000  1.000000  1.000000  1.000000
 FoFCou: FMM=F IPFlag=           0 FMFlag=      100000 FMFlg1=           0
         NFxFlg=           0 DoJE=T BraDBF=F KetDBF=T FulRan=T
         wScrn=  0.000000 ICntrl=       500 IOpCl=  0 I1Cent=   200000004 NGrid=           0
         NMat0=    1 NMatS0=      1 NMatT0=    0 NMatD0=    1 NMtDS0=    0 NMtDT0=    0
 Petite list used in FoFCou.
 Keep R1 ints in memory in canonical form, NReq=250131393.
 Requested convergence on RMS density matrix=1.00D-08 within  32 cycles.
 Requested convergence on MAX density matrix=1.00D-06.
 Requested convergence on             energy=1.00D-06.
 No special actions if energy rises.
 Inv3:  Mode=1 IEnd=     8406828.
 Iteration    1 A*A^-1 deviation from unit magnitude is 7.55D-15 for    372.
 Iteration    1 A*A^-1 deviation from orthogonality  is 3.49D-15 for   1510   1328.
 Iteration    1 A^-1*A deviation from unit magnitude is 7.99D-15 for    372.
 Iteration    1 A^-1*A deviation from orthogonality  is 3.69D-15 for   1139    330.
 Error on total polarization charges =  0.00903
 SCF Done:  E(RB3LYP) =  -421.594035178     A.U. after   12 cycles
            NFock= 12  Conv=0.40D-08     -V/T= 2.0098
 QCSCF skips out because SCF is already converged.
 DoSCS=F DFT=T ScalE2(SS,OS)=  1.000000  1.000000
 Range of M.O.s used for correlation:     1   210
 NBasis=   210 NAE=    37 NBE=    37 NFC=     0 NFV=     0
 NROrb=    210 NOA=    37 NOB=    37 NVA=   173 NVB=   173
 Symmetrizing basis deriv contribution to polar:
 IMax=3 JMax=2 DiffMx= 0.00D+00
 G2DrvN: will do    23 centers at a time, making    1 passes.
 Calling FoFCou, ICntrl=  3107 FMM=F I1Cent=   0 AccDes= 0.00D+00.
 NEqPCM:  Using equilibrium solvation (IEInf=0, Eps=  78.3553, EpsInf=   1.7778)
 G2PCM: DoFxE=T DoFxN=T DoGrad=T DoDP/DQ/DG/TGxP=FFFF NFrqRd=   0 IEInf=0 SqF1=F DoCFld=F IF1Alg=4.
 End of G2Drv F.D. properties file   721 does not exist.
 End of G2Drv F.D. properties file   722 does not exist.
 End of G2Drv F.D. properties file   788 does not exist.
          IDoAtm=1111111111111111111111
 NEqPCM:  Using equilibrium solvation (IEInf=0, Eps=  78.3553, EpsInf=   1.7778)
          Differentiating once with respect to nuclear coordinates.
 Keep R1 ints in memory in canonical form, NReq=253122952.
          There are    69 degrees of freedom in the 1st order CPHF.  IDoFFX=6 NUNeed=     0.
     63 vectors produced by pass  0 Test12= 9.28D-15 1.45D-09 XBig12= 1.45D-01 1.92D-01.
 AX will form    63 AO Fock derivatives at one time.
     63 vectors produced by pass  1 Test12= 9.28D-15 1.45D-09 XBig12= 2.65D-02 4.76D-02.
     63 vectors produced by pass  2 Test12= 9.28D-15 1.45D-09 XBig12= 2.17D-04 2.56D-03.
     63 vectors produced by pass  3 Test12= 9.28D-15 1.45D-09 XBig12= 3.91D-07 8.69D-05.
     63 vectors produced by pass  4 Test12= 9.28D-15 1.45D-09 XBig12= 3.14D-10 2.22D-06.
     36 vectors produced by pass  5 Test12= 9.28D-15 1.45D-09 XBig12= 2.98D-13 6.34D-08.
      3 vectors produced by pass  6 Test12= 9.28D-15 1.45D-09 XBig12= 3.10D-16 2.37D-09.
 InvSVY:  IOpt=1 It=  1 EMax= 8.33D-16
 Solved reduced A of dimension   354 with    69 vectors.
 End of Minotr F.D. properties file   721 does not exist.
 End of Minotr F.D. properties file   722 does not exist.
 End of Minotr F.D. properties file   788 does not exist.

 **********************************************************************

            Population analysis using the SCF density.

 **********************************************************************

 Orbital symmetries:
       Occupied  (A) (A) (A) (A) (A) (A) (A) (A) (A) (A) (A) (A)
                 (A) (A) (A) (A) (A) (A) (A) (A) (A) (A) (A) (A)
                 (A) (A) (A) (A) (A) (A) (A) (A) (A) (A) (A) (A)
                 (A)
       Virtual   (A) (A) (A) (A) (A) (A) (A) (A) (A) (A) (A) (A)
                 (A) (A) (A) (A) (A) (A) (A) (A) (A) (A) (A) (A)
                 (A) (A) (A) (A) (A) (A) (A) (A) (A) (A) (A) (A)
                 (A) (A) (A) (A) (A) (A) (A) (A) (A) (A) (A) (A)
                 (A) (A) (A) (A) (A) (A) (A) (A) (A) (A) (A) (A)
                 (A) (A) (A) (A) (A) (A) (A) (A) (A) (A) (A) (A)
                 (A) (A) (A) (A) (A) (A) (A) (A) (A) (A) (A) (A)
                 (A) (A) (A) (A) (A) (A) (A) (A) (A) (A) (A) (A)
                 (A) (A) (A) (A) (A) (A) (A) (A) (A) (A) (A) (A)
                 (A) (A) (A) (A) (A) (A) (A) (A) (A) (A) (A) (A)
                 (A) (A) (A) (A) (A) (A) (A) (A) (A) (A) (A) (A)
                 (A) (A) (A) (A) (A) (A) (A) (A) (A) (A) (A) (A)
                 (A) (A) (A) (A) (A) (A) (A) (A) (A) (A) (A) (A)
                 (A) (A) (A) (A) (A) (A) (A) (A) (A) (A) (A) (A)
                 (A) (A) (A) (A) (A)
 The electronic state is 1-A.
 Alpha  occ. eigenvalues --  -14.34409 -14.30373 -10.22620 -10.21656 -10.20198
 Alpha  occ. eigenvalues --  -10.18679 -10.18646 -10.18142 -10.18121 -10.17642
 Alpha  occ. eigenvalues --   -0.93266  -0.86958  -0.83617  -0.74594  -0.73825
 Alpha  occ. eigenvalues --   -0.69944  -0.61363  -0.60594  -0.57302  -0.52547
 Alpha  occ. eigenvalues --   -0.49772  -0.48375  -0.46524  -0.45046  -0.42825
 Alpha  occ. eigenvalues --   -0.42099  -0.41147  -0.39645  -0.37743  -0.36130
 Alpha  occ. eigenvalues --   -0.35568  -0.34826  -0.33486  -0.29703  -0.24731
 Alpha  occ. eigenvalues --   -0.23267  -0.20038
 Alpha virt. eigenvalues --   -0.00045   0.01707   0.08564   0.09901   0.10369
 Alpha virt. eigenvalues --    0.12348   0.15366   0.15812   0.15992   0.16932
 Alpha virt. eigenvalues --    0.17477   0.18139   0.19306   0.20336   0.21639
 Alpha virt. eigenvalues --    0.22861   0.23737   0.25448   0.27513   0.30947
 Alpha virt. eigenvalues --    0.33086   0.34798   0.38289   0.46435   0.51769
 Alpha virt. eigenvalues --    0.52684   0.53368   0.54913   0.55382   0.57015
 Alpha virt. eigenvalues --    0.57927   0.58559   0.59788   0.60220   0.60282
 Alpha virt. eigenvalues --    0.61556   0.62270   0.64070   0.64277   0.65279
 Alpha virt. eigenvalues --    0.67493   0.69636   0.73619   0.74818   0.76560
 Alpha virt. eigenvalues --    0.79419   0.80937   0.81914   0.82433   0.83121
 Alpha virt. eigenvalues --    0.84258   0.84882   0.86674   0.87877   0.89362
 Alpha virt. eigenvalues --    0.89600   0.92346   0.92798   0.94834   0.95169
 Alpha virt. eigenvalues --    0.95889   0.98464   1.02051   1.04871   1.05056
 Alpha virt. eigenvalues --    1.09070   1.10051   1.14402   1.18450   1.18682
 Alpha virt. eigenvalues --    1.21509   1.27294   1.27317   1.32489   1.35501
 Alpha virt. eigenvalues --    1.40414   1.41362   1.42472   1.42906   1.44222
 Alpha virt. eigenvalues --    1.47365   1.47833   1.56983   1.61802   1.64826
 Alpha virt. eigenvalues --    1.74657   1.77666   1.79248   1.80201   1.82021
 Alpha virt. eigenvalues --    1.85474   1.86020   1.87079   1.89432   1.92405
 Alpha virt. eigenvalues --    1.93039   1.93174   1.96361   1.96786   1.98010
 Alpha virt. eigenvalues --    1.99438   2.01517   2.04126   2.05504   2.07474
 Alpha virt. eigenvalues --    2.10955   2.14311   2.15086   2.18128   2.22880
 Alpha virt. eigenvalues --    2.26656   2.28474   2.30652   2.32826   2.33145
 Alpha virt. eigenvalues --    2.35251   2.36703   2.38181   2.38895   2.39942
 Alpha virt. eigenvalues --    2.40410   2.42451   2.45487   2.46837   2.47845
 Alpha virt. eigenvalues --    2.48759   2.51200   2.53240   2.54367   2.57133
 Alpha virt. eigenvalues --    2.58909   2.59926   2.61144   2.63826   2.66389
 Alpha virt. eigenvalues --    2.69287   2.72292   2.73977   2.75827   2.78159
 Alpha virt. eigenvalues --    2.80854   2.83047   2.87628   2.91145   2.91804
 Alpha virt. eigenvalues --    2.97094   3.03815   3.06125   3.10511   3.20470
 Alpha virt. eigenvalues --    3.24454   3.25787   3.28072   3.30405   3.32255
 Alpha virt. eigenvalues --    3.33440   3.38480   3.43135   3.45115   3.50818
 Alpha virt. eigenvalues --    3.55219   3.57968   3.90302   3.96873   4.13475
 Alpha virt. eigenvalues --    4.15995   4.18187   4.20671   4.42484   4.44017
 Alpha virt. eigenvalues --    4.48778   4.64945   4.84554
          Condensed to atoms (all electrons):
               1          2          3          4          5          6
     1  N    6.826696   0.300991  -0.044078  -0.014077   0.000415   0.000237
     2  C    0.300991   4.855466   0.362294  -0.065482  -0.003838   0.000396
     3  C   -0.044078   0.362294   4.837869   0.294636  -0.034756  -0.005477
     4  N   -0.014077  -0.065482   0.294636   6.941239   0.283493  -0.071533
     5  C    0.000415  -0.003838  -0.034756   0.283493   4.573410   0.532264
     6  C    0.000237   0.000396  -0.005477  -0.071533   0.532264   4.947582
     7  C   -0.000000   0.000085  -0.000070   0.004807  -0.019014   0.532488
     8  C   -0.000000  -0.000001   0.000010   0.000397  -0.036152  -0.045946
     9  C   -0.000000   0.000003  -0.000156   0.004727  -0.018691  -0.042474
    10  C    0.000004  -0.000282   0.004420  -0.065378   0.520071  -0.056548
    11  H    0.340405  -0.033518   0.005074   0.000358  -0.000074   0.000008
    12  H    0.333352  -0.047664  -0.016129   0.028853   0.000363  -0.000323
    13  H   -0.053589   0.383692  -0.036745  -0.005541   0.001891  -0.000268
    14  H   -0.044462   0.375743  -0.028699   0.004277   0.000063  -0.000050
    15  H    0.003006  -0.048965   0.380576  -0.043412  -0.001735   0.003136
    16  H    0.001931  -0.042334   0.381444  -0.035027   0.004116   0.000026
    17  H    0.000333   0.004220  -0.035004   0.348667  -0.025636   0.006150
    18  H   -0.000147  -0.001408   0.004300  -0.009460  -0.041110   0.363910
    19  H    0.000000  -0.000001   0.000003  -0.000107   0.003621  -0.036784
    20  H   -0.000000   0.000000  -0.000000   0.000004   0.000726   0.005031
    21  H    0.000000  -0.000000   0.000002  -0.000106   0.003761   0.000738
    22  H   -0.000001  -0.000008   0.000028  -0.008366  -0.046623   0.005641
               7          8          9         10         11         12
     1  N   -0.000000  -0.000000  -0.000000   0.000004   0.340405   0.333352
     2  C    0.000085  -0.000001   0.000003  -0.000282  -0.033518  -0.047664
     3  C   -0.000070   0.000010  -0.000156   0.004420   0.005074  -0.016129
     4  N    0.004807   0.000397   0.004727  -0.065378   0.000358   0.028853
     5  C   -0.019014  -0.036152  -0.018691   0.520071  -0.000074   0.000363
     6  C    0.532488  -0.045946  -0.042474  -0.056548   0.000008  -0.000323
     7  C    4.825361   0.550706  -0.033278  -0.043173   0.000000  -0.000002
     8  C    0.550706   4.851276   0.544577  -0.046221  -0.000000   0.000001
     9  C   -0.033278   0.544577   4.813508   0.538944   0.000000  -0.000001
    10  C   -0.043173  -0.046221   0.538944   4.974136  -0.000001  -0.000056
    11  H    0.000000  -0.000000   0.000000  -0.000001   0.476152  -0.031785
    12  H   -0.000002   0.000001  -0.000001  -0.000056  -0.031785   0.478901
    13  H   -0.000019   0.000002  -0.000002  -0.000101  -0.007235  -0.001219
    14  H   -0.000002   0.000000  -0.000000   0.000005  -0.000356   0.007108
    15  H   -0.000140  -0.000019  -0.000002   0.000738  -0.000197   0.000659
    16  H   -0.000005   0.000000   0.000003  -0.000204  -0.000090   0.000226
    17  H   -0.000111   0.000002  -0.000010  -0.010600   0.000007  -0.001169
    18  H   -0.038935   0.004904   0.000450   0.005392  -0.000009  -0.000002
    19  H    0.369263  -0.041146   0.004680   0.000841   0.000000   0.000000
    20  H   -0.041918   0.370629  -0.042257   0.004979  -0.000000  -0.000000
    21  H    0.004765  -0.041443   0.369572  -0.037195   0.000000   0.000000
    22  H    0.000417   0.005094  -0.037555   0.365564  -0.000000   0.000025
              13         14         15         16         17         18
     1  N   -0.053589  -0.044462   0.003006   0.001931   0.000333  -0.000147
     2  C    0.383692   0.375743  -0.048965  -0.042334   0.004220  -0.001408
     3  C   -0.036745  -0.028699   0.380576   0.381444  -0.035004   0.004300
     4  N   -0.005541   0.004277  -0.043412  -0.035027   0.348667  -0.009460
     5  C    0.001891   0.000063  -0.001735   0.004116  -0.025636  -0.041110
     6  C   -0.000268  -0.000050   0.003136   0.000026   0.006150   0.363910
     7  C   -0.000019  -0.000002  -0.000140  -0.000005  -0.000111  -0.038935
     8  C    0.000002   0.000000  -0.000019   0.000000   0.000002   0.004904
     9  C   -0.000002  -0.000000  -0.000002   0.000003  -0.000010   0.000450
    10  C   -0.000101   0.000005   0.000738  -0.000204  -0.010600   0.005392
    11  H   -0.007235  -0.000356  -0.000197  -0.000090   0.000007  -0.000009
    12  H   -0.001219   0.007108   0.000659   0.000226  -0.001169  -0.000002
    13  H    0.666875  -0.046422  -0.003300   0.006503  -0.000037   0.003543
    14  H   -0.046422   0.635167   0.001468  -0.005596  -0.000181   0.000001
    15  H   -0.003300   0.001468   0.619090  -0.029697   0.002020   0.002232
    16  H    0.006503  -0.005596  -0.029697   0.608939  -0.008443   0.000026
    17  H   -0.000037  -0.000181   0.002020  -0.008443   0.436531  -0.000071
    18  H    0.003543   0.000001   0.002232   0.000026  -0.000071   0.617700
    19  H   -0.000003   0.000000   0.000006  -0.000000   0.000003  -0.006476
    20  H    0.000000  -0.000000   0.000000  -0.000000  -0.000000  -0.000187
    21  H   -0.000000   0.000000   0.000000  -0.000000  -0.000011   0.000015
    22  H   -0.000001   0.000000   0.000020  -0.000015   0.005795  -0.000179
              19         20         21         22
     1  N    0.000000  -0.000000   0.000000  -0.000001
     2  C   -0.000001   0.000000  -0.000000  -0.000008
     3  C    0.000003  -0.000000   0.000002   0.000028
     4  N   -0.000107   0.000004  -0.000106  -0.008366
     5  C    0.003621   0.000726   0.003761  -0.046623
     6  C   -0.036784   0.005031   0.000738   0.005641
     7  C    0.369263  -0.041918   0.004765   0.000417
     8  C   -0.041146   0.370629  -0.041443   0.005094
     9  C    0.004680  -0.042257   0.369572  -0.037555
    10  C    0.000841   0.004979  -0.037195   0.365564
    11  H    0.000000  -0.000000   0.000000  -0.000000
    12  H    0.000000  -0.000000   0.000000   0.000025
    13  H   -0.000003   0.000000  -0.000000  -0.000001
    14  H    0.000000  -0.000000   0.000000   0.000000
    15  H    0.000006   0.000000   0.000000   0.000020
    16  H   -0.000000  -0.000000  -0.000000  -0.000015
    17  H    0.000003  -0.000000  -0.000011   0.005795
    18  H   -0.006476  -0.000187   0.000015  -0.000179
    19  H    0.614855  -0.006007  -0.000201   0.000015
    20  H   -0.006007   0.628114  -0.006040  -0.000186
    21  H   -0.000201  -0.006040   0.615771  -0.006530
    22  H    0.000015  -0.000186  -0.006530   0.625169
 Mulliken charges:
               1
     1  N   -0.651015
     2  C   -0.039390
     3  C   -0.069542
     4  N   -0.592969
     5  C    0.303436
     6  C   -0.138205
     7  C   -0.111225
     8  C   -0.116671
     9  C   -0.102039
    10  C   -0.155335
    11  H    0.251261
    12  H    0.248859
    13  H    0.091978
    14  H    0.101935
    15  H    0.114515
    16  H    0.118198
    17  H    0.277544
    18  H    0.095512
    19  H    0.097438
    20  H    0.087112
    21  H    0.096903
    22  H    0.091698
 Sum of Mulliken charges =  -0.00000
 Mulliken charges with hydrogens summed into heavy atoms:
               1
     1  N   -0.150895
     2  C    0.154524
     3  C    0.163172
     4  N   -0.315425
     5  C    0.303436
     6  C   -0.042694
     7  C   -0.013787
     8  C   -0.029558
     9  C   -0.005136
    10  C   -0.063637
 APT charges:
               1
     1  N   -0.867502
     2  C   -0.621183
     3  C   -0.774105
     4  N   -0.778408
     5  C   -0.239749
     6  C   -0.560263
     7  C   -0.487119
     8  C   -0.479266
     9  C   -0.435138
    10  C   -0.574407
    11  H    0.672038
    12  H    0.082265
    13  H    0.167676
    14  H    0.622824
    15  H    0.303917
    16  H    0.550903
    17  H    0.629128
    18  H    0.322796
    19  H    0.582669
    20  H    0.751496
    21  H    0.697794
    22  H    0.433633
 Sum of APT charges =  -0.00000
 APT charges with hydrogens summed into heavy atoms:
               1
     1  N   -0.113199
     2  C    0.169317
     3  C    0.080715
     4  N   -0.149280
     5  C   -0.239749
     6  C   -0.237466
     7  C    0.095551
     8  C    0.272230
     9  C    0.262655
    10  C   -0.140774
 Electronic spatial extent (au):  <R**2>=           1830.4072
 Charge=             -0.0000 electrons
 Dipole moment (field-independent basis, Debye):
    X=             -0.0801    Y=              0.0838    Z=             -0.5863  Tot=              0.5976
 Quadrupole moment (field-independent basis, Debye-Ang):
   XX=            -65.9454   YY=            -53.9786   ZZ=            -59.1852
   XY=              3.7817   XZ=             -1.9018   YZ=              1.8062
 Traceless Quadrupole moment (field-independent basis, Debye-Ang):
   XX=             -6.2423   YY=              5.7245   ZZ=              0.5178
   XY=              3.7817   XZ=             -1.9018   YZ=              1.8062
 Octapole moment (field-independent basis, Debye-Ang**2):
  XXX=            -39.4785  YYY=             -7.5782  ZZZ=              5.6434  XYY=             -0.9198
  XXY=             16.0340  XXZ=              4.0867  XZZ=             21.6497  YZZ=             -1.9012
  YYZ=             -2.3086  XYZ=              5.1755
 Hexadecapole moment (field-independent basis, Debye-Ang**3):
 XXXX=          -1993.7074 YYYY=           -351.0748 ZZZZ=           -181.1001 XXXY=             74.2793
 XXXZ=            -25.7824 YYYX=             -8.7948 YYYZ=              5.9387 ZZZX=             29.0201
 ZZZY=              2.9977 XXYY=           -361.1878 XXZZ=           -325.0537 YYZZ=            -97.3639
 XXYZ=             15.8137 YYXZ=             -5.6693 ZZXY=              1.6314
 N-N= 5.035479485837D+02 E-N=-1.984817741055D+03  KE= 4.175160780090D+02
  Exact polarizability:   0.000   0.000   0.000   0.000   0.000   0.000
 Approx polarizability: 185.897  -5.602 165.798 -20.473  -2.097  81.924
 D2PCM: PCM CHGder 2nd derivatives, FixD1E=F FixD2E=F DoIter=F DoCFld=F I1PDM=0
 Calling FoFJK, ICntrl=    100147 FMM=F ISym2X=0 I1Cent= 0 IOpClX= 0 NMat=1 NMatS=1 NMatT=0.
 ***** Axes restored to original set *****
 -------------------------------------------------------------------
 Center     Atomic                   Forces (Hartrees/Bohr)
 Number     Number              X              Y              Z
 -------------------------------------------------------------------
      1        7           0.000881546   -0.007168630   -0.008677676
      2        6           0.001785378    0.006880284   -0.000250366
      3        6          -0.008564622    0.003051622   -0.005194531
      4        7          -0.001314637   -0.011917592    0.002066199
      5        6          -0.001260625    0.007318159   -0.007227774
      6        6           0.001351556    0.002359735    0.014161009
      7        6          -0.004025137   -0.002487323   -0.003291993
      8        6           0.008503702    0.005040470    0.004569553
      9        6          -0.008672652   -0.004458779   -0.002792913
     10        6           0.012765925   -0.000048140   -0.008005756
     11        1           0.000267533   -0.001048277    0.000096998
     12        1          -0.004035001    0.000882386    0.002729707
     13        1           0.005340266   -0.001772233    0.008084434
     14        1           0.000480410   -0.001603300    0.001694592
     15        1           0.000791154    0.002453955    0.001466770
     16        1           0.000937841    0.002069861   -0.001236243
     17        1           0.000406217    0.004739530    0.002606225
     18        1          -0.001673130   -0.001609145   -0.001049269
     19        1          -0.001305506   -0.000603736   -0.000047722
     20        1          -0.000025249   -0.000074911    0.000090785
     21        1          -0.000883920   -0.000605966   -0.000408489
     22        1          -0.001751050   -0.001397972    0.000616461
 -------------------------------------------------------------------
 Cartesian Forces:  Max     0.014161009 RMS     0.004640755
 FormGI is forming the generalized inverse of G from B-inverse, IUseBI=4.

 GradGradGradGradGradGradGradGradGradGradGradGradGradGradGradGradGradGrad
 Berny optimization.
 Internal  Forces:  Max     0.009530922 RMS     0.002773919
 Search for a local minimum.
 Step number   1 out of a maximum of  117
 All quantities printed in internal units (Hartrees-Bohrs-Radians)
 Mixed Optimization -- RFO/linear search
 Second derivative matrix not updated -- analytic derivatives used.
 ITU=  0
     Eigenvalues ---    0.00204   0.00250   0.00440   0.00811   0.01201
     Eigenvalues ---    0.01631   0.01728   0.01770   0.02193   0.02212
     Eigenvalues ---    0.02463   0.02805   0.02876   0.03011   0.03802
     Eigenvalues ---    0.04361   0.04473   0.04807   0.05490   0.08059
     Eigenvalues ---    0.08426   0.10910   0.11464   0.11600   0.11921
     Eigenvalues ---    0.12244   0.12330   0.12865   0.12978   0.15355
     Eigenvalues ---    0.17188   0.18493   0.19269   0.19562   0.21340
     Eigenvalues ---    0.22493   0.24028   0.25582   0.29777   0.32032
     Eigenvalues ---    0.32385   0.32949   0.33098   0.33386   0.35442
     Eigenvalues ---    0.35675   0.35826   0.36066   0.36148   0.36379
     Eigenvalues ---    0.36663   0.38512   0.41230   0.42388   0.44405
     Eigenvalues ---    0.44700   0.46488   0.47570   0.48135   0.52069
 RFO step:  Lambda=-5.10756184D-03 EMin= 2.03570830D-03
 Linear search not attempted -- first point.
 Iteration  1 RMS(Cart)=  0.06620608 RMS(Int)=  0.00212271
 Iteration  2 RMS(Cart)=  0.00286895 RMS(Int)=  0.00031799
 Iteration  3 RMS(Cart)=  0.00000820 RMS(Int)=  0.00031792
 Iteration  4 RMS(Cart)=  0.00000000 RMS(Int)=  0.00031792
 Variable       Old X    -DE/DX   Delta X   Delta X   Delta X     New X
                                 (Linear)    (Quad)   (Total)
    R1        2.77669   0.00387   0.00000  -0.00219  -0.00219   2.77451
    R2        1.92427  -0.00103   0.00000  -0.00070  -0.00070   1.92357
    R3        1.93834  -0.00462   0.00000  -0.01126  -0.01126   1.92708
    R4        2.91231  -0.00509   0.00000  -0.01721  -0.01721   2.89510
    R5        2.06937   0.00446   0.00000   0.01296   0.01296   2.08234
    R6        2.06842   0.00133   0.00000   0.00487   0.00487   2.07329
    R7        2.77293  -0.00066   0.00000  -0.00833  -0.00833   2.76460
    R8        2.07085   0.00084   0.00000   0.00438   0.00438   2.07523
    R9        2.07369  -0.00170   0.00000  -0.00603  -0.00603   2.06766
   R10        2.63480   0.00333   0.00000  -0.00101  -0.00101   2.63379
   R11        1.92177  -0.00505   0.00000  -0.01289  -0.01289   1.90888
   R12        2.64382   0.00639   0.00000   0.01735   0.01738   2.66120
   R13        2.65203   0.00659   0.00000   0.01467   0.01469   2.66672
   R14        2.64588  -0.00229   0.00000  -0.00691  -0.00690   2.63898
   R15        2.04987   0.00028   0.00000  -0.00148  -0.00148   2.04840
   R16        2.62881   0.00429   0.00000   0.00758   0.00755   2.63636
   R17        2.05372  -0.00057   0.00000  -0.00008  -0.00008   2.05364
   R18        2.62705   0.00803   0.00000   0.01667   0.01664   2.64369
   R19        2.05298  -0.00004   0.00000  -0.00188  -0.00188   2.05111
   R20        2.64244  -0.00509   0.00000  -0.01398  -0.01399   2.62845
   R21        2.05319  -0.00030   0.00000   0.00032   0.00032   2.05351
   R22        2.05489   0.00032   0.00000   0.00015   0.00015   2.05504
    A1        1.90272  -0.00072   0.00000   0.00436   0.00433   1.90705
    A2        1.84930   0.00214   0.00000   0.01719   0.01716   1.86646
    A3        1.84633  -0.00078   0.00000  -0.00577  -0.00584   1.84049
    A4        1.94622  -0.00741   0.00000  -0.02862  -0.02899   1.91723
    A5        1.89337   0.00953   0.00000   0.08192   0.08192   1.97529
    A6        1.90732   0.00156   0.00000  -0.00307  -0.00432   1.90300
    A7        1.91801  -0.00199   0.00000  -0.00540  -0.00536   1.91265
    A8        1.91747   0.00029   0.00000  -0.02943  -0.03011   1.88735
    A9        1.88008  -0.00167   0.00000  -0.01364  -0.01434   1.86574
   A10        1.93453   0.00771   0.00000   0.03371   0.03379   1.96831
   A11        1.93973  -0.00401   0.00000  -0.02275  -0.02260   1.91713
   A12        1.89300  -0.00114   0.00000  -0.00295  -0.00301   1.88999
   A13        1.95938  -0.00276   0.00000  -0.02002  -0.01985   1.93953
   A14        1.88127  -0.00238   0.00000  -0.00789  -0.00800   1.87326
   A15        1.85195   0.00237   0.00000   0.02000   0.01994   1.87190
   A16        2.12592  -0.00088   0.00000   0.01426   0.01342   2.13935
   A17        1.96054   0.00168   0.00000   0.02485   0.02400   1.98454
   A18        1.96410  -0.00050   0.00000   0.00918   0.00810   1.97220
   A19        2.16488  -0.00604   0.00000  -0.02176  -0.02257   2.14230
   A20        2.06406   0.00335   0.00000   0.01560   0.01486   2.07892
   A21        2.04864   0.00290   0.00000   0.01326   0.01258   2.06121
   A22        2.11700  -0.00323   0.00000  -0.01552  -0.01549   2.10150
   A23        2.11339  -0.00093   0.00000  -0.01221  -0.01223   2.10116
   A24        2.05280   0.00416   0.00000   0.02774   0.02772   2.08051
   A25        2.09829   0.00284   0.00000   0.01621   0.01617   2.11446
   A26        2.09090  -0.00278   0.00000  -0.01620  -0.01619   2.07471
   A27        2.09395  -0.00006   0.00000   0.00006   0.00006   2.09401
   A28        2.08576  -0.00240   0.00000  -0.01421  -0.01429   2.07147
   A29        2.09869   0.00113   0.00000   0.00755   0.00756   2.10625
   A30        2.09864   0.00128   0.00000   0.00680   0.00681   2.10546
   A31        2.09313   0.00244   0.00000   0.01449   0.01443   2.10756
   A32        2.09724  -0.00008   0.00000  -0.00138  -0.00137   2.09586
   A33        2.09278  -0.00235   0.00000  -0.01302  -0.01302   2.07976
   A34        2.12222  -0.00248   0.00000  -0.01213  -0.01212   2.11010
   A35        2.09299  -0.00100   0.00000  -0.01299  -0.01299   2.08000
   A36        2.06798   0.00348   0.00000   0.02512   0.02511   2.09309
    D1       -2.81032  -0.00125   0.00000  -0.10516  -0.10512  -2.91544
    D2       -0.69573  -0.00208   0.00000  -0.07560  -0.07582  -0.77155
    D3        1.34960   0.00218   0.00000  -0.04733  -0.04721   1.30239
    D4       -0.83035  -0.00142   0.00000  -0.10121  -0.10113  -0.93148
    D5        1.28424  -0.00224   0.00000  -0.07165  -0.07183   1.21241
    D6       -2.95361   0.00201   0.00000  -0.04338  -0.04322  -2.99683
    D7        0.94305   0.00389   0.00000   0.09122   0.09096   1.03401
    D8        3.13481   0.00306   0.00000   0.07335   0.07299  -3.07538
    D9       -1.11897   0.00299   0.00000   0.08299   0.08265  -1.03632
   D10       -1.15712  -0.00194   0.00000   0.01053   0.01071  -1.14641
   D11        1.03465  -0.00276   0.00000  -0.00734  -0.00726   1.02739
   D12        3.06404  -0.00283   0.00000   0.00230   0.00240   3.06644
   D13        3.06042   0.00114   0.00000   0.04833   0.04859   3.10901
   D14       -1.03100   0.00031   0.00000   0.03046   0.03062  -1.00038
   D15        0.99840   0.00024   0.00000   0.04011   0.04028   1.03868
   D16        1.66316  -0.00123   0.00000  -0.03342  -0.03365   1.62951
   D17       -2.21279  -0.00094   0.00000   0.03553   0.03571  -2.17708
   D18       -0.51755   0.00022   0.00000  -0.01427  -0.01443  -0.53197
   D19        1.88969   0.00051   0.00000   0.05468   0.05493   1.94462
   D20       -2.55089   0.00035   0.00000  -0.02250  -0.02272  -2.57361
   D21       -0.14365   0.00064   0.00000   0.04645   0.04664  -0.09701
   D22       -0.35758   0.00129   0.00000   0.02727   0.02704  -0.33054
   D23        2.90078  -0.00113   0.00000  -0.04749  -0.04733   2.85345
   D24       -2.76349   0.00019   0.00000  -0.04765  -0.04781  -2.81130
   D25        0.49487  -0.00223   0.00000  -0.12241  -0.12218   0.37269
   D26       -3.08010  -0.00125   0.00000  -0.03221  -0.03162  -3.11172
   D27        0.06154  -0.00125   0.00000  -0.03757  -0.03701   0.02453
   D28       -0.05433   0.00119   0.00000   0.04211   0.04221  -0.01212
   D29        3.08731   0.00119   0.00000   0.03675   0.03681   3.12413
   D30        3.08650   0.00061   0.00000   0.02577   0.02666   3.11316
   D31       -0.05378   0.00052   0.00000   0.02215   0.02290  -0.03087
   D32        0.05384  -0.00104   0.00000  -0.04157  -0.04185   0.01200
   D33       -3.08643  -0.00113   0.00000  -0.04520  -0.04561  -3.13204
   D34        0.02341  -0.00064   0.00000  -0.01843  -0.01816   0.00525
   D35       -3.12806  -0.00031   0.00000  -0.01070  -0.01063  -3.13869
   D36       -3.11823  -0.00064   0.00000  -0.01325  -0.01283  -3.13106
   D37        0.01348  -0.00030   0.00000  -0.00552  -0.00530   0.00818
   D38        0.01028  -0.00024   0.00000  -0.00822  -0.00817   0.00211
   D39        3.13742   0.00022   0.00000   0.00336   0.00332   3.14074
   D40       -3.12141  -0.00057   0.00000  -0.01587  -0.01569  -3.13710
   D41        0.00572  -0.00010   0.00000  -0.00429  -0.00420   0.00153
   D42       -0.01090   0.00037   0.00000   0.00874   0.00861  -0.00228
   D43        3.12101   0.00054   0.00000   0.01894   0.01893   3.13995
   D44       -3.13803  -0.00009   0.00000  -0.00285  -0.00288  -3.14091
   D45       -0.00612   0.00008   0.00000   0.00735   0.00744   0.00131
   D46       -0.02211   0.00036   0.00000   0.01722   0.01720  -0.00491
   D47        3.11818   0.00045   0.00000   0.02076   0.02096   3.13915
   D48        3.12914   0.00018   0.00000   0.00698   0.00691   3.13605
   D49       -0.01375   0.00027   0.00000   0.01053   0.01067  -0.00308
         Item               Value     Threshold  Converged?
 Maximum Force            0.009531     0.000450     NO 
 RMS     Force            0.002774     0.000300     NO 
 Maximum Displacement     0.313025     0.001800     NO 
 RMS     Displacement     0.066705     0.001200     NO 
 Predicted change in Energy=-2.865000D-03
 GradGradGradGradGradGradGradGradGradGradGradGradGradGradGradGradGradGrad

                          Input orientation:                          
 ---------------------------------------------------------------------
 Center     Atomic      Atomic             Coordinates (Angstroms)
 Number     Number       Type             X           Y           Z
 ---------------------------------------------------------------------
      1          7           0       -3.316190    0.287498   -0.424226
      2          6           0       -2.536049   -0.095700    0.759062
      3          6           0       -1.537212   -1.196936    0.389346
      4          7           0       -0.603717   -0.786034   -0.659465
      5          6           0        0.646857   -0.238573   -0.378631
      6          6           0        0.970004    0.320493    0.872839
      7          6           0        2.227323    0.888095    1.089986
      8          6           0        3.188073    0.922179    0.078991
      9          6           0        2.869351    0.376148   -1.168971
     10          6           0        1.620917   -0.192453   -1.398665
     11          1           0       -3.816990    1.152307   -0.230720
     12          1           0       -2.647682    0.519148   -1.158635
     13          1           0       -1.999765    0.750658    1.217663
     14          1           0       -3.216104   -0.493691    1.522501
     15          1           0       -1.001167   -1.530940    1.287713
     16          1           0       -2.098254   -2.055523    0.008234
     17          1           0       -0.593787   -1.403355   -1.458960
     18          1           0        0.243884    0.319791    1.677655
     19          1           0        2.451089    1.309985    2.066173
     20          1           0        4.162675    1.365966    0.255901
     21          1           0        3.600062    0.391917   -1.973124
     22          1           0        1.386682   -0.610981   -2.374666
 ---------------------------------------------------------------------
                    Distance matrix (angstroms):
                    1          2          3          4          5
     1  N    0.000000
     2  C    1.468206   0.000000
     3  C    2.455647   1.532020   0.000000
     4  N    2.926656   2.494531   1.462962   0.000000
     5  C    3.998070   3.383141   2.505675   1.393742   0.000000
     6  C    4.478272   3.532502   2.970268   2.459463   1.408246
     7  C    5.777896   4.875149   4.360043   3.725329   2.433945
     8  C    6.554501   5.853559   5.187995   4.223859   2.830997
     9  C    6.230844   5.758324   4.931606   3.697629   2.437622
    10  C    5.055186   4.684604   3.765601   2.418212   1.411167
    11  H    1.017910   2.044016   3.331788   3.777051   4.677858
    12  H    1.019765   2.016944   2.564047   2.475977   3.469371
    13  H    2.154830   1.101925   2.166377   2.798926   3.245203
    14  H    2.100004   1.097137   2.144125   3.416285   4.312986
    15  H    3.405404   2.166852   1.098165   2.122347   2.676359
    16  H    2.675843   2.143901   1.094160   2.071489   3.314605
    17  H    3.367661   3.225208   2.085401   1.010137   2.015695
    18  H    4.134377   2.957106   2.670675   2.720921   2.168518
    19  H    6.364674   5.343785   5.000295   4.599374   3.410330
    20  H    7.586770   6.874776   6.250999   5.309189   3.916396
    21  H    7.088337   6.734573   5.873441   4.559060   3.414872
    22  H    5.169960   5.047136   4.065989   2.633296   2.161062
                    6          7          8          9         10
     6  C    0.000000
     7  C    1.396487   0.000000
     8  C    2.431471   1.395103   0.000000
     9  C    2.789194   2.403576   1.398980   0.000000
    10  C    2.417961   2.780054   2.425253   1.390918   0.000000
    11  H    4.982476   6.192560   7.015682   6.796315   5.722177
    12  H    4.153794   5.381272   5.979147   5.518896   4.334158
    13  H    3.020509   4.231249   5.314100   5.435492   4.565520
    14  H    4.313751   5.632698   6.715794   6.710693   5.658686
    15  H    2.735953   4.039056   5.002853   4.965198   3.985411
    16  H    3.975827   5.342817   6.067699   5.654727   4.391199
    17  H    3.294599   4.439204   4.698497   3.904362   2.524843
    18  H    1.083965   2.145310   3.403946   3.872923   3.409159
    19  H    2.144004   1.086740   2.154630   3.393103   3.866731
    20  H    3.415666   2.160937   1.085400   2.163952   3.409809
    21  H    3.875798   3.393118   2.159187   1.086669   2.142080
    22  H    3.404050   3.867521   3.408229   2.150914   1.087478
                   11         12         13         14         15
    11  H    0.000000
    12  H    1.621480   0.000000
    13  H    2.358271   2.473901   0.000000
    14  H    2.478741   2.921889   1.766581   0.000000
    15  H    4.175442   3.591447   2.491545   2.457021   0.000000
    16  H    3.647098   2.879650   3.057298   2.445795   1.765178
    17  H    4.292904   2.829258   3.712259   4.073469   2.779650
    18  H    4.563516   4.055298   2.330494   3.557715   2.264379
    19  H    6.677529   6.084593   4.565405   5.972093   4.538164
    20  H    7.997344   7.007066   6.267317   7.714206   6.010156
    21  H    7.656816   6.301896   6.455067   7.711278   5.958335
    22  H    5.897787   4.362570   5.121223   6.032189   4.467793
                   16         17         18         19         20
    16  H    0.000000
    17  H    2.200319   0.000000
    18  H    3.730241   3.675498   0.000000
    19  H    6.021485   5.390737   2.450140   0.000000
    20  H    7.139129   5.764878   4.297999   2.491936   0.000000
    21  H    6.510496   4.590832   4.959569   4.298710   2.496769
    22  H    4.462028   2.321343   4.312034   4.954203   4.305153
                   21         22
    21  H    0.000000
    22  H    2.462944   0.000000
 Stoichiometry    C8H12N2
 Framework group  C1[X(C8H12N2)]
 Deg. of freedom    60
 Full point group                 C1      NOp   1
 Largest Abelian subgroup         C1      NOp   1
 Largest concise Abelian subgroup C1      NOp   1
                         Standard orientation:                         
 ---------------------------------------------------------------------
 Center     Atomic      Atomic             Coordinates (Angstroms)
 Number     Number       Type             X           Y           Z
 ---------------------------------------------------------------------
      1          7           0        3.385522   -0.263287    0.964810
      2          6           0        2.755021    0.716217    0.071128
      3          6           0        1.915868   -0.008682   -0.985958
      4          7           0        0.861945   -0.838022   -0.401408
      5          6           0       -0.436550   -0.371993   -0.203311
      6          6           0       -0.757635    0.998840   -0.173697
      7          6           0       -2.070159    1.412394    0.063854
      8          6           0       -3.090182    0.486161    0.282853
      9          6           0       -2.775238   -0.876766    0.263318
     10          6           0       -1.472159   -1.302341    0.027683
     11          1           0        3.758486    0.217742    1.780683
     12          1           0        2.641565   -0.863612    1.319859
     13          1           0        2.126329    1.447708    0.603955
     14          1           0        3.538011    1.285118   -0.445581
     15          1           0        1.499285    0.719345   -1.694761
     16          1           0        2.576046   -0.672147   -1.552672
     17          1           0        0.893994   -1.803432   -0.696929
     18          1           0        0.012138    1.745804   -0.330141
     19          1           0       -2.290526    2.476454    0.078605
     20          1           0       -4.107589    0.816107    0.467545
     21          1           0       -3.551821   -1.617771    0.432672
     22          1           0       -1.241979   -2.365134    0.017733
 ---------------------------------------------------------------------
 Rotational constants (GHZ):           3.2495728           0.6963299           0.6332019
 Standard basis: 6-31G(d,p) (6D, 7F)
 There are   210 symmetry adapted cartesian basis functions of A   symmetry.
 There are   210 symmetry adapted basis functions of A   symmetry.
   210 basis functions,   364 primitive gaussians,   210 cartesian basis functions
    37 alpha electrons       37 beta electrons
       nuclear repulsion energy       502.6302843318 Hartrees.
 NAtoms=   22 NActive=   22 NUniq=   22 SFac= 1.00D+00 NAtFMM=   60 NAOKFM=F Big=F
 Integral buffers will be    131072 words long.
 Raffenetti 2 integral format.
 Two-electron integral symmetry is turned on.
 ------------------------------------------------------------------------------
 Polarizable Continuum Model (PCM)
 =================================
 Model                : PCM.
 Atomic radii         : UFF (Universal Force Field).
 Polarization charges : Total charges.
 Charge compensation  : None.
 Solution method      : Matrix inversion.
 Cavity type          : Scaled VdW (van der Waals Surface) (Alpha=1.100).
 Cavity algorithm     : GePol (No added spheres)
                        Default sphere list used, NSphG=   22.
                        Lebedev-Laikov grids with approx.  5.0 points / Ang**2.
                        Smoothing algorithm: York/Karplus (Gamma=1.0000).
                        Polarization charges: spherical gaussians, with
                                              point-specific exponents (IZeta= 3).
                        Self-potential: point-specific (ISelfS= 7).
                        Self-field    : sphere-specific E.n sum rule (ISelfD= 2).
 1st derivatives      : Analytical E(r).r(x)/FMM algorithm (CHGder, D1EAlg=3).
                        Cavity 1st derivative terms included.
 Solvent              : Water, Eps=  78.355300 Eps(inf)=   1.777849
 ------------------------------------------------------------------------------
 One-electron integrals computed using PRISM.
 NBasis=   210 RedAO= T EigKep=  4.60D-04  NBF=   210
 NBsUse=   210 1.00D-06 EigRej= -1.00D+00 NBFU=   210
 Initial guess from the checkpoint file:  "OCIDXARMXNJACB-UHFFFAOYSA-N_conf_1_0.chk"
 B after Tr=    -0.000000    0.000000    0.000000
         Rot=    0.999933    0.010982   -0.003201    0.001509 Ang=   1.32 deg.
 ExpMin= 1.61D-01 ExpMax= 4.17D+03 ExpMxC= 6.27D+02 IAcc=2 IRadAn=         4 AccDes= 0.00D+00
 Harris functional with IExCor=  402 and IRadAn=       4 diagonalized for initial guess.
 HarFok:  IExCor=  402 AccDes= 0.00D+00 IRadAn=         4 IDoV= 1 UseB2=F ITyADJ=14
 ICtDFT=  3500011 ScaDFX=  1.000000  1.000000  1.000000  1.000000
 FoFCou: FMM=F IPFlag=           0 FMFlag=      100000 FMFlg1=           0
         NFxFlg=           0 DoJE=T BraDBF=F KetDBF=T FulRan=T
         wScrn=  0.000000 ICntrl=       500 IOpCl=  0 I1Cent=   200000004 NGrid=           0
         NMat0=    1 NMatS0=      1 NMatT0=    0 NMatD0=    1 NMtDS0=    0 NMtDT0=    0
 Petite list used in FoFCou.
 Keep R1 ints in memory in canonical form, NReq=250131393.
 Requested convergence on RMS density matrix=1.00D-08 within  32 cycles.
 Requested convergence on MAX density matrix=1.00D-06.
 Requested convergence on             energy=1.00D-06.
 No special actions if energy rises.
 Inv3:  Mode=1 IEnd=     8266800.
 Iteration    1 A*A^-1 deviation from unit magnitude is 7.99D-15 for   1223.
 Iteration    1 A*A^-1 deviation from orthogonality  is 2.80D-15 for   1480    600.
 Iteration    1 A^-1*A deviation from unit magnitude is 7.33D-15 for   1223.
 Iteration    1 A^-1*A deviation from orthogonality  is 3.19D-15 for   1517   1472.
 Error on total polarization charges =  0.00908
 SCF Done:  E(RB3LYP) =  -421.596912040     A.U. after   10 cycles
            NFock= 10  Conv=0.55D-08     -V/T= 2.0098
 QCSCF skips out because SCF is already converged.
 D1PCM: PCM CHGder 1st derivatives, ID1Alg=3 FixD1E=F DoIter=F DoCFld=F I1PDM=0.
 Calling FoFJK, ICntrl=      2127 FMM=F ISym2X=0 I1Cent= 0 IOpClX= 0 NMat=1 NMatS=1 NMatT=0.
 ***** Axes restored to original set *****
 -------------------------------------------------------------------
 Center     Atomic                   Forces (Hartrees/Bohr)
 Number     Number              X              Y              Z
 -------------------------------------------------------------------
      1        7          -0.000201925   -0.000560773   -0.000742869
      2        6          -0.000279451    0.000882020   -0.000137168
      3        6          -0.000587889   -0.000431849    0.000023000
      4        7           0.001106476   -0.001680075    0.001094823
      5        6          -0.000693595    0.001707442   -0.000636529
      6        6           0.000237156   -0.000114899    0.000679328
      7        6          -0.000043892    0.000007948   -0.000147884
      8        6           0.000262200    0.000142807    0.000255350
      9        6          -0.000126927    0.000002993   -0.000136769
     10        6           0.000551542   -0.000548989   -0.000246482
     11        1          -0.000477950   -0.000320119    0.000117922
     12        1          -0.000053122    0.000604007    0.000010012
     13        1           0.000526562   -0.000290470    0.000208468
     14        1           0.000286767    0.000264072    0.000452446
     15        1          -0.000038920   -0.000008264    0.000117695
     16        1           0.000064998    0.000115690   -0.000281347
     17        1          -0.000447454    0.000542421   -0.000650692
     18        1          -0.000029390   -0.000118681   -0.000063788
     19        1          -0.000012785   -0.000025850    0.000027948
     20        1           0.000002316    0.000015169   -0.000003482
     21        1           0.000006851   -0.000042804   -0.000012631
     22        1          -0.000051569   -0.000141796    0.000072650
 -------------------------------------------------------------------
 Cartesian Forces:  Max     0.001707442 RMS     0.000481906

 GradGradGradGradGradGradGradGradGradGradGradGradGradGradGradGradGradGrad
 Berny optimization.
 Using GEDIIS/GDIIS optimizer.
 FormGI is forming the generalized inverse of G from B-inverse, IUseBI=4.
 Internal  Forces:  Max     0.000812545 RMS     0.000235146
 Search for a local minimum.
 Step number   2 out of a maximum of  117
 All quantities printed in internal units (Hartrees-Bohrs-Radians)
 Mixed Optimization -- En-DIIS/RFO-DIIS
 Update second derivatives using D2CorX and points    1    2
 DE= -2.88D-03 DEPred=-2.86D-03 R= 1.00D+00
 TightC=F SS=  1.41D+00  RLast= 3.49D-01 DXNew= 5.0454D-01 1.0473D+00
 Trust test= 1.00D+00 RLast= 3.49D-01 DXMaxT set to 5.05D-01
 ITU=  1  0
 Use linear search instead of GDIIS.
     Eigenvalues ---    0.00205   0.00251   0.00440   0.00807   0.01203
     Eigenvalues ---    0.01631   0.01728   0.01770   0.02193   0.02212
     Eigenvalues ---    0.02463   0.02805   0.02873   0.03010   0.03801
     Eigenvalues ---    0.04361   0.04479   0.04799   0.05476   0.08034
     Eigenvalues ---    0.08387   0.10909   0.11455   0.11589   0.11919
     Eigenvalues ---    0.12235   0.12329   0.12849   0.12974   0.15349
     Eigenvalues ---    0.17194   0.18480   0.19267   0.19550   0.21318
     Eigenvalues ---    0.22454   0.23906   0.25590   0.29890   0.31997
     Eigenvalues ---    0.32454   0.32990   0.33085   0.33388   0.35444
     Eigenvalues ---    0.35677   0.35828   0.36060   0.36172   0.36375
     Eigenvalues ---    0.36481   0.38544   0.41220   0.42426   0.44404
     Eigenvalues ---    0.44758   0.46557   0.47530   0.48130   0.51839
 RFO step:  Lambda=-4.71907529D-04 EMin= 2.04815811D-03
 Quartic linear search produced a step of  0.14460.
 Iteration  1 RMS(Cart)=  0.05526105 RMS(Int)=  0.00249436
 Iteration  2 RMS(Cart)=  0.00285366 RMS(Int)=  0.00014650
 Iteration  3 RMS(Cart)=  0.00001242 RMS(Int)=  0.00014627
 Iteration  4 RMS(Cart)=  0.00000000 RMS(Int)=  0.00014627
 Variable       Old X    -DE/DX   Delta X   Delta X   Delta X     New X
                                 (Linear)    (Quad)   (Total)
    R1        2.77451   0.00081  -0.00032  -0.00031  -0.00062   2.77388
    R2        1.92357  -0.00002  -0.00010   0.00078   0.00068   1.92425
    R3        1.92708   0.00009  -0.00163   0.00095  -0.00067   1.92640
    R4        2.89510   0.00052  -0.00249   0.00072  -0.00177   2.89332
    R5        2.08234   0.00012   0.00187  -0.00042   0.00146   2.08379
    R6        2.07329   0.00004   0.00070  -0.00121  -0.00050   2.07278
    R7        2.76460   0.00025  -0.00120  -0.00059  -0.00180   2.76280
    R8        2.07523   0.00008   0.00063  -0.00071  -0.00008   2.07515
    R9        2.06766  -0.00003  -0.00087   0.00094   0.00007   2.06773
   R10        2.63379   0.00039  -0.00015  -0.00701  -0.00715   2.62664
   R11        1.90888   0.00018  -0.00186   0.00073  -0.00113   1.90775
   R12        2.66120   0.00040   0.00251  -0.00005   0.00247   2.66366
   R13        2.66672   0.00038   0.00212  -0.00033   0.00180   2.66851
   R14        2.63898   0.00005  -0.00100   0.00038  -0.00062   2.63836
   R15        2.04840  -0.00003  -0.00021   0.00031   0.00010   2.04850
   R16        2.63636   0.00010   0.00109  -0.00054   0.00055   2.63692
   R17        2.05364   0.00001  -0.00001   0.00019   0.00018   2.05382
   R18        2.64369   0.00032   0.00241  -0.00184   0.00056   2.64425
   R19        2.05111   0.00001  -0.00027   0.00022  -0.00005   2.05106
   R20        2.62845   0.00007  -0.00202   0.00215   0.00012   2.62858
   R21        2.05351   0.00001   0.00005   0.00011   0.00015   2.05366
   R22        2.05504   0.00000   0.00002   0.00005   0.00007   2.05510
    A1        1.90705   0.00012   0.00063  -0.00183  -0.00121   1.90584
    A2        1.86646   0.00025   0.00248   0.00403   0.00650   1.87297
    A3        1.84049  -0.00011  -0.00084   0.00255   0.00169   1.84218
    A4        1.91723   0.00026  -0.00419   0.00155  -0.00270   1.91453
    A5        1.97529   0.00049   0.01185  -0.00337   0.00847   1.98376
    A6        1.90300  -0.00009  -0.00062  -0.00364  -0.00444   1.89856
    A7        1.91265  -0.00032  -0.00078  -0.00446  -0.00522   1.90743
    A8        1.88735  -0.00029  -0.00435   0.00888   0.00442   1.89177
    A9        1.86574  -0.00009  -0.00207   0.00165  -0.00051   1.86523
   A10        1.96831   0.00059   0.00489  -0.00578  -0.00089   1.96743
   A11        1.91713  -0.00018  -0.00327   0.00477   0.00151   1.91864
   A12        1.88999  -0.00014  -0.00043   0.00060   0.00015   1.89015
   A13        1.93953  -0.00030  -0.00287  -0.00273  -0.00558   1.93395
   A14        1.87326  -0.00013  -0.00116   0.00378   0.00260   1.87586
   A15        1.87190   0.00015   0.00288  -0.00034   0.00254   1.87444
   A16        2.13935   0.00028   0.00194   0.00895   0.01013   2.14948
   A17        1.98454   0.00002   0.00347   0.01022   0.01288   1.99741
   A18        1.97220  -0.00001   0.00117   0.01232   0.01262   1.98482
   A19        2.14230   0.00005  -0.00326   0.00134  -0.00208   2.14023
   A20        2.07892  -0.00001   0.00215   0.00147   0.00347   2.08239
   A21        2.06121  -0.00003   0.00182  -0.00263  -0.00094   2.06027
   A22        2.10150  -0.00005  -0.00224   0.00230   0.00007   2.10157
   A23        2.10116  -0.00009  -0.00177   0.00009  -0.00169   2.09947
   A24        2.08051   0.00014   0.00401  -0.00240   0.00160   2.08211
   A25        2.11446   0.00011   0.00234  -0.00129   0.00104   2.11550
   A26        2.07471  -0.00008  -0.00234   0.00159  -0.00075   2.07395
   A27        2.09401  -0.00003   0.00001  -0.00030  -0.00029   2.09373
   A28        2.07147  -0.00006  -0.00207   0.00105  -0.00103   2.07044
   A29        2.10625   0.00003   0.00109  -0.00053   0.00057   2.10682
   A30        2.10546   0.00003   0.00099  -0.00052   0.00047   2.10593
   A31        2.10756   0.00007   0.00209  -0.00101   0.00106   2.10861
   A32        2.09586  -0.00001  -0.00020  -0.00001  -0.00021   2.09565
   A33        2.07976  -0.00006  -0.00188   0.00103  -0.00085   2.07891
   A34        2.11010  -0.00005  -0.00175   0.00162  -0.00013   2.10997
   A35        2.08000  -0.00008  -0.00188   0.00143  -0.00045   2.07955
   A36        2.09309   0.00014   0.00363  -0.00305   0.00058   2.09367
    D1       -2.91544  -0.00051  -0.01520  -0.12707  -0.14226  -3.05771
    D2       -0.77155  -0.00039  -0.01096  -0.13408  -0.14508  -0.91663
    D3        1.30239  -0.00026  -0.00683  -0.13660  -0.14341   1.15898
    D4       -0.93148  -0.00045  -0.01462  -0.12291  -0.13752  -1.06900
    D5        1.21241  -0.00033  -0.01039  -0.12992  -0.14033   1.07208
    D6       -2.99683  -0.00020  -0.00625  -0.13244  -0.13867  -3.13550
    D7        1.03401   0.00051   0.01315   0.04718   0.06030   1.09431
    D8       -3.07538   0.00041   0.01055   0.04302   0.05353  -3.02185
    D9       -1.03632   0.00040   0.01195   0.04560   0.05750  -0.97882
   D10       -1.14641  -0.00007   0.00155   0.05345   0.05503  -1.09138
   D11        1.02739  -0.00017  -0.00105   0.04929   0.04825   1.07564
   D12        3.06644  -0.00017   0.00035   0.05187   0.05223   3.11867
   D13        3.10901   0.00038   0.00703   0.04894   0.05600  -3.11817
   D14       -1.00038   0.00028   0.00443   0.04478   0.04923  -0.95115
   D15        1.03868   0.00027   0.00582   0.04735   0.05320   1.09188
   D16        1.62951  -0.00020  -0.00487   0.02500   0.02003   1.64954
   D17       -2.17708   0.00025   0.00516   0.07879   0.08405  -2.09303
   D18       -0.53197  -0.00017  -0.00209   0.02513   0.02294  -0.50903
   D19        1.94462   0.00028   0.00794   0.07892   0.08696   2.03159
   D20       -2.57361  -0.00010  -0.00329   0.02479   0.02140  -2.55221
   D21       -0.09701   0.00035   0.00674   0.07858   0.08542  -0.01159
   D22       -0.33054   0.00023   0.00391  -0.00810  -0.00415  -0.33469
   D23        2.85345  -0.00016  -0.00684  -0.01324  -0.02000   2.83346
   D24       -2.81130  -0.00023  -0.00691  -0.06085  -0.06785  -2.87915
   D25        0.37269  -0.00062  -0.01767  -0.06599  -0.08370   0.28899
   D26       -3.11172  -0.00017  -0.00457  -0.00222  -0.00668  -3.11840
   D27        0.02453  -0.00018  -0.00535  -0.00454  -0.00979   0.01474
   D28       -0.01212   0.00022   0.00610   0.00296   0.00908  -0.00304
   D29        3.12413   0.00020   0.00532   0.00064   0.00597   3.13010
   D30        3.11316   0.00016   0.00386   0.00008   0.00408   3.11725
   D31       -0.03087   0.00014   0.00331   0.00040   0.00384  -0.02703
   D32        0.01200  -0.00021  -0.00605  -0.00492  -0.01101   0.00099
   D33       -3.13204  -0.00023  -0.00659  -0.00459  -0.01125   3.13990
   D34        0.00525  -0.00009  -0.00263  -0.00000  -0.00259   0.00266
   D35       -3.13869  -0.00004  -0.00154  -0.00044  -0.00197  -3.14066
   D36       -3.13106  -0.00008  -0.00186   0.00228   0.00050  -3.13056
   D37        0.00818  -0.00003  -0.00077   0.00185   0.00112   0.00930
   D38        0.00211  -0.00004  -0.00118  -0.00107  -0.00225  -0.00014
   D39        3.14074   0.00002   0.00048  -0.00120  -0.00073   3.14001
   D40       -3.13710  -0.00009  -0.00227  -0.00063  -0.00288  -3.13998
   D41        0.00153  -0.00003  -0.00061  -0.00076  -0.00136   0.00017
   D42       -0.00228   0.00005   0.00125  -0.00088   0.00035  -0.00194
   D43        3.13995   0.00010   0.00274   0.00198   0.00472  -3.13852
   D44       -3.14091  -0.00002  -0.00042  -0.00075  -0.00117   3.14110
   D45        0.00131   0.00004   0.00108   0.00211   0.00320   0.00452
   D46       -0.00491   0.00008   0.00249   0.00393   0.00642   0.00151
   D47        3.13915   0.00010   0.00303   0.00359   0.00666  -3.13738
   D48        3.13605   0.00003   0.00100   0.00109   0.00208   3.13813
[...]
     6  C   -0.038572   0.004753   0.000936   0.005943
     7  C    0.366855  -0.042008   0.004928   0.000301
     8  C   -0.043695   0.367290  -0.043825   0.005491
     9  C    0.004868  -0.041572   0.367239  -0.037950
    10  C    0.001050   0.004684  -0.039059   0.362200
    11  H    0.000000  -0.000000   0.000000  -0.000000
    12  H    0.000000  -0.000000   0.000000   0.000005
    13  H   -0.000004   0.000000  -0.000000   0.000001
    14  H   -0.000000  -0.000000   0.000000   0.000000
    15  H    0.000004  -0.000000   0.000000   0.000000
    16  H   -0.000000  -0.000000  -0.000000  -0.000007
    17  H    0.000003  -0.000000  -0.000015   0.007454
    18  H   -0.007245  -0.000178   0.000015  -0.000187
    19  H    0.655523  -0.006225  -0.000225   0.000015
    20  H   -0.006225   0.629804  -0.006128  -0.000179
    21  H   -0.000225  -0.006128   0.655564  -0.007419
    22  H    0.000015  -0.000179  -0.007419   0.656705
 Mulliken charges:
               1
     1  N   -0.635359
     2  C   -0.050583
     3  C   -0.072210
     4  N   -0.497659
     5  C    0.295591
     6  C   -0.155720
     7  C   -0.181576
     8  C   -0.069733
     9  C   -0.167683
    10  C   -0.186063
    11  H    0.263203
    12  H    0.258390
    13  H    0.105338
    14  H    0.124403
    15  H    0.148148
    16  H    0.146353
    17  H    0.316043
    18  H    0.075844
    19  H    0.063574
    20  H    0.088994
    21  H    0.063747
    22  H    0.066957
 Sum of Mulliken charges =   0.00000
 Mulliken charges with hydrogens summed into heavy atoms:
               1
     1  N   -0.113766
     2  C    0.179158
     3  C    0.222290
     4  N   -0.181616
     5  C    0.295591
     6  C   -0.079876
     7  C   -0.118002
     8  C    0.019262
     9  C   -0.103935
    10  C   -0.119106
 Electronic spatial extent (au):  <R**2>=           1869.4586
 Charge=             -0.0000 electrons
 Dipole moment (field-independent basis, Debye):
    X=              4.8274    Y=             -0.5852    Z=             -0.5714  Tot=              4.8962
 Quadrupole moment (field-independent basis, Debye-Ang):
   XX=            -63.6694   YY=            -56.3788   ZZ=            -59.3025
   XY=              2.4870   XZ=              0.0858   YZ=              1.3256
 Traceless Quadrupole moment (field-independent basis, Debye-Ang):
   XX=             -3.8858   YY=              3.4048   ZZ=              0.4810
   XY=              2.4870   XZ=              0.0858   YZ=              1.3256
 Octapole moment (field-independent basis, Debye-Ang**2):
  XXX=              6.3068  YYY=            -10.6680  ZZZ=              3.5952  XYY=             11.3999
  XXY=             20.4865  XXZ=             12.1162  XZZ=             28.3911  YZZ=             -2.3151
  YYZ=             -2.8552  XYZ=              2.4197
 Hexadecapole moment (field-independent basis, Debye-Ang**3):
 XXXX=          -1981.3800 YYYY=           -369.3805 ZZZZ=           -166.7812 XXXY=             66.4623
 XXXZ=             24.0995 YYYX=             -6.4686 YYYZ=              5.0714 ZZZX=             27.9970
 ZZZY=              0.6040 XXYY=           -385.8757 XXZZ=           -321.2856 YYZZ=            -97.9816
 XXYZ=             12.3055 YYXZ=             -3.6575 ZZXY=             -2.2389
 N-N= 5.016688232995D+02 E-N=-1.980736837311D+03  KE= 4.176192147904D+02
 Evaluate density.
 Using the total density.
 Monte-Carlo method of calculating molar volume:
 based on  0.001 e/bohr**3 density envelope.
 Number of points per bohr**3 =   20 CutOff= 1.00D-04
 Using the CI density.
 There are       380 points.  Will hold       380 in memory.
 LenV=   805180738 MDV=   805306368.
 Box volume = 6892.340 fraction occupied=0.197
 Integrated density= 6.4740739687591386D+01 error=-9.2592603124086139D+00
 Molar volume = 1360.330 bohr**3/mol (121.394 cm**3/mol)
 Recommended a0 for SCRF calculation =  4.50 angstrom (  8.51 bohr)
 ******************************Gaussian NBO Version 3.1******************************
             N A T U R A L   A T O M I C   O R B I T A L   A N D
          N A T U R A L   B O N D   O R B I T A L   A N A L Y S I S
 ******************************Gaussian NBO Version 3.1******************************
       /RESON  / : Allow strongly delocalized NBO set

 Analyzing the CI density

 Job title: OCIDXARMXNJACB-UHFFFAOYSA-N_conf_1                              

 Storage needed:    133984 in NPA ( 805303728 available)
 GSVD:  LWork=       24900 too small for GESVD, short by       12636 words or       12636 for optimal perf.


 NATURAL POPULATIONS:  Natural atomic orbital occupancies 
                                                          
   NAO  Atom  No  lang   Type(AO)    Occupancy
 --------------------------------------------
     1    N    1  S      Cor( 1S)     1.99968
     2    N    1  S      Val( 2S)     1.44966
     3    N    1  S      Ryd( 3S)     0.00051
     4    N    1  S      Ryd( 4S)     0.00000
     5    N    1  px     Val( 2p)     1.52489
     6    N    1  px     Ryd( 3p)     0.00316
     7    N    1  py     Val( 2p)     1.46458
     8    N    1  py     Ryd( 3p)     0.00318
     9    N    1  pz     Val( 2p)     1.47035
    10    N    1  pz     Ryd( 3p)     0.00365
    11    N    1  dxy    Ryd( 3d)     0.00110
    12    N    1  dxz    Ryd( 3d)     0.00119
    13    N    1  dyz    Ryd( 3d)     0.00111
    14    N    1  dx2y2  Ryd( 3d)     0.00064
    15    N    1  dz2    Ryd( 3d)     0.00059

    16    C    2  S      Cor( 1S)     1.99934
    17    C    2  S      Val( 2S)     1.03281
    18    C    2  S      Ryd( 3S)     0.00182
    19    C    2  S      Ryd( 4S)     0.00003
    20    C    2  px     Val( 2p)     1.12537
    21    C    2  px     Ryd( 3p)     0.00343
    22    C    2  py     Val( 2p)     1.05267
    23    C    2  py     Ryd( 3p)     0.00167
    24    C    2  pz     Val( 2p)     1.04754
    25    C    2  pz     Ryd( 3p)     0.00168
    26    C    2  dxy    Ryd( 3d)     0.00148
    27    C    2  dxz    Ryd( 3d)     0.00107
    28    C    2  dyz    Ryd( 3d)     0.00121
    29    C    2  dx2y2  Ryd( 3d)     0.00041
    30    C    2  dz2    Ryd( 3d)     0.00071

    31    C    3  S      Cor( 1S)     1.99930
    32    C    3  S      Val( 2S)     1.03324
    33    C    3  S      Ryd( 3S)     0.00176
    34    C    3  S      Ryd( 4S)     0.00003
    35    C    3  px     Val( 2p)     1.01334
    36    C    3  px     Ryd( 3p)     0.00363
    37    C    3  py     Val( 2p)     1.12648
    38    C    3  py     Ryd( 3p)     0.00530
    39    C    3  pz     Val( 2p)     1.11335
    40    C    3  pz     Ryd( 3p)     0.00173
    41    C    3  dxy    Ryd( 3d)     0.00125
    42    C    3  dxz    Ryd( 3d)     0.00101
    43    C    3  dyz    Ryd( 3d)     0.00116
    44    C    3  dx2y2  Ryd( 3d)     0.00042
    45    C    3  dz2    Ryd( 3d)     0.00052

    46    N    4  S      Cor( 1S)     1.99939
    47    N    4  S      Val( 2S)     1.27850
    48    N    4  S      Ryd( 3S)     0.00083
    49    N    4  S      Ryd( 4S)     0.00002
    50    N    4  px     Val( 2p)     1.30643
    51    N    4  px     Ryd( 3p)     0.00185
    52    N    4  py     Val( 2p)     1.40137
    53    N    4  py     Ryd( 3p)     0.00271
    54    N    4  pz     Val( 2p)     1.44568
    55    N    4  pz     Ryd( 3p)     0.00306
    56    N    4  dxy    Ryd( 3d)     0.00048
    57    N    4  dxz    Ryd( 3d)     0.00077
    58    N    4  dyz    Ryd( 3d)     0.00048
    59    N    4  dx2y2  Ryd( 3d)     0.00079
    60    N    4  dz2    Ryd( 3d)     0.00046

    61    C    5  S      Cor( 1S)     1.99900
    62    C    5  S      Val( 2S)     0.84561
    63    C    5  S      Ryd( 3S)     0.00138
    64    C    5  S      Ryd( 4S)     0.00009
    65    C    5  px     Val( 2p)     0.90024
    66    C    5  px     Ryd( 3p)     0.00521
    67    C    5  py     Val( 2p)     1.09233
    68    C    5  py     Ryd( 3p)     0.00618
    69    C    5  pz     Val( 2p)     0.97499
    70    C    5  pz     Ryd( 3p)     0.00185
    71    C    5  dxy    Ryd( 3d)     0.00095
    72    C    5  dxz    Ryd( 3d)     0.00104
    73    C    5  dyz    Ryd( 3d)     0.00151
    74    C    5  dx2y2  Ryd( 3d)     0.00109
    75    C    5  dz2    Ryd( 3d)     0.00047

    76    C    6  S      Cor( 1S)     1.99907
    77    C    6  S      Val( 2S)     0.94707
    78    C    6  S      Ryd( 3S)     0.00063
    79    C    6  S      Ryd( 4S)     0.00004
    80    C    6  px     Val( 2p)     1.14284
    81    C    6  px     Ryd( 3p)     0.00387
    82    C    6  py     Val( 2p)     1.10222
    83    C    6  py     Ryd( 3p)     0.00452
    84    C    6  pz     Val( 2p)     1.14220
    85    C    6  pz     Ryd( 3p)     0.00722
    86    C    6  dxy    Ryd( 3d)     0.00065
    87    C    6  dxz    Ryd( 3d)     0.00056
    88    C    6  dyz    Ryd( 3d)     0.00041
    89    C    6  dx2y2  Ryd( 3d)     0.00060
    90    C    6  dz2    Ryd( 3d)     0.00040

    91    C    7  S      Cor( 1S)     1.99915
    92    C    7  S      Val( 2S)     0.95095
    93    C    7  S      Ryd( 3S)     0.00070
    94    C    7  S      Ryd( 4S)     0.00003
    95    C    7  px     Val( 2p)     1.06149
    96    C    7  px     Ryd( 3p)     0.00562
    97    C    7  py     Val( 2p)     1.18502
    98    C    7  py     Ryd( 3p)     0.00487
    99    C    7  pz     Val( 2p)     1.14603
   100    C    7  pz     Ryd( 3p)     0.00663
   101    C    7  dxy    Ryd( 3d)     0.00061
   102    C    7  dxz    Ryd( 3d)     0.00050
   103    C    7  dyz    Ryd( 3d)     0.00032
   104    C    7  dx2y2  Ryd( 3d)     0.00067
   105    C    7  dz2    Ryd( 3d)     0.00039

   106    C    8  S      Cor( 1S)     1.99911
   107    C    8  S      Val( 2S)     0.97328
   108    C    8  S      Ryd( 3S)     0.00049
   109    C    8  S      Ryd( 4S)     0.00003
   110    C    8  px     Val( 2p)     1.17452
   111    C    8  px     Ryd( 3p)     0.00461
   112    C    8  py     Val( 2p)     1.07638
   113    C    8  py     Ryd( 3p)     0.00456
   114    C    8  pz     Val( 2p)     0.92281
   115    C    8  pz     Ryd( 3p)     0.00145
   116    C    8  dxy    Ryd( 3d)     0.00071
   117    C    8  dxz    Ryd( 3d)     0.00037
   118    C    8  dyz    Ryd( 3d)     0.00103
   119    C    8  dx2y2  Ryd( 3d)     0.00073
   120    C    8  dz2    Ryd( 3d)     0.00036

   121    C    9  S      Cor( 1S)     1.99914
   122    C    9  S      Val( 2S)     0.95213
   123    C    9  S      Ryd( 3S)     0.00065
   124    C    9  S      Ryd( 4S)     0.00003
   125    C    9  px     Val( 2p)     1.12712
   126    C    9  px     Ryd( 3p)     0.00511
   127    C    9  py     Val( 2p)     1.11950
   128    C    9  py     Ryd( 3p)     0.00524
   129    C    9  pz     Val( 2p)     1.13788
   130    C    9  pz     Ryd( 3p)     0.00608
   131    C    9  dxy    Ryd( 3d)     0.00067
   132    C    9  dxz    Ryd( 3d)     0.00051
   133    C    9  dyz    Ryd( 3d)     0.00039
   134    C    9  dx2y2  Ryd( 3d)     0.00061
   135    C    9  dz2    Ryd( 3d)     0.00038

   136    C   10  S      Cor( 1S)     1.99908
   137    C   10  S      Val( 2S)     0.94596
   138    C   10  S      Ryd( 3S)     0.00070
   139    C   10  S      Ryd( 4S)     0.00003
   140    C   10  px     Val( 2p)     1.06900
   141    C   10  px     Ryd( 3p)     0.00488
   142    C   10  py     Val( 2p)     1.16910
   143    C   10  py     Ryd( 3p)     0.00414
   144    C   10  pz     Val( 2p)     1.15852
   145    C   10  pz     Ryd( 3p)     0.00781
   146    C   10  dxy    Ryd( 3d)     0.00067
   147    C   10  dxz    Ryd( 3d)     0.00060
   148    C   10  dyz    Ryd( 3d)     0.00031
   149    C   10  dx2y2  Ryd( 3d)     0.00057
   150    C   10  dz2    Ryd( 3d)     0.00042

   151    H   11  S      Val( 1S)     0.59955
   152    H   11  S      Ryd( 2S)     0.00098
   153    H   11  px     Ryd( 2p)     0.00045
   154    H   11  py     Ryd( 2p)     0.00041
   155    H   11  pz     Ryd( 2p)     0.00054

   156    H   12  S      Val( 1S)     0.60992
   157    H   12  S      Ryd( 2S)     0.00166
   158    H   12  px     Ryd( 2p)     0.00053
   159    H   12  py     Ryd( 2p)     0.00045
   160    H   12  pz     Ryd( 2p)     0.00046

   161    H   13  S      Val( 1S)     0.78006
   162    H   13  S      Ryd( 2S)     0.00317
   163    H   13  px     Ryd( 2p)     0.00018
   164    H   13  py     Ryd( 2p)     0.00019
   165    H   13  pz     Ryd( 2p)     0.00020

   166    H   14  S      Val( 1S)     0.75375
   167    H   14  S      Ryd( 2S)     0.00134
   168    H   14  px     Ryd( 2p)     0.00023
   169    H   14  py     Ryd( 2p)     0.00017
   170    H   14  pz     Ryd( 2p)     0.00014

   171    H   15  S      Val( 1S)     0.73539
   172    H   15  S      Ryd( 2S)     0.00255
   173    H   15  px     Ryd( 2p)     0.00011
   174    H   15  py     Ryd( 2p)     0.00021
   175    H   15  pz     Ryd( 2p)     0.00021

   176    H   16  S      Val( 1S)     0.73290
   177    H   16  S      Ryd( 2S)     0.00194
   178    H   16  px     Ryd( 2p)     0.00021
   179    H   16  py     Ryd( 2p)     0.00015
   180    H   16  pz     Ryd( 2p)     0.00017

   181    H   17  S      Val( 1S)     0.54973
   182    H   17  S      Ryd( 2S)     0.00224
   183    H   17  px     Ryd( 2p)     0.00018
   184    H   17  py     Ryd( 2p)     0.00060
   185    H   17  pz     Ryd( 2p)     0.00039

   186    H   18  S      Val( 1S)     0.76904
   187    H   18  S      Ryd( 2S)     0.00130
   188    H   18  px     Ryd( 2p)     0.00022
   189    H   18  py     Ryd( 2p)     0.00023
   190    H   18  pz     Ryd( 2p)     0.00024

   191    H   19  S      Val( 1S)     0.77039
   192    H   19  S      Ryd( 2S)     0.00081
   193    H   19  px     Ryd( 2p)     0.00009
   194    H   19  py     Ryd( 2p)     0.00037
   195    H   19  pz     Ryd( 2p)     0.00021

   196    H   20  S      Val( 1S)     0.76384
   197    H   20  S      Ryd( 2S)     0.00082
   198    H   20  px     Ryd( 2p)     0.00039
   199    H   20  py     Ryd( 2p)     0.00010
   200    H   20  pz     Ryd( 2p)     0.00013

   201    H   21  S      Val( 1S)     0.76975
   202    H   21  S      Ryd( 2S)     0.00079
   203    H   21  px     Ryd( 2p)     0.00024
   204    H   21  py     Ryd( 2p)     0.00021
   205    H   21  pz     Ryd( 2p)     0.00021

   206    H   22  S      Val( 1S)     0.77161
   207    H   22  S      Ryd( 2S)     0.00123
   208    H   22  px     Ryd( 2p)     0.00007
   209    H   22  py     Ryd( 2p)     0.00038
   210    H   22  pz     Ryd( 2p)     0.00022

 WARNING:  1 low occupancy (<1.9990e) core orbital  found on  C    5


 Summary of Natural Population Analysis:                  
                                                          
                                       Natural Population 
                Natural  -----------------------------------------------
    Atom  No    Charge         Core      Valence    Rydberg      Total
 -----------------------------------------------------------------------
      N    1   -0.92429      1.99968     5.90948    0.01513     7.92429
      C    2   -0.27125      1.99934     4.25838    0.01353     6.27125
      C    3   -0.30250      1.99930     4.28640    0.01680     6.30250
      N    4   -0.44283      1.99939     5.43198    0.01145     7.44283
      C    5    0.16806      1.99900     3.81317    0.01977     5.83194
      C    6   -0.35230      1.99907     4.33433    0.01889     6.35230
      C    7   -0.36298      1.99915     4.34349    0.02034     6.36298
      C    8   -0.16045      1.99911     4.14699    0.01435     6.16045
      C    9   -0.35545      1.99914     4.33664    0.01967     6.35545
      C   10   -0.36178      1.99908     4.34257    0.02013     6.36178
      H   11    0.39807      0.00000     0.59955    0.00239     0.60193
      H   12    0.38699      0.00000     0.60992    0.00309     0.61301
      H   13    0.21620      0.00000     0.78006    0.00373     0.78380
      H   14    0.24436      0.00000     0.75375    0.00189     0.75564
      H   15    0.26153      0.00000     0.73539    0.00308     0.73847
      H   16    0.26463      0.00000     0.73290    0.00247     0.73537
      H   17    0.44687      0.00000     0.54973    0.00341     0.55313
      H   18    0.22898      0.00000     0.76904    0.00198     0.77102
      H   19    0.22814      0.00000     0.77039    0.00147     0.77186
      H   20    0.23472      0.00000     0.76384    0.00144     0.76528
      H   21    0.22879      0.00000     0.76975    0.00146     0.77121
      H   22    0.22649      0.00000     0.77161    0.00190     0.77351
 =======================================================================
   * Total *    0.00000     19.99226    53.80938    0.19836    74.00000

                                 Natural Population      
 --------------------------------------------------------
   Core                      19.99226 ( 99.9613% of  20)
   Valence                   53.80938 ( 99.6470% of  54)
   Natural Minimal Basis     73.80164 ( 99.7319% of  74)
   Natural Rydberg Basis      0.19836 (  0.2681% of  74)
 --------------------------------------------------------

    Atom  No          Natural Electron Configuration
 ----------------------------------------------------------------------------
      N    1      [core]2S( 1.45)2p( 4.46)3p( 0.01)
      C    2      [core]2S( 1.03)2p( 3.23)3p( 0.01)
      C    3      [core]2S( 1.03)2p( 3.25)3p( 0.01)
      N    4      [core]2S( 1.28)2p( 4.15)3p( 0.01)
      C    5      [core]2S( 0.85)2p( 2.97)3p( 0.01)3d( 0.01)
      C    6      [core]2S( 0.95)2p( 3.39)3p( 0.02)
      C    7      [core]2S( 0.95)2p( 3.39)3p( 0.02)
      C    8      [core]2S( 0.97)2p( 3.17)3p( 0.01)
      C    9      [core]2S( 0.95)2p( 3.38)3p( 0.02)
      C   10      [core]2S( 0.95)2p( 3.40)3p( 0.02)
      H   11            1S( 0.60)
      H   12            1S( 0.61)
      H   13            1S( 0.78)
      H   14            1S( 0.75)
      H   15            1S( 0.74)
      H   16            1S( 0.73)
      H   17            1S( 0.55)
      H   18            1S( 0.77)
      H   19            1S( 0.77)
      H   20            1S( 0.76)
      H   21            1S( 0.77)
      H   22            1S( 0.77)


 NBO analysis skipped by request.
 1\1\GINC-CN34\SP\RB3LYP TD-FC\6-31G(d,p)\C8H12N2\QDUEZ\11-Jul-2024\0\\
 # TD(NStates=10, Root=1) B3LYP/6-31G** SCRF=(Solvent=water) volume pop
 =NPA density=current Geom=AllCheck Guess=Read\\OCIDXARMXNJACB-UHFFFAOY
 SA-N_conf_1\\0,1\N,0,-3.3544988939,0.240135665,-0.4416125553\C,0,-2.54
 09903318,-0.0817131149,0.7379384321\C,0,-1.5340759911,-1.1846586167,0.
 3948597305\N,0,-0.5821255166,-0.7876483375,-0.6388179606\C,0,0.6634206
 144,-0.2367247419,-0.3696722995\C,0,0.9975345279,0.311587384,0.8855743
 937\C,0,2.2577687101,0.8734922842,1.0982165424\C,0,3.2136837552,0.9117
 814356,0.082317657\C,0,2.8861907642,0.3722766138,-1.1667010518\C,0,1.6
 359638167,-0.1933302893,-1.3932104551\H,0,-3.9645013482,1.0253555046,-
 0.2230549818\H,0,-2.7235467398,0.5802071881,-1.1664700037\H,0,-2.00171
 40574,0.7861987828,1.1519252524\H,0,-3.2010317015,-0.4536197291,1.5311
 272657\H,0,-1.0082420875,-1.5043802178,1.30427149\H,0,-2.0868222481,-2
 .0498666757,0.0166183264\H,0,-0.6216329668,-1.3325673544,-1.4873570301
 \H,0,0.2751308543,0.307714183,1.6938419688\H,0,2.4882440552,1.28795133
 39,2.0761511323\H,0,4.1902756606,1.3522678961,0.2562406383\H,0,3.61353
 59951,0.3875028731,-1.9740574274\H,0,1.397433129,-0.6119620668,-2.3681
 290643\\Version=EM64L-G16RevA.03\State=1-A\HF=-421.5972195\RMSD=3.393e
 -09\Dipole=-1.8381263,-0.5756062,-0.0258317\Quadrupole=-2.8077896,0.93
 58405,1.8719491,-1.2024327,-1.6406655,1.2513949\PG=C01 [X(C8H12N2)]\\@


 IN NATURE THERE ARE NEITHER REWARDS OR
 PUNISHMENTS -- THERE ARE CONSEQUENCES.

                            -- ROBERT GREEN INGERSOLL
 Job cpu time:       0 days  0 hours 51 minutes 52.1 seconds.
 Elapsed time:       0 days  0 hours 17 minutes 32.2 seconds.
 File lengths (MBytes):  RWF=    408 Int=      0 D2E=      0 Chk=     26 Scr=      1
 Normal termination of Gaussian 16 at Thu Jul 11 21:18:26 2024.
