 Entering Gaussian System, Link 0=g16
 Initial command:
 /opt/sw/arch/manual/gaussian/G16_A03/g16/l1.exe "/scratch/1380835/Gau-39497.inp" -scrdir="/scratch/1380835/"
 Entering Link 1 = /opt/sw/arch/manual/gaussian/G16_A03/g16/l1.exe PID=     39498.
  
 Copyright (c) 1988,1990,1992,1993,1995,1998,2003,2009,2016,
            Gaussian, Inc.  All Rights Reserved.
  
 This is part of the Gaussian(R) 16 program.  It is based on
 the Gaussian(R) 09 system (copyright 2009, Gaussian, Inc.),
 the Gaussian(R) 03 system (copyright 2003, Gaussian, Inc.),
 the Gaussian(R) 98 system (copyright 1998, Gaussian, Inc.),
 the Gaussian(R) 94 system (copyright 1995, Gaussian, Inc.),
 the Gaussian 92(TM) system (copyright 1992, Gaussian, Inc.),
 the Gaussian 90(TM) system (copyright 1990, Gaussian, Inc.),
 the Gaussian 88(TM) system (copyright 1988, Gaussian, Inc.),
 the Gaussian 86(TM) system (copyright 1986, Carnegie Mellon
 University), and the Gaussian 82(TM) system (copyright 1983,
 Carnegie Mellon University). Gaussian is a federally registered
 trademark of Gaussian, Inc.
  
 This software contains proprietary and confidential information,
 including trade secrets, belonging to Gaussian, Inc.
  
 This software is provided under written license and may be
 used, copied, transmitted, or stored only in accord with that
 written license.
  
 The following legend is applicable only to US Government
 contracts under FAR:
  
                    RESTRICTED RIGHTS LEGEND
  
 Use, reproduction and disclosure by the US Government is
 subject to restrictions as set forth in subparagraphs (a)
 and (c) of the Commercial Computer Software - Restricted
 Rights clause in FAR 52.227-19.
  
 Gaussian, Inc.
 340 Quinnipiac St., Bldg. 40, Wallingford CT 06492
  
  
 ---------------------------------------------------------------
 Warning -- This program may not be used in any manner that
 competes with the business of Gaussian, Inc. or will provide
 assistance to any competitor of Gaussian, Inc.  The licensee
 of this program is prohibited from giving any competitor of
 Gaussian, Inc. access to this program.  By using this program,
 the user acknowledges that Gaussian, Inc. is engaged in the
 business of creating and licensing software in the field of
 computational chemistry and represents and warrants to the
 licensee that it is not a competitor of Gaussian, Inc. and that
 it will not use this program in any manner prohibited above.
 ---------------------------------------------------------------
  

 Cite this work as:
 Gaussian 16, Revision A.03,
 M. J. Frisch, G. W. Trucks, H. B. Schlegel, G. E. Scuseria, 
 M. A. Robb, J. R. Cheeseman, G. Scalmani, V. Barone, 
 G. A. Petersson, H. Nakatsuji, X. Li, M. Caricato, A. V. Marenich, 
 J. Bloino, B. G. Janesko, R. Gomperts, B. Mennucci, H. P. Hratchian, 
 J. V. Ortiz, A. F. Izmaylov, J. L. Sonnenberg, D. Williams-Young, 
 F. Ding, F. Lipparini, F. Egidi, J. Goings, B. Peng, A. Petrone, 
 T. Henderson, D. Ranasinghe, V. G. Zakrzewski, J. Gao, N. Rega, 
 G. Zheng, W. Liang, M. Hada, M. Ehara, K. Toyota, R. Fukuda, 
 J. Hasegawa, M. Ishida, T. Nakajima, Y. Honda, O. Kitao, H. Nakai, 
 T. Vreven, K. Throssell, J. A. Montgomery, Jr., J. E. Peralta, 
 F. Ogliaro, M. J. Bearpark, J. J. Heyd, E. N. Brothers, K. N. Kudin, 
 V. N. Staroverov, T. A. Keith, R. Kobayashi, J. Normand, 
 K. Raghavachari, A. P. Rendell, J. C. Burant, S. S. Iyengar, 
 J. Tomasi, M. Cossi, J. M. Millam, M. Klene, C. Adamo, R. Cammi, 
 J. W. Ochterski, R. L. Martin, K. Morokuma, O. Farkas, 
 J. B. Foresman, and D. J. Fox, Gaussian, Inc., Wallingford CT, 2016.
 
 ******************************************
 Gaussian 16:  ES64L-G16RevA.03 25-Dec-2016
                17-Jul-2024 
 ******************************************
 %nprocshared=9
 Will use up to    9 processors via shared memory.
 %mem=18GB
 %Chk=HHLMWQDRYZAENA-UHFFFAOYSA-N_conf_1_0.chk
 -------------------------------------------------------
 # opt=CalcFc B3LYP/6-31G** SCRF=(Solvent=water) scf=xqc
 -------------------------------------------------------
 1/10=4,18=20,19=15,26=3,38=1/1,3;
 2/9=110,12=2,17=6,18=5,40=1/2;
 3/5=1,6=6,7=101,11=2,25=1,30=1,70=2201,71=2,72=1,74=-5,140=1/1,2,3;
 4//1;
 5/5=2,8=3,13=1,38=5,53=1/2,8;
 8/6=4,10=90,11=11/1;
 11/6=1,8=1,9=11,15=111,16=1/1,2,10;
 10/6=1,13=1/2;
 6/7=2,8=2,9=2,10=2,28=1/1;
 7/10=1,18=20,25=1/1,2,3,16;
 1/10=4,18=20,19=15,26=3/3(2);
 2/9=110/2;
 99//99;
 2/9=110/2;
 3/5=1,6=6,7=101,11=2,25=1,30=1,70=2205,71=1,72=1,74=-5/1,2,3;
 4/5=5,16=3,69=1/1;
 5/5=2,8=3,13=1,38=5,53=1/2,8;
 7//1,2,3,16;
 1/18=20,19=15,26=3/3(-5);
 2/9=110/2;
 6/7=2,8=2,9=2,10=2,19=2,28=1/1;
 99/9=1/99;
 ----------------------------------
 HHLMWQDRYZAENA-UHFFFAOYSA-N_conf_1
 ----------------------------------
 Symbolic Z-matrix:
 Charge =  0 Multiplicity = 1
 F                     1.09332  -2.28558   2.55981 
 C                     0.56687  -3.12526   1.63003 
 C                    -0.03209  -2.36213   0.4391 
 C                    -1.16007  -1.35174   0.81113 
 C                    -1.7288   -0.54232  -0.19738 
 C                    -2.74222   0.37536   0.091 
 C                    -3.22024   0.49199   1.39341 
 O                    -4.19035   1.39872   1.7509 
 C                    -5.33155   1.43522   0.98269 
 C                    -5.82927   2.69185   0.64575 
 C                    -7.00396   2.79751  -0.10402 
 C                    -7.67442   1.65314  -0.54561 
 N                    -8.90943   1.76661  -1.1937 
 C                    -7.20972   0.40158  -0.13142 
 C                    -6.03554   0.28693   0.6185 
 C                    -2.66074  -0.27626   2.40951 
 C                    -1.64623  -1.1958    2.12222 
 C                     1.12979  -1.60951  -0.27843 
 C                     1.62104  -1.98624  -1.54169 
 C                     2.66909  -1.28302  -2.14576 
 C                     3.25657  -0.20173  -1.49591 
 O                     4.25907   0.46181  -2.16408 
 C                     5.38342   0.79506  -1.44479 
 C                     5.88919   2.08173  -1.61551 
 C                     7.04836   2.46967  -0.93802 
 C                     7.69459   1.58798  -0.0667 
 N                     8.91633   1.9435    0.51556 
 C                     7.22353   0.27515   0.03139 
 C                     6.06463  -0.12102  -0.64258 
 C                     2.77367   0.20781  -0.2558 
 C                     1.7279   -0.49417   0.34924 
 C                    -0.66707  -3.49633  -0.37936 
 F                    -1.16672  -3.0523   -1.56265 
 F                    -1.70093  -4.08725   0.26573 
 F                     0.20894  -4.48001  -0.69085 
 F                     1.57207  -3.95529   1.26341 
 F                    -0.3429   -3.88336   2.28538 
 H                    -1.38158  -0.60665  -1.22877 
 H                    -3.14605   0.99642  -0.70427 
 H                    -5.31161   3.58882   0.97305 
 H                    -7.3935    3.78457  -0.33778 
 H                    -9.16705   0.94749  -1.73515 
 H                    -9.01941   2.62737  -1.72029 
 H                    -7.76235  -0.49895  -0.3857 
 H                    -5.69319  -0.69632   0.92823 
 H                    -3.01963  -0.16562   3.43009 
 H                    -1.25885  -1.77432   2.95842 
 H                     1.21283  -2.82859  -2.0966 
 H                     3.0319   -1.58604  -3.12519 
 H                     5.38958   2.78035  -2.28091 
 H                     7.44441   3.46866  -1.09996 
 H                     9.14996   1.40281   1.34247 
 H                     9.02547   2.94193   0.66394 
 H                     7.7593   -0.4553    0.63168 
 H                     5.71611  -1.14569  -0.55122 
 H                     3.19824   1.0736    0.24575 
 H                     1.3793   -0.14566   1.32168 
 

 GradGradGradGradGradGradGradGradGradGradGradGradGradGradGradGradGradGrad
 Berny optimization.
 Initialization pass.
                           ----------------------------
                           !    Initial Parameters    !
                           ! (Angstroms and Degrees)  !
 --------------------------                            --------------------------
 ! Name  Definition              Value          Derivative Info.                !
 --------------------------------------------------------------------------------
 ! R1    R(1,2)                  1.3589         calculate D2E/DX2 analytically  !
 ! R2    R(2,3)                  1.536          calculate D2E/DX2 analytically  !
 ! R3    R(2,36)                 1.3542         calculate D2E/DX2 analytically  !
 ! R4    R(2,37)                 1.3535         calculate D2E/DX2 analytically  !
 ! R5    R(3,4)                  1.5594         calculate D2E/DX2 analytically  !
 ! R6    R(3,18)                 1.5593         calculate D2E/DX2 analytically  !
 ! R7    R(3,32)                 1.5361         calculate D2E/DX2 analytically  !
 ! R8    R(4,5)                  1.4127         calculate D2E/DX2 analytically  !
 ! R9    R(4,17)                 1.407          calculate D2E/DX2 analytically  !
 ! R10   R(5,6)                  1.3972         calculate D2E/DX2 analytically  !
 ! R11   R(5,38)                 1.0902         calculate D2E/DX2 analytically  !
 ! R12   R(6,7)                  1.3923         calculate D2E/DX2 analytically  !
 ! R13   R(6,39)                 1.0869         calculate D2E/DX2 analytically  !
 ! R14   R(7,8)                  1.3752         calculate D2E/DX2 analytically  !
 ! R15   R(7,16)                 1.3913         calculate D2E/DX2 analytically  !
 ! R16   R(8,9)                  1.3762         calculate D2E/DX2 analytically  !
 ! R17   R(9,10)                 1.393          calculate D2E/DX2 analytically  !
 ! R18   R(9,15)                 1.3953         calculate D2E/DX2 analytically  !
 ! R19   R(10,11)                1.3976         calculate D2E/DX2 analytically  !
 ! R20   R(10,40)                1.0861         calculate D2E/DX2 analytically  !
 ! R21   R(11,12)                1.3979         calculate D2E/DX2 analytically  !
 ! R22   R(11,41)                1.0866         calculate D2E/DX2 analytically  !
 ! R23   R(12,13)                1.3993         calculate D2E/DX2 analytically  !
 ! R24   R(12,14)                1.3978         calculate D2E/DX2 analytically  !
 ! R25   R(13,42)                1.0151         calculate D2E/DX2 analytically  !
 ! R26   R(13,43)                1.015          calculate D2E/DX2 analytically  !
 ! R27   R(14,15)                1.3979         calculate D2E/DX2 analytically  !
 ! R28   R(14,44)                1.0867         calculate D2E/DX2 analytically  !
 ! R29   R(15,45)                1.0862         calculate D2E/DX2 analytically  !
 ! R30   R(16,17)                1.399          calculate D2E/DX2 analytically  !
 ! R31   R(16,46)                1.0875         calculate D2E/DX2 analytically  !
 ! R32   R(17,47)                1.0881         calculate D2E/DX2 analytically  !
 ! R33   R(18,19)                1.4068         calculate D2E/DX2 analytically  !
 ! R34   R(18,31)                1.4127         calculate D2E/DX2 analytically  !
 ! R35   R(19,20)                1.3992         calculate D2E/DX2 analytically  !
 ! R36   R(19,48)                1.0882         calculate D2E/DX2 analytically  !
 ! R37   R(20,21)                1.3916         calculate D2E/DX2 analytically  !
 ! R38   R(20,49)                1.0875         calculate D2E/DX2 analytically  !
 ! R39   R(21,22)                1.3754         calculate D2E/DX2 analytically  !
 ! R40   R(21,30)                1.3924         calculate D2E/DX2 analytically  !
 ! R41   R(22,23)                1.3757         calculate D2E/DX2 analytically  !
 ! R42   R(23,24)                1.393          calculate D2E/DX2 analytically  !
 ! R43   R(23,29)                1.3953         calculate D2E/DX2 analytically  !
 ! R44   R(24,25)                1.3976         calculate D2E/DX2 analytically  !
 ! R45   R(24,50)                1.0865         calculate D2E/DX2 analytically  !
 ! R46   R(25,26)                1.3979         calculate D2E/DX2 analytically  !
 ! R47   R(25,51)                1.0868         calculate D2E/DX2 analytically  !
 ! R48   R(26,27)                1.3993         calculate D2E/DX2 analytically  !
 ! R49   R(26,28)                1.3982         calculate D2E/DX2 analytically  !
 ! R50   R(27,52)                1.0152         calculate D2E/DX2 analytically  !
 ! R51   R(27,53)                1.0153         calculate D2E/DX2 analytically  !
 ! R52   R(28,29)                1.3979         calculate D2E/DX2 analytically  !
 ! R53   R(28,54)                1.0867         calculate D2E/DX2 analytically  !
 ! R54   R(29,55)                1.0862         calculate D2E/DX2 analytically  !
 ! R55   R(30,31)                1.3973         calculate D2E/DX2 analytically  !
 ! R56   R(30,56)                1.0869         calculate D2E/DX2 analytically  !
 ! R57   R(31,57)                1.0902         calculate D2E/DX2 analytically  !
 ! R58   R(32,33)                1.359          calculate D2E/DX2 analytically  !
 ! R59   R(32,34)                1.3543         calculate D2E/DX2 analytically  !
 ! R60   R(32,35)                1.3535         calculate D2E/DX2 analytically  !
 ! A1    A(1,2,3)              111.9964         calculate D2E/DX2 analytically  !
 ! A2    A(1,2,36)             106.0458         calculate D2E/DX2 analytically  !
 ! A3    A(1,2,37)             105.9743         calculate D2E/DX2 analytically  !
 ! A4    A(3,2,36)             112.5859         calculate D2E/DX2 analytically  !
 ! A5    A(3,2,37)             113.0527         calculate D2E/DX2 analytically  !
 ! A6    A(36,2,37)            106.6619         calculate D2E/DX2 analytically  !
 ! A7    A(2,3,4)              114.7717         calculate D2E/DX2 analytically  !
 ! A8    A(2,3,18)             107.8199         calculate D2E/DX2 analytically  !
 ! A9    A(2,3,32)             101.974          calculate D2E/DX2 analytically  !
 ! A10   A(4,3,18)             109.6365         calculate D2E/DX2 analytically  !
 ! A11   A(4,3,32)             107.85           calculate D2E/DX2 analytically  !
 ! A12   A(18,3,32)            114.7865         calculate D2E/DX2 analytically  !
 ! A13   A(3,4,5)              119.4818         calculate D2E/DX2 analytically  !
 ! A14   A(3,4,17)             122.9613         calculate D2E/DX2 analytically  !
 ! A15   A(5,4,17)             117.5563         calculate D2E/DX2 analytically  !
 ! A16   A(4,5,6)              121.3969         calculate D2E/DX2 analytically  !
 ! A17   A(4,5,38)             120.8881         calculate D2E/DX2 analytically  !
 ! A18   A(6,5,38)             117.7118         calculate D2E/DX2 analytically  !
 ! A19   A(5,6,7)              119.8092         calculate D2E/DX2 analytically  !
 ! A20   A(5,6,39)             119.5892         calculate D2E/DX2 analytically  !
 ! A21   A(7,6,39)             120.6006         calculate D2E/DX2 analytically  !
 ! A22   A(6,7,8)              122.7269         calculate D2E/DX2 analytically  !
 ! A23   A(6,7,16)             119.9246         calculate D2E/DX2 analytically  !
 ! A24   A(8,7,16)             117.2533         calculate D2E/DX2 analytically  !
 ! A25   A(7,8,9)              117.2173         calculate D2E/DX2 analytically  !
 ! A26   A(8,9,10)             117.081          calculate D2E/DX2 analytically  !
 ! A27   A(8,9,15)             122.8397         calculate D2E/DX2 analytically  !
 ! A28   A(10,9,15)            119.9347         calculate D2E/DX2 analytically  !
 ! A29   A(9,10,11)            119.8872         calculate D2E/DX2 analytically  !
 ! A30   A(9,10,40)            120.121          calculate D2E/DX2 analytically  !
 ! A31   A(11,10,40)           119.9889         calculate D2E/DX2 analytically  !
 ! A32   A(10,11,12)           120.7111         calculate D2E/DX2 analytically  !
 ! A33   A(10,11,41)           119.0398         calculate D2E/DX2 analytically  !
 ! A34   A(12,11,41)           120.2488         calculate D2E/DX2 analytically  !
 ! A35   A(11,12,13)           120.2134         calculate D2E/DX2 analytically  !
 ! A36   A(11,12,14)           118.6811         calculate D2E/DX2 analytically  !
 ! A37   A(13,12,14)           120.2146         calculate D2E/DX2 analytically  !
 ! A38   A(12,13,42)           113.9273         calculate D2E/DX2 analytically  !
 ! A39   A(12,13,43)           113.8697         calculate D2E/DX2 analytically  !
 ! A40   A(42,13,43)           112.3379         calculate D2E/DX2 analytically  !
 ! A41   A(12,14,15)           120.7718         calculate D2E/DX2 analytically  !
 ! A42   A(12,14,44)           120.2359         calculate D2E/DX2 analytically  !
 ! A43   A(15,14,44)           118.9916         calculate D2E/DX2 analytically  !
 ! A44   A(9,15,14)            119.7568         calculate D2E/DX2 analytically  !
 ! A45   A(9,15,45)            120.7645         calculate D2E/DX2 analytically  !
 ! A46   A(14,15,45)           119.4668         calculate D2E/DX2 analytically  !
 ! A47   A(7,16,17)            120.3031         calculate D2E/DX2 analytically  !
 ! A48   A(7,16,46)            119.7685         calculate D2E/DX2 analytically  !
 ! A49   A(17,16,46)           119.9269         calculate D2E/DX2 analytically  !
 ! A50   A(4,17,16)            120.9813         calculate D2E/DX2 analytically  !
 ! A51   A(4,17,47)            122.2877         calculate D2E/DX2 analytically  !
 ! A52   A(16,17,47)           116.7309         calculate D2E/DX2 analytically  !
 ! A53   A(3,18,19)            122.968          calculate D2E/DX2 analytically  !
 ! A54   A(3,18,31)            119.4792         calculate D2E/DX2 analytically  !
 ! A55   A(19,18,31)           117.5526         calculate D2E/DX2 analytically  !
 ! A56   A(18,19,20)           120.9729         calculate D2E/DX2 analytically  !
 ! A57   A(18,19,48)           122.291          calculate D2E/DX2 analytically  !
 ! A58   A(20,19,48)           116.7361         calculate D2E/DX2 analytically  !
 ! A59   A(19,20,21)           120.3384         calculate D2E/DX2 analytically  !
 ! A60   A(19,20,49)           119.9103         calculate D2E/DX2 analytically  !
 ! A61   A(21,20,49)           119.7501         calculate D2E/DX2 analytically  !
 ! A62   A(20,21,22)           117.1089         calculate D2E/DX2 analytically  !
 ! A63   A(20,21,30)           119.8695         calculate D2E/DX2 analytically  !
 ! A64   A(22,21,30)           122.926          calculate D2E/DX2 analytically  !
 ! A65   A(21,22,23)           117.294          calculate D2E/DX2 analytically  !
 ! A66   A(22,23,24)           117.1555         calculate D2E/DX2 analytically  !
 ! A67   A(22,23,29)           122.7235         calculate D2E/DX2 analytically  !
 ! A68   A(24,23,29)           119.976          calculate D2E/DX2 analytically  !
 ! A69   A(23,24,25)           119.8767         calculate D2E/DX2 analytically  !
 ! A70   A(23,24,50)           120.134          calculate D2E/DX2 analytically  !
 ! A71   A(25,24,50)           119.9869         calculate D2E/DX2 analytically  !
 ! A72   A(24,25,26)           120.697          calculate D2E/DX2 analytically  !
 ! A73   A(24,25,51)           119.0252         calculate D2E/DX2 analytically  !
 ! A74   A(26,25,51)           120.2775         calculate D2E/DX2 analytically  !
 ! A75   A(25,26,27)           120.1809         calculate D2E/DX2 analytically  !
 ! A76   A(25,26,28)           118.6973         calculate D2E/DX2 analytically  !
 ! A77   A(27,26,28)           120.2318         calculate D2E/DX2 analytically  !
 ! A78   A(26,27,52)           113.8622         calculate D2E/DX2 analytically  !
 ! A79   A(26,27,53)           113.8609         calculate D2E/DX2 analytically  !
 ! A80   A(52,27,53)           112.3309         calculate D2E/DX2 analytically  !
 ! A81   A(26,28,29)           120.7674         calculate D2E/DX2 analytically  !
 ! A82   A(26,28,54)           120.2499         calculate D2E/DX2 analytically  !
 ! A83   A(29,28,54)           118.982          calculate D2E/DX2 analytically  !
 ! A84   A(23,29,28)           119.7269         calculate D2E/DX2 analytically  !
 ! A85   A(23,29,55)           120.7365         calculate D2E/DX2 analytically  !
 ! A86   A(28,29,55)           119.5249         calculate D2E/DX2 analytically  !
 ! A87   A(21,30,31)           119.8307         calculate D2E/DX2 analytically  !
 ! A88   A(21,30,56)           120.6495         calculate D2E/DX2 analytically  !
 ! A89   A(31,30,56)           119.5188         calculate D2E/DX2 analytically  !
 ! A90   A(18,31,30)           121.407          calculate D2E/DX2 analytically  !
 ! A91   A(18,31,57)           120.8843         calculate D2E/DX2 analytically  !
 ! A92   A(30,31,57)           117.7056         calculate D2E/DX2 analytically  !
 ! A93   A(3,32,33)            112.0032         calculate D2E/DX2 analytically  !
 ! A94   A(3,32,34)            112.578          calculate D2E/DX2 analytically  !
 ! A95   A(3,32,35)            113.0602         calculate D2E/DX2 analytically  !
 ! A96   A(33,32,34)           106.0587         calculate D2E/DX2 analytically  !
 ! A97   A(33,32,35)           105.9633         calculate D2E/DX2 analytically  !
 ! A98   A(34,32,35)           106.6533         calculate D2E/DX2 analytically  !
 ! D1    D(1,2,3,4)            -58.4664         calculate D2E/DX2 analytically  !
 ! D2    D(1,2,3,18)            64.0197         calculate D2E/DX2 analytically  !
 ! D3    D(1,2,3,32)          -174.7597         calculate D2E/DX2 analytically  !
 ! D4    D(36,2,3,4)          -177.8663         calculate D2E/DX2 analytically  !
 ! D5    D(36,2,3,18)          -55.3801         calculate D2E/DX2 analytically  !
 ! D6    D(36,2,3,32)           65.8404         calculate D2E/DX2 analytically  !
 ! D7    D(37,2,3,4)            61.1689         calculate D2E/DX2 analytically  !
 ! D8    D(37,2,3,18)         -176.3449         calculate D2E/DX2 analytically  !
 ! D9    D(37,2,3,32)          -55.1244         calculate D2E/DX2 analytically  !
 ! D10   D(2,3,4,5)            176.4827         calculate D2E/DX2 analytically  !
 ! D11   D(2,3,4,17)            -3.2071         calculate D2E/DX2 analytically  !
 ! D12   D(18,3,4,5)            54.9824         calculate D2E/DX2 analytically  !
 ! D13   D(18,3,4,17)         -124.7073         calculate D2E/DX2 analytically  !
 ! D14   D(32,3,4,5)           -70.6467         calculate D2E/DX2 analytically  !
 ! D15   D(32,3,4,17)          109.6636         calculate D2E/DX2 analytically  !
 ! D16   D(2,3,18,19)          109.0331         calculate D2E/DX2 analytically  !
 ! D17   D(2,3,18,31)          -71.1386         calculate D2E/DX2 analytically  !
 ! D18   D(4,3,18,19)         -125.3764         calculate D2E/DX2 analytically  !
 ! D19   D(4,3,18,31)           54.4519         calculate D2E/DX2 analytically  !
 ! D20   D(32,3,18,19)          -3.8265         calculate D2E/DX2 analytically  !
 ! D21   D(32,3,18,31)         176.0018         calculate D2E/DX2 analytically  !
 ! D22   D(2,3,32,33)         -174.6305         calculate D2E/DX2 analytically  !
 ! D23   D(2,3,32,34)           65.9538         calculate D2E/DX2 analytically  !
 ! D24   D(2,3,32,35)          -54.9993         calculate D2E/DX2 analytically  !
 ! D25   D(4,3,32,33)           64.1525         calculate D2E/DX2 analytically  !
 ! D26   D(4,3,32,34)          -55.2631         calculate D2E/DX2 analytically  !
 ! D27   D(4,3,32,35)         -176.2163         calculate D2E/DX2 analytically  !
 ! D28   D(18,3,32,33)         -58.3662         calculate D2E/DX2 analytically  !
 ! D29   D(18,3,32,34)        -177.7819         calculate D2E/DX2 analytically  !
 ! D30   D(18,3,32,35)          61.265          calculate D2E/DX2 analytically  !
 ! D31   D(3,4,5,6)            179.9465         calculate D2E/DX2 analytically  !
 ! D32   D(3,4,5,38)            -0.7208         calculate D2E/DX2 analytically  !
 ! D33   D(17,4,5,6)            -0.3472         calculate D2E/DX2 analytically  !
 ! D34   D(17,4,5,38)          178.9856         calculate D2E/DX2 analytically  !
 ! D35   D(3,4,17,16)         -179.9768         calculate D2E/DX2 analytically  !
 ! D36   D(3,4,17,47)            0.1161         calculate D2E/DX2 analytically  !
 ! D37   D(5,4,17,16)            0.3279         calculate D2E/DX2 analytically  !
 ! D38   D(5,4,17,47)         -179.5793         calculate D2E/DX2 analytically  !
 ! D39   D(4,5,6,7)             -0.7616         calculate D2E/DX2 analytically  !
 ! D40   D(4,5,6,39)           178.8731         calculate D2E/DX2 analytically  !
 ! D41   D(38,5,6,7)           179.8852         calculate D2E/DX2 analytically  !
 ! D42   D(38,5,6,39)           -0.4801         calculate D2E/DX2 analytically  !
 ! D43   D(5,6,7,8)            178.2533         calculate D2E/DX2 analytically  !
 ! D44   D(5,6,7,16)             1.8989         calculate D2E/DX2 analytically  !
 ! D45   D(39,6,7,8)            -1.3776         calculate D2E/DX2 analytically  !
 ! D46   D(39,6,7,16)         -177.7321         calculate D2E/DX2 analytically  !
 ! D47   D(6,7,8,9)             49.8348         calculate D2E/DX2 analytically  !
 ! D48   D(16,7,8,9)          -133.7191         calculate D2E/DX2 analytically  !
 ! D49   D(6,7,16,17)           -1.926          calculate D2E/DX2 analytically  !
 ! D50   D(6,7,16,46)          178.5194         calculate D2E/DX2 analytically  !
 ! D51   D(8,7,16,17)         -178.4765         calculate D2E/DX2 analytically  !
 ! D52   D(8,7,16,46)            1.969          calculate D2E/DX2 analytically  !
 ! D53   D(7,8,9,10)          -136.6531         calculate D2E/DX2 analytically  !
 ! D54   D(7,8,9,15)            47.7269         calculate D2E/DX2 analytically  !
 ! D55   D(8,9,10,11)         -178.3879         calculate D2E/DX2 analytically  !
 ! D56   D(8,9,10,40)            1.0006         calculate D2E/DX2 analytically  !
 ! D57   D(15,9,10,11)          -2.6343         calculate D2E/DX2 analytically  !
 ! D58   D(15,9,10,40)         176.7542         calculate D2E/DX2 analytically  !
 ! D59   D(8,9,15,14)          178.1341         calculate D2E/DX2 analytically  !
 ! D60   D(8,9,15,45)           -0.602          calculate D2E/DX2 analytically  !
 ! D61   D(10,9,15,14)           2.6346         calculate D2E/DX2 analytically  !
 ! D62   D(10,9,15,45)        -176.1015         calculate D2E/DX2 analytically  !
 ! D63   D(9,10,11,12)          -1.3191         calculate D2E/DX2 analytically  !
 ! D64   D(9,10,11,41)         178.4739         calculate D2E/DX2 analytically  !
 ! D65   D(40,10,11,12)        179.2915         calculate D2E/DX2 analytically  !
 ! D66   D(40,10,11,41)         -0.9154         calculate D2E/DX2 analytically  !
 ! D67   D(10,11,12,13)        174.3965         calculate D2E/DX2 analytically  !
 ! D68   D(10,11,12,14)          5.1755         calculate D2E/DX2 analytically  !
 ! D69   D(41,11,12,13)         -5.3941         calculate D2E/DX2 analytically  !
 ! D70   D(41,11,12,14)       -174.6151         calculate D2E/DX2 analytically  !
 ! D71   D(11,12,13,42)        160.9618         calculate D2E/DX2 analytically  !
 ! D72   D(11,12,13,43)         30.342          calculate D2E/DX2 analytically  !
 ! D73   D(14,12,13,42)        -29.9834         calculate D2E/DX2 analytically  !
 ! D74   D(14,12,13,43)       -160.6031         calculate D2E/DX2 analytically  !
 ! D75   D(11,12,14,15)         -5.1749         calculate D2E/DX2 analytically  !
 ! D76   D(11,12,14,44)        174.5273         calculate D2E/DX2 analytically  !
 ! D77   D(13,12,14,15)       -174.3958         calculate D2E/DX2 analytically  !
 ! D78   D(13,12,14,44)          5.3064         calculate D2E/DX2 analytically  !
 ! D79   D(12,14,15,9)           1.3173         calculate D2E/DX2 analytically  !
 ! D80   D(12,14,15,45)       -179.9301         calculate D2E/DX2 analytically  !
 ! D81   D(44,14,15,9)        -178.3887         calculate D2E/DX2 analytically  !
 ! D82   D(44,14,15,45)          0.364          calculate D2E/DX2 analytically  !
 ! D83   D(7,16,17,4)            0.8029         calculate D2E/DX2 analytically  !
 ! D84   D(7,16,17,47)        -179.285          calculate D2E/DX2 analytically  !
 ! D85   D(46,16,17,4)        -179.6433         calculate D2E/DX2 analytically  !
 ! D86   D(46,16,17,47)          0.2688         calculate D2E/DX2 analytically  !
 ! D87   D(3,18,19,20)        -179.7998         calculate D2E/DX2 analytically  !
 ! D88   D(3,18,19,48)           0.2387         calculate D2E/DX2 analytically  !
 ! D89   D(31,18,19,20)          0.3688         calculate D2E/DX2 analytically  !
 ! D90   D(31,18,19,48)       -179.5928         calculate D2E/DX2 analytically  !
 ! D91   D(3,18,31,30)         179.8488         calculate D2E/DX2 analytically  !
 ! D92   D(3,18,31,57)          -0.7962         calculate D2E/DX2 analytically  !
 ! D93   D(19,18,31,30)         -0.3137         calculate D2E/DX2 analytically  !
 ! D94   D(19,18,31,57)        179.0413         calculate D2E/DX2 analytically  !
 ! D95   D(18,19,20,21)          0.7329         calculate D2E/DX2 analytically  !
 ! D96   D(18,19,20,49)       -179.6786         calculate D2E/DX2 analytically  !
 ! D97   D(48,19,20,21)       -179.3035         calculate D2E/DX2 analytically  !
 ! D98   D(48,19,20,49)          0.285          calculate D2E/DX2 analytically  !
 ! D99   D(19,20,21,22)       -178.4509         calculate D2E/DX2 analytically  !
 ! D100  D(19,20,21,30)         -1.9012         calculate D2E/DX2 analytically  !
 ! D101  D(49,20,21,22)          1.96           calculate D2E/DX2 analytically  !
 ! D102  D(49,20,21,30)        178.5096         calculate D2E/DX2 analytically  !
 ! D103  D(20,21,22,23)       -135.9383         calculate D2E/DX2 analytically  !
 ! D104  D(30,21,22,23)         47.6264         calculate D2E/DX2 analytically  !
 ! D105  D(20,21,30,31)          1.9475         calculate D2E/DX2 analytically  !
 ! D106  D(20,21,30,56)       -177.6814         calculate D2E/DX2 analytically  !
 ! D107  D(22,21,30,31)        178.2882         calculate D2E/DX2 analytically  !
 ! D108  D(22,21,30,56)         -1.3407         calculate D2E/DX2 analytically  !
 ! D109  D(21,22,23,24)       -135.1409         calculate D2E/DX2 analytically  !
 ! D110  D(21,22,23,29)         49.2432         calculate D2E/DX2 analytically  !
 ! D111  D(22,23,24,25)       -178.4127         calculate D2E/DX2 analytically  !
 ! D112  D(22,23,24,50)          1.0232         calculate D2E/DX2 analytically  !
 ! D113  D(29,23,24,25)         -2.6702         calculate D2E/DX2 analytically  !
 ! D114  D(29,23,24,50)        176.7656         calculate D2E/DX2 analytically  !
 ! D115  D(22,23,29,28)        178.1568         calculate D2E/DX2 analytically  !
 ! D116  D(22,23,29,55)         -0.5901         calculate D2E/DX2 analytically  !
 ! D117  D(24,23,29,28)          2.6603         calculate D2E/DX2 analytically  !
 ! D118  D(24,23,29,55)       -176.0867         calculate D2E/DX2 analytically  !
 ! D119  D(23,24,25,26)         -1.295          calculate D2E/DX2 analytically  !
 ! D120  D(23,24,25,51)        178.5274         calculate D2E/DX2 analytically  !
 ! D121  D(50,24,25,26)        179.2683         calculate D2E/DX2 analytically  !
 ! D122  D(50,24,25,51)         -0.9093         calculate D2E/DX2 analytically  !
 ! D123  D(24,25,26,27)        174.4003         calculate D2E/DX2 analytically  !
 ! D124  D(24,25,26,28)          5.1718         calculate D2E/DX2 analytically  !
 ! D125  D(51,25,26,27)         -5.4198         calculate D2E/DX2 analytically  !
 ! D126  D(51,25,26,28)       -174.6483         calculate D2E/DX2 analytically  !
 ! D127  D(25,26,27,52)        160.8009         calculate D2E/DX2 analytically  !
 ! D128  D(25,26,27,53)         30.2624         calculate D2E/DX2 analytically  !
 ! D129  D(28,26,27,52)        -30.1368         calculate D2E/DX2 analytically  !
 ! D130  D(28,26,27,53)       -160.6753         calculate D2E/DX2 analytically  !
 ! D131  D(25,26,28,29)         -5.1816         calculate D2E/DX2 analytically  !
 ! D132  D(25,26,28,54)        174.508          calculate D2E/DX2 analytically  !
 ! D133  D(27,26,28,29)       -174.4045         calculate D2E/DX2 analytically  !
 ! D134  D(27,26,28,54)          5.2851         calculate D2E/DX2 analytically  !
 ! D135  D(26,28,29,23)          1.3125         calculate D2E/DX2 analytically  !
 ! D136  D(26,28,29,55)       -179.9253         calculate D2E/DX2 analytically  !
 ! D137  D(54,28,29,23)       -178.381          calculate D2E/DX2 analytically  !
 ! D138  D(54,28,29,55)          0.3813         calculate D2E/DX2 analytically  !
 ! D139  D(21,30,31,18)         -0.8412         calculate D2E/DX2 analytically  !
 ! D140  D(21,30,31,57)        179.7841         calculate D2E/DX2 analytically  !
 ! D141  D(56,30,31,18)        178.7919         calculate D2E/DX2 analytically  !
 ! D142  D(56,30,31,57)         -0.5829         calculate D2E/DX2 analytically  !
 --------------------------------------------------------------------------------
 Trust Radius=3.00D-01 FncErr=1.00D-07 GrdErr=1.00D-06 EigMax=2.50D+02 EigMin=1.00D-04
 Number of steps in this run=    310 maximum allowed number of steps=    342.
 GradGradGradGradGradGradGradGradGradGradGradGradGradGradGradGradGradGrad

 Stoichiometry    C27H20F6N2O2
 Framework group  C1[X(C27H20F6N2O2)]
 Deg. of freedom   165
 Full point group                 C1      NOp   1
 Largest Abelian subgroup         C1      NOp   1
 Largest concise Abelian subgroup C1      NOp   1
                         Standard orientation:                         
 ---------------------------------------------------------------------
 Center     Atomic      Atomic             Coordinates (Angstroms)
 Number     Number       Type             X           Y           Z
 ---------------------------------------------------------------------
      1          9           0       -0.979277    2.151192    2.179194
      2          6           0       -0.535616    2.813453    1.078610
      3          6           0        0.003201    1.853200    0.007623
      4          6           0        1.177812    0.942023    0.478444
      5          6           0        1.699518   -0.030796   -0.403119
      6          6           0        2.752080   -0.867555   -0.023316
      7          6           0        3.316765   -0.738301    1.242707
      8          8           0        4.330360   -1.552219    1.691304
      9          6           0        5.419594   -1.714087    0.865962
     10          6           0        5.925373   -3.004774    0.729215
     11          6           0        7.050939   -3.230856   -0.067785
     12          6           0        7.662516   -2.178072   -0.754609
     13          7           0        8.855076   -2.392494   -1.454589
     14          6           0        7.194841   -0.877849   -0.543428
     15          6           0        6.069573   -0.642898    0.252060
     16          6           0        2.805779    0.195543    2.138552
     17          6           0        1.752152    1.034317    1.759549
     18          6           0       -1.183926    0.967638   -0.479999
     19          6           0       -1.765712    1.101074   -1.753894
     20          6           0       -2.833115    0.286232   -2.146978
     21          6           0       -3.349901   -0.665452   -1.272990
     22          8           0       -4.377030   -1.452413   -1.739294
     23          6           0       -5.443455   -1.662762   -0.896023
     24          6           0       -5.927137   -2.965216   -0.795375
     25          6           0       -7.029660   -3.237408    0.019196
     26          6           0       -7.639420   -2.219577    0.758383
     27          7           0       -8.811372   -2.478065    1.477942
     28          6           0       -7.195753   -0.905107    0.584127
     29          6           0       -6.093469   -0.624187   -0.228468
     30          6           0       -2.777139   -0.835472   -0.015290
     31          6           0       -1.711915   -0.021703    0.379132
     32          6           0        0.555071    2.826696   -1.044637
     33          9           0        0.987386    2.180296   -2.159203
     34          9           0        1.613784    3.538449   -0.589963
     35          9           0       -0.363572    3.725846   -1.468524
     36          9           0       -1.582908    3.549859    0.637386
     37          9           0        0.395823    3.689876    1.521540
     38          1           0        1.284292   -0.160315   -1.402762
     39          1           0        3.118514   -1.618314   -0.718537
     40          1           0        5.452619   -3.833293    1.248546
     41          1           0        7.448823   -4.239035   -0.144790
     42          1           0        9.056396   -1.682893   -2.152025
     43          1           0        8.951851   -3.333521   -1.822579
     44          1           0        7.707156   -0.032047   -0.994171
     45          1           0        5.723811    0.376005    0.401036
     46          1           0        3.233092    0.277705    3.135192
     47          1           0        1.405856    1.750933    2.501522
     48          1           0       -1.415624    1.832944   -2.479084
     49          1           0       -3.266435    0.400664   -3.137872
     50          1           0       -5.454760   -3.767301   -1.355703
     51          1           0       -7.410464   -4.254066    0.068732
     52          1           0       -9.003959   -1.798407    2.207109
     53          1           0       -8.885749   -3.433883    1.812113
     54          1           0       -7.709232   -0.084075    1.077286
     55          1           0       -5.765319    0.404223   -0.348642
     56          1           0       -3.146449   -1.600335    0.662938
     57          1           0       -1.292096   -0.182303    1.372400
 ---------------------------------------------------------------------
 Rotational constants (GHZ):           0.1524410           0.0436863           0.0380766
 Standard basis: 6-31G(d,p) (6D, 7F)
 There are   655 symmetry adapted cartesian basis functions of A   symmetry.
 There are   655 symmetry adapted basis functions of A   symmetry.
   655 basis functions,  1176 primitive gaussians,   655 cartesian basis functions
   133 alpha electrons      133 beta electrons
       nuclear repulsion energy      3948.9064988484 Hartrees.
 NAtoms=   57 NActive=   57 NUniq=   57 SFac= 1.00D+00 NAtFMM=   60 NAOKFM=F Big=F
 Integral buffers will be    131072 words long.
 Raffenetti 2 integral format.
 Two-electron integral symmetry is turned on.
 Force inversion solution in PCM.
 ------------------------------------------------------------------------------
 Polarizable Continuum Model (PCM)
 =================================
 Model                : PCM.
 Atomic radii         : UFF (Universal Force Field).
 Polarization charges : Total charges.
 Charge compensation  : None.
 Solution method      : Matrix inversion.
 Cavity type          : Scaled VdW (van der Waals Surface) (Alpha=1.100).
 Cavity algorithm     : GePol (No added spheres)
                        Default sphere list used, NSphG=   57.
                        Lebedev-Laikov grids with approx.  5.0 points / Ang**2.
                        Smoothing algorithm: York/Karplus (Gamma=1.0000).
                        Polarization charges: spherical gaussians, with
                                              point-specific exponents (IZeta= 3).
                        Self-potential: point-specific (ISelfS= 7).
                        Self-field    : sphere-specific E.n sum rule (ISelfD= 2).
 1st derivatives      : Analytical E(r).r(x)/FMM algorithm (CHGder, D1EAlg=3).
                        Cavity 1st derivative terms included.
 2nd derivatives      : Analytical E(r).r(xy)/FMM algorithm (CHGder, D2EAlg=3).
                        Cavity 2nd derivative terms included.
 Solvent              : Water, Eps=  78.355300 Eps(inf)=   1.777849
 ------------------------------------------------------------------------------
 One-electron integrals computed using PRISM.
 NBasis=   655 RedAO= T EigKep=  3.95D-04  NBF=   655
 NBsUse=   655 1.00D-06 EigRej= -1.00D+00 NBFU=   655
 ExpMin= 1.61D-01 ExpMax= 7.00D+03 ExpMxC= 1.05D+03 IAcc=3 IRadAn=         5 AccDes= 0.00D+00
 Harris functional with IExCor=  402 and IRadAn=       5 diagonalized for initial guess.
 HarFok:  IExCor=  402 AccDes= 0.00D+00 IRadAn=         5 IDoV= 1 UseB2=F ITyADJ=14
 ICtDFT=  3500011 ScaDFX=  1.000000  1.000000  1.000000  1.000000
 FoFCou: FMM=F IPFlag=           0 FMFlag=      100000 FMFlg1=           0
         NFxFlg=           0 DoJE=T BraDBF=F KetDBF=T FulRan=T
         wScrn=  0.000000 ICntrl=       500 IOpCl=  0 I1Cent=   200000004 NGrid=           0
         NMat0=    1 NMatS0=      1 NMatT0=    0 NMatD0=    1 NMtDS0=    0 NMtDT0=    0
 Petite list used in FoFCou.
 Requested convergence on RMS density matrix=1.00D-08 within  32 cycles.
 Requested convergence on MAX density matrix=1.00D-06.
 Requested convergence on             energy=1.00D-06.
 No special actions if energy rises.
 Inv3:  Mode=1 IEnd=    53704083.
 Iteration    1 A*A^-1 deviation from unit magnitude is 3.33D-15 for   2147.
 Iteration    1 A*A^-1 deviation from orthogonality  is 2.44D-15 for   2425    931.
 Iteration    1 A^-1*A deviation from unit magnitude is 3.33D-15 for   2147.
 Iteration    1 A^-1*A deviation from orthogonality  is 1.69D-14 for   2401   2360.
 Error on total polarization charges =  0.01064
 SCF Done:  E(RB3LYP) =  -1899.94612566     A.U. after   12 cycles
            NFock= 12  Conv=0.89D-08     -V/T= 2.0086
 QCSCF skips out because SCF is already converged.
 DoSCS=F DFT=T ScalE2(SS,OS)=  1.000000  1.000000
 Range of M.O.s used for correlation:     1   655
 NBasis=   655 NAE=   133 NBE=   133 NFC=     0 NFV=     0
 NROrb=    655 NOA=   133 NOB=   133 NVA=   522 NVB=   522

 **** Warning!!: The largest alpha MO coefficient is  0.10249883D+02

 Symmetrizing basis deriv contribution to polar:
 IMax=3 JMax=2 DiffMx= 0.00D+00
 G2DrvN: will do    58 centers at a time, making    1 passes.
 Calling FoFCou, ICntrl=  3107 FMM=F I1Cent=   0 AccDes= 0.00D+00.
 NEqPCM:  Using equilibrium solvation (IEInf=0, Eps=  78.3553, EpsInf=   1.7778)
 G2PCM: DoFxE=T DoFxN=T DoGrad=T DoDP/DQ/DG/TGxP=FFFF NFrqRd=   0 IEInf=0 SqF1=F DoCFld=F IF1Alg=4.
 End of G2Drv F.D. properties file   721 does not exist.
 End of G2Drv F.D. properties file   722 does not exist.
 End of G2Drv F.D. properties file   788 does not exist.
          IDoAtm=11111111111111111111111111111111111111111111111111
          IDoAtm=1111111
 NEqPCM:  Using equilibrium solvation (IEInf=0, Eps=  78.3553, EpsInf=   1.7778)
          Differentiating once with respect to nuclear coordinates.
 CalDSu exits because no D1Ps are significant.
          There are   174 degrees of freedom in the 1st order CPHF.  IDoFFX=6 NUNeed=     0.
    168 vectors produced by pass  0 Test12= 6.94D-14 1.00D-09 XBig12= 1.64D-01 1.41D-01.
 AX will form   168 AO Fock derivatives at one time.
    168 vectors produced by pass  1 Test12= 6.94D-14 1.00D-09 XBig12= 1.48D-02 2.05D-02.
    168 vectors produced by pass  2 Test12= 6.94D-14 1.00D-09 XBig12= 2.10D-04 1.47D-03.
    168 vectors produced by pass  3 Test12= 6.94D-14 1.00D-09 XBig12= 7.41D-07 8.64D-05.
    168 vectors produced by pass  4 Test12= 6.94D-14 1.00D-09 XBig12= 2.54D-09 3.27D-06.
    134 vectors produced by pass  5 Test12= 6.94D-14 1.00D-09 XBig12= 3.37D-12 1.16D-07.
     34 vectors produced by pass  6 Test12= 6.94D-14 1.00D-09 XBig12= 3.53D-15 3.35D-09.
 InvSVY:  IOpt=1 It=  1 EMax= 5.55D-16
 Solved reduced A of dimension  1008 with   174 vectors.
 End of Minotr F.D. properties file   721 does not exist.
 End of Minotr F.D. properties file   722 does not exist.
 End of Minotr F.D. properties file   788 does not exist.

 **********************************************************************

            Population analysis using the SCF density.

 **********************************************************************

 Orbital symmetries:
       Occupied  (A) (A) (A) (A) (A) (A) (A) (A) (A) (A) (A) (A)
                 (A) (A) (A) (A) (A) (A) (A) (A) (A) (A) (A) (A)
                 (A) (A) (A) (A) (A) (A) (A) (A) (A) (A) (A) (A)
                 (A) (A) (A) (A) (A) (A) (A) (A) (A) (A) (A) (A)
                 (A) (A) (A) (A) (A) (A) (A) (A) (A) (A) (A) (A)
                 (A) (A) (A) (A) (A) (A) (A) (A) (A) (A) (A) (A)
                 (A) (A) (A) (A) (A) (A) (A) (A) (A) (A) (A) (A)
                 (A) (A) (A) (A) (A) (A) (A) (A) (A) (A) (A) (A)
                 (A) (A) (A) (A) (A) (A) (A) (A) (A) (A) (A) (A)
                 (A) (A) (A) (A) (A) (A) (A) (A) (A) (A) (A) (A)
                 (A) (A) (A) (A) (A) (A) (A) (A) (A) (A) (A) (A)
                 (A)
       Virtual   (A) (A) (A) (A) (A) (A) (A) (A) (A) (A) (A) (A)
                 (A) (A) (A) (A) (A) (A) (A) (A) (A) (A) (A) (A)
                 (A) (A) (A) (A) (A) (A) (A) (A) (A) (A) (A) (A)
                 (A) (A) (A) (A) (A) (A) (A) (A) (A) (A) (A) (A)
                 (A) (A) (A) (A) (A) (A) (A) (A) (A) (A) (A) (A)
                 (A) (A) (A) (A) (A) (A) (A) (A) (A) (A) (A) (A)
                 (A) (A) (A) (A) (A) (A) (A) (A) (A) (A) (A) (A)
                 (A) (A) (A) (A) (A) (A) (A) (A) (A) (A) (A) (A)
                 (A) (A) (A) (A) (A) (A) (A) (A) (A) (A) (A) (A)
                 (A) (A) (A) (A) (A) (A) (A) (A) (A) (A) (A) (A)
                 (A) (A) (A) (A) (A) (A) (A) (A) (A) (A) (A) (A)
                 (A) (A) (A) (A) (A) (A) (A) (A) (A) (A) (A) (A)
                 (A) (A) (A) (A) (A) (A) (A) (A) (A) (A) (A) (A)
                 (A) (A) (A) (A) (A) (A) (A) (A) (A) (A) (A) (A)
                 (A) (A) (A) (A) (A) (A) (A) (A) (A) (A) (A) (A)
                 (A) (A) (A) (A) (A) (A) (A) (A) (A) (A) (A) (A)
                 (A) (A) (A) (A) (A) (A) (A) (A) (A) (A) (A) (A)
                 (A) (A) (A) (A) (A) (A) (A) (A) (A) (A) (A) (A)
                 (A) (A) (A) (A) (A) (A) (A) (A) (A) (A) (A) (A)
                 (A) (A) (A) (A) (A) (A) (A) (A) (A) (A) (A) (A)
                 (A) (A) (A) (A) (A) (A) (A) (A) (A) (A) (A) (A)
                 (A) (A) (A) (A) (A) (A) (A) (A) (A) (A) (A) (A)
                 (A) (A) (A) (A) (A) (A) (A) (A) (A) (A) (A) (A)
                 (A) (A) (A) (A) (A) (A) (A) (A) (A) (A) (A) (A)
                 (A) (A) (A) (A) (A) (A) (A) (A) (A) (A) (A) (A)
                 (A) (A) (A) (A) (A) (A) (A) (A) (A) (A) (A) (A)
                 (A) (A) (A) (A) (A) (A) (A) (A) (A) (A) (A) (A)
                 (A) (A) (A) (A) (A) (A) (A) (A) (A) (A) (A) (A)
                 (A) (A) (A) (A) (A) (A) (A) (A) (A) (A) (A) (A)
                 (A) (A) (A) (A) (A) (A) (A) (A) (A) (A) (A) (A)
                 (A) (A) (A) (A) (A) (A) (A) (A) (A) (A) (A) (A)
                 (A) (A) (A) (A) (A) (A) (A) (A) (A) (A) (A) (A)
                 (A) (A) (A) (A) (A) (A) (A) (A) (A) (A) (A) (A)
                 (A) (A) (A) (A) (A) (A) (A) (A) (A) (A) (A) (A)
                 (A) (A) (A) (A) (A) (A) (A) (A) (A) (A) (A) (A)
                 (A) (A) (A) (A) (A) (A) (A) (A) (A) (A) (A) (A)
                 (A) (A) (A) (A) (A) (A) (A) (A) (A) (A) (A) (A)
                 (A) (A) (A) (A) (A) (A) (A) (A) (A) (A) (A) (A)
                 (A) (A) (A) (A) (A) (A) (A) (A) (A) (A) (A) (A)
                 (A) (A) (A) (A) (A) (A) (A) (A) (A) (A) (A) (A)
                 (A) (A) (A) (A) (A) (A) (A) (A) (A) (A) (A) (A)
                 (A) (A) (A) (A) (A) (A) (A) (A) (A) (A) (A) (A)
                 (A) (A) (A) (A) (A) (A) (A) (A) (A) (A) (A) (A)
                 (A) (A) (A) (A) (A) (A)
 The electronic state is 1-A.
 Alpha  occ. eigenvalues --  -24.74051 -24.74044 -24.73878 -24.73874 -24.73810
 Alpha  occ. eigenvalues --  -24.73806 -19.18939 -19.18910 -14.33585 -14.33569
 Alpha  occ. eigenvalues --  -10.45179 -10.45172 -10.26914 -10.25861 -10.25835
 Alpha  occ. eigenvalues --  -10.24186 -10.24174 -10.22657 -10.22632 -10.22391
 Alpha  occ. eigenvalues --  -10.22364 -10.20820 -10.20816 -10.20711 -10.20703
 Alpha  occ. eigenvalues --  -10.20092 -10.20082 -10.19815 -10.19801 -10.19323
 Alpha  occ. eigenvalues --  -10.19306 -10.19068 -10.19048 -10.18794 -10.18777
 Alpha  occ. eigenvalues --  -10.18703 -10.18692  -1.32208  -1.31239  -1.23414
 Alpha  occ. eigenvalues --   -1.22980  -1.22443  -1.22409  -1.08409  -1.08391
 Alpha  occ. eigenvalues --   -0.91445  -0.91432  -0.89149  -0.86539  -0.84717
 Alpha  occ. eigenvalues --   -0.83679  -0.83098  -0.76314  -0.76197  -0.75996
 Alpha  occ. eigenvalues --   -0.75500  -0.74801  -0.74753  -0.71925  -0.71705
 Alpha  occ. eigenvalues --   -0.71241  -0.67043  -0.63804  -0.63713  -0.63275
 Alpha  occ. eigenvalues --   -0.62362  -0.61920  -0.61725  -0.60292  -0.60243
 Alpha  occ. eigenvalues --   -0.59402  -0.58933  -0.58418  -0.58291  -0.56643
 Alpha  occ. eigenvalues --   -0.54959  -0.54948  -0.53924  -0.51515  -0.51406
 Alpha  occ. eigenvalues --   -0.50884  -0.50605  -0.49962  -0.48618  -0.48580
 Alpha  occ. eigenvalues --   -0.48112  -0.47659  -0.46975  -0.46760  -0.45730
 Alpha  occ. eigenvalues --   -0.45664  -0.45479  -0.45155  -0.44609  -0.44274
 Alpha  occ. eigenvalues --   -0.44178  -0.43615  -0.43578  -0.42940  -0.42725
 Alpha  occ. eigenvalues --   -0.42461  -0.42257  -0.41842  -0.41731  -0.41626
 Alpha  occ. eigenvalues --   -0.41617  -0.41124  -0.40442  -0.39568  -0.39502
 Alpha  occ. eigenvalues --   -0.39158  -0.38617  -0.38562  -0.38266  -0.37439
 Alpha  occ. eigenvalues --   -0.37260  -0.36742  -0.36003  -0.35675  -0.34955
 Alpha  occ. eigenvalues --   -0.34659  -0.33458  -0.32936  -0.29749  -0.29421
 Alpha  occ. eigenvalues --   -0.26577  -0.26381  -0.25559  -0.25362  -0.24980
 Alpha  occ. eigenvalues --   -0.23890  -0.19729  -0.19694
 Alpha virt. eigenvalues --   -0.02355  -0.02004  -0.01993  -0.00916  -0.00389
 Alpha virt. eigenvalues --   -0.00270   0.01887   0.01975   0.08315   0.08388
 Alpha virt. eigenvalues --    0.09011   0.09028   0.10396   0.10579   0.10815
 Alpha virt. eigenvalues --    0.11483   0.12380   0.12833   0.13106   0.13123
 Alpha virt. eigenvalues --    0.13801   0.14173   0.15308   0.16052   0.16080
 Alpha virt. eigenvalues --    0.16599   0.16748   0.17048   0.17094   0.17140
 Alpha virt. eigenvalues --    0.17402   0.17598   0.17714   0.17753   0.19209
 Alpha virt. eigenvalues --    0.19620   0.19936   0.20111   0.20251   0.21544
 Alpha virt. eigenvalues --    0.23519   0.24157   0.24684   0.24764   0.25784
 Alpha virt. eigenvalues --    0.25877   0.26099   0.27462   0.29542   0.30954
 Alpha virt. eigenvalues --    0.32161   0.32532   0.33301   0.33365   0.33715
 Alpha virt. eigenvalues --    0.33743   0.34026   0.34138   0.34570   0.34646
 Alpha virt. eigenvalues --    0.36477   0.36691   0.36716   0.36803   0.44422
 Alpha virt. eigenvalues --    0.44623   0.46650   0.46844   0.48170   0.48277
 Alpha virt. eigenvalues --    0.48397   0.49336   0.49785   0.50196   0.50456
 Alpha virt. eigenvalues --    0.51068   0.52069   0.52253   0.52566   0.52736
 Alpha virt. eigenvalues --    0.53196   0.53650   0.54264   0.54325   0.54616
 Alpha virt. eigenvalues --    0.55060   0.55505   0.56367   0.56771   0.57395
 Alpha virt. eigenvalues --    0.57515   0.57809   0.58138   0.58301   0.58819
 Alpha virt. eigenvalues --    0.58882   0.59253   0.59287   0.59652   0.59930
 Alpha virt. eigenvalues --    0.60164   0.60632   0.60692   0.60936   0.61175
 Alpha virt. eigenvalues --    0.62066   0.62138   0.62589   0.63379   0.63905
 Alpha virt. eigenvalues --    0.64088   0.64658   0.65564   0.66081   0.67074
 Alpha virt. eigenvalues --    0.67599   0.68117   0.68295   0.69236   0.70025
 Alpha virt. eigenvalues --    0.70030   0.70332   0.72164   0.72790   0.74108
 Alpha virt. eigenvalues --    0.75655   0.76256   0.76358   0.77113   0.77377
 Alpha virt. eigenvalues --    0.78062   0.78251   0.79636   0.79782   0.81094
 Alpha virt. eigenvalues --    0.81142   0.81808   0.81966   0.82346   0.82775
 Alpha virt. eigenvalues --    0.83288   0.83479   0.83816   0.83921   0.84287
 Alpha virt. eigenvalues --    0.84701   0.85811   0.85842   0.85989   0.86147
 Alpha virt. eigenvalues --    0.87517   0.87724   0.88898   0.89266   0.89399
 Alpha virt. eigenvalues --    0.89560   0.89877   0.90556   0.92451   0.92559
 Alpha virt. eigenvalues --    0.92883   0.93268   0.95013   0.97400   0.98732
 Alpha virt. eigenvalues --    0.98742   0.99364   0.99423   0.99565   0.99916
 Alpha virt. eigenvalues --    1.00250   1.00504   1.02842   1.03283   1.04324
 Alpha virt. eigenvalues --    1.04711   1.05215   1.05547   1.06825   1.08234
 Alpha virt. eigenvalues --    1.08617   1.09303   1.10049   1.11047   1.11415
 Alpha virt. eigenvalues --    1.11827   1.11895   1.13108   1.14414   1.14533
 Alpha virt. eigenvalues --    1.15205   1.15758   1.15905   1.16057   1.17103
 Alpha virt. eigenvalues --    1.17329   1.17666   1.19782   1.20316   1.20884
 Alpha virt. eigenvalues --    1.21225   1.22487   1.23199   1.23897   1.25671
 Alpha virt. eigenvalues --    1.25853   1.26739   1.26875   1.29436   1.29922
 Alpha virt. eigenvalues --    1.30146   1.31406   1.31979   1.32285   1.32579
 Alpha virt. eigenvalues --    1.32859   1.33902   1.34174   1.34900   1.35554
 Alpha virt. eigenvalues --    1.35707   1.36587   1.36923   1.37439   1.37634
 Alpha virt. eigenvalues --    1.38827   1.39050   1.39506   1.39551   1.39782
 Alpha virt. eigenvalues --    1.40394   1.40474   1.40612   1.40839   1.41316
 Alpha virt. eigenvalues --    1.42049   1.42647   1.43673   1.43770   1.44796
 Alpha virt. eigenvalues --    1.45374   1.46525   1.47983   1.48862   1.50259
 Alpha virt. eigenvalues --    1.50499   1.50742   1.51793   1.52186   1.56106
 Alpha virt. eigenvalues --    1.57283   1.58076   1.62586   1.62781   1.64982
 Alpha virt. eigenvalues --    1.65856   1.68335   1.68525   1.69661   1.70582
 Alpha virt. eigenvalues --    1.72581   1.72946   1.73077   1.74985   1.75571
 Alpha virt. eigenvalues --    1.76057   1.76148   1.76349   1.76769   1.78100
 Alpha virt. eigenvalues --    1.78563   1.79321   1.79867   1.80088   1.80507
 Alpha virt. eigenvalues --    1.80577   1.81276   1.82042   1.83282   1.83412
 Alpha virt. eigenvalues --    1.84155   1.84726   1.85190   1.85636   1.86361
 Alpha virt. eigenvalues --    1.87147   1.87296   1.87605   1.87970   1.88503
 Alpha virt. eigenvalues --    1.89645   1.89891   1.90139   1.90676   1.91079
 Alpha virt. eigenvalues --    1.91617   1.91877   1.92216   1.92259   1.92491
 Alpha virt. eigenvalues --    1.94006   1.95268   1.95432   1.95588   1.96204
 Alpha virt. eigenvalues --    1.96407   1.97417   1.97442   1.97549   1.97673
 Alpha virt. eigenvalues --    1.98631   1.99031   1.99496   1.99621   2.00626
 Alpha virt. eigenvalues --    2.00662   2.00747   2.00810   2.01830   2.01898
 Alpha virt. eigenvalues --    2.03231   2.05566   2.05635   2.06023   2.06285
 Alpha virt. eigenvalues --    2.06569   2.06681   2.09269   2.09302   2.10330
 Alpha virt. eigenvalues --    2.10543   2.11285   2.12326   2.13071   2.13289
 Alpha virt. eigenvalues --    2.14799   2.16500   2.16589   2.17187   2.19180
 Alpha virt. eigenvalues --    2.19714   2.21269   2.23150   2.23526   2.24967
 Alpha virt. eigenvalues --    2.25002   2.25222   2.25481   2.25651   2.26723
 Alpha virt. eigenvalues --    2.26731   2.27082   2.27839   2.29145   2.29908
 Alpha virt. eigenvalues --    2.31100   2.31231   2.31599   2.32042   2.32856
 Alpha virt. eigenvalues --    2.32940   2.33451   2.34194   2.34568   2.36014
 Alpha virt. eigenvalues --    2.36284   2.36489   2.38153   2.40659   2.41185
 Alpha virt. eigenvalues --    2.41225   2.41328   2.41466   2.41716   2.42511
 Alpha virt. eigenvalues --    2.44230   2.44502   2.44563   2.44930   2.45777
 Alpha virt. eigenvalues --    2.46238   2.46536   2.46608   2.47380   2.47459
 Alpha virt. eigenvalues --    2.48192   2.48737   2.49406   2.49704   2.51315
 Alpha virt. eigenvalues --    2.51589   2.53294   2.53774   2.55341   2.55708
 Alpha virt. eigenvalues --    2.56469   2.56661   2.57300   2.57555   2.57813
 Alpha virt. eigenvalues --    2.57930   2.58358   2.58527   2.59673   2.59712
 Alpha virt. eigenvalues --    2.59835   2.60318   2.63574   2.63649   2.65354
 Alpha virt. eigenvalues --    2.65516   2.66924   2.68623   2.69758   2.72629
 Alpha virt. eigenvalues --    2.72758   2.73160   2.73422   2.74058   2.74419
 Alpha virt. eigenvalues --    2.75629   2.76225   2.77778   2.79534   2.80248
 Alpha virt. eigenvalues --    2.80447   2.81075   2.82829   2.83513   2.84273
 Alpha virt. eigenvalues --    2.84617   2.84977   2.85738   2.88072   2.89841
 Alpha virt. eigenvalues --    2.90428   2.90845   2.96252   2.97211   2.97669
 Alpha virt. eigenvalues --    2.98065   2.98920   2.99305   3.01777   3.03660
 Alpha virt. eigenvalues --    3.04124   3.05239   3.06104   3.07009   3.08736
 Alpha virt. eigenvalues --    3.11195   3.11735   3.11802   3.14522   3.17189
 Alpha virt. eigenvalues --    3.18103   3.18593   3.19533   3.21448   3.22427
 Alpha virt. eigenvalues --    3.24239   3.24491   3.24870   3.24927   3.25791
 Alpha virt. eigenvalues --    3.28329   3.28376   3.30745   3.31261   3.35005
 Alpha virt. eigenvalues --    3.35069   3.37056   3.37100   3.37538   3.37663
 Alpha virt. eigenvalues --    3.48462   3.48578   3.48832   3.49716   3.54449
 Alpha virt. eigenvalues --    3.54507   3.78445   3.79526   3.83538   3.83636
 Alpha virt. eigenvalues --    4.03624   4.03642   4.13003   4.13385   4.13414
 Alpha virt. eigenvalues --    4.13977   4.13994   4.15287   4.15788   4.16033
 Alpha virt. eigenvalues --    4.17315   4.17957   4.21468   4.22665   4.35950
 Alpha virt. eigenvalues --    4.40812   4.41508   4.43286   4.43559   4.44669
 Alpha virt. eigenvalues --    4.44904   4.45602   4.45869   4.55284   4.57414
 Alpha virt. eigenvalues --    4.63863   4.69441   4.78599   4.81357   4.84758
 Alpha virt. eigenvalues --    4.86170   4.88270   5.06200   5.23712   5.55043
 Alpha virt. eigenvalues --    5.56957   6.57003
          Condensed to atoms (all electrons):
 Mulliken charges:
               1
     1  F   -0.276552
     2  C    0.859933
     3  C   -0.311799
     4  C    0.088411
     5  C   -0.119779
     6  C   -0.113160
     7  C    0.325795
     8  O   -0.583041
     9  C    0.290207
    10  C   -0.133354
    11  C   -0.140255
    12  C    0.258625
    13  N   -0.672562
    14  C   -0.141503
    15  C   -0.117413
    16  C   -0.138289
    17  C   -0.133387
    18  C    0.088300
    19  C   -0.132932
    20  C   -0.139118
    21  C    0.326844
    22  O   -0.582690
    23  C    0.289329
    24  C   -0.133014
    25  C   -0.140400
    26  C    0.258673
    27  N   -0.672352
    28  C   -0.141385
    29  C   -0.116411
    30  C   -0.114307
    31  C   -0.119724
    32  C    0.859682
    33  F   -0.276482
    34  F   -0.268773
    35  F   -0.271760
    36  F   -0.268753
    37  F   -0.271832
    38  H    0.119482
    39  H    0.120490
    40  H    0.104749
    41  H    0.100861
    42  H    0.277321
    43  H    0.277378
    44  H    0.102279
    45  H    0.109256
    46  H    0.115695
    47  H    0.114859
    48  H    0.114723
    49  H    0.115521
    50  H    0.104920
    51  H    0.101036
    52  H    0.277415
    53  H    0.277495
    54  H    0.102403
    55  H    0.109429
    56  H    0.120544
    57  H    0.119370
 Sum of Mulliken charges =  -0.00000
 Mulliken charges with hydrogens summed into heavy atoms:
               1
     1  F   -0.276552
     2  C    0.859933
     3  C   -0.311799
     4  C    0.088411
     5  C   -0.000298
     6  C    0.007330
     7  C    0.325795
     8  O   -0.583041
     9  C    0.290207
    10  C   -0.028605
    11  C   -0.039394
    12  C    0.258625
    13  N   -0.117863
    14  C   -0.039223
    15  C   -0.008157
    16  C   -0.022593
    17  C   -0.018528
    18  C    0.088300
    19  C   -0.018209
    20  C   -0.023597
    21  C    0.326844
    22  O   -0.582690
    23  C    0.289329
    24  C   -0.028093
    25  C   -0.039364
    26  C    0.258673
    27  N   -0.117442
    28  C   -0.038982
    29  C   -0.006982
    30  C    0.006237
    31  C   -0.000355
    32  C    0.859682
    33  F   -0.276482
    34  F   -0.268773
    35  F   -0.271760
    36  F   -0.268753
    37  F   -0.271832
 APT charges:
               1
     1  F   -0.080329
     2  C   -0.122898
     3  C   -0.464864
     4  C   -0.445906
     5  C   -0.563157
     6  C   -0.443533
     7  C    0.224837
     8  O   -0.258956
     9  C   -0.909773
    10  C   -0.473157
    11  C   -0.317170
    12  C    0.541498
    13  N   -1.252501
    14  C   -0.330479
    15  C   -0.705295
    16  C   -0.515220
    17  C   -0.524248
    18  C   -0.450249
    19  C   -0.525530
    20  C   -0.510836
    21  C    0.220793
    22  O   -0.247486
    23  C   -0.905220
    24  C   -0.468093
    25  C   -0.321062
    26  C    0.529500
    27  N   -1.227502
    28  C   -0.330694
    29  C   -0.703124
    30  C   -0.442039
    31  C   -0.565068
    32  C   -0.123139
    33  F   -0.078759
    34  F    0.212954
    35  F    0.208310
    36  F    0.216378
    37  F    0.205158
    38  H    0.260807
    39  H    0.523469
    40  H    0.346794
    41  H    1.131480
    42  H    0.655473
    43  H    1.109067
    44  H    0.716792
    45  H   -0.055143
    46  H    0.783812
    47  H    0.513208
    48  H    0.516457
    49  H    0.789267
    50  H    0.340969
    51  H    1.117493
    52  H    0.652557
    53  H    1.086792
    54  H    0.724635
    55  H   -0.041058
    56  H    0.518803
    57  H    0.255180
 Sum of APT charges =  -0.00000
 APT charges with hydrogens summed into heavy atoms:
               1
     1  F   -0.080329
     2  C   -0.122898
     3  C   -0.464864
     4  C   -0.445906
     5  C   -0.302350
     6  C    0.079936
     7  C    0.224837
     8  O   -0.258956
     9  C   -0.909773
    10  C   -0.126363
    11  C    0.814311
    12  C    0.541498
    13  N    0.512039
    14  C    0.386314
    15  C   -0.760438
    16  C    0.268592
    17  C   -0.011040
    18  C   -0.450249
    19  C   -0.009073
    20  C    0.278431
    21  C    0.220793
    22  O   -0.247486
    23  C   -0.905220
    24  C   -0.127124
    25  C    0.796432
    26  C    0.529500
    27  N    0.511847
    28  C    0.393941
    29  C   -0.744182
    30  C    0.076765
    31  C   -0.309887
    32  C   -0.123139
    33  F   -0.078759
    34  F    0.212954
    35  F    0.208310
    36  F    0.216378
    37  F    0.205158
 Electronic spatial extent (au):  <R**2>=          26986.3054
 Charge=              0.0000 electrons
 Dipole moment (field-independent basis, Debye):
    X=              0.0158    Y=             -3.6975    Z=              0.0037  Tot=              3.6975
 Quadrupole moment (field-independent basis, Debye-Ang):
   XX=           -167.4442   YY=           -197.6090   ZZ=           -195.0177
   XY=              0.8153   XZ=            -44.3270   YZ=             -0.1128
 Traceless Quadrupole moment (field-independent basis, Debye-Ang):
   XX=             19.2462   YY=            -10.9187   ZZ=             -8.3274
   XY=              0.8153   XZ=            -44.3270   YZ=             -0.1128
 Octapole moment (field-independent basis, Debye-Ang**2):
  XXX=             14.3440  YYY=            -19.4649  ZZZ=              1.9881  XYY=             -4.2715
  XXY=           -118.4576  XXZ=             -1.8416  XZZ=             -0.5566  YZZ=             28.7874
  YYZ=             -0.4833  XYZ=            111.8706
 Hexadecapole moment (field-independent basis, Debye-Ang**3):
 XXXX=         -25305.8877 YYYY=          -5206.5222 ZZZZ=          -1864.3475 XXXY=             25.8392
 XXXZ=          -3584.4769 YYYX=             21.4326 YYYZ=             -0.4705 ZZZX=           -285.9000
 ZZZY=             -2.1594 XXYY=          -4402.9363 XXZZ=          -4191.0599 YYZZ=          -1200.6303
 XXYZ=             -1.2452 YYXZ=           -303.9332 ZZXY=              6.5630
 N-N= 3.948906498848D+03 E-N=-1.234754514990D+04  KE= 1.883779754207D+03
  Exact polarizability:   0.000   0.000   0.000   0.000   0.000   0.000
 Approx polarizability: 499.737   1.373 482.932 -62.315  -0.588 428.206
 D2PCM: PCM CHGder 2nd derivatives, FixD1E=F FixD2E=F DoIter=F DoCFld=F I1PDM=0
 Calling FoFJK, ICntrl=    100147 FMM=F ISym2X=0 I1Cent= 0 IOpClX= 0 NMat=1 NMatS=1 NMatT=0.
 ***** Axes restored to original set *****
 -------------------------------------------------------------------
 Center     Atomic                   Forces (Hartrees/Bohr)
 Number     Number              X              Y              Z
 -------------------------------------------------------------------
      1        9          -0.001882310   -0.000221710   -0.003582828
      2        6           0.012319800    0.001304291    0.024381243
      3        6           0.000127279    0.006823773   -0.001328474
      4        6          -0.000585020   -0.000875351    0.005679942
      5        6           0.002057657   -0.000374055    0.000398954
      6        6           0.004044877   -0.003826946   -0.007112912
      7        6           0.003062450   -0.001043344    0.006656125
      8        8           0.007411548   -0.002649094    0.005700325
      9        6          -0.009095421    0.006151972   -0.004900085
     10        6          -0.005792027    0.002237725   -0.004954515
     11        6           0.009894055    0.005286850    0.002962272
     12        6          -0.015391982    0.001461695    0.006608324
     13        7           0.000953373   -0.000138065   -0.003572623
     14        6           0.010220158   -0.006546679    0.002016100
     15        6          -0.004154868   -0.002068869   -0.002183166
     16        6           0.004007879   -0.004752486    0.001865510
     17        6          -0.000192375    0.000786730    0.001093117
     18        6           0.000439093   -0.002883873   -0.004740955
     19        6           0.000587833    0.000420032   -0.001521470
     20        6          -0.004352913   -0.005047016    0.000053865
     21        6          -0.002951193   -0.003463632   -0.006066408
     22        8          -0.007994560   -0.004999236   -0.004263350
     23        6           0.009292427    0.007646710    0.002428615
     24        6           0.005519049    0.004029045    0.003733919
     25        6          -0.009755461    0.003761726   -0.005066346
     26        6           0.015468850   -0.001303001   -0.006364336
     27        7          -0.001098171    0.001229677    0.003503962
     28        6          -0.010194930   -0.006684685    0.000419311
     29        6           0.004258389   -0.000757366    0.002943623
     30        6          -0.004055926   -0.000419136    0.008082085
     31        6          -0.002062246   -0.000572495   -0.000372981
     32        6          -0.012496735   -0.007547517   -0.023173833
     33        9           0.001955943    0.001017236    0.003503591
     34        9           0.003693482    0.005365606   -0.004207304
     35        9          -0.003180644    0.000922321   -0.001453722
     36        9          -0.003348389    0.006640121    0.001857698
     37        9           0.003107739    0.001267300    0.001001392
     38        1           0.000398402   -0.000766605    0.004955086
     39        1          -0.000469557   -0.001306103    0.001535479
     40        1           0.001088062   -0.001449889   -0.000074670
     41        1          -0.000333605   -0.000497476   -0.001369294
     42        1          -0.000177106    0.003999046   -0.000800725
     43        1          -0.000950052   -0.003760317   -0.000849437
     44        1          -0.000042595    0.000599395   -0.001116776
     45        1           0.001160036    0.001174143   -0.000339515
     46        1          -0.000262803    0.000150246   -0.002258093
     47        1           0.000101124    0.000923604   -0.005147420
     48        1          -0.000031647    0.002861311    0.004380390
     49        1           0.000266432    0.001011618    0.002051257
     50        1          -0.000999230   -0.001486557    0.000755656
     51        1           0.000328321   -0.000062495    0.001504562
     52        1           0.000282345    0.004055382   -0.000897088
     53        1           0.000836132   -0.003309003    0.002249322
     54        1           0.000093621    0.001015421    0.000834338
     55        1          -0.001147411    0.001148056   -0.000148398
     56        1           0.000459566   -0.001893945   -0.000971115
     57        1          -0.000436744   -0.002584083   -0.004318224
 -------------------------------------------------------------------
 Cartesian Forces:  Max     0.024381243 RMS     0.004964127
 FormGI is forming the generalized inverse of G from B-inverse, IUseBI=4.

 GradGradGradGradGradGradGradGradGradGradGradGradGradGradGradGradGradGrad
 Berny optimization.
 Internal  Forces:  Max     0.024661022 RMS     0.004046075
 Search for a local minimum.
 Step number   1 out of a maximum of  310
 All quantities printed in internal units (Hartrees-Bohrs-Radians)
 Mixed Optimization -- RFO/linear search
 Second derivative matrix not updated -- analytic derivatives used.
 ITU=  0
     Eigenvalues ---    0.00036   0.00072   0.00204   0.00265   0.00496
     Eigenvalues ---    0.00504   0.00658   0.00718   0.00867   0.01522
     Eigenvalues ---    0.01591   0.01617   0.01635   0.01732   0.01733
     Eigenvalues ---    0.01738   0.01752   0.01781   0.01805   0.01811
     Eigenvalues ---    0.01820   0.01846   0.01858   0.01887   0.02114
     Eigenvalues ---    0.02118   0.02130   0.02142   0.02185   0.02195
     Eigenvalues ---    0.02300   0.02300   0.02375   0.02380   0.02583
     Eigenvalues ---    0.02585   0.02715   0.02721   0.02744   0.02747
     Eigenvalues ---    0.02752   0.02775   0.02797   0.02810   0.02872
     Eigenvalues ---    0.02880   0.03047   0.03079   0.06171   0.06829
     Eigenvalues ---    0.07176   0.09596   0.10017   0.10815   0.10828
     Eigenvalues ---    0.10920   0.10941   0.11267   0.11273   0.11420
     Eigenvalues ---    0.11436   0.11727   0.11733   0.11797   0.12017
     Eigenvalues ---    0.12053   0.12177   0.12547   0.12551   0.12879
     Eigenvalues ---    0.13045   0.13555   0.13566   0.14089   0.15455
     Eigenvalues ---    0.15549   0.17470   0.17661   0.17665   0.17835
     Eigenvalues ---    0.17878   0.18018   0.18035   0.18148   0.19366
     Eigenvalues ---    0.19374   0.19894   0.19907   0.20471   0.20505
     Eigenvalues ---    0.20648   0.21856   0.22199   0.22235   0.22601
     Eigenvalues ---    0.22787   0.22978   0.23223   0.24533   0.24716
     Eigenvalues ---    0.25324   0.26621   0.27342   0.27594   0.28845
     Eigenvalues ---    0.30828   0.32274   0.32495   0.32542   0.32721
     Eigenvalues ---    0.32803   0.33894   0.34125   0.34573   0.34586
     Eigenvalues ---    0.35090   0.35194   0.35675   0.35687   0.35849
     Eigenvalues ---    0.35873   0.35916   0.35935   0.36031   0.36056
     Eigenvalues ---    0.36078   0.36097   0.36133   0.36362   0.36524
     Eigenvalues ---    0.36821   0.37418   0.38213   0.38960   0.40071
     Eigenvalues ---    0.40539   0.41235   0.41247   0.41313   0.41889
     Eigenvalues ---    0.43295   0.43359   0.44595   0.44719   0.45488
     Eigenvalues ---    0.45536   0.45948   0.45995   0.46658   0.46693
     Eigenvalues ---    0.46917   0.46974   0.47301   0.47375   0.47735
     Eigenvalues ---    0.47765   0.48767   0.48809   0.50455   0.51593
     Eigenvalues ---    0.51634   0.52171   0.52781   0.52812   0.63504
 RFO step:  Lambda=-1.61903732D-02 EMin= 3.58405458D-04
 Linear search not attempted -- first point.
 Iteration  1 RMS(Cart)=  0.24146826 RMS(Int)=  0.00610780
 Iteration  2 RMS(Cart)=  0.02892193 RMS(Int)=  0.00018638
 Iteration  3 RMS(Cart)=  0.00021033 RMS(Int)=  0.00017768
 Iteration  4 RMS(Cart)=  0.00000002 RMS(Int)=  0.00017768
 Variable       Old X    -DE/DX   Delta X   Delta X   Delta X     New X
                                 (Linear)    (Quad)   (Total)
    R1        2.56802  -0.00332   0.00000  -0.01678  -0.01678   2.55124
    R2        2.90270   0.01785   0.00000   0.03712   0.03712   2.93982
    R3        2.55902  -0.00706   0.00000  -0.01485  -0.01485   2.54418
    R4        2.55769  -0.00231   0.00000  -0.00367  -0.00367   2.55402
    R5        2.94678  -0.00861   0.00000  -0.02395  -0.02395   2.92283
    R6        2.94656  -0.00858   0.00000  -0.02400  -0.02400   2.92256
    R7        2.90275   0.01782   0.00000   0.03709   0.03709   2.93984
    R8        2.66961  -0.00833   0.00000  -0.01435  -0.01434   2.65527
    R9        2.65882  -0.00548   0.00000  -0.01049  -0.01047   2.64835
   R10        2.64042  -0.00535   0.00000  -0.01244  -0.01244   2.62798
   R11        2.06013  -0.00452   0.00000  -0.01230  -0.01230   2.04783
   R12        2.63099   0.00431   0.00000   0.01154   0.01152   2.64251
   R13        2.05385  -0.00170   0.00000  -0.00469  -0.00469   2.04916
   R14        2.59868   0.00543   0.00000   0.00364   0.00364   2.60232
   R15        2.62917   0.00219   0.00000   0.00471   0.00470   2.63387
   R16        2.60057   0.01543   0.00000   0.03133   0.03133   2.63190
   R17        2.63235   0.00283   0.00000   0.00197   0.00190   2.63424
   R18        2.63669   0.00125   0.00000   0.00176   0.00167   2.63836
   R19        2.64104  -0.00262   0.00000  -0.00768  -0.00767   2.63337
   R20        2.05246  -0.00070   0.00000  -0.00153  -0.00153   2.05092
   R21        2.64163   0.00713   0.00000   0.01517   0.01526   2.65689
   R22        2.05335  -0.00004   0.00000   0.00015   0.00015   2.05350
   R23        2.64437   0.00258   0.00000  -0.00221  -0.00221   2.64215
   R24        2.64150   0.00767   0.00000   0.01651   0.01658   2.65808
   R25        1.91831  -0.00275   0.00000  -0.00531  -0.00531   1.91300
   R26        1.91815  -0.00264   0.00000  -0.00518  -0.00518   1.91298
   R27        2.64172  -0.00293   0.00000  -0.00910  -0.00911   2.63261
   R28        2.05365  -0.00021   0.00000  -0.00015  -0.00015   2.05351
   R29        2.05269  -0.00079   0.00000  -0.00203  -0.00203   2.05066
   R30        2.64380  -0.00344   0.00000  -0.00781  -0.00781   2.63599
   R31        2.05506  -0.00202   0.00000  -0.00516  -0.00516   2.04990
   R32        2.05623  -0.00441   0.00000  -0.01286  -0.01286   2.04337
   R33        2.65847  -0.00528   0.00000  -0.00989  -0.00988   2.64859
   R34        2.66958  -0.00842   0.00000  -0.01468  -0.01466   2.65492
   R35        2.64415  -0.00376   0.00000  -0.00846  -0.00846   2.63569
   R36        2.05633  -0.00444   0.00000  -0.01289  -0.01289   2.04343
   R37        2.62979   0.00208   0.00000   0.00459   0.00458   2.63437
   R38        2.05514  -0.00204   0.00000  -0.00523  -0.00523   2.04992
   R39        2.59914   0.00483   0.00000   0.00274   0.00274   2.60188
   R40        2.63125   0.00421   0.00000   0.01134   0.01132   2.64257
   R41        2.59974   0.01587   0.00000   0.03261   0.03261   2.63235
   R42        2.63240   0.00268   0.00000   0.00165   0.00157   2.63397
   R43        2.63668   0.00131   0.00000   0.00180   0.00171   2.63839
   R44        2.64100  -0.00255   0.00000  -0.00736  -0.00735   2.63366
   R45        2.05316  -0.00096   0.00000  -0.00222  -0.00222   2.05093
   R46        2.64169   0.00708   0.00000   0.01506   0.01515   2.65684
   R47        2.05369  -0.00016   0.00000  -0.00032  -0.00032   2.05337
   R48        2.64430   0.00254   0.00000  -0.00250  -0.00250   2.64180
   R49        2.64226   0.00734   0.00000   0.01599   0.01607   2.65833
   R50        1.91852  -0.00282   0.00000  -0.00545  -0.00545   1.91307
   R51        1.91860  -0.00284   0.00000  -0.00553  -0.00553   1.91307
   R52        2.64174  -0.00301   0.00000  -0.00945  -0.00946   2.63228
   R53        2.05360  -0.00018   0.00000  -0.00004  -0.00004   2.05357
   R54        2.05255  -0.00073   0.00000  -0.00182  -0.00182   2.05073
   R55        2.64055  -0.00539   0.00000  -0.01245  -0.01245   2.62809
   R56        2.05398  -0.00178   0.00000  -0.00496  -0.00496   2.04903
   R57        2.06025  -0.00454   0.00000  -0.01235  -0.01235   2.04790
   R58        2.56821  -0.00344   0.00000  -0.01706  -0.01706   2.55115
   R59        2.55930  -0.00716   0.00000  -0.01503  -0.01503   2.54427
   R60        2.55781  -0.00239   0.00000  -0.00380  -0.00380   2.55401
    A1        1.95471  -0.00558   0.00000  -0.00733  -0.00737   1.94734
    A2        1.85085   0.00111   0.00000   0.01602   0.01592   1.86677
    A3        1.84960  -0.00037   0.00000   0.01518   0.01519   1.86479
    A4        1.96500  -0.00082   0.00000  -0.02318  -0.02329   1.94170
    A5        1.97314   0.00593   0.00000  -0.00159  -0.00164   1.97150
    A6        1.86160  -0.00029   0.00000   0.00447   0.00436   1.86596
    A7        2.00314  -0.01074   0.00000  -0.03598  -0.03608   1.96707
    A8        1.88181  -0.00672   0.00000  -0.00859  -0.00809   1.87373
    A9        1.77978   0.02466   0.00000   0.06852   0.06882   1.84861
   A10        1.91352   0.00992   0.00000   0.02019   0.01967   1.93319
   A11        1.88234  -0.00675   0.00000  -0.00906  -0.00856   1.87378
   A12        2.00340  -0.01070   0.00000  -0.03597  -0.03608   1.96732
   A13        2.08535  -0.00549   0.00000  -0.02260  -0.02262   2.06273
   A14        2.14608   0.00127   0.00000   0.01571   0.01569   2.16177
   A15        2.05174   0.00422   0.00000   0.00693   0.00694   2.05868
   A16        2.11878  -0.00005   0.00000   0.00271   0.00271   2.12148
   A17        2.10990  -0.00216   0.00000  -0.01654  -0.01654   2.09335
   A18        2.05446   0.00220   0.00000   0.01379   0.01379   2.06825
   A19        2.09106  -0.00083   0.00000  -0.00445  -0.00448   2.08658
   A20        2.08723   0.00116   0.00000   0.01083   0.01084   2.09807
   A21        2.10488  -0.00033   0.00000  -0.00639  -0.00638   2.09850
   A22        2.14199  -0.00207   0.00000  -0.00253  -0.00251   2.13948
   A23        2.09308  -0.00142   0.00000  -0.00151  -0.00157   2.09151
   A24        2.04646   0.00347   0.00000   0.00375   0.00376   2.05022
   A25        2.04583   0.00921   0.00000   0.03401   0.03401   2.07984
   A26        2.04345   0.00340   0.00000   0.00948   0.00959   2.05304
   A27        2.14396  -0.00282   0.00000  -0.01077  -0.01066   2.13330
   A28        2.09326  -0.00056   0.00000   0.00160   0.00138   2.09463
   A29        2.09243   0.00160   0.00000   0.00284   0.00271   2.09514
   A30        2.09651  -0.00237   0.00000  -0.01275  -0.01268   2.08383
   A31        2.09420   0.00077   0.00000   0.00992   0.00999   2.10419
   A32        2.10681   0.00027   0.00000   0.00211   0.00214   2.10895
   A33        2.07764   0.00104   0.00000   0.00888   0.00886   2.08650
   A34        2.09874  -0.00130   0.00000  -0.01098  -0.01100   2.08774
   A35        2.09812   0.00196   0.00000   0.01015   0.00918   2.10730
   A36        2.07138  -0.00336   0.00000  -0.00712  -0.00799   2.06339
   A37        2.09814   0.00199   0.00000   0.01016   0.00918   2.10732
   A38        1.98841   0.00188   0.00000   0.00881   0.00881   1.99722
   A39        1.98740   0.00194   0.00000   0.00817   0.00818   1.99558
   A40        1.96067  -0.00340   0.00000  -0.02458  -0.02457   1.93610
   A41        2.10787   0.00121   0.00000   0.00427   0.00428   2.11214
   A42        2.09851  -0.00153   0.00000  -0.01152  -0.01153   2.08699
   A43        2.07680   0.00032   0.00000   0.00724   0.00724   2.08403
   A44        2.09015   0.00103   0.00000   0.00120   0.00102   2.09117
   A45        2.10774  -0.00177   0.00000  -0.01018  -0.01012   2.09762
   A46        2.08509   0.00074   0.00000   0.00920   0.00926   2.09435
   A47        2.09969  -0.00142   0.00000  -0.00256  -0.00259   2.09709
   A48        2.09035  -0.00028   0.00000  -0.00731  -0.00730   2.08306
   A49        2.09312   0.00170   0.00000   0.00991   0.00992   2.10304
[...]
   485    F   33  px     Val( 2p)     1.92323
   486    F   33  px     Ryd( 3p)     0.00022
   487    F   33  py     Val( 2p)     1.85979
   488    F   33  py     Ryd( 3p)     0.00032
   489    F   33  pz     Val( 2p)     1.73295
   490    F   33  pz     Ryd( 3p)     0.00035
   491    F   33  dxy    Ryd( 3d)     0.00051
   492    F   33  dxz    Ryd( 3d)     0.00105
   493    F   33  dyz    Ryd( 3d)     0.00116
   494    F   33  dx2y2  Ryd( 3d)     0.00044
   495    F   33  dz2    Ryd( 3d)     0.00135

   496    F   34  S      Cor( 1S)     1.99992
   497    F   34  S      Val( 2S)     1.83747
   498    F   34  S      Ryd( 3S)     0.00068
   499    F   34  S      Ryd( 4S)     0.00009
   500    F   34  px     Val( 2p)     1.71756
   501    F   34  px     Ryd( 3p)     0.00018
   502    F   34  py     Val( 2p)     1.87215
   503    F   34  py     Ryd( 3p)     0.00028
   504    F   34  pz     Val( 2p)     1.92575
   505    F   34  pz     Ryd( 3p)     0.00042
   506    F   34  dxy    Ryd( 3d)     0.00120
   507    F   34  dxz    Ryd( 3d)     0.00111
   508    F   34  dyz    Ryd( 3d)     0.00045
   509    F   34  dx2y2  Ryd( 3d)     0.00132
   510    F   34  dz2    Ryd( 3d)     0.00052

   511    F   35  S      Cor( 1S)     1.99992
   512    F   35  S      Val( 2S)     1.84038
   513    F   35  S      Ryd( 3S)     0.00081
   514    F   35  S      Ryd( 4S)     0.00008
   515    F   35  px     Val( 2p)     1.81544
   516    F   35  px     Ryd( 3p)     0.00023
   517    F   35  py     Val( 2p)     1.78213
   518    F   35  py     Ryd( 3p)     0.00027
   519    F   35  pz     Val( 2p)     1.92083
   520    F   35  pz     Ryd( 3p)     0.00041
   521    F   35  dxy    Ryd( 3d)     0.00110
   522    F   35  dxz    Ryd( 3d)     0.00067
   523    F   35  dyz    Ryd( 3d)     0.00085
   524    F   35  dx2y2  Ryd( 3d)     0.00134
   525    F   35  dz2    Ryd( 3d)     0.00055

   526    F   36  S      Cor( 1S)     1.99992
   527    F   36  S      Val( 2S)     1.83747
   528    F   36  S      Ryd( 3S)     0.00068
   529    F   36  S      Ryd( 4S)     0.00009
   530    F   36  px     Val( 2p)     1.71757
   531    F   36  px     Ryd( 3p)     0.00018
   532    F   36  py     Val( 2p)     1.87216
   533    F   36  py     Ryd( 3p)     0.00028
   534    F   36  pz     Val( 2p)     1.92575
   535    F   36  pz     Ryd( 3p)     0.00042
   536    F   36  dxy    Ryd( 3d)     0.00120
   537    F   36  dxz    Ryd( 3d)     0.00111
   538    F   36  dyz    Ryd( 3d)     0.00045
   539    F   36  dx2y2  Ryd( 3d)     0.00132
   540    F   36  dz2    Ryd( 3d)     0.00052

   541    F   37  S      Cor( 1S)     1.99992
   542    F   37  S      Val( 2S)     1.84038
   543    F   37  S      Ryd( 3S)     0.00081
   544    F   37  S      Ryd( 4S)     0.00008
   545    F   37  px     Val( 2p)     1.81544
   546    F   37  px     Ryd( 3p)     0.00023
   547    F   37  py     Val( 2p)     1.78212
   548    F   37  py     Ryd( 3p)     0.00027
   549    F   37  pz     Val( 2p)     1.92083
   550    F   37  pz     Ryd( 3p)     0.00041
   551    F   37  dxy    Ryd( 3d)     0.00110
   552    F   37  dxz    Ryd( 3d)     0.00067
   553    F   37  dyz    Ryd( 3d)     0.00085
   554    F   37  dx2y2  Ryd( 3d)     0.00134
   555    F   37  dz2    Ryd( 3d)     0.00055

   556    H   38  S      Val( 1S)     0.74950
   557    H   38  S      Ryd( 2S)     0.00112
   558    H   38  px     Ryd( 2p)     0.00022
   559    H   38  py     Ryd( 2p)     0.00011
   560    H   38  pz     Ryd( 2p)     0.00030

   561    H   39  S      Val( 1S)     0.74850
   562    H   39  S      Ryd( 2S)     0.00082
   563    H   39  px     Ryd( 2p)     0.00011
   564    H   39  py     Ryd( 2p)     0.00031
   565    H   39  pz     Ryd( 2p)     0.00021

   566    H   40  S      Val( 1S)     0.73437
   567    H   40  S      Ryd( 2S)     0.00091
   568    H   40  px     Ryd( 2p)     0.00025
   569    H   40  py     Ryd( 2p)     0.00006
   570    H   40  pz     Ryd( 2p)     0.00029

   571    H   41  S      Val( 1S)     0.74310
   572    H   41  S      Ryd( 2S)     0.00088
   573    H   41  px     Ryd( 2p)     0.00014
   574    H   41  py     Ryd( 2p)     0.00034
   575    H   41  pz     Ryd( 2p)     0.00012

   576    H   42  S      Val( 1S)     0.56627
   577    H   42  S      Ryd( 2S)     0.00107
   578    H   42  px     Ryd( 2p)     0.00039
   579    H   42  py     Ryd( 2p)     0.00021
   580    H   42  pz     Ryd( 2p)     0.00062

   581    H   43  S      Val( 1S)     0.56644
   582    H   43  S      Ryd( 2S)     0.00107
   583    H   43  px     Ryd( 2p)     0.00050
   584    H   43  py     Ryd( 2p)     0.00048
   585    H   43  pz     Ryd( 2p)     0.00026

   586    H   44  S      Val( 1S)     0.74291
   587    H   44  S      Ryd( 2S)     0.00088
   588    H   44  px     Ryd( 2p)     0.00026
   589    H   44  py     Ryd( 2p)     0.00006
   590    H   44  pz     Ryd( 2p)     0.00028

   591    H   45  S      Val( 1S)     0.73435
   592    H   45  S      Ryd( 2S)     0.00092
   593    H   45  px     Ryd( 2p)     0.00013
   594    H   45  py     Ryd( 2p)     0.00035
   595    H   45  pz     Ryd( 2p)     0.00010

   596    H   46  S      Val( 1S)     0.75242
   597    H   46  S      Ryd( 2S)     0.00111
   598    H   46  px     Ryd( 2p)     0.00021
   599    H   46  py     Ryd( 2p)     0.00010
   600    H   46  pz     Ryd( 2p)     0.00030

   601    H   47  S      Val( 1S)     0.75211
   602    H   47  S      Ryd( 2S)     0.00194
   603    H   47  px     Ryd( 2p)     0.00011
   604    H   47  py     Ryd( 2p)     0.00032
   605    H   47  pz     Ryd( 2p)     0.00021

   606    H   48  S      Val( 1S)     0.75197
   607    H   48  S      Ryd( 2S)     0.00194
   608    H   48  px     Ryd( 2p)     0.00011
   609    H   48  py     Ryd( 2p)     0.00032
   610    H   48  pz     Ryd( 2p)     0.00021

   611    H   49  S      Val( 1S)     0.75225
   612    H   49  S      Ryd( 2S)     0.00112
   613    H   49  px     Ryd( 2p)     0.00021
   614    H   49  py     Ryd( 2p)     0.00010
   615    H   49  pz     Ryd( 2p)     0.00030

   616    H   50  S      Val( 1S)     0.73456
   617    H   50  S      Ryd( 2S)     0.00091
   618    H   50  px     Ryd( 2p)     0.00025
   619    H   50  py     Ryd( 2p)     0.00006
   620    H   50  pz     Ryd( 2p)     0.00029

   621    H   51  S      Val( 1S)     0.74329
   622    H   51  S      Ryd( 2S)     0.00088
   623    H   51  px     Ryd( 2p)     0.00014
   624    H   51  py     Ryd( 2p)     0.00034
   625    H   51  pz     Ryd( 2p)     0.00012

   626    H   52  S      Val( 1S)     0.56667
   627    H   52  S      Ryd( 2S)     0.00107
   628    H   52  px     Ryd( 2p)     0.00039
   629    H   52  py     Ryd( 2p)     0.00021
   630    H   52  pz     Ryd( 2p)     0.00062

   631    H   53  S      Val( 1S)     0.56683
   632    H   53  S      Ryd( 2S)     0.00107
   633    H   53  px     Ryd( 2p)     0.00050
   634    H   53  py     Ryd( 2p)     0.00048
   635    H   53  pz     Ryd( 2p)     0.00026

   636    H   54  S      Val( 1S)     0.74311
   637    H   54  S      Ryd( 2S)     0.00088
   638    H   54  px     Ryd( 2p)     0.00026
   639    H   54  py     Ryd( 2p)     0.00006
   640    H   54  pz     Ryd( 2p)     0.00028

   641    H   55  S      Val( 1S)     0.73454
   642    H   55  S      Ryd( 2S)     0.00093
   643    H   55  px     Ryd( 2p)     0.00013
   644    H   55  py     Ryd( 2p)     0.00035
   645    H   55  pz     Ryd( 2p)     0.00010

   646    H   56  S      Val( 1S)     0.74833
   647    H   56  S      Ryd( 2S)     0.00082
   648    H   56  px     Ryd( 2p)     0.00011
   649    H   56  py     Ryd( 2p)     0.00031
   650    H   56  pz     Ryd( 2p)     0.00021

   651    H   57  S      Val( 1S)     0.74931
   652    H   57  S      Ryd( 2S)     0.00112
   653    H   57  px     Ryd( 2p)     0.00022
   654    H   57  py     Ryd( 2p)     0.00011
   655    H   57  pz     Ryd( 2p)     0.00030

 WARNING:  1 low occupancy (<1.9990e) core orbital  found on  C    3
           1 low occupancy (<1.9990e) core orbital  found on  C    7
           1 low occupancy (<1.9990e) core orbital  found on  C    9
           1 low occupancy (<1.9990e) core orbital  found on  C   10
           1 low occupancy (<1.9990e) core orbital  found on  C   12
           1 low occupancy (<1.9990e) core orbital  found on  C   15
           1 low occupancy (<1.9990e) core orbital  found on  C   21
           1 low occupancy (<1.9990e) core orbital  found on  C   23
           1 low occupancy (<1.9990e) core orbital  found on  C   24
           1 low occupancy (<1.9990e) core orbital  found on  C   26
           1 low occupancy (<1.9990e) core orbital  found on  C   29


 Summary of Natural Population Analysis:                  
                                                          
                                       Natural Population 
                Natural  -----------------------------------------------
    Atom  No    Charge         Core      Valence    Rydberg      Total
 -----------------------------------------------------------------------
      F    1   -0.36053      1.99992     7.35436    0.00624     9.36053
      C    2    1.14461      1.99910     2.78044    0.07585     4.85539
      C    3   -0.24903      1.99875     4.23015    0.02013     6.24903
      C    4   -0.08880      1.99901     4.06964    0.02015     6.08880
      C    5   -0.26825      1.99905     4.25268    0.01652     6.26825
      C    6   -0.33849      1.99901     4.32607    0.01341     6.33849
      C    7    0.31817      1.99873     3.66125    0.02185     5.68183
      O    8   -0.51930      1.99969     6.50811    0.01149     8.51930
      C    9    0.32264      1.99870     3.65602    0.02264     5.67736
      C   10   -0.28015      1.99900     4.26566    0.01549     6.28015
      C   11   -0.27195      1.99905     4.25847    0.01443     6.27195
      C   12    0.18326      1.99899     3.80075    0.01700     5.81674
      N   13   -0.75246      1.99949     5.74244    0.01053     7.75246
      C   14   -0.27068      1.99905     4.25721    0.01441     6.27068
      C   15   -0.28055      1.99900     4.26603    0.01552     6.28055
      C   16   -0.33880      1.99904     4.32362    0.01615     6.33880
      C   17   -0.24059      1.99903     4.22713    0.01443     6.24059
      C   18   -0.08874      1.99901     4.06958    0.02015     6.08874
      C   19   -0.24020      1.99903     4.22675    0.01442     6.24020
      C   20   -0.33780      1.99904     4.32265    0.01611     6.33780
      C   21    0.31834      1.99873     3.66109    0.02184     5.68166
      O   22   -0.51945      1.99969     6.50826    0.01149     8.51945
      C   23    0.32053      1.99870     3.65814    0.02264     5.67947
      C   24   -0.27964      1.99900     4.26520    0.01544     6.27964
      C   25   -0.27230      1.99905     4.25886    0.01438     6.27230
      C   26    0.18274      1.99899     3.80126    0.01700     5.81726
      N   27   -0.75523      1.99949     5.74516    0.01058     7.75523
      C   28   -0.27105      1.99905     4.25763    0.01436     6.27105
      C   29   -0.28003      1.99900     4.26557    0.01547     6.28003
      C   30   -0.33806      1.99901     4.32567    0.01337     6.33806
      C   31   -0.26701      1.99905     4.25147    0.01648     6.26701
      C   32    1.14459      1.99910     2.78046    0.07585     4.85541
      F   33   -0.36053      1.99992     7.35437    0.00624     9.36053
      F   34   -0.35911      1.99992     7.35293    0.00626     9.35911
      F   35   -0.36503      1.99992     7.35878    0.00632     9.36503
      F   36   -0.35913      1.99992     7.35295    0.00626     9.35913
      F   37   -0.36500      1.99992     7.35876    0.00632     9.36500
      H   38    0.24874      0.00000     0.74950    0.00176     0.75126
      H   39    0.25005      0.00000     0.74850    0.00145     0.74995
      H   40    0.26413      0.00000     0.73437    0.00150     0.73587
      H   41    0.25542      0.00000     0.74310    0.00148     0.74458
      H   42    0.43143      0.00000     0.56627    0.00229     0.56857
      H   43    0.43126      0.00000     0.56644    0.00230     0.56874
      H   44    0.25560      0.00000     0.74291    0.00149     0.74440
      H   45    0.26414      0.00000     0.73435    0.00151     0.73586
      H   46    0.24586      0.00000     0.75242    0.00172     0.75414
      H   47    0.24530      0.00000     0.75211    0.00259     0.75470
      H   48    0.24544      0.00000     0.75197    0.00259     0.75456
      H   49    0.24603      0.00000     0.75225    0.00173     0.75397
      H   50    0.26394      0.00000     0.73456    0.00150     0.73606
      H   51    0.25522      0.00000     0.74329    0.00149     0.74478
      H   52    0.43103      0.00000     0.56667    0.00230     0.56897
      H   53    0.43087      0.00000     0.56683    0.00230     0.56913
      H   54    0.25540      0.00000     0.74311    0.00149     0.74460
      H   55    0.26395      0.00000     0.73454    0.00151     0.73605
      H   56    0.25022      0.00000     0.74833    0.00145     0.74978
      H   57    0.24894      0.00000     0.74931    0.00176     0.75106
 =======================================================================
   * Total *   -0.00000     73.97016   191.33642    0.69341   266.00000

                                 Natural Population      
 --------------------------------------------------------
   Core                      73.97016 ( 99.9597% of  74)
   Valence                  191.33642 ( 99.6544% of 192)
   Natural Minimal Basis    265.30659 ( 99.7393% of 266)
   Natural Rydberg Basis      0.69341 (  0.2607% of 266)
 --------------------------------------------------------

    Atom  No          Natural Electron Configuration
 ----------------------------------------------------------------------------
      F    1      [core]2S( 1.84)2p( 5.52)
      C    2      [core]2S( 0.79)2p( 1.99)3S( 0.01)3p( 0.05)3d( 0.02)
      C    3      [core]2S( 0.95)2p( 3.28)3p( 0.01)
      C    4      [core]2S( 0.86)2p( 3.21)3p( 0.02)
      C    5      [core]2S( 0.94)2p( 3.31)3p( 0.01)
      C    6      [core]2S( 0.95)2p( 3.37)3p( 0.01)
      C    7      [core]2S( 0.84)2p( 2.83)3p( 0.01)3d( 0.01)
      O    8      [core]2S( 1.57)2p( 4.94)3p( 0.01)3d( 0.01)
      C    9      [core]2S( 0.84)2p( 2.81)3p( 0.02)3d( 0.01)
      C   10      [core]2S( 0.97)2p( 3.30)3p( 0.01)
      C   11      [core]2S( 0.96)2p( 3.30)3p( 0.01)
      C   12      [core]2S( 0.85)2p( 2.95)3p( 0.01)
      N   13      [core]2S( 1.37)2p( 4.37)3p( 0.01)
      C   14      [core]2S( 0.96)2p( 3.30)3p( 0.01)
      C   15      [core]2S( 0.97)2p( 3.30)3p( 0.01)
      C   16      [core]2S( 0.95)2p( 3.37)3p( 0.01)
      C   17      [core]2S( 0.94)2p( 3.29)3p( 0.01)
      C   18      [core]2S( 0.86)2p( 3.21)3p( 0.02)
      C   19      [core]2S( 0.94)2p( 3.28)3p( 0.01)
      C   20      [core]2S( 0.95)2p( 3.37)3p( 0.01)
      C   21      [core]2S( 0.84)2p( 2.83)3p( 0.01)3d( 0.01)
      O   22      [core]2S( 1.57)2p( 4.94)3p( 0.01)3d( 0.01)
      C   23      [core]2S( 0.84)2p( 2.81)3p( 0.02)3d( 0.01)
      C   24      [core]2S( 0.97)2p( 3.30)3p( 0.01)
      C   25      [core]2S( 0.96)2p( 3.30)3p( 0.01)
      C   26      [core]2S( 0.85)2p( 2.95)3p( 0.01)
      N   27      [core]2S( 1.37)2p( 4.38)3p( 0.01)
      C   28      [core]2S( 0.96)2p( 3.30)3p( 0.01)
      C   29      [core]2S( 0.97)2p( 3.30)3p( 0.01)
      C   30      [core]2S( 0.95)2p( 3.37)3p( 0.01)
      C   31      [core]2S( 0.94)2p( 3.31)3p( 0.01)
      C   32      [core]2S( 0.79)2p( 1.99)3S( 0.01)3p( 0.05)3d( 0.02)
      F   33      [core]2S( 1.84)2p( 5.52)
      F   34      [core]2S( 1.84)2p( 5.52)
      F   35      [core]2S( 1.84)2p( 5.52)
      F   36      [core]2S( 1.84)2p( 5.52)
      F   37      [core]2S( 1.84)2p( 5.52)
      H   38            1S( 0.75)
      H   39            1S( 0.75)
      H   40            1S( 0.73)
      H   41            1S( 0.74)
      H   42            1S( 0.57)
      H   43            1S( 0.57)
      H   44            1S( 0.74)
      H   45            1S( 0.73)
      H   46            1S( 0.75)
      H   47            1S( 0.75)
      H   48            1S( 0.75)
      H   49            1S( 0.75)
      H   50            1S( 0.73)
      H   51            1S( 0.74)
      H   52            1S( 0.57)
      H   53            1S( 0.57)
      H   54            1S( 0.74)
      H   55            1S( 0.73)
      H   56            1S( 0.75)
      H   57            1S( 0.75)


 NBO analysis skipped by request.
 1\1\GINC-DRG2-W002\SP\RB3LYP TD-FC\6-31G(d,p)\C27H20F6N2O2\QDUEZ\18-Ju
 l-2024\0\\# TD(NStates=10, Root=1) B3LYP/6-31G** SCRF=(Solvent=water) 
 volume pop=NPA density=current Geom=AllCheck Guess=Read\\HHLMWQDRYZAEN
 A-UHFFFAOYSA-N_conf_1\\0,1\F,0,0.9300771067,-3.0719253481,2.8112844902
 \C,0,0.5743807189,-3.9777987287,1.8782106676\C,0,-0.036337157,-3.27929
 64676,0.6281456481\C,0,-1.182380344,-2.3104244578,0.9983769311\C,0,-1.
 5903766723,-1.3603998203,0.0517031469\C,0,-2.6524377106,-0.4912871887,
 0.2929393783\C,0,-3.3349682161,-0.5616242099,1.5105315469\O,0,-4.38737
 91066,0.2495643946,1.8556146209\C,0,-4.8206847663,1.2338792009,0.96252
 52311\C,0,-4.2761095588,2.5157421755,1.0254883961\C,0,-4.7622914055,3.
 5177243283,0.1891318541\C,0,-5.8023644112,3.254323653,-0.7226426977\N,
 0,-6.3325974403,4.2733535893,-1.513714753\C,0,-6.3402034431,1.95393496
 41,-0.7667274489\C,0,-5.8531598968,0.9519135198,0.0693666976\C,0,-2.95
 05275353,-1.509017646,2.4648092055\C,0,-1.8954967375,-2.3775717732,2.2
 055760837\C,0,1.128842694,-2.5450435773,-0.0735857971\C,0,1.8352301015
 ,-3.0754370398,-1.1644918413\C,0,2.9077206293,-2.3905633875,-1.7260838
 44\C,0,3.3166210133,-1.1630085504,-1.1951315782\O,0,4.384860764,-0.563
 4340527,-1.8148455661\C,0,4.8432629625,0.6742585465,-1.3541609135\C,0,
 4.3266163449,1.8505016514,-1.8956560112\C,0,4.8380370259,3.0821430173,
 -1.4939755881\C,0,5.8758191097,3.1572744082,-0.5453845229\N,0,6.431463
 7511,4.3867660919,-0.1918773266\C,0,6.3852443383,1.9569238957,-0.01446
 23193\C,0,5.8729724668,0.725367571,-0.4158996083\C,0,2.64091861,-0.626
 4193219,-0.0956659097\C,0,1.5613129511,-1.3184121637,0.4494260269\C,0,
 -0.6672947777,-4.3822301963,-0.2712836186\F,0,-1.0072351459,-3.8849296
 635,-1.477470373\F,0,-1.7858382039,-4.8901940973,0.2796934136\F,0,0.16
 42754373,-5.4283985998,-0.4902241125\F,0,1.6793394115,-4.67939729,1.56
 26658457\F,0,-0.2787059348,-4.8472443463,2.4700048227\H,0,-1.069658797
 3,-1.2872757932,-0.8960189972\H,0,-2.9409590745,0.2336147014,-0.458342
 7903\H,0,-3.4765343465,2.7253336988,1.7289540272\H,0,-4.3369347631,4.5
 160241805,0.2426330328\H,0,-6.7852996622,3.960463559,-2.3630159799\H,0
 ,-5.6988029412,5.0399878425,-1.7000594946\H,0,-7.1472641784,1.73117919
 96,-1.4591348381\H,0,-6.2733418835,-0.0482111214,0.0334260751\H,0,-3.4
 891338955,-1.5591264235,3.4051792209\H,0,-1.6398770773,-3.1044697883,2
 .9646306693\H,0,1.5607246656,-4.0282221285,-1.5966187172\H,0,3.4411401
 634,-2.8013245996,-2.5767556031\H,0,3.5289431516,1.7983685572,-2.62989
 85519\H,0,4.4344171717,3.9965437259,-1.9198344338\H,0,6.8806770733,4.4
 054324276,0.7147704327\H,0,5.8153797204,5.1809716696,-0.3094579336\H,0
 ,7.1900657723,1.992542568,0.7145023051\H,0,6.2713118285,-0.1971983428,
 -0.0056638541\H,0,2.948233455,0.3208919083,0.3301395723\H,0,1.04630664
 49,-0.8839487621,1.298355681\\Version=ES64L-G16RevA.03\State=1-A\HF=-1
 899.960047\RMSD=6.762e-10\Dipole=0.029056,7.7226098,-1.5091074\Quadrup
 ole=20.858799,12.5436104,-33.4024095,5.1152458,29.7618783,-9.6663014\P
 G=C01 [X(C27H20F6N2O2)]\\@


 ALMOST ANYTHING IS EASIER TO GET INTO THAN OUT OF.

                         -- AGNES ALLEN'S LAW FROM
                PAUL DICKSON'S "THE OFFICIAL RULES"
 Job cpu time:       0 days  4 hours 17 minutes 54.7 seconds.
 Elapsed time:       0 days  1 hours 26 minutes 11.4 seconds.
 File lengths (MBytes):  RWF=   3538 Int=      0 D2E=      0 Chk=    206 Scr=      1
 Normal termination of Gaussian 16 at Thu Jul 18 02:59:31 2024.
