 Entering Gaussian System, Link 0=g16
 Initial command:
 /opt/sw/arch/manual/gaussian/G16_A03/g16/l1.exe "/scratch/1380836/Gau-12164.inp" -scrdir="/scratch/1380836/"
 Entering Link 1 = /opt/sw/arch/manual/gaussian/G16_A03/g16/l1.exe PID=     12165.
  
 Copyright (c) 1988,1990,1992,1993,1995,1998,2003,2009,2016,
            Gaussian, Inc.  All Rights Reserved.
  
 This is part of the Gaussian(R) 16 program.  It is based on
 the Gaussian(R) 09 system (copyright 2009, Gaussian, Inc.),
 the Gaussian(R) 03 system (copyright 2003, Gaussian, Inc.),
 the Gaussian(R) 98 system (copyright 1998, Gaussian, Inc.),
 the Gaussian(R) 94 system (copyright 1995, Gaussian, Inc.),
 the Gaussian 92(TM) system (copyright 1992, Gaussian, Inc.),
 the Gaussian 90(TM) system (copyright 1990, Gaussian, Inc.),
 the Gaussian 88(TM) system (copyright 1988, Gaussian, Inc.),
 the Gaussian 86(TM) system (copyright 1986, Carnegie Mellon
 University), and the Gaussian 82(TM) system (copyright 1983,
 Carnegie Mellon University). Gaussian is a federally registered
 trademark of Gaussian, Inc.
  
 This software contains proprietary and confidential information,
 including trade secrets, belonging to Gaussian, Inc.
  
 This software is provided under written license and may be
 used, copied, transmitted, or stored only in accord with that
 written license.
  
 The following legend is applicable only to US Government
 contracts under FAR:
  
                    RESTRICTED RIGHTS LEGEND
  
 Use, reproduction and disclosure by the US Government is
 subject to restrictions as set forth in subparagraphs (a)
 and (c) of the Commercial Computer Software - Restricted
 Rights clause in FAR 52.227-19.
  
 Gaussian, Inc.
 340 Quinnipiac St., Bldg. 40, Wallingford CT 06492
  
  
 ---------------------------------------------------------------
 Warning -- This program may not be used in any manner that
 competes with the business of Gaussian, Inc. or will provide
 assistance to any competitor of Gaussian, Inc.  The licensee
 of this program is prohibited from giving any competitor of
 Gaussian, Inc. access to this program.  By using this program,
 the user acknowledges that Gaussian, Inc. is engaged in the
 business of creating and licensing software in the field of
 computational chemistry and represents and warrants to the
 licensee that it is not a competitor of Gaussian, Inc. and that
 it will not use this program in any manner prohibited above.
 ---------------------------------------------------------------
  

 Cite this work as:
 Gaussian 16, Revision A.03,
 M. J. Frisch, G. W. Trucks, H. B. Schlegel, G. E. Scuseria, 
 M. A. Robb, J. R. Cheeseman, G. Scalmani, V. Barone, 
 G. A. Petersson, H. Nakatsuji, X. Li, M. Caricato, A. V. Marenich, 
 J. Bloino, B. G. Janesko, R. Gomperts, B. Mennucci, H. P. Hratchian, 
 J. V. Ortiz, A. F. Izmaylov, J. L. Sonnenberg, D. Williams-Young, 
 F. Ding, F. Lipparini, F. Egidi, J. Goings, B. Peng, A. Petrone, 
 T. Henderson, D. Ranasinghe, V. G. Zakrzewski, J. Gao, N. Rega, 
 G. Zheng, W. Liang, M. Hada, M. Ehara, K. Toyota, R. Fukuda, 
 J. Hasegawa, M. Ishida, T. Nakajima, Y. Honda, O. Kitao, H. Nakai, 
 T. Vreven, K. Throssell, J. A. Montgomery, Jr., J. E. Peralta, 
 F. Ogliaro, M. J. Bearpark, J. J. Heyd, E. N. Brothers, K. N. Kudin, 
 V. N. Staroverov, T. A. Keith, R. Kobayashi, J. Normand, 
 K. Raghavachari, A. P. Rendell, J. C. Burant, S. S. Iyengar, 
 J. Tomasi, M. Cossi, J. M. Millam, M. Klene, C. Adamo, R. Cammi, 
 J. W. Ochterski, R. L. Martin, K. Morokuma, O. Farkas, 
 J. B. Foresman, and D. J. Fox, Gaussian, Inc., Wallingford CT, 2016.
 
 ******************************************
 Gaussian 16:  ES64L-G16RevA.03 25-Dec-2016
                17-Jul-2024 
 ******************************************
 %nprocshared=9
 Will use up to    9 processors via shared memory.
 %mem=18GB
 %Chk=HHLMWQDRYZAENA-UHFFFAOYSA-N_conf_2_0.chk
 -------------------------------------------------------
 # opt=CalcFc B3LYP/6-31G** SCRF=(Solvent=water) scf=xqc
 -------------------------------------------------------
 1/10=4,18=20,19=15,26=3,38=1/1,3;
 2/9=110,12=2,17=6,18=5,40=1/2;
 3/5=1,6=6,7=101,11=2,25=1,30=1,70=2201,71=2,72=1,74=-5,140=1/1,2,3;
 4//1;
 5/5=2,8=3,13=1,38=5,53=1/2,8;
 8/6=4,10=90,11=11/1;
 11/6=1,8=1,9=11,15=111,16=1/1,2,10;
 10/6=1,13=1/2;
 6/7=2,8=2,9=2,10=2,28=1/1;
 7/10=1,18=20,25=1/1,2,3,16;
 1/10=4,18=20,19=15,26=3/3(2);
 2/9=110/2;
 99//99;
 2/9=110/2;
 3/5=1,6=6,7=101,11=2,25=1,30=1,70=2205,71=1,72=1,74=-5/1,2,3;
 4/5=5,16=3,69=1/1;
 5/5=2,8=3,13=1,38=5,53=1/2,8;
 7//1,2,3,16;
 1/18=20,19=15,26=3/3(-5);
 2/9=110/2;
 6/7=2,8=2,9=2,10=2,19=2,28=1/1;
 99/9=1/99;
 ----------------------------------
 HHLMWQDRYZAENA-UHFFFAOYSA-N_conf_2
 ----------------------------------
 Symbolic Z-matrix:
 Charge =  0 Multiplicity = 1
 F                     1.91417   0.62653  -3.77492 
 C                     0.66869   0.17918  -3.48902 
 C                     0.19475   0.60542  -2.09155 
 C                     1.25238   0.11411  -1.05671 
 C                     1.37221  -1.26691  -0.78653 
 C                     2.30691  -1.74884   0.13324 
 C                     3.15362  -0.86482   0.79291 
 O                     4.02569  -1.40363   1.71047 
 C                     5.31137  -0.91468   1.72653 
 C                     5.84929  -0.57797   2.96666 
 C                     7.16056  -0.10253   3.04983 
 C                     7.96204  -0.01601   1.90767 
 N                     9.22885   0.57475   1.97965 
 C                     7.39931  -0.32493   0.66565 
 C                     6.08858  -0.80178   0.5734 
 C                     3.04024   0.50509   0.56237 
 C                     2.10465   0.98944  -0.3593 
 C                    -1.21617   0.07644  -1.69048 
 C                    -1.71611   0.34268  -0.39631 
 C                    -2.97776  -0.1057    0.00387 
 C                    -3.77552  -0.8174   -0.88859 
 O                    -5.01309  -1.31727  -0.55522 
 C                    -5.8731   -0.4782    0.11492 
 C                    -6.15797   0.81462  -0.32489 
 C                    -7.06756   1.60312   0.38553 
 C                    -7.73996   1.09141   1.49927 
 N                    -8.55666   1.92379   2.27277 
 C                    -7.41675  -0.19208   1.9492 
 C                    -6.50959  -0.98759   1.24449 
 C                    -3.29555  -1.11457  -2.16065 
 C                    -2.03181  -0.66717  -2.56243 
 C                     0.09956   2.13155  -2.23995 
 F                     1.25441   2.69572  -2.66416 
 F                    -0.20387   2.73985  -1.06346 
 F                    -0.86172   2.51005  -3.11576 
 F                     0.7151   -1.17245  -3.62139 
 F                    -0.13942   0.62174  -4.48054 
 H                     0.72931  -1.9929   -1.28456 
 H                     2.37446  -2.8156    0.331 
 H                     5.24479  -0.66574   3.86487 
 H                     7.55287   0.19659   4.01811 
 H                     9.84509   0.3193    1.21441 
 H                     9.6776    0.47606   2.88501 
 H                     7.98085  -0.20281  -0.24424 
 H                     5.68358  -1.0717   -0.39768 
 H                     3.67289   1.20899   1.09812 
 H                     2.07178   2.06797  -0.50067 
 H                    -1.12317   0.90034   0.32919 
 H                    -3.32401   0.10325   1.01268 
 H                    -5.67553   1.21901  -1.21019 
 H                    -7.25255   2.62175   0.055 
 H                    -8.98657   2.67923   1.748 
 H                    -9.228     1.42205   2.84588 
 H                    -7.87459  -0.58752   2.85175 
 H                    -6.28889  -1.99397   1.58746 
 H                    -3.90917  -1.6925   -2.84752 
 H                    -1.7205   -0.92305  -3.57324 
 

 GradGradGradGradGradGradGradGradGradGradGradGradGradGradGradGradGradGrad
 Berny optimization.
 Initialization pass.
                           ----------------------------
                           !    Initial Parameters    !
                           ! (Angstroms and Degrees)  !
 --------------------------                            --------------------------
 ! Name  Definition              Value          Derivative Info.                !
 --------------------------------------------------------------------------------
 ! R1    R(1,2)                  1.3539         calculate D2E/DX2 analytically  !
 ! R2    R(2,3)                  1.536          calculate D2E/DX2 analytically  !
 ! R3    R(2,36)                 1.3589         calculate D2E/DX2 analytically  !
 ! R4    R(2,37)                 1.3535         calculate D2E/DX2 analytically  !
 ! R5    R(3,4)                  1.5591         calculate D2E/DX2 analytically  !
 ! R6    R(3,18)                 1.5593         calculate D2E/DX2 analytically  !
 ! R7    R(3,32)                 1.5363         calculate D2E/DX2 analytically  !
 ! R8    R(4,5)                  1.4123         calculate D2E/DX2 analytically  !
 ! R9    R(4,17)                 1.4067         calculate D2E/DX2 analytically  !
 ! R10   R(5,6)                  1.3971         calculate D2E/DX2 analytically  !
 ! R11   R(5,38)                 1.0901         calculate D2E/DX2 analytically  !
 ! R12   R(6,7)                  1.3905         calculate D2E/DX2 analytically  !
 ! R13   R(6,39)                 1.087          calculate D2E/DX2 analytically  !
 ! R14   R(7,8)                  1.3758         calculate D2E/DX2 analytically  !
 ! R15   R(7,16)                 1.3938         calculate D2E/DX2 analytically  !
 ! R16   R(8,9)                  1.3756         calculate D2E/DX2 analytically  !
 ! R17   R(9,10)                 1.3931         calculate D2E/DX2 analytically  !
 ! R18   R(9,15)                 1.3952         calculate D2E/DX2 analytically  !
 ! R19   R(10,11)                1.3973         calculate D2E/DX2 analytically  !
 ! R20   R(10,40)                1.0862         calculate D2E/DX2 analytically  !
 ! R21   R(11,12)                1.398          calculate D2E/DX2 analytically  !
 ! R22   R(11,41)                1.0867         calculate D2E/DX2 analytically  !
 ! R23   R(12,13)                1.3996         calculate D2E/DX2 analytically  !
 ! R24   R(12,14)                1.3981         calculate D2E/DX2 analytically  !
 ! R25   R(13,42)                1.0152         calculate D2E/DX2 analytically  !
 ! R26   R(13,43)                1.0153         calculate D2E/DX2 analytically  !
 ! R27   R(14,15)                1.3978         calculate D2E/DX2 analytically  !
 ! R28   R(14,44)                1.0867         calculate D2E/DX2 analytically  !
 ! R29   R(15,45)                1.0862         calculate D2E/DX2 analytically  !
 ! R30   R(16,17)                1.3998         calculate D2E/DX2 analytically  !
 ! R31   R(16,46)                1.0875         calculate D2E/DX2 analytically  !
 ! R32   R(17,47)                1.0883         calculate D2E/DX2 analytically  !
 ! R33   R(18,19)                1.4127         calculate D2E/DX2 analytically  !
 ! R34   R(18,31)                1.4066         calculate D2E/DX2 analytically  !
 ! R35   R(19,20)                1.3975         calculate D2E/DX2 analytically  !
 ! R36   R(19,48)                1.0904         calculate D2E/DX2 analytically  !
 ! R37   R(20,21)                1.3926         calculate D2E/DX2 analytically  !
 ! R38   R(20,49)                1.0869         calculate D2E/DX2 analytically  !
 ! R39   R(21,22)                1.3757         calculate D2E/DX2 analytically  !
 ! R40   R(21,30)                1.3917         calculate D2E/DX2 analytically  !
 ! R41   R(22,23)                1.3758         calculate D2E/DX2 analytically  !
 ! R42   R(23,24)                1.395          calculate D2E/DX2 analytically  !
 ! R43   R(23,29)                1.393          calculate D2E/DX2 analytically  !
 ! R44   R(24,25)                1.3978         calculate D2E/DX2 analytically  !
 ! R45   R(24,50)                1.0863         calculate D2E/DX2 analytically  !
 ! R46   R(25,26)                1.398          calculate D2E/DX2 analytically  !
 ! R47   R(25,51)                1.0868         calculate D2E/DX2 analytically  !
 ! R48   R(26,27)                1.3993         calculate D2E/DX2 analytically  !
 ! R49   R(26,28)                1.3979         calculate D2E/DX2 analytically  !
 ! R50   R(27,52)                1.0153         calculate D2E/DX2 analytically  !
 ! R51   R(27,53)                1.0153         calculate D2E/DX2 analytically  !
 ! R52   R(28,29)                1.3973         calculate D2E/DX2 analytically  !
 ! R53   R(28,54)                1.0865         calculate D2E/DX2 analytically  !
 ! R54   R(29,55)                1.0859         calculate D2E/DX2 analytically  !
 ! R55   R(30,31)                1.3995         calculate D2E/DX2 analytically  !
 ! R56   R(30,56)                1.0873         calculate D2E/DX2 analytically  !
 ! R57   R(31,57)                1.0882         calculate D2E/DX2 analytically  !
 ! R58   R(32,33)                1.3535         calculate D2E/DX2 analytically  !
 ! R59   R(32,34)                1.3588         calculate D2E/DX2 analytically  !
 ! R60   R(32,35)                1.3544         calculate D2E/DX2 analytically  !
 ! A1    A(1,2,3)              112.5991         calculate D2E/DX2 analytically  !
 ! A2    A(1,2,36)             106.0608         calculate D2E/DX2 analytically  !
 ! A3    A(1,2,37)             106.6481         calculate D2E/DX2 analytically  !
 ! A4    A(3,2,36)             112.0361         calculate D2E/DX2 analytically  !
 ! A5    A(3,2,37)             113.0501         calculate D2E/DX2 analytically  !
 ! A6    A(36,2,37)            105.9179         calculate D2E/DX2 analytically  !
 ! A7    A(2,3,4)              107.8858         calculate D2E/DX2 analytically  !
 ! A8    A(2,3,18)             114.7763         calculate D2E/DX2 analytically  !
 ! A9    A(2,3,32)             101.9409         calculate D2E/DX2 analytically  !
 ! A10   A(4,3,18)             109.6447         calculate D2E/DX2 analytically  !
 ! A11   A(4,3,32)             114.7832         calculate D2E/DX2 analytically  !
 ! A12   A(18,3,32)            107.8051         calculate D2E/DX2 analytically  !
 ! A13   A(3,4,5)              119.5163         calculate D2E/DX2 analytically  !
 ! A14   A(3,4,17)             122.9526         calculate D2E/DX2 analytically  !
 ! A15   A(5,4,17)             117.5302         calculate D2E/DX2 analytically  !
 ! A16   A(4,5,6)              121.3333         calculate D2E/DX2 analytically  !
 ! A17   A(4,5,38)             120.9156         calculate D2E/DX2 analytically  !
 ! A18   A(6,5,38)             117.7488         calculate D2E/DX2 analytically  !
 ! A19   A(5,6,7)              120.0264         calculate D2E/DX2 analytically  !
 ! A20   A(5,6,39)             119.9906         calculate D2E/DX2 analytically  !
 ! A21   A(7,6,39)             119.9827         calculate D2E/DX2 analytically  !
 ! A22   A(6,7,8)              116.9613         calculate D2E/DX2 analytically  !
 ! A23   A(6,7,16)             119.7918         calculate D2E/DX2 analytically  !
 ! A24   A(8,7,16)             123.1487         calculate D2E/DX2 analytically  !
 ! A25   A(7,8,9)              117.453          calculate D2E/DX2 analytically  !
 ! A26   A(8,9,10)             117.2067         calculate D2E/DX2 analytically  !
 ! A27   A(8,9,15)             122.6676         calculate D2E/DX2 analytically  !
 ! A28   A(10,9,15)            120.0731         calculate D2E/DX2 analytically  !
 ! A29   A(9,10,11)            119.8414         calculate D2E/DX2 analytically  !
 ! A30   A(9,10,40)            120.1128         calculate D2E/DX2 analytically  !
 ! A31   A(11,10,40)           120.0345         calculate D2E/DX2 analytically  !
 ! A32   A(10,11,12)           120.6936         calculate D2E/DX2 analytically  !
 ! A33   A(10,11,41)           119.0434         calculate D2E/DX2 analytically  !
 ! A34   A(12,11,41)           120.2625         calculate D2E/DX2 analytically  !
 ! A35   A(11,12,13)           120.1994         calculate D2E/DX2 analytically  !
 ! A36   A(11,12,14)           118.7742         calculate D2E/DX2 analytically  !
 ! A37   A(13,12,14)           120.2145         calculate D2E/DX2 analytically  !
 ! A38   A(12,13,42)           113.8563         calculate D2E/DX2 analytically  !
 ! A39   A(12,13,43)           113.8835         calculate D2E/DX2 analytically  !
 ! A40   A(42,13,43)           112.2973         calculate D2E/DX2 analytically  !
 ! A41   A(12,14,15)           120.758          calculate D2E/DX2 analytically  !
 ! A42   A(12,14,44)           120.237          calculate D2E/DX2 analytically  !
 ! A43   A(15,14,44)           119.0038         calculate D2E/DX2 analytically  !
 ! A44   A(9,15,14)            119.698          calculate D2E/DX2 analytically  !
 ! A45   A(9,15,45)            120.7361         calculate D2E/DX2 analytically  !
 ! A46   A(14,15,45)           119.5634         calculate D2E/DX2 analytically  !
 ! A47   A(7,16,17)            120.223          calculate D2E/DX2 analytically  !
 ! A48   A(7,16,46)            120.4872         calculate D2E/DX2 analytically  !
 ! A49   A(17,16,46)           119.2892         calculate D2E/DX2 analytically  !
 ! A50   A(4,17,16)            121.0679         calculate D2E/DX2 analytically  !
 ! A51   A(4,17,47)            122.2745         calculate D2E/DX2 analytically  !
 ! A52   A(16,17,47)           116.6571         calculate D2E/DX2 analytically  !
 ! A53   A(3,18,19)            119.4665         calculate D2E/DX2 analytically  !
 ! A54   A(3,18,31)            122.9968         calculate D2E/DX2 analytically  !
 ! A55   A(19,18,31)           117.5365         calculate D2E/DX2 analytically  !
 ! A56   A(18,19,20)           121.4231         calculate D2E/DX2 analytically  !
 ! A57   A(18,19,48)           120.8966         calculate D2E/DX2 analytically  !
 ! A58   A(20,19,48)           117.6783         calculate D2E/DX2 analytically  !
 ! A59   A(19,20,21)           119.8434         calculate D2E/DX2 analytically  !
 ! A60   A(19,20,49)           119.4538         calculate D2E/DX2 analytically  !
 ! A61   A(21,20,49)           120.7024         calculate D2E/DX2 analytically  !
 ! A62   A(20,21,22)           123.0743         calculate D2E/DX2 analytically  !
 ! A63   A(20,21,30)           119.8224         calculate D2E/DX2 analytically  !
 ! A64   A(22,21,30)           117.0105         calculate D2E/DX2 analytically  !
 ! A65   A(21,22,23)           117.308          calculate D2E/DX2 analytically  !
 ! A66   A(22,23,24)           122.6367         calculate D2E/DX2 analytically  !
 ! A67   A(22,23,29)           117.231          calculate D2E/DX2 analytically  !
 ! A68   A(24,23,29)           120.0817         calculate D2E/DX2 analytically  !
 ! A69   A(23,24,25)           119.6991         calculate D2E/DX2 analytically  !
 ! A70   A(23,24,50)           120.7473         calculate D2E/DX2 analytically  !
 ! A71   A(25,24,50)           119.5523         calculate D2E/DX2 analytically  !
 ! A72   A(24,25,26)           120.7585         calculate D2E/DX2 analytically  !
 ! A73   A(24,25,51)           119.0074         calculate D2E/DX2 analytically  !
 ! A74   A(26,25,51)           120.2323         calculate D2E/DX2 analytically  !
 ! A75   A(25,26,27)           120.2217         calculate D2E/DX2 analytically  !
 ! A76   A(25,26,28)           118.7681         calculate D2E/DX2 analytically  !
 ! A77   A(27,26,28)           120.2101         calculate D2E/DX2 analytically  !
 ! A78   A(26,27,52)           113.829          calculate D2E/DX2 analytically  !
 ! A79   A(26,27,53)           113.8253         calculate D2E/DX2 analytically  !
 ! A80   A(52,27,53)           112.3            calculate D2E/DX2 analytically  !
 ! A81   A(26,28,29)           120.697          calculate D2E/DX2 analytically  !
 ! A82   A(26,28,54)           120.2696         calculate D2E/DX2 analytically  !
 ! A83   A(29,28,54)           119.0323         calculate D2E/DX2 analytically  !
 ! A84   A(23,29,28)           119.8291         calculate D2E/DX2 analytically  !
 ! A85   A(23,29,55)           120.1418         calculate D2E/DX2 analytically  !
 ! A86   A(28,29,55)           120.0203         calculate D2E/DX2 analytically  !
 ! A87   A(21,30,31)           120.369          calculate D2E/DX2 analytically  !
 ! A88   A(21,30,56)           119.7528         calculate D2E/DX2 analytically  !
 ! A89   A(31,30,56)           119.8772         calculate D2E/DX2 analytically  !
 ! A90   A(18,31,30)           120.9742         calculate D2E/DX2 analytically  !
 ! A91   A(18,31,57)           122.2925         calculate D2E/DX2 analytically  !
 ! A92   A(30,31,57)           116.7333         calculate D2E/DX2 analytically  !
 ! A93   A(3,32,33)            113.0463         calculate D2E/DX2 analytically  !
 ! A94   A(3,32,34)            112.0197         calculate D2E/DX2 analytically  !
 ! A95   A(3,32,35)            112.5852         calculate D2E/DX2 analytically  !
 ! A96   A(33,32,34)           105.9807         calculate D2E/DX2 analytically  !
 ! A97   A(33,32,35)           106.6445         calculate D2E/DX2 analytically  !
 ! A98   A(34,32,35)           106.0393         calculate D2E/DX2 analytically  !
 ! D1    D(1,2,3,4)            -55.4904         calculate D2E/DX2 analytically  !
 ! D2    D(1,2,3,18)          -178.0399         calculate D2E/DX2 analytically  !
 ! D3    D(1,2,3,32)            65.7388         calculate D2E/DX2 analytically  !
 ! D4    D(36,2,3,4)            63.966          calculate D2E/DX2 analytically  !
 ! D5    D(36,2,3,18)          -58.5835         calculate D2E/DX2 analytically  !
 ! D6    D(36,2,3,32)         -174.8048         calculate D2E/DX2 analytically  !
 ! D7    D(37,2,3,4)          -176.4451         calculate D2E/DX2 analytically  !
 ! D8    D(37,2,3,18)           61.0054         calculate D2E/DX2 analytically  !
 ! D9    D(37,2,3,32)          -55.2159         calculate D2E/DX2 analytically  !
 ! D10   D(2,3,4,5)            -70.6212         calculate D2E/DX2 analytically  !
 ! D11   D(2,3,4,17)           109.7416         calculate D2E/DX2 analytically  !
 ! D12   D(18,3,4,5)            55.0245         calculate D2E/DX2 analytically  !
 ! D13   D(18,3,4,17)         -124.6126         calculate D2E/DX2 analytically  !
 ! D14   D(32,3,4,5)           176.5197         calculate D2E/DX2 analytically  !
 ! D15   D(32,3,4,17)           -3.1175         calculate D2E/DX2 analytically  !
 ! D16   D(2,3,18,19)          176.2833         calculate D2E/DX2 analytically  !
 ! D17   D(2,3,18,31)           -3.5873         calculate D2E/DX2 analytically  !
 ! D18   D(4,3,18,19)           54.6875         calculate D2E/DX2 analytically  !
 ! D19   D(4,3,18,31)         -125.1831         calculate D2E/DX2 analytically  !
 ! D20   D(32,3,18,19)         -70.9128         calculate D2E/DX2 analytically  !
 ! D21   D(32,3,18,31)         109.2166         calculate D2E/DX2 analytically  !
 ! D22   D(2,3,32,33)          -55.2031         calculate D2E/DX2 analytically  !
 ! D23   D(2,3,32,34)         -174.8588         calculate D2E/DX2 analytically  !
 ! D24   D(2,3,32,35)           65.7337         calculate D2E/DX2 analytically  !
 ! D25   D(4,3,32,33)           61.1179         calculate D2E/DX2 analytically  !
 ! D26   D(4,3,32,34)          -58.5378         calculate D2E/DX2 analytically  !
 ! D27   D(4,3,32,35)         -177.9453         calculate D2E/DX2 analytically  !
 ! D28   D(18,3,32,33)        -176.3887         calculate D2E/DX2 analytically  !
 ! D29   D(18,3,32,34)          63.9555         calculate D2E/DX2 analytically  !
 ! D30   D(18,3,32,35)         -55.4519         calculate D2E/DX2 analytically  !
 ! D31   D(3,4,5,6)            179.9895         calculate D2E/DX2 analytically  !
 ! D32   D(3,4,5,38)            -0.5723         calculate D2E/DX2 analytically  !
 ! D33   D(17,4,5,6)            -0.3539         calculate D2E/DX2 analytically  !
 ! D34   D(17,4,5,38)          179.0844         calculate D2E/DX2 analytically  !
 ! D35   D(3,4,17,16)          179.9686         calculate D2E/DX2 analytically  !
 ! D36   D(3,4,17,47)            0.2244         calculate D2E/DX2 analytically  !
 ! D37   D(5,4,17,16)            0.3246         calculate D2E/DX2 analytically  !
 ! D38   D(5,4,17,47)         -179.4195         calculate D2E/DX2 analytically  !
 ! D39   D(4,5,6,7)             -0.7339         calculate D2E/DX2 analytically  !
 ! D40   D(4,5,6,39)           179.4574         calculate D2E/DX2 analytically  !
 ! D41   D(38,5,6,7)           179.8107         calculate D2E/DX2 analytically  !
 ! D42   D(38,5,6,39)            0.0019         calculate D2E/DX2 analytically  !
 ! D43   D(5,6,7,8)            178.3637         calculate D2E/DX2 analytically  !
 ! D44   D(5,6,7,16)             1.8544         calculate D2E/DX2 analytically  !
 ! D45   D(39,6,7,8)            -1.8276         calculate D2E/DX2 analytically  !
 ! D46   D(39,6,7,16)         -178.3369         calculate D2E/DX2 analytically  !
 ! D47   D(6,7,8,9)            138.4138         calculate D2E/DX2 analytically  !
 ! D48   D(16,7,8,9)           -45.2046         calculate D2E/DX2 analytically  !
 ! D49   D(6,7,16,17)           -1.8861         calculate D2E/DX2 analytically  !
 ! D50   D(6,7,16,46)          177.847          calculate D2E/DX2 analytically  !
 ! D51   D(8,7,16,17)         -178.1697         calculate D2E/DX2 analytically  !
 ! D52   D(8,7,16,46)            1.5634         calculate D2E/DX2 analytically  !
 ! D53   D(7,8,9,10)           132.4864         calculate D2E/DX2 analytically  !
 ! D54   D(7,8,9,15)           -50.1517         calculate D2E/DX2 analytically  !
 ! D55   D(8,9,10,11)          178.6632         calculate D2E/DX2 analytically  !
 ! D56   D(8,9,10,40)           -2.5587         calculate D2E/DX2 analytically  !
 ! D57   D(15,9,10,11)           1.2293         calculate D2E/DX2 analytically  !
 ! D58   D(15,9,10,40)        -179.9925         calculate D2E/DX2 analytically  !
 ! D59   D(8,9,15,14)         -178.5352         calculate D2E/DX2 analytically  !
 ! D60   D(8,9,15,45)            2.0366         calculate D2E/DX2 analytically  !
 ! D61   D(10,9,15,14)          -1.2464         calculate D2E/DX2 analytically  !
 ! D62   D(10,9,15,45)         179.3254         calculate D2E/DX2 analytically  !
 ! D63   D(9,10,11,12)          -2.8555         calculate D2E/DX2 analytically  !
 ! D64   D(9,10,11,41)         177.3975         calculate D2E/DX2 analytically  !
 ! D65   D(40,10,11,12)        178.3654         calculate D2E/DX2 analytically  !
 ! D66   D(40,10,11,41)         -1.3816         calculate D2E/DX2 analytically  !
 ! D67   D(10,11,12,13)        174.1284         calculate D2E/DX2 analytically  !
 ! D68   D(10,11,12,14)          4.4227         calculate D2E/DX2 analytically  !
 ! D69   D(41,11,12,13)         -6.1277         calculate D2E/DX2 analytically  !
 ! D70   D(41,11,12,14)       -175.8334         calculate D2E/DX2 analytically  !
 ! D71   D(11,12,13,42)        160.4448         calculate D2E/DX2 analytically  !
 ! D72   D(11,12,13,43)         29.9391         calculate D2E/DX2 analytically  !
 ! D73   D(14,12,13,42)        -29.9985         calculate D2E/DX2 analytically  !
 ! D74   D(14,12,13,43)       -160.5042         calculate D2E/DX2 analytically  !
 ! D75   D(11,12,14,15)         -4.4448         calculate D2E/DX2 analytically  !
 ! D76   D(11,12,14,44)        175.9583         calculate D2E/DX2 analytically  !
 ! D77   D(13,12,14,15)       -174.1489         calculate D2E/DX2 analytically  !
 ! D78   D(13,12,14,44)          6.2541         calculate D2E/DX2 analytically  !
 ! D79   D(12,14,15,9)           2.8932         calculate D2E/DX2 analytically  !
 ! D80   D(12,14,15,45)       -177.6719         calculate D2E/DX2 analytically  !
 ! D81   D(44,14,15,9)        -177.505          calculate D2E/DX2 analytically  !
 ! D82   D(44,14,15,45)          1.9299         calculate D2E/DX2 analytically  !
 ! D83   D(7,16,17,4)            0.7902         calculate D2E/DX2 analytically  !
 ! D84   D(7,16,17,47)        -179.4519         calculate D2E/DX2 analytically  !
 ! D85   D(46,16,17,4)        -178.9461         calculate D2E/DX2 analytically  !
 ! D86   D(46,16,17,47)          0.8118         calculate D2E/DX2 analytically  !
 ! D87   D(3,18,19,20)         179.6634         calculate D2E/DX2 analytically  !
 ! D88   D(3,18,19,48)          -0.8676         calculate D2E/DX2 analytically  !
 ! D89   D(31,18,19,20)         -0.4589         calculate D2E/DX2 analytically  !
 ! D90   D(31,18,19,48)        179.01           calculate D2E/DX2 analytically  !
 ! D91   D(3,18,31,30)        -179.6154         calculate D2E/DX2 analytically  !
 ! D92   D(3,18,31,57)           0.3572         calculate D2E/DX2 analytically  !
 ! D93   D(19,18,31,30)          0.5116         calculate D2E/DX2 analytically  !
 ! D94   D(19,18,31,57)       -179.5158         calculate D2E/DX2 analytically  !
 ! D95   D(18,19,20,21)         -0.791          calculate D2E/DX2 analytically  !
 ! D96   D(18,19,20,49)        179.0004         calculate D2E/DX2 analytically  !
 ! D97   D(48,19,20,21)        179.7236         calculate D2E/DX2 analytically  !
 ! D98   D(48,19,20,49)         -0.485          calculate D2E/DX2 analytically  !
 ! D99   D(19,20,21,22)        178.3862         calculate D2E/DX2 analytically  !
 ! D100  D(19,20,21,30)          1.9978         calculate D2E/DX2 analytically  !
 ! D101  D(49,20,21,22)         -1.4025         calculate D2E/DX2 analytically  !
 ! D102  D(49,20,21,30)       -177.7909         calculate D2E/DX2 analytically  !
 ! D103  D(20,21,22,23)         46.1197         calculate D2E/DX2 analytically  !
 ! D104  D(30,21,22,23)       -137.3971         calculate D2E/DX2 analytically  !
 ! D105  D(20,21,30,31)         -1.9539         calculate D2E/DX2 analytically  !
 ! D106  D(20,21,30,56)        178.4192         calculate D2E/DX2 analytically  !
 ! D107  D(22,21,30,31)       -178.5572         calculate D2E/DX2 analytically  !
 ! D108  D(22,21,30,56)          1.8159         calculate D2E/DX2 analytically  !
 ! D109  D(21,22,23,24)         50.4095         calculate D2E/DX2 analytically  !
 ! D110  D(21,22,23,29)       -132.1763         calculate D2E/DX2 analytically  !
 ! D111  D(22,23,24,25)        178.3976         calculate D2E/DX2 analytically  !
 ! D112  D(22,23,24,50)         -2.0295         calculate D2E/DX2 analytically  !
 ! D113  D(29,23,24,25)          1.0548         calculate D2E/DX2 analytically  !
 ! D114  D(29,23,24,50)       -179.3723         calculate D2E/DX2 analytically  !
 ! D115  D(22,23,29,28)       -178.5882         calculate D2E/DX2 analytically  !
 ! D116  D(22,23,29,55)          2.4911         calculate D2E/DX2 analytically  !
 ! D117  D(24,23,29,28)         -1.1046         calculate D2E/DX2 analytically  !
 ! D118  D(24,23,29,55)        179.9747         calculate D2E/DX2 analytically  !
 ! D119  D(23,24,25,26)         -2.8024         calculate D2E/DX2 analytically  !
 ! D120  D(23,24,25,51)        177.6811         calculate D2E/DX2 analytically  !
 ! D121  D(50,24,25,26)        177.6196         calculate D2E/DX2 analytically  !
 ! D122  D(50,24,25,51)         -1.8969         calculate D2E/DX2 analytically  !
 ! D123  D(24,25,26,27)        174.3004         calculate D2E/DX2 analytically  !
 ! D124  D(24,25,26,28)          4.5205         calculate D2E/DX2 analytically  !
 ! D125  D(51,25,26,27)         -6.189          calculate D2E/DX2 analytically  !
 ! D126  D(51,25,26,28)       -175.9689         calculate D2E/DX2 analytically  !
 ! D127  D(25,26,27,52)         30.1057         calculate D2E/DX2 analytically  !
 ! D128  D(25,26,27,53)        160.5334         calculate D2E/DX2 analytically  !
 ! D129  D(28,26,27,52)       -160.2625         calculate D2E/DX2 analytically  !
 ! D130  D(28,26,27,53)        -29.8348         calculate D2E/DX2 analytically  !
 ! D131  D(25,26,28,29)         -4.5667         calculate D2E/DX2 analytically  !
 ! D132  D(25,26,28,54)        175.8209         calculate D2E/DX2 analytically  !
 ! D133  D(27,26,28,29)       -174.3478         calculate D2E/DX2 analytically  !
 ! D134  D(27,26,28,54)          6.0397         calculate D2E/DX2 analytically  !
 ! D135  D(26,28,29,23)          2.9004         calculate D2E/DX2 analytically  !
 ! D136  D(26,28,29,55)       -178.1776         calculate D2E/DX2 analytically  !
 ! D137  D(54,28,29,23)       -177.4825         calculate D2E/DX2 analytically  !
 ! D138  D(54,28,29,55)          1.4395         calculate D2E/DX2 analytically  !
 ! D139  D(21,30,31,18)          0.6866         calculate D2E/DX2 analytically  !
 ! D140  D(21,30,31,57)       -179.2874         calculate D2E/DX2 analytically  !
 ! D141  D(56,30,31,18)       -179.6869         calculate D2E/DX2 analytically  !
 ! D142  D(56,30,31,57)          0.339          calculate D2E/DX2 analytically  !
 --------------------------------------------------------------------------------
 Trust Radius=3.00D-01 FncErr=1.00D-07 GrdErr=1.00D-06 EigMax=2.50D+02 EigMin=1.00D-04
 Number of steps in this run=    310 maximum allowed number of steps=    342.
 GradGradGradGradGradGradGradGradGradGradGradGradGradGradGradGradGradGrad

 Stoichiometry    C27H20F6N2O2
 Framework group  C1[X(C27H20F6N2O2)]
 Deg. of freedom   165
 Full point group                 C1      NOp   1
 Largest Abelian subgroup         C1      NOp   1
 Largest concise Abelian subgroup C1      NOp   1
                         Standard orientation:                         
 ---------------------------------------------------------------------
 Center     Atomic      Atomic             Coordinates (Angstroms)
 Number     Number       Type             X           Y           Z
 ---------------------------------------------------------------------
      1          9           0        1.615679    3.489308   -0.085006
      2          6           0        0.416950    3.036107   -0.521757
      3          6           0        0.022538    1.697532    0.120012
      4          6           0        1.173437    0.680454   -0.148029
      5          6           0        1.379657    0.192184   -1.457090
      6          6           0        2.399495   -0.719814   -1.740070
      7          6           0        3.246278   -1.153513   -0.725941
      8          8           0        4.206344   -2.077786   -1.067583
      9          6           0        5.464409   -1.911206   -0.536702
     10          6           0        6.071385   -3.031357    0.026750
     11          6           0        7.360349   -2.930997    0.556760
     12          6           0        8.073961   -1.731611    0.475465
     13          7           0        9.312166   -1.604332    1.115477
     14          6           0        7.440767   -0.606854   -0.061863
     15          6           0        6.151776   -0.698495   -0.594788
     16          6           0        3.049820   -0.705569    0.579197
     17          6           0        2.028840    0.208641    0.864207
     18          6           0       -1.328882    1.104552   -0.383389
     19          6           0       -1.748642   -0.161432    0.082217
     20          6           0       -2.955357   -0.728356   -0.336567
     21          6           0       -3.778263   -0.033133   -1.219119
     22          8           0       -4.963179   -0.541181   -1.699157
     23          6           0       -5.813855   -1.125717   -0.789540
     24          6           0       -6.192159   -0.498447    0.397636
     25          6           0       -7.086905   -1.134935    1.262559
     26          6           0       -7.653065   -2.367797    0.925060
     27          7           0       -8.452959   -3.051652    1.847376
     28          6           0       -7.236298   -3.000463   -0.249797
     29          6           0       -6.343233   -2.370955   -1.120742
     30          6           0       -3.375319    1.204371   -1.712113
     31          6           0       -2.166589    1.772870   -1.294498
     32          6           0       -0.157667    2.092441    1.593701
     33          9           0        0.935270    2.694122    2.118475
     34          9           0       -0.406741    1.014904    2.383068
     35          9           0       -1.195800    2.941792    1.781410
     36          9           0        0.520167    2.942643   -1.873488
     37          9           0       -0.479899    4.021879   -0.285217
     38          1           0        0.739595    0.509482   -2.280526
     39          1           0        2.533101   -1.088179   -2.754026
     40          1           0        5.536863   -3.975884    0.072198
     41          1           0        7.804897   -3.801676    1.031355
     42          1           0        9.884627   -0.847248    0.755305
     43          1           0        9.828037   -2.475644    1.189678
     44          1           0        7.949904    0.353128   -0.076316
     45          1           0        5.692946    0.178851   -1.041577
     46          1           0        3.683422   -1.064441    1.386979
     47          1           0        1.933190    0.526274    1.900672
     48          1           0       -1.134028   -0.734445    0.777070
     49          1           0       -3.239340   -1.711574    0.029351
     50          1           0       -5.793872    0.477088    0.661689
     51          1           0       -7.344535   -0.653338    2.202125
     52          1           0       -8.955395   -2.442506    2.485637
     53          1           0       -9.056720   -3.751490    1.427131
     54          1           0       -7.609306   -3.989528   -0.501195
     55          1           0       -6.049747   -2.859927   -2.044811
     56          1           0       -4.006813    1.734404   -2.421063
     57          1           0       -1.915247    2.747436   -1.708231
 ---------------------------------------------------------------------
 Rotational constants (GHZ):           0.1677565           0.0417449           0.0371714
 Standard basis: 6-31G(d,p) (6D, 7F)
 There are   655 symmetry adapted cartesian basis functions of A   symmetry.
 There are   655 symmetry adapted basis functions of A   symmetry.
   655 basis functions,  1176 primitive gaussians,   655 cartesian basis functions
   133 alpha electrons      133 beta electrons
       nuclear repulsion energy      3943.4015561966 Hartrees.
 NAtoms=   57 NActive=   57 NUniq=   57 SFac= 1.00D+00 NAtFMM=   60 NAOKFM=F Big=F
 Integral buffers will be    131072 words long.
 Raffenetti 2 integral format.
 Two-electron integral symmetry is turned on.
 Force inversion solution in PCM.
 ------------------------------------------------------------------------------
 Polarizable Continuum Model (PCM)
 =================================
 Model                : PCM.
 Atomic radii         : UFF (Universal Force Field).
 Polarization charges : Total charges.
 Charge compensation  : None.
 Solution method      : Matrix inversion.
 Cavity type          : Scaled VdW (van der Waals Surface) (Alpha=1.100).
 Cavity algorithm     : GePol (No added spheres)
                        Default sphere list used, NSphG=   57.
                        Lebedev-Laikov grids with approx.  5.0 points / Ang**2.
                        Smoothing algorithm: York/Karplus (Gamma=1.0000).
                        Polarization charges: spherical gaussians, with
                                              point-specific exponents (IZeta= 3).
                        Self-potential: point-specific (ISelfS= 7).
                        Self-field    : sphere-specific E.n sum rule (ISelfD= 2).
 1st derivatives      : Analytical E(r).r(x)/FMM algorithm (CHGder, D1EAlg=3).
                        Cavity 1st derivative terms included.
 2nd derivatives      : Analytical E(r).r(xy)/FMM algorithm (CHGder, D2EAlg=3).
                        Cavity 2nd derivative terms included.
 Solvent              : Water, Eps=  78.355300 Eps(inf)=   1.777849
 ------------------------------------------------------------------------------
 One-electron integrals computed using PRISM.
 NBasis=   655 RedAO= T EigKep=  3.96D-04  NBF=   655
 NBsUse=   655 1.00D-06 EigRej= -1.00D+00 NBFU=   655
 ExpMin= 1.61D-01 ExpMax= 7.00D+03 ExpMxC= 1.05D+03 IAcc=3 IRadAn=         5 AccDes= 0.00D+00
 Harris functional with IExCor=  402 and IRadAn=       5 diagonalized for initial guess.
 HarFok:  IExCor=  402 AccDes= 0.00D+00 IRadAn=         5 IDoV= 1 UseB2=F ITyADJ=14
 ICtDFT=  3500011 ScaDFX=  1.000000  1.000000  1.000000  1.000000
 FoFCou: FMM=F IPFlag=           0 FMFlag=      100000 FMFlg1=           0
         NFxFlg=           0 DoJE=T BraDBF=F KetDBF=T FulRan=T
         wScrn=  0.000000 ICntrl=       500 IOpCl=  0 I1Cent=   200000004 NGrid=           0
         NMat0=    1 NMatS0=      1 NMatT0=    0 NMatD0=    1 NMtDS0=    0 NMtDT0=    0
 Petite list used in FoFCou.
 Requested convergence on RMS density matrix=1.00D-08 within  32 cycles.
 Requested convergence on MAX density matrix=1.00D-06.
 Requested convergence on             energy=1.00D-06.
 No special actions if energy rises.
 Inv3:  Mode=1 IEnd=    54647472.
 Iteration    1 A*A^-1 deviation from unit magnitude is 3.11D-15 for   2355.
 Iteration    1 A*A^-1 deviation from orthogonality  is 2.44D-15 for   3837    369.
 Iteration    1 A^-1*A deviation from unit magnitude is 3.11D-15 for   2896.
 Iteration    1 A^-1*A deviation from orthogonality  is 1.90D-15 for   3569   2885.
 Error on total polarization charges =  0.01056
 SCF Done:  E(RB3LYP) =  -1899.94648611     A.U. after   12 cycles
            NFock= 12  Conv=0.85D-08     -V/T= 2.0086
 QCSCF skips out because SCF is already converged.
 DoSCS=F DFT=T ScalE2(SS,OS)=  1.000000  1.000000
 Range of M.O.s used for correlation:     1   655
 NBasis=   655 NAE=   133 NBE=   133 NFC=     0 NFV=     0
 NROrb=    655 NOA=   133 NOB=   133 NVA=   522 NVB=   522

 **** Warning!!: The largest alpha MO coefficient is  0.10555595D+02

 Symmetrizing basis deriv contribution to polar:
 IMax=3 JMax=2 DiffMx= 0.00D+00
 G2DrvN: will do    58 centers at a time, making    1 passes.
 Calling FoFCou, ICntrl=  3107 FMM=F I1Cent=   0 AccDes= 0.00D+00.
 NEqPCM:  Using equilibrium solvation (IEInf=0, Eps=  78.3553, EpsInf=   1.7778)
 G2PCM: DoFxE=T DoFxN=T DoGrad=T DoDP/DQ/DG/TGxP=FFFF NFrqRd=   0 IEInf=0 SqF1=F DoCFld=F IF1Alg=4.
 End of G2Drv F.D. properties file   721 does not exist.
 End of G2Drv F.D. properties file   722 does not exist.
 End of G2Drv F.D. properties file   788 does not exist.
          IDoAtm=11111111111111111111111111111111111111111111111111
          IDoAtm=1111111
 NEqPCM:  Using equilibrium solvation (IEInf=0, Eps=  78.3553, EpsInf=   1.7778)
          Differentiating once with respect to nuclear coordinates.
 CalDSu exits because no D1Ps are significant.
          There are   174 degrees of freedom in the 1st order CPHF.  IDoFFX=6 NUNeed=     0.
    168 vectors produced by pass  0 Test12= 6.94D-14 1.00D-09 XBig12= 1.62D-01 1.20D-01.
 AX will form   168 AO Fock derivatives at one time.
    168 vectors produced by pass  1 Test12= 6.94D-14 1.00D-09 XBig12= 1.42D-02 1.87D-02.
    168 vectors produced by pass  2 Test12= 6.94D-14 1.00D-09 XBig12= 1.93D-04 1.30D-03.
    168 vectors produced by pass  3 Test12= 6.94D-14 1.00D-09 XBig12= 1.03D-06 8.85D-05.
    168 vectors produced by pass  4 Test12= 6.94D-14 1.00D-09 XBig12= 3.55D-09 4.73D-06.
    135 vectors produced by pass  5 Test12= 6.94D-14 1.00D-09 XBig12= 4.21D-12 1.63D-07.
     39 vectors produced by pass  6 Test12= 6.94D-14 1.00D-09 XBig12= 4.13D-15 4.37D-09.
 InvSVY:  IOpt=1 It=  1 EMax= 5.64D-16
 Solved reduced A of dimension  1014 with   174 vectors.
 End of Minotr F.D. properties file   721 does not exist.
 End of Minotr F.D. properties file   722 does not exist.
 End of Minotr F.D. properties file   788 does not exist.

 **********************************************************************

            Population analysis using the SCF density.

 **********************************************************************

 Orbital symmetries:
       Occupied  (A) (A) (A) (A) (A) (A) (A) (A) (A) (A) (A) (A)
                 (A) (A) (A) (A) (A) (A) (A) (A) (A) (A) (A) (A)
                 (A) (A) (A) (A) (A) (A) (A) (A) (A) (A) (A) (A)
                 (A) (A) (A) (A) (A) (A) (A) (A) (A) (A) (A) (A)
                 (A) (A) (A) (A) (A) (A) (A) (A) (A) (A) (A) (A)
                 (A) (A) (A) (A) (A) (A) (A) (A) (A) (A) (A) (A)
                 (A) (A) (A) (A) (A) (A) (A) (A) (A) (A) (A) (A)
                 (A) (A) (A) (A) (A) (A) (A) (A) (A) (A) (A) (A)
                 (A) (A) (A) (A) (A) (A) (A) (A) (A) (A) (A) (A)
                 (A) (A) (A) (A) (A) (A) (A) (A) (A) (A) (A) (A)
                 (A) (A) (A) (A) (A) (A) (A) (A) (A) (A) (A) (A)
                 (A)
       Virtual   (A) (A) (A) (A) (A) (A) (A) (A) (A) (A) (A) (A)
                 (A) (A) (A) (A) (A) (A) (A) (A) (A) (A) (A) (A)
                 (A) (A) (A) (A) (A) (A) (A) (A) (A) (A) (A) (A)
                 (A) (A) (A) (A) (A) (A) (A) (A) (A) (A) (A) (A)
                 (A) (A) (A) (A) (A) (A) (A) (A) (A) (A) (A) (A)
                 (A) (A) (A) (A) (A) (A) (A) (A) (A) (A) (A) (A)
                 (A) (A) (A) (A) (A) (A) (A) (A) (A) (A) (A) (A)
                 (A) (A) (A) (A) (A) (A) (A) (A) (A) (A) (A) (A)
                 (A) (A) (A) (A) (A) (A) (A) (A) (A) (A) (A) (A)
                 (A) (A) (A) (A) (A) (A) (A) (A) (A) (A) (A) (A)
                 (A) (A) (A) (A) (A) (A) (A) (A) (A) (A) (A) (A)
                 (A) (A) (A) (A) (A) (A) (A) (A) (A) (A) (A) (A)
                 (A) (A) (A) (A) (A) (A) (A) (A) (A) (A) (A) (A)
                 (A) (A) (A) (A) (A) (A) (A) (A) (A) (A) (A) (A)
                 (A) (A) (A) (A) (A) (A) (A) (A) (A) (A) (A) (A)
                 (A) (A) (A) (A) (A) (A) (A) (A) (A) (A) (A) (A)
                 (A) (A) (A) (A) (A) (A) (A) (A) (A) (A) (A) (A)
                 (A) (A) (A) (A) (A) (A) (A) (A) (A) (A) (A) (A)
                 (A) (A) (A) (A) (A) (A) (A) (A) (A) (A) (A) (A)
                 (A) (A) (A) (A) (A) (A) (A) (A) (A) (A) (A) (A)
                 (A) (A) (A) (A) (A) (A) (A) (A) (A) (A) (A) (A)
                 (A) (A) (A) (A) (A) (A) (A) (A) (A) (A) (A) (A)
                 (A) (A) (A) (A) (A) (A) (A) (A) (A) (A) (A) (A)
                 (A) (A) (A) (A) (A) (A) (A) (A) (A) (A) (A) (A)
                 (A) (A) (A) (A) (A) (A) (A) (A) (A) (A) (A) (A)
                 (A) (A) (A) (A) (A) (A) (A) (A) (A) (A) (A) (A)
                 (A) (A) (A) (A) (A) (A) (A) (A) (A) (A) (A) (A)
                 (A) (A) (A) (A) (A) (A) (A) (A) (A) (A) (A) (A)
                 (A) (A) (A) (A) (A) (A) (A) (A) (A) (A) (A) (A)
                 (A) (A) (A) (A) (A) (A) (A) (A) (A) (A) (A) (A)
                 (A) (A) (A) (A) (A) (A) (A) (A) (A) (A) (A) (A)
                 (A) (A) (A) (A) (A) (A) (A) (A) (A) (A) (A) (A)
                 (A) (A) (A) (A) (A) (A) (A) (A) (A) (A) (A) (A)
                 (A) (A) (A) (A) (A) (A) (A) (A) (A) (A) (A) (A)
                 (A) (A) (A) (A) (A) (A) (A) (A) (A) (A) (A) (A)
                 (A) (A) (A) (A) (A) (A) (A) (A) (A) (A) (A) (A)
                 (A) (A) (A) (A) (A) (A) (A) (A) (A) (A) (A) (A)
                 (A) (A) (A) (A) (A) (A) (A) (A) (A) (A) (A) (A)
                 (A) (A) (A) (A) (A) (A) (A) (A) (A) (A) (A) (A)
                 (A) (A) (A) (A) (A) (A) (A) (A) (A) (A) (A) (A)
                 (A) (A) (A) (A) (A) (A) (A) (A) (A) (A) (A) (A)
                 (A) (A) (A) (A) (A) (A) (A) (A) (A) (A) (A) (A)
                 (A) (A) (A) (A) (A) (A) (A) (A) (A) (A) (A) (A)
                 (A) (A) (A) (A) (A) (A)
 The electronic state is 1-A.
 Alpha  occ. eigenvalues --  -24.74029 -24.74022 -24.73873 -24.73860 -24.73802
 Alpha  occ. eigenvalues --  -24.73788 -19.18952 -19.18929 -14.33598 -14.33592
 Alpha  occ. eigenvalues --  -10.45160 -10.45158 -10.26892 -10.25880 -10.25864
 Alpha  occ. eigenvalues --  -10.24164 -10.24159 -10.22677 -10.22675 -10.22336
 Alpha  occ. eigenvalues --  -10.22331 -10.20801 -10.20743 -10.20740 -10.20687
 Alpha  occ. eigenvalues --  -10.20064 -10.20000 -10.19843 -10.19783 -10.19328
 Alpha  occ. eigenvalues --  -10.19327 -10.19096 -10.19096 -10.18801 -10.18801
 Alpha  occ. eigenvalues --  -10.18720 -10.18717  -1.32202  -1.31232  -1.23402
 Alpha  occ. eigenvalues --   -1.22970  -1.22435  -1.22393  -1.08400  -1.08391
 Alpha  occ. eigenvalues --   -0.91462  -0.91446  -0.89126  -0.86518  -0.84713
 Alpha  occ. eigenvalues --   -0.83691  -0.83097  -0.76440  -0.76113  -0.75788
 Alpha  occ. eigenvalues --   -0.75593  -0.74831  -0.74804  -0.71885  -0.71700
 Alpha  occ. eigenvalues --   -0.71253  -0.67034  -0.63891  -0.63708  -0.62987
 Alpha  occ. eigenvalues --   -0.62493  -0.61968  -0.61847  -0.60399  -0.60143
 Alpha  occ. eigenvalues --   -0.59354  -0.58873  -0.58353  -0.58344  -0.56626
 Alpha  occ. eigenvalues --   -0.54990  -0.54947  -0.53750  -0.51565  -0.51419
 Alpha  occ. eigenvalues --   -0.50948  -0.50655  -0.50134  -0.48807  -0.48392
 Alpha  occ. eigenvalues --   -0.47949  -0.47485  -0.47057  -0.46680  -0.45770
 Alpha  occ. eigenvalues --   -0.45614  -0.45445  -0.45168  -0.44660  -0.44327
 Alpha  occ. eigenvalues --   -0.44217  -0.43615  -0.43564  -0.42882  -0.42750
 Alpha  occ. eigenvalues --   -0.42434  -0.42262  -0.41844  -0.41730  -0.41569
 Alpha  occ. eigenvalues --   -0.41206  -0.41059  -0.40404  -0.39816  -0.39548
 Alpha  occ. eigenvalues --   -0.39430  -0.39075  -0.38604  -0.37995  -0.37563
 Alpha  occ. eigenvalues --   -0.37137  -0.36549  -0.35985  -0.35683  -0.34852
 Alpha  occ. eigenvalues --   -0.34619  -0.33327  -0.32918  -0.29861  -0.29606
 Alpha  occ. eigenvalues --   -0.26561  -0.26340  -0.25545  -0.25442  -0.24896
 Alpha  occ. eigenvalues --   -0.23762  -0.19799  -0.19746
 Alpha virt. eigenvalues --   -0.02351  -0.01987  -0.01870  -0.01037  -0.00434
 Alpha virt. eigenvalues --   -0.00178   0.01872   0.01967   0.08332   0.08427
 Alpha virt. eigenvalues --    0.09059   0.09073   0.10259   0.10487   0.10873
 Alpha virt. eigenvalues --    0.11513   0.12432   0.12891   0.13069   0.13081
 Alpha virt. eigenvalues --    0.13821   0.14202   0.15274   0.15924   0.15957
 Alpha virt. eigenvalues --    0.16608   0.16764   0.17074   0.17102   0.17165
 Alpha virt. eigenvalues --    0.17323   0.17601   0.17848   0.17994   0.19244
 Alpha virt. eigenvalues --    0.19651   0.19979   0.20131   0.20232   0.21573
 Alpha virt. eigenvalues --    0.23587   0.24105   0.24682   0.24746   0.25731
 Alpha virt. eigenvalues --    0.25791   0.26129   0.27314   0.29432   0.31280
 Alpha virt. eigenvalues --    0.32157   0.32429   0.33203   0.33334   0.33657
 Alpha virt. eigenvalues --    0.33743   0.33936   0.34091   0.34403   0.35052
 Alpha virt. eigenvalues --    0.36458   0.36662   0.36765   0.37116   0.44393
 Alpha virt. eigenvalues --    0.44677   0.46514   0.46782   0.48285   0.48391
 Alpha virt. eigenvalues --    0.48586   0.49230   0.49758   0.49909   0.50333
 Alpha virt. eigenvalues --    0.51280   0.51567   0.52100   0.52584   0.52834
 Alpha virt. eigenvalues --    0.53220   0.53405   0.54057   0.54398   0.54925
 Alpha virt. eigenvalues --    0.55014   0.55640   0.56571   0.56775   0.57286
 Alpha virt. eigenvalues --    0.57715   0.57795   0.58134   0.58318   0.58845
 Alpha virt. eigenvalues --    0.59001   0.59282   0.59494   0.59820   0.59947
 Alpha virt. eigenvalues --    0.60118   0.60359   0.60768   0.60957   0.61230
 Alpha virt. eigenvalues --    0.61998   0.62056   0.62442   0.63047   0.63623
 Alpha virt. eigenvalues --    0.64029   0.64703   0.65847   0.66099   0.66834
 Alpha virt. eigenvalues --    0.67161   0.67845   0.68834   0.68985   0.69530
 Alpha virt. eigenvalues --    0.70070   0.70990   0.72146   0.73197   0.74278
 Alpha virt. eigenvalues --    0.75470   0.75583   0.75909   0.76910   0.77383
 Alpha virt. eigenvalues --    0.78181   0.78420   0.80234   0.80453   0.80968
 Alpha virt. eigenvalues --    0.81326   0.81787   0.81828   0.82090   0.82472
 Alpha virt. eigenvalues --    0.83335   0.83612   0.84031   0.84454   0.84551
 Alpha virt. eigenvalues --    0.84982   0.85820   0.85995   0.86215   0.86456
 Alpha virt. eigenvalues --    0.87461   0.87866   0.88659   0.89497   0.89644
 Alpha virt. eigenvalues --    0.89679   0.89984   0.90819   0.91275   0.91472
 Alpha virt. eigenvalues --    0.92903   0.93165   0.94180   0.97660   0.98568
 Alpha virt. eigenvalues --    0.98826   0.99209   0.99275   0.99712   0.99753
 Alpha virt. eigenvalues --    1.00510   1.00777   1.02565   1.03566   1.03875
 Alpha virt. eigenvalues --    1.04288   1.05600   1.05848   1.07118   1.08049
 Alpha virt. eigenvalues --    1.08388   1.09667   1.10227   1.11136   1.11573
 Alpha virt. eigenvalues --    1.11840   1.11933   1.13039   1.14123   1.14364
 Alpha virt. eigenvalues --    1.15062   1.15580   1.16015   1.16262   1.17551
 Alpha virt. eigenvalues --    1.17926   1.18663   1.19118   1.20053   1.20961
 Alpha virt. eigenvalues --    1.21227   1.22594   1.23730   1.25079   1.25834
 Alpha virt. eigenvalues --    1.26128   1.27050   1.27748   1.28225   1.29154
 Alpha virt. eigenvalues --    1.29639   1.30725   1.31648   1.32553   1.32691
 Alpha virt. eigenvalues --    1.33356   1.33926   1.34539   1.35126   1.35745
 Alpha virt. eigenvalues --    1.36018   1.36840   1.36918   1.37924   1.38064
 Alpha virt. eigenvalues --    1.38295   1.38995   1.39352   1.39632   1.39671
 Alpha virt. eigenvalues --    1.39778   1.40178   1.40373   1.40705   1.41397
 Alpha virt. eigenvalues --    1.41558   1.42719   1.43166   1.44617   1.45253
 Alpha virt. eigenvalues --    1.45885   1.46548   1.47241   1.47916   1.49814
 Alpha virt. eigenvalues --    1.49973   1.50946   1.52091   1.52212   1.56353
 Alpha virt. eigenvalues --    1.57686   1.58297   1.62143   1.62692   1.65628
 Alpha virt. eigenvalues --    1.65837   1.67693   1.67847   1.69937   1.70467
 Alpha virt. eigenvalues --    1.72898   1.73061   1.73293   1.74889   1.75371
 Alpha virt. eigenvalues --    1.75632   1.76391   1.77162   1.77331   1.78357
 Alpha virt. eigenvalues --    1.78527   1.79459   1.79893   1.80152   1.80316
 Alpha virt. eigenvalues --    1.80537   1.81344   1.82282   1.83193   1.83311
 Alpha virt. eigenvalues --    1.84016   1.84707   1.85188   1.85583   1.85710
 Alpha virt. eigenvalues --    1.86371   1.86745   1.87394   1.88179   1.88645
 Alpha virt. eigenvalues --    1.90224   1.90376   1.90519   1.90763   1.91394
 Alpha virt. eigenvalues --    1.91599   1.91661   1.92207   1.92456   1.92604
 Alpha virt. eigenvalues --    1.93027   1.95008   1.95448   1.95722   1.95976
 Alpha virt. eigenvalues --    1.96168   1.97335   1.97419   1.97661   1.97833
 Alpha virt. eigenvalues --    1.98419   1.98857   1.99123   1.99865   2.00117
 Alpha virt. eigenvalues --    2.00562   2.01336   2.01441   2.01867   2.02172
 Alpha virt. eigenvalues --    2.03084   2.05393   2.05789   2.06086   2.06322
 Alpha virt. eigenvalues --    2.06697   2.06768   2.08879   2.08960   2.10301
 Alpha virt. eigenvalues --    2.10561   2.11292   2.12494   2.13045   2.13969
 Alpha virt. eigenvalues --    2.14595   2.16506   2.16604   2.17104   2.18992
 Alpha virt. eigenvalues --    2.19815   2.21549   2.23680   2.23792   2.24077
 Alpha virt. eigenvalues --    2.24248   2.25353   2.26171   2.26403   2.26651
 Alpha virt. eigenvalues --    2.26713   2.27249   2.27734   2.29499   2.30038
 Alpha virt. eigenvalues --    2.30123   2.30307   2.31518   2.32054   2.32801
 Alpha virt. eigenvalues --    2.32988   2.33476   2.34642   2.35024   2.35678
 Alpha virt. eigenvalues --    2.35884   2.36053   2.38023   2.40779   2.41126
 Alpha virt. eigenvalues --    2.41143   2.41271   2.41745   2.41802   2.42139
 Alpha virt. eigenvalues --    2.43924   2.44492   2.45069   2.45265   2.45863
 Alpha virt. eigenvalues --    2.45969   2.46478   2.46580   2.47685   2.48027
 Alpha virt. eigenvalues --    2.48613   2.49179   2.49430   2.50462   2.51124
 Alpha virt. eigenvalues --    2.51987   2.52707   2.53900   2.54432   2.55800
 Alpha virt. eigenvalues --    2.55887   2.56061   2.56979   2.57291   2.57842
 Alpha virt. eigenvalues --    2.58294   2.58576   2.58585   2.59025   2.59540
 Alpha virt. eigenvalues --    2.59600   2.60623   2.63257   2.63736   2.65340
 Alpha virt. eigenvalues --    2.65685   2.67374   2.69498   2.70256   2.71636
 Alpha virt. eigenvalues --    2.71709   2.73319   2.73771   2.73967   2.74730
 Alpha virt. eigenvalues --    2.75676   2.76692   2.77934   2.79156   2.79631
 Alpha virt. eigenvalues --    2.80478   2.80808   2.82707   2.83223   2.84200
 Alpha virt. eigenvalues --    2.84524   2.85072   2.85925   2.88109   2.89165
 Alpha virt. eigenvalues --    2.89973   2.91193   2.96312   2.97370   2.98290
 Alpha virt. eigenvalues --    2.98414   2.98827   2.98928   3.01623   3.03875
 Alpha virt. eigenvalues --    3.03993   3.05633   3.06004   3.07798   3.08542
 Alpha virt. eigenvalues --    3.11030   3.11572   3.11984   3.14376   3.17122
 Alpha virt. eigenvalues --    3.17907   3.18380   3.19344   3.21301   3.22751
 Alpha virt. eigenvalues --    3.24348   3.24565   3.24879   3.24910   3.25692
 Alpha virt. eigenvalues --    3.28261   3.28269   3.30792   3.31338   3.35073
 Alpha virt. eigenvalues --    3.35306   3.36801   3.37128   3.37609   3.37799
 Alpha virt. eigenvalues --    3.48508   3.48646   3.48870   3.49718   3.54312
 Alpha virt. eigenvalues --    3.54327   3.78441   3.79507   3.83557   3.83648
 Alpha virt. eigenvalues --    4.03712   4.03753   4.12932   4.13302   4.13457
 Alpha virt. eigenvalues --    4.13594   4.14387   4.15011   4.15766   4.16210
 Alpha virt. eigenvalues --    4.17488   4.18370   4.21373   4.22464   4.35925
 Alpha virt. eigenvalues --    4.40489   4.41721   4.42637   4.44295   4.44866
 Alpha virt. eigenvalues --    4.45106   4.45605   4.45781   4.55149   4.57670
 Alpha virt. eigenvalues --    4.64697   4.69003   4.79132   4.81006   4.84604
 Alpha virt. eigenvalues --    4.86103   4.88272   5.06550   5.24011   5.55004
 Alpha virt. eigenvalues --    5.56811   6.58500
          Condensed to atoms (all electrons):
 Mulliken charges:
               1
     1  F   -0.268617
     2  C    0.859515
     3  C   -0.311807
     4  C    0.088002
     5  C   -0.118098
     6  C   -0.132482
     7  C    0.327623
     8  O   -0.583329
     9  C    0.290178
    10  C   -0.132126
    11  C   -0.140112
    12  C    0.258736
    13  N   -0.672061
    14  C   -0.140727
    15  C   -0.117085
    16  C   -0.122705
    17  C   -0.134476
    18  C    0.088235
    19  C   -0.119835
    20  C   -0.114920
    21  C    0.326998
    22  O   -0.583061
    23  C    0.289228
    24  C   -0.117130
    25  C   -0.140733
    26  C    0.258861
    27  N   -0.672089
    28  C   -0.140294
    29  C   -0.131700
    30  C   -0.139584
    31  C   -0.132927
    32  C    0.860054
    33  F   -0.271992
    34  F   -0.276471
    35  F   -0.268996
    36  F   -0.276585
    37  F   -0.271960
    38  H    0.118300
    39  H    0.116447
    40  H    0.104934
    41  H    0.101027
    42  H    0.277339
    43  H    0.277455
    44  H    0.102361
    45  H    0.109490
    46  H    0.119366
    47  H    0.115407
    48  H    0.119281
    49  H    0.120581
    50  H    0.109467
    51  H    0.102438
    52  H    0.277462
    53  H    0.277415
    54  H    0.100997
    55  H    0.104962
    56  H    0.115239
    57  H    0.114504
 Sum of Mulliken charges =  -0.00000
 Mulliken charges with hydrogens summed into heavy atoms:
               1
     1  F   -0.268617
     2  C    0.859515
     3  C   -0.311807
     4  C    0.088002
     5  C    0.000201
     6  C   -0.016035
     7  C    0.327623
     8  O   -0.583329
     9  C    0.290178
    10  C   -0.027192
    11  C   -0.039085
    12  C    0.258736
    13  N   -0.117267
    14  C   -0.038366
    15  C   -0.007595
    16  C   -0.003339
    17  C   -0.019069
    18  C    0.088235
    19  C   -0.000554
    20  C    0.005661
    21  C    0.326998
    22  O   -0.583061
    23  C    0.289228
    24  C   -0.007662
    25  C   -0.038295
    26  C    0.258861
    27  N   -0.117212
    28  C   -0.039297
    29  C   -0.026738
    30  C   -0.024345
    31  C   -0.018423
    32  C    0.860054
    33  F   -0.271992
    34  F   -0.276471
    35  F   -0.268996
    36  F   -0.276585
    37  F   -0.271960
 APT charges:
               1
     1  F    0.166618
     2  C   -0.150774
     3  C   -0.450961
     4  C   -0.417114
     5  C   -0.536822
     6  C   -0.512642
     7  C    0.241409
     8  O   -0.301198
     9  C   -0.873732
    10  C   -0.561581
    11  C   -0.216971
    12  C    0.788904
    13  N   -2.276857
    14  C   -0.240124
    15  C   -0.772942
    16  C   -0.456088
    17  C   -0.569463
    18  C   -0.537319
    19  C   -0.566613
    20  C   -0.445336
    21  C    0.249565
    22  O   -0.178268
    23  C   -0.710289
    24  C   -0.800082
    25  C   -0.261440
    26  C    0.696169
    27  N   -2.356695
    28  C   -0.239857
    29  C   -0.539149
    30  C   -0.492126
    31  C   -0.520447
    32  C   -0.057558
    33  F    0.142654
    34  F   -0.143641
    35  F    0.212683
    36  F    0.013686
    37  F    0.213843
    38  H    0.362875
    39  H    0.634437
    40  H    0.274219
    41  H    1.117347
    42  H    1.114544
    43  H    1.574645
    44  H    0.701841
    45  H   -0.129642
    46  H    0.667035
    47  H    0.412793
    48  H    0.172260
    49  H    0.480530
    50  H   -0.091549
    51  H    0.598960
    52  H    1.085379
    53  H    1.602872
    54  H    1.069299
    55  H    0.373512
    56  H    0.876136
    57  H    0.563065
 Sum of APT charges =  -0.00000
 APT charges with hydrogens summed into heavy atoms:
               1
     1  F    0.166618
     2  C   -0.150774
     3  C   -0.450961
     4  C   -0.417114
     5  C   -0.173947
     6  C    0.121795
     7  C    0.241409
     8  O   -0.301198
     9  C   -0.873732
    10  C   -0.287362
    11  C    0.900375
    12  C    0.788904
    13  N    0.412332
    14  C    0.461716
    15  C   -0.902585
    16  C    0.210947
    17  C   -0.156670
    18  C   -0.537319
    19  C   -0.394353
    20  C    0.035195
    21  C    0.249565
    22  O   -0.178268
    23  C   -0.710289
    24  C   -0.891631
    25  C    0.337520
    26  C    0.696169
    27  N    0.331556
    28  C    0.829441
    29  C   -0.165637
    30  C    0.384009
    31  C    0.042618
    32  C   -0.057558
    33  F    0.142654
    34  F   -0.143641
    35  F    0.212683
    36  F    0.013686
    37  F    0.213843
 Electronic spatial extent (au):  <R**2>=          27539.0219
 Charge=              0.0000 electrons
 Dipole moment (field-independent basis, Debye):
    X=              0.2431    Y=             -3.0560    Z=              0.7477  Tot=              3.1555
 Quadrupole moment (field-independent basis, Debye-Ang):
   XX=           -111.6779   YY=           -201.6016   ZZ=           -206.9696
   XY=              5.4490   XZ=             -9.3042   YZ=             -6.0556
 Traceless Quadrupole moment (field-independent basis, Debye-Ang):
   XX=             61.7384   YY=            -28.1852   ZZ=            -33.5532
   XY=              5.4490   XZ=             -9.3042   YZ=             -6.0556
 Octapole moment (field-independent basis, Debye-Ang**2):
  XXX=            146.8749  YYY=             24.9874  ZZZ=             20.2953  XYY=            -23.5983
  XXY=           -223.6047  XXZ=            158.5908  XZZ=            -41.2539  YZZ=             40.3454
  YYZ=              3.5826  XYZ=            -17.9295
 Hexadecapole moment (field-independent basis, Debye-Ang**3):
 XXXX=         -17226.9499 YYYY=          -4855.5442 ZZZZ=          -1808.8334 XXXY=            681.8191
 XXXZ=          -1096.9474 YYYX=             64.4100 YYYZ=             11.2473 ZZZX=           -139.0678
 ZZZY=             49.2097 XXYY=          -4523.8860 XXZZ=          -5214.8953 YYZZ=          -1164.1671
 XXYZ=           -335.1429 YYXZ=            185.4983 ZZXY=             29.7519
 N-N= 3.943401556197D+03 E-N=-1.233687657107D+04  KE= 1.883778543225D+03
  Exact polarizability:   0.000   0.000   0.000   0.000   0.000   0.000
 Approx polarizability: 522.196  23.150 474.732  38.141 -20.183 413.360
 D2PCM: PCM CHGder 2nd derivatives, FixD1E=F FixD2E=F DoIter=F DoCFld=F I1PDM=0
 Calling FoFJK, ICntrl=    100147 FMM=F ISym2X=0 I1Cent= 0 IOpClX= 0 NMat=1 NMatS=1 NMatT=0.
 ***** Axes restored to original set *****
 -------------------------------------------------------------------
 Center     Atomic                   Forces (Hartrees/Bohr)
 Number     Number              X              Y              Z
 -------------------------------------------------------------------
      1        9          -0.005132158   -0.004580407    0.003072760
      2        6           0.005121712   -0.020574667   -0.017363703
      3        6          -0.001508580   -0.003897612    0.005491747
      4        6           0.002083622    0.004392554    0.001380476
      5        6          -0.003263755    0.001180908    0.000353744
      6        6          -0.007277750   -0.001566072   -0.007583284
      7        6          -0.003009890   -0.001225036    0.000815715
      8        8          -0.009421250   -0.004308086   -0.003195246
      9        6           0.010040764    0.003501278    0.006042355
     10        6           0.006163455    0.004290138    0.001546719
     11        6          -0.007247487   -0.007949792    0.006207474
     12        6           0.004293451    0.016789523   -0.000827957
     13        7           0.001979856   -0.003002442    0.000436637
     14        6          -0.007353493   -0.008146253   -0.005610539
     15        6           0.004458003    0.001826619   -0.001851929
     16        6          -0.000532715    0.005412966   -0.001733396
     17        6           0.002433981   -0.000523424    0.001153128
     18        6          -0.001463108   -0.002501014   -0.004486568
     19        6           0.001725209   -0.000747847   -0.000737187
     20        6           0.006372066    0.005676177    0.002958573
     21        6           0.001187743   -0.004661897   -0.005895809
     22        8           0.006754795   -0.004363846   -0.007008472
     23        6          -0.008352440    0.001855449    0.008645370
     24        6          -0.002504005    0.004473406    0.001101741
     25        6           0.003975962   -0.002964646   -0.011318513
     26        6           0.004432707    0.010182848    0.013140486
     27        7          -0.003332400   -0.000604559   -0.001479910
     28        6           0.000747125   -0.011831320   -0.003987824
     29        6          -0.003842593    0.004004463    0.005483693
     30        6           0.005092080    0.000694345   -0.004704596
     31        6          -0.001450997   -0.001319063   -0.000267340
     32        6          -0.004072867    0.024066022    0.011983346
     33        9          -0.002777387    0.001459979    0.001794463
     34        9           0.000692348   -0.003502372   -0.001732500
     35        9           0.002983632   -0.002379298    0.006770143
     36        9          -0.000852088    0.002943171    0.002618336
     37        9           0.002344585   -0.002553588   -0.000003851
     38        1           0.001506789    0.004661582    0.001102499
     39        1           0.001066522    0.001812164   -0.000093827
     40        1          -0.000921942    0.000184600   -0.001576989
     41        1           0.001304634   -0.000822582   -0.000434688
     42        1           0.000604765    0.000395556    0.003976844
     43        1           0.001282938   -0.000401372   -0.003862231
     44        1           0.001063640   -0.000849023    0.000764779
     45        1          -0.000988925    0.000744655    0.001088863
     46        1          -0.000328051   -0.002178646   -0.001257830
     47        1          -0.001942790   -0.004787564   -0.001020286
     48        1          -0.000681422   -0.002770699   -0.004275606
     49        1          -0.000561802   -0.000001087   -0.002101598
     50        1           0.000892672   -0.001004814    0.001031794
     51        1          -0.001445367   -0.000442403    0.000119862
     52        1          -0.001362716   -0.002541117    0.002909394
     53        1          -0.000202109    0.003417378   -0.002388305
     54        1          -0.001432450    0.000567694   -0.000458245
     55        1           0.001428607    0.000609510   -0.000947833
     56        1           0.000155289    0.001356918    0.001721602
     57        1           0.001073585    0.002502646    0.004493520
 -------------------------------------------------------------------
 Cartesian Forces:  Max     0.024066022 RMS     0.005013080
 FormGI is forming the generalized inverse of G from B-inverse, IUseBI=4.

 GradGradGradGradGradGradGradGradGradGradGradGradGradGradGradGradGradGrad
 Berny optimization.
 Internal  Forces:  Max     0.024873381 RMS     0.004067644
 Search for a local minimum.
 Step number   1 out of a maximum of  310
 All quantities printed in internal units (Hartrees-Bohrs-Radians)
 Mixed Optimization -- RFO/linear search
 Second derivative matrix not updated -- analytic derivatives used.
 ITU=  0
     Eigenvalues ---    0.00038   0.00072   0.00197   0.00292   0.00496
     Eigenvalues ---    0.00504   0.00700   0.00718   0.00861   0.01496
     Eigenvalues ---    0.01575   0.01621   0.01635   0.01730   0.01732
     Eigenvalues ---    0.01742   0.01747   0.01770   0.01800   0.01808
     Eigenvalues ---    0.01811   0.01844   0.01851   0.01886   0.02120
     Eigenvalues ---    0.02123   0.02128   0.02139   0.02182   0.02192
     Eigenvalues ---    0.02305   0.02307   0.02365   0.02371   0.02576
     Eigenvalues ---    0.02580   0.02691   0.02727   0.02735   0.02751
     Eigenvalues ---    0.02760   0.02790   0.02805   0.02805   0.02868
     Eigenvalues ---    0.02888   0.03044   0.03077   0.06152   0.06809
     Eigenvalues ---    0.07189   0.09603   0.10002   0.10814   0.10829
     Eigenvalues ---    0.10892   0.10936   0.11248   0.11267   0.11434
     Eigenvalues ---    0.11484   0.11715   0.11759   0.11811   0.11993
     Eigenvalues ---    0.12051   0.12147   0.12549   0.12555   0.12864
     Eigenvalues ---    0.13036   0.13561   0.13587   0.14042   0.15417
     Eigenvalues ---    0.15599   0.17464   0.17649   0.17662   0.17779
     Eigenvalues ---    0.17831   0.18013   0.18032   0.18146   0.19382
     Eigenvalues ---    0.19390   0.19881   0.19894   0.20549   0.20640
     Eigenvalues ---    0.20674   0.21812   0.22087   0.22179   0.22708
     Eigenvalues ---    0.22846   0.22972   0.23186   0.24517   0.24798
     Eigenvalues ---    0.25338   0.26536   0.27323   0.27813   0.29025
     Eigenvalues ---    0.30814   0.32168   0.32530   0.32615   0.32747
     Eigenvalues ---    0.32849   0.33844   0.34153   0.34560   0.34585
     Eigenvalues ---    0.35081   0.35172   0.35679   0.35683   0.35803
     Eigenvalues ---    0.35875   0.35934   0.35946   0.36024   0.36054
     Eigenvalues ---    0.36076   0.36122   0.36165   0.36369   0.36528
     Eigenvalues ---    0.36846   0.37313   0.38189   0.38939   0.40053
     Eigenvalues ---    0.40567   0.41164   0.41343   0.41484   0.41826
     Eigenvalues ---    0.43330   0.43408   0.44585   0.44683   0.45466
     Eigenvalues ---    0.45520   0.45930   0.45969   0.46601   0.46701
     Eigenvalues ---    0.46868   0.46975   0.47277   0.47363   0.47746
     Eigenvalues ---    0.47763   0.48802   0.48857   0.50495   0.51600
     Eigenvalues ---    0.51664   0.52212   0.52787   0.52848   0.63705
 RFO step:  Lambda=-1.61408026D-02 EMin= 3.76202404D-04
 Linear search not attempted -- first point.
 Iteration  1 RMS(Cart)=  0.15869105 RMS(Int)=  0.00293867
 Iteration  2 RMS(Cart)=  0.00805370 RMS(Int)=  0.00016886
 Iteration  3 RMS(Cart)=  0.00002173 RMS(Int)=  0.00016867
 Iteration  4 RMS(Cart)=  0.00000000 RMS(Int)=  0.00016867
 Variable       Old X    -DE/DX   Delta X   Delta X   Delta X     New X
                                 (Linear)    (Quad)   (Total)
    R1        2.55853  -0.00688   0.00000  -0.01428  -0.01428   2.54425
    R2        2.90257   0.01795   0.00000   0.03731   0.03731   2.93988
    R3        2.56792  -0.00321   0.00000  -0.01657  -0.01657   2.55135
    R4        2.55780  -0.00223   0.00000  -0.00372  -0.00372   2.55407
    R5        2.94631  -0.00847   0.00000  -0.02361  -0.02361   2.92271
    R6        2.94662  -0.00855   0.00000  -0.02407  -0.02407   2.92255
    R7        2.90317   0.01789   0.00000   0.03668   0.03668   2.93984
    R8        2.66885  -0.00879   0.00000  -0.01475  -0.01474   2.65411
    R9        2.65837  -0.00454   0.00000  -0.00906  -0.00904   2.64933
   R10        2.64014  -0.00509   0.00000  -0.01235  -0.01236   2.62777
   R11        2.06007  -0.00450   0.00000  -0.01244  -0.01244   2.04763
   R12        2.62773   0.00531   0.00000   0.01168   0.01166   2.63939
   R13        2.05420  -0.00173   0.00000  -0.00424  -0.00424   2.04996
   R14        2.59982   0.00425   0.00000   0.00133   0.00133   2.60114
   R15        2.63387   0.00084   0.00000   0.00407   0.00406   2.63793
   R16        2.59953   0.01612   0.00000   0.03304   0.03304   2.63257
   R17        2.63251   0.00254   0.00000   0.00122   0.00117   2.63368
   R18        2.63650   0.00137   0.00000   0.00193   0.00188   2.63838
   R19        2.64049  -0.00230   0.00000  -0.00690  -0.00691   2.63358
   R20        2.05269  -0.00081   0.00000  -0.00177  -0.00177   2.05092
   R21        2.64182   0.00696   0.00000   0.01512   0.01516   2.65698
   R22        2.05359  -0.00014   0.00000  -0.00030  -0.00030   2.05329
   R23        2.64492   0.00226   0.00000  -0.00327  -0.00327   2.64164
   R24        2.64206   0.00740   0.00000   0.01655   0.01661   2.65867
   R25        1.91843  -0.00273   0.00000  -0.00527  -0.00527   1.91316
   R26        1.91862  -0.00284   0.00000  -0.00560  -0.00560   1.91302
   R27        2.64150  -0.00284   0.00000  -0.00941  -0.00940   2.63210
   R28        2.05363  -0.00017   0.00000  -0.00024  -0.00024   2.05339
   R29        2.05267  -0.00079   0.00000  -0.00195  -0.00195   2.05072
   R30        2.64522  -0.00441   0.00000  -0.00934  -0.00933   2.63589
   R31        2.05516  -0.00222   0.00000  -0.00630  -0.00630   2.04886
   R32        2.05650  -0.00455   0.00000  -0.01301  -0.01301   2.04349
   R33        2.66961  -0.00843   0.00000  -0.01487  -0.01485   2.65475
   R34        2.65809  -0.00514   0.00000  -0.00933  -0.00932   2.64877
   R35        2.64085  -0.00551   0.00000  -0.01254  -0.01254   2.62831
   R36        2.06051  -0.00463   0.00000  -0.01257  -0.01257   2.04794
   R37        2.63168   0.00398   0.00000   0.01083   0.01081   2.64249
   R38        2.05386  -0.00177   0.00000  -0.00493  -0.00493   2.04894
   R39        2.59971   0.00449   0.00000   0.00177   0.00177   2.60148
   R40        2.62993   0.00209   0.00000   0.00480   0.00478   2.63471
   R41        2.59982   0.01615   0.00000   0.03277   0.03277   2.63259
   R42        2.63613   0.00150   0.00000   0.00226   0.00222   2.63835
   R43        2.63246   0.00261   0.00000   0.00134   0.00128   2.63374
   R44        2.64142  -0.00280   0.00000  -0.00943  -0.00942   2.63200
   R45        2.05279  -0.00082   0.00000  -0.00198  -0.00198   2.05081
   R46        2.64183   0.00748   0.00000   0.01662   0.01668   2.65851
   R47        2.05372  -0.00020   0.00000  -0.00042  -0.00042   2.05330
   R48        2.64437   0.00249   0.00000  -0.00259  -0.00259   2.64178
   R49        2.64173   0.00706   0.00000   0.01536   0.01540   2.65713
   R50        1.91868  -0.00282   0.00000  -0.00540  -0.00540   1.91328
   R51        1.91871  -0.00290   0.00000  -0.00568  -0.00568   1.91302
   R52        2.64048  -0.00224   0.00000  -0.00679  -0.00681   2.63367
   R53        2.05328   0.00002   0.00000   0.00017   0.00017   2.05345
   R54        2.05201  -0.00057   0.00000  -0.00114  -0.00114   2.05087
   R55        2.64469  -0.00404   0.00000  -0.00932  -0.00932   2.63537
   R56        2.05479  -0.00190   0.00000  -0.00485  -0.00485   2.04995
   R57        2.05635  -0.00446   0.00000  -0.01293  -0.01293   2.04342
   R58        2.55771  -0.00232   0.00000  -0.00374  -0.00374   2.55397
   R59        2.56768  -0.00322   0.00000  -0.01640  -0.01640   2.55128
   R60        2.55941  -0.00716   0.00000  -0.01511  -0.01511   2.54430
    A1        1.96523  -0.00084   0.00000  -0.02393  -0.02405   1.94118
    A2        1.85111   0.00116   0.00000   0.01582   0.01572   1.86683
    A3        1.86136  -0.00033   0.00000   0.00443   0.00432   1.86568
    A4        1.95540  -0.00579   0.00000  -0.00755  -0.00760   1.94780
    A5        1.97310   0.00607   0.00000  -0.00098  -0.00103   1.97207
    A6        1.84862  -0.00031   0.00000   0.01584   0.01586   1.86447
    A7        1.88296  -0.00685   0.00000  -0.01011  -0.00962   1.87334
    A8        2.00322  -0.01079   0.00000  -0.03593  -0.03605   1.96717
    A9        1.77920   0.02487   0.00000   0.06887   0.06918   1.84838
   A10        1.91366   0.01003   0.00000   0.02033   0.01980   1.93346
   A11        2.00334  -0.01083   0.00000  -0.03557  -0.03564   1.96770
   A12        1.88155  -0.00677   0.00000  -0.00844  -0.00793   1.87362
   A13        2.08595  -0.00544   0.00000  -0.02272  -0.02273   2.06322
   A14        2.14593   0.00132   0.00000   0.01595   0.01594   2.16186
   A15        2.05129   0.00411   0.00000   0.00681   0.00681   2.05810
   A16        2.11767  -0.00088   0.00000   0.00037   0.00034   2.11801
   A17        2.11038  -0.00185   0.00000  -0.01564  -0.01563   2.09474
   A18        2.05510   0.00273   0.00000   0.01532   0.01532   2.07042
   A19        2.09486  -0.00052   0.00000  -0.00301  -0.00307   2.09178
   A20        2.09423   0.00132   0.00000   0.01323   0.01324   2.10747
   A21        2.09409  -0.00080   0.00000  -0.01019  -0.01018   2.08391
   A22        2.04136   0.00328   0.00000   0.00289   0.00292   2.04428
   A23        2.09076  -0.00100   0.00000  -0.00003  -0.00008   2.09068
   A24        2.14935  -0.00230   0.00000  -0.00299  -0.00296   2.14639
   A25        2.04994   0.00913   0.00000   0.03180   0.03180   2.08174
   A26        2.04564   0.00346   0.00000   0.01079   0.01077   2.05642
   A27        2.14095  -0.00249   0.00000  -0.01120  -0.01120   2.12976
   A28        2.09567  -0.00100   0.00000  -0.00040  -0.00057   2.09510
   A29        2.09163   0.00179   0.00000   0.00346   0.00333   2.09495
   A30        2.09636  -0.00243   0.00000  -0.01209  -0.01210   2.08426
   A31        2.09500   0.00066   0.00000   0.00899   0.00897   2.10397
   A32        2.10650   0.00034   0.00000   0.00259   0.00260   2.10910
   A33        2.07770   0.00099   0.00000   0.00835   0.00834   2.08604
   A34        2.09898  -0.00133   0.00000  -0.01092  -0.01093   2.08804
   A35        2.09787   0.00210   0.00000   0.01100   0.01010   2.10798
   A36        2.07300  -0.00351   0.00000  -0.00864  -0.00944   2.06356
   A37        2.09814   0.00195   0.00000   0.00975   0.00885   2.10699
   A38        1.98717   0.00201   0.00000   0.01058   0.01059   1.99776
   A39        1.98764   0.00185   0.00000   0.00923   0.00924   1.99688
   A40        1.95996  -0.00338   0.00000  -0.02408  -0.02407   1.93589
   A41        2.10762   0.00119   0.00000   0.00422   0.00429   2.11192
   A42        2.09853  -0.00158   0.00000  -0.01112  -0.01115   2.08738
   A43        2.07701   0.00039   0.00000   0.00688   0.00684   2.08385
   A44        2.08912   0.00133   0.00000   0.00218   0.00214   2.09126
   A45        2.10724  -0.00183   0.00000  -0.00997  -0.00997   2.09728
   A46        2.08678   0.00051   0.00000   0.00787   0.00787   2.09465
   A47        2.09829  -0.00214   0.00000  -0.00581  -0.00584   2.09245
   A48        2.10290   0.00014   0.00000  -0.00491  -0.00490   2.09800
   A49        2.08199   0.00200   0.00000   0.01074   0.01075   2.09274
[...]
   483    F   33  S      Ryd( 3S)     0.00081
   484    F   33  S      Ryd( 4S)     0.00009
   485    F   33  px     Val( 2p)     1.73985
   486    F   33  px     Ryd( 3p)     0.00017
   487    F   33  py     Val( 2p)     1.85423
   488    F   33  py     Ryd( 3p)     0.00019
   489    F   33  pz     Val( 2p)     1.92507
   490    F   33  pz     Ryd( 3p)     0.00056
   491    F   33  dxy    Ryd( 3d)     0.00114
   492    F   33  dxz    Ryd( 3d)     0.00099
   493    F   33  dyz    Ryd( 3d)     0.00052
   494    F   33  dx2y2  Ryd( 3d)     0.00127
   495    F   33  dz2    Ryd( 3d)     0.00060

   496    F   34  S      Cor( 1S)     1.99992
   497    F   34  S      Val( 2S)     1.83838
   498    F   34  S      Ryd( 3S)     0.00075
   499    F   34  S      Ryd( 4S)     0.00009
   500    F   34  px     Val( 2p)     1.92938
   501    F   34  px     Ryd( 3p)     0.00018
   502    F   34  py     Val( 2p)     1.74304
   503    F   34  py     Ryd( 3p)     0.00019
   504    F   34  pz     Val( 2p)     1.84356
   505    F   34  pz     Ryd( 3p)     0.00051
   506    F   34  dxy    Ryd( 3d)     0.00104
   507    F   34  dxz    Ryd( 3d)     0.00051
   508    F   34  dyz    Ryd( 3d)     0.00116
   509    F   34  dx2y2  Ryd( 3d)     0.00082
   510    F   34  dz2    Ryd( 3d)     0.00099

   511    F   35  S      Cor( 1S)     1.99992
   512    F   35  S      Val( 2S)     1.83750
   513    F   35  S      Ryd( 3S)     0.00068
   514    F   35  S      Ryd( 4S)     0.00009
   515    F   35  px     Val( 2p)     1.75422
   516    F   35  px     Ryd( 3p)     0.00015
   517    F   35  py     Val( 2p)     1.83696
   518    F   35  py     Ryd( 3p)     0.00021
   519    F   35  pz     Val( 2p)     1.92365
   520    F   35  pz     Ryd( 3p)     0.00053
   521    F   35  dxy    Ryd( 3d)     0.00112
   522    F   35  dxz    Ryd( 3d)     0.00096
   523    F   35  dyz    Ryd( 3d)     0.00058
   524    F   35  dx2y2  Ryd( 3d)     0.00138
   525    F   35  dz2    Ryd( 3d)     0.00055

   526    F   36  S      Cor( 1S)     1.99992
   527    F   36  S      Val( 2S)     1.83845
   528    F   36  S      Ryd( 3S)     0.00075
   529    F   36  S      Ryd( 4S)     0.00009
   530    F   36  px     Val( 2p)     1.92351
   531    F   36  px     Ryd( 3p)     0.00020
   532    F   36  py     Val( 2p)     1.93637
   533    F   36  py     Ryd( 3p)     0.00044
   534    F   36  pz     Val( 2p)     1.65602
   535    F   36  pz     Ryd( 3p)     0.00024
   536    F   36  dxy    Ryd( 3d)     0.00012
   537    F   36  dxz    Ryd( 3d)     0.00140
   538    F   36  dyz    Ryd( 3d)     0.00138
   539    F   36  dx2y2  Ryd( 3d)     0.00012
   540    F   36  dz2    Ryd( 3d)     0.00150

   541    F   37  S      Cor( 1S)     1.99992
   542    F   37  S      Val( 2S)     1.84034
   543    F   37  S      Ryd( 3S)     0.00081
   544    F   37  S      Ryd( 4S)     0.00008
   545    F   37  px     Val( 2p)     1.84882
   546    F   37  px     Ryd( 3p)     0.00020
   547    F   37  py     Val( 2p)     1.75408
   548    F   37  py     Ryd( 3p)     0.00038
   549    F   37  pz     Val( 2p)     1.91466
   550    F   37  pz     Ryd( 3p)     0.00034
   551    F   37  dxy    Ryd( 3d)     0.00110
   552    F   37  dxz    Ryd( 3d)     0.00050
   553    F   37  dyz    Ryd( 3d)     0.00101
   554    F   37  dx2y2  Ryd( 3d)     0.00132
   555    F   37  dz2    Ryd( 3d)     0.00058

   556    H   38  S      Val( 1S)     0.74135
   557    H   38  S      Ryd( 2S)     0.00118
   558    H   38  px     Ryd( 2p)     0.00032
   559    H   38  py     Ryd( 2p)     0.00011
   560    H   38  pz     Ryd( 2p)     0.00019

   561    H   39  S      Val( 1S)     0.74548
   562    H   39  S      Ryd( 2S)     0.00121
   563    H   39  px     Ryd( 2p)     0.00008
   564    H   39  py     Ryd( 2p)     0.00018
   565    H   39  pz     Ryd( 2p)     0.00033

   566    H   40  S      Val( 1S)     0.74159
   567    H   40  S      Ryd( 2S)     0.00096
   568    H   40  px     Ryd( 2p)     0.00033
   569    H   40  py     Ryd( 2p)     0.00017
   570    H   40  pz     Ryd( 2p)     0.00009

   571    H   41  S      Val( 1S)     0.75047
   572    H   41  S      Ryd( 2S)     0.00090
   573    H   41  px     Ryd( 2p)     0.00006
   574    H   41  py     Ryd( 2p)     0.00029
   575    H   41  pz     Ryd( 2p)     0.00025

   576    H   42  S      Val( 1S)     0.58165
   577    H   42  S      Ryd( 2S)     0.00107
   578    H   42  px     Ryd( 2p)     0.00050
   579    H   42  py     Ryd( 2p)     0.00032
   580    H   42  pz     Ryd( 2p)     0.00045

   581    H   43  S      Val( 1S)     0.58165
   582    H   43  S      Ryd( 2S)     0.00107
   583    H   43  px     Ryd( 2p)     0.00020
   584    H   43  py     Ryd( 2p)     0.00063
   585    H   43  pz     Ryd( 2p)     0.00043

   586    H   44  S      Val( 1S)     0.75044
   587    H   44  S      Ryd( 2S)     0.00089
   588    H   44  px     Ryd( 2p)     0.00031
   589    H   44  py     Ryd( 2p)     0.00018
   590    H   44  pz     Ryd( 2p)     0.00010

   591    H   45  S      Val( 1S)     0.74153
   592    H   45  S      Ryd( 2S)     0.00097
   593    H   45  px     Ryd( 2p)     0.00006
   594    H   45  py     Ryd( 2p)     0.00028
   595    H   45  pz     Ryd( 2p)     0.00025

   596    H   46  S      Val( 1S)     0.74193
   597    H   46  S      Ryd( 2S)     0.00086
   598    H   46  px     Ryd( 2p)     0.00030
   599    H   46  py     Ryd( 2p)     0.00011
   600    H   46  pz     Ryd( 2p)     0.00019

   601    H   47  S      Val( 1S)     0.74697
   602    H   47  S      Ryd( 2S)     0.00203
   603    H   47  px     Ryd( 2p)     0.00010
   604    H   47  py     Ryd( 2p)     0.00020
   605    H   47  pz     Ryd( 2p)     0.00034

   606    H   48  S      Val( 1S)     0.75718
   607    H   48  S      Ryd( 2S)     0.00101
   608    H   48  px     Ryd( 2p)     0.00025
   609    H   48  py     Ryd( 2p)     0.00018
   610    H   48  pz     Ryd( 2p)     0.00023

   611    H   49  S      Val( 1S)     0.75505
   612    H   49  S      Ryd( 2S)     0.00076
   613    H   49  px     Ryd( 2p)     0.00009
   614    H   49  py     Ryd( 2p)     0.00038
   615    H   49  pz     Ryd( 2p)     0.00019

   616    H   50  S      Val( 1S)     0.72730
   617    H   50  S      Ryd( 2S)     0.00086
   618    H   50  px     Ryd( 2p)     0.00012
   619    H   50  py     Ryd( 2p)     0.00027
   620    H   50  pz     Ryd( 2p)     0.00020

   621    H   51  S      Val( 1S)     0.73584
   622    H   51  S      Ryd( 2S)     0.00084
   623    H   51  px     Ryd( 2p)     0.00017
   624    H   51  py     Ryd( 2p)     0.00006
   625    H   51  pz     Ryd( 2p)     0.00037

   626    H   52  S      Val( 1S)     0.55178
   627    H   52  S      Ryd( 2S)     0.00088
   628    H   52  px     Ryd( 2p)     0.00052
   629    H   52  py     Ryd( 2p)     0.00023
   630    H   52  pz     Ryd( 2p)     0.00045

   631    H   53  S      Val( 1S)     0.55188
   632    H   53  S      Ryd( 2S)     0.00087
   633    H   53  px     Ryd( 2p)     0.00034
   634    H   53  py     Ryd( 2p)     0.00039
   635    H   53  pz     Ryd( 2p)     0.00046

   636    H   54  S      Val( 1S)     0.73580
   637    H   54  S      Ryd( 2S)     0.00084
   638    H   54  px     Ryd( 2p)     0.00013
   639    H   54  py     Ryd( 2p)     0.00025
   640    H   54  pz     Ryd( 2p)     0.00023

   641    H   55  S      Val( 1S)     0.72746
   642    H   55  S      Ryd( 2S)     0.00089
   643    H   55  px     Ryd( 2p)     0.00016
   644    H   55  py     Ryd( 2p)     0.00007
   645    H   55  pz     Ryd( 2p)     0.00036

   646    H   56  S      Val( 1S)     0.75900
   647    H   56  S      Ryd( 2S)     0.00100
   648    H   56  px     Ryd( 2p)     0.00025
   649    H   56  py     Ryd( 2p)     0.00017
   650    H   56  pz     Ryd( 2p)     0.00021

   651    H   57  S      Val( 1S)     0.75765
   652    H   57  S      Ryd( 2S)     0.00187
   653    H   57  px     Ryd( 2p)     0.00010
   654    H   57  py     Ryd( 2p)     0.00039
   655    H   57  pz     Ryd( 2p)     0.00017

 WARNING:  1 low occupancy (<1.9990e) core orbital  found on  C    3
           1 low occupancy (<1.9990e) core orbital  found on  C    7
           1 low occupancy (<1.9990e) core orbital  found on  C    9
           1 low occupancy (<1.9990e) core orbital  found on  C   10
           1 low occupancy (<1.9990e) core orbital  found on  C   12
           1 low occupancy (<1.9990e) core orbital  found on  C   15
           1 low occupancy (<1.9990e) core orbital  found on  C   21
           1 low occupancy (<1.9990e) core orbital  found on  C   23
           1 low occupancy (<1.9990e) core orbital  found on  C   26


 Summary of Natural Population Analysis:                  
                                                          
                                       Natural Population 
                Natural  -----------------------------------------------
    Atom  No    Charge         Core      Valence    Rydberg      Total
 -----------------------------------------------------------------------
      F    1   -0.35969      1.99992     7.35351    0.00626     9.35969
      C    2    1.14540      1.99910     2.77973    0.07577     4.85460
      C    3   -0.24908      1.99875     4.23021    0.02013     6.24908
      C    4   -0.08563      1.99901     4.06651    0.02011     6.08563
      C    5   -0.22177      1.99905     4.20820    0.01453     6.22177
      C    6   -0.29824      1.99902     4.28458    0.01464     6.29824
      C    7    0.32477      1.99875     3.65482    0.02166     5.67523
      O    8   -0.52506      1.99970     6.51386    0.01150     8.52506
      C    9    0.24157      1.99869     3.73716    0.02257     5.75843
      C   10   -0.26058      1.99899     4.24813    0.01346     6.26058
      C   11   -0.28464      1.99905     4.27293    0.01266     6.28464
      C   12    0.16316      1.99899     3.82080    0.01705     5.83684
      N   13   -0.85813      1.99952     5.84683    0.01178     7.85813
      C   14   -0.28479      1.99905     4.27310    0.01265     6.28479
      C   15   -0.26026      1.99899     4.24778    0.01348     6.26026
      C   16   -0.32294      1.99902     4.31180    0.01212     6.32294
      C   17   -0.22293      1.99904     4.20953    0.01436     6.22293
      C   18   -0.09122      1.99901     4.07200    0.02021     6.09122
      C   19   -0.31490      1.99905     4.29812    0.01773     6.31490
      C   20   -0.35516      1.99901     4.34157    0.01457     6.35516
      C   21    0.31197      1.99872     3.66729    0.02202     5.68803
      O   22   -0.51342      1.99968     6.50226    0.01147     8.51342
      C   23    0.40123      1.99870     3.57745    0.02262     5.59877
      C   24   -0.29932      1.99900     4.28286    0.01747     6.29932
      C   25   -0.25975      1.99906     4.24447    0.01621     6.25975
      C   26    0.20212      1.99898     3.78202    0.01688     5.79788
      N   27   -0.64857      1.99946     5.64043    0.00868     7.64857
      C   28   -0.25746      1.99906     4.24225    0.01615     6.25746
      C   29   -0.30027      1.99900     4.28374    0.01753     6.30027
      C   30   -0.37682      1.99904     4.36027    0.01752     6.37682
      C   31   -0.25631      1.99904     4.24242    0.01486     6.25631
      C   32    1.14379      1.99910     2.78121    0.07590     4.85621
      F   33   -0.36574      1.99992     7.35950    0.00632     9.36574
      F   34   -0.36052      1.99992     7.35436    0.00625     9.36052
      F   35   -0.35851      1.99992     7.35233    0.00626     9.35851
      F   36   -0.36052      1.99992     7.35435    0.00624     9.36052
      F   37   -0.36414      1.99992     7.35790    0.00632     9.36414
      H   38    0.25686      0.00000     0.74135    0.00180     0.74314
      H   39    0.25273      0.00000     0.74548    0.00180     0.74727
      H   40    0.25686      0.00000     0.74159    0.00154     0.74314
      H   41    0.24804      0.00000     0.75047    0.00149     0.75196
      H   42    0.41602      0.00000     0.58165    0.00233     0.58398
      H   43    0.41603      0.00000     0.58165    0.00233     0.58397
      H   44    0.24807      0.00000     0.75044    0.00149     0.75193
      H   45    0.25692      0.00000     0.74153    0.00155     0.74308
      H   46    0.25660      0.00000     0.74193    0.00146     0.74340
      H   47    0.25037      0.00000     0.74697    0.00267     0.74963
      H   48    0.24115      0.00000     0.75718    0.00166     0.75885
      H   49    0.24355      0.00000     0.75505    0.00141     0.75645
      H   50    0.27125      0.00000     0.72730    0.00145     0.72875
      H   51    0.26271      0.00000     0.73584    0.00145     0.73729
      H   52    0.44614      0.00000     0.55178    0.00208     0.55386
      H   53    0.44605      0.00000     0.55188    0.00207     0.55395
      H   54    0.26275      0.00000     0.73580    0.00145     0.73725
      H   55    0.27107      0.00000     0.72746    0.00148     0.72893
      H   56    0.23938      0.00000     0.75900    0.00163     0.76062
      H   57    0.23982      0.00000     0.75765    0.00253     0.76018
 =======================================================================
   * Total *    0.00000     73.97017   191.33826    0.69157   266.00000

                                 Natural Population      
 --------------------------------------------------------
   Core                      73.97017 ( 99.9597% of  74)
   Valence                  191.33826 ( 99.6553% of 192)
   Natural Minimal Basis    265.30843 ( 99.7400% of 266)
   Natural Rydberg Basis      0.69157 (  0.2600% of 266)
 --------------------------------------------------------

    Atom  No          Natural Electron Configuration
 ----------------------------------------------------------------------------
      F    1      [core]2S( 1.84)2p( 5.52)
      C    2      [core]2S( 0.79)2p( 1.99)3S( 0.01)3p( 0.05)3d( 0.02)
      C    3      [core]2S( 0.95)2p( 3.28)3p( 0.01)
      C    4      [core]2S( 0.86)2p( 3.20)3p( 0.02)
      C    5      [core]2S( 0.95)2p( 3.26)3p( 0.01)
      C    6      [core]2S( 0.96)2p( 3.33)3p( 0.01)
      C    7      [core]2S( 0.84)2p( 2.82)3p( 0.01)3d( 0.01)
      O    8      [core]2S( 1.57)2p( 4.95)3p( 0.01)3d( 0.01)
      C    9      [core]2S( 0.84)2p( 2.90)3p( 0.02)3d( 0.01)
      C   10      [core]2S( 0.97)2p( 3.28)3p( 0.01)
      C   11      [core]2S( 0.96)2p( 3.32)3p( 0.01)
      C   12      [core]2S( 0.85)2p( 2.98)3p( 0.01)
      N   13      [core]2S( 1.36)2p( 4.49)3p( 0.01)
      C   14      [core]2S( 0.96)2p( 3.32)3p( 0.01)
      C   15      [core]2S( 0.97)2p( 3.28)3p( 0.01)
      C   16      [core]2S( 0.96)2p( 3.35)3p( 0.01)
      C   17      [core]2S( 0.94)2p( 3.27)3p( 0.01)
      C   18      [core]2S( 0.86)2p( 3.21)3p( 0.02)
      C   19      [core]2S( 0.93)2p( 3.37)3p( 0.01)
      C   20      [core]2S( 0.95)2p( 3.39)3p( 0.01)
      C   21      [core]2S( 0.83)2p( 2.83)3p( 0.01)3d( 0.01)
      O   22      [core]2S( 1.57)2p( 4.94)3p( 0.01)3d( 0.01)
      C   23      [core]2S( 0.85)2p( 2.72)3p( 0.01)3d( 0.01)
      C   24      [core]2S( 0.97)2p( 3.31)3p( 0.01)
      C   25      [core]2S( 0.96)2p( 3.28)3p( 0.01)
      C   26      [core]2S( 0.86)2p( 2.92)3p( 0.01)
      N   27      [core]2S( 1.38)2p( 4.27)3p( 0.01)
      C   28      [core]2S( 0.96)2p( 3.28)3p( 0.01)
      C   29      [core]2S( 0.97)2p( 3.31)3p( 0.01)
      C   30      [core]2S( 0.95)2p( 3.41)3p( 0.01)
      C   31      [core]2S( 0.94)2p( 3.30)3p( 0.01)
      C   32      [core]2S( 0.79)2p( 1.99)3S( 0.01)3p( 0.05)3d( 0.02)
      F   33      [core]2S( 1.84)2p( 5.52)
      F   34      [core]2S( 1.84)2p( 5.52)
      F   35      [core]2S( 1.84)2p( 5.51)
      F   36      [core]2S( 1.84)2p( 5.52)
      F   37      [core]2S( 1.84)2p( 5.52)
      H   38            1S( 0.74)
      H   39            1S( 0.75)
      H   40            1S( 0.74)
      H   41            1S( 0.75)
      H   42            1S( 0.58)
      H   43            1S( 0.58)
      H   44            1S( 0.75)
      H   45            1S( 0.74)
      H   46            1S( 0.74)
      H   47            1S( 0.75)
      H   48            1S( 0.76)
      H   49            1S( 0.76)
      H   50            1S( 0.73)
      H   51            1S( 0.74)
      H   52            1S( 0.55)
      H   53            1S( 0.55)
      H   54            1S( 0.74)
      H   55            1S( 0.73)
      H   56            1S( 0.76)
      H   57            1S( 0.76)


 NBO analysis skipped by request.
 1\1\GINC-DRG2-W008\SP\RB3LYP TD-FC\6-31G(d,p)\C27H20F6N2O2\QDUEZ\18-Ju
 l-2024\0\\# TD(NStates=10, Root=1) B3LYP/6-31G** SCRF=(Solvent=water) 
 volume pop=NPA density=current Geom=AllCheck Guess=Read\\HHLMWQDRYZAEN
 A-UHFFFAOYSA-N_conf_2\\0,1\F,0,1.9597885392,-0.3347327045,-4.245707640
 4\C,0,0.6370469663,-0.4084466895,-4.0060961785\C,0,0.2422019709,0.3837
 654486,-2.725389057\C,0,1.2175751846,-0.0676630846,-1.6147598982\C,0,0
 .9889185535,-1.3017735776,-0.9819051685\C,0,1.8574681707,-1.7916307122
 ,-0.0156706313\C,0,2.9886309928,-1.050919679,0.3473312377\O,0,3.786218
 515,-1.6069632781,1.3162944224\C,0,4.9295408287,-0.9259623483,1.744339
 2553\C,0,4.8516066493,-0.0540833024,2.8294412586\C,0,6.0061832479,0.55
 72602366,3.3123162222\C,0,7.2578042671,0.3052084232,2.7187247687\N,0,8
 .4038873525,0.9649173565,3.1622751121\C,0,7.3139739799,-0.5817889271,1
 .6267958168\C,0,6.1589895198,-1.1924800263,1.1437306491\C,0,3.24051084
 41,0.173708726,-0.2739693716\C,0,2.3646543835,0.6482099949,-1.25182932
 59\C,0,-1.2307796732,0.1491121572,-2.3201196646\C,0,-1.6339328514,0.50
 24383604,-1.0248031047\C,0,-2.9567563506,0.3747176663,-0.6060310653\C,
 0,-3.9143631634,-0.1195522381,-1.4959331228\O,0,-5.2398090824,-0.29741
 06411,-1.1861063496\C,0,-5.7078819667,0.0668738685,0.0797780507\C,0,-6
 .1805065279,1.3599921118,0.299998101\C,0,-6.7271923647,1.6975676182,1.
 5356861099\C,0,-6.8115049557,0.7469934175,2.570991226\N,0,-7.300206320
 6,1.1025461904,3.8279519565\C,0,-6.3331778244,-0.5540795224,2.32510570
 09\C,0,-5.7854719936,-0.8910940604,1.0894116222\C,0,-3.5346700917,-0.4
 710422382,-2.7952754977\C,0,-2.2125495859,-0.3276910486,-3.202827866\C
 ,0,0.3725824928,1.901207714,-3.0478113666\F,0,1.551395406,2.2192867517
 ,-3.6333058118\F,0,0.2716468135,2.6438375426,-1.9270786846\F,0,-0.5963
 17555,2.3137553042,-3.8868277991\F,0,0.3267966539,-1.7145949248,-3.880
 569262\F,0,0.0170083086,0.0440181119,-5.1216505556\H,0,0.1162221238,-1
 .8886569516,-1.2434314774\H,0,1.6709199344,-2.7441116696,0.4689814002\
 H,0,3.8909176794,0.1356699113,3.2976073478\H,0,5.9416978222,1.23453008
 89,4.1593973993\H,0,9.273390263,0.4875688521,2.9615238692\H,0,8.371443
 25,1.2719651703,4.1260849177\H,0,8.2707583503,-0.7941733834,1.15789644
 \H,0,6.2092850675,-1.8832347756,0.3080194154\H,0,4.1138564224,0.755499
 471,-0.0056409877\H,0,2.6022667089,1.5937913876,-1.7204233141\H,0,-0.9
 040819514,0.8824870589,-0.3193539735\H,0,-3.2355758205,0.6539003059,0.
 4026934131\H,0,-6.1277280457,2.0941491696,-0.4977175541\H,0,-7.0962743
 707,2.7056046602,1.702927512\H,0,-7.9392654968,1.8873292442,3.82951158
 25\H,0,-7.6659605229,0.3338038813,4.3751873096\H,0,-6.3941692455,-1.30
 42876133,3.1085791852\H,0,-5.4265944687,-1.8981403352,0.9019982698\H,0
 ,-4.2859565079,-0.8504590086,-3.4797578632\H,0,-1.9644605252,-0.597069
 0269,-4.2205869798\\Version=ES64L-G16RevA.03\State=1-A\HF=-1899.960119
 8\RMSD=4.340e-09\Dipole=-4.9008291,0.8872764,6.6949239\Quadrupole=74.7
 840867,-53.1582894,-21.6257973,-10.8239381,-45.8493248,9.0038195\PG=C0
 1 [X(C27H20F6N2O2)]\\@


 NO SCIENCE HAS EVER MADE MORE RAPID PROGRESS IN A
 SHORTER TIME THAN CHEMISTRY.
   -- MARTIN HEINRICH KLOPROTH, 1791
 (FIRST PROFESSOR OF CHEMISTRY AT THE UNIVERSITY OF BERLIN)
 Job cpu time:       0 days  4 hours  9 minutes 54.7 seconds.
 Elapsed time:       0 days  1 hours 23 minutes 31.2 seconds.
 File lengths (MBytes):  RWF=   3542 Int=      0 D2E=      0 Chk=    206 Scr=      1
 Normal termination of Gaussian 16 at Thu Jul 18 01:58:04 2024.
