 Entering Gaussian System, Link 0=g16
 Initial command:
 /opt/sw/arch/manual/gaussian/G16_A03/g16/l1.exe "/scratch/1380834/Gau-177997.inp" -scrdir="/scratch/1380834/"
 Entering Link 1 = /opt/sw/arch/manual/gaussian/G16_A03/g16/l1.exe PID=    177998.
  
 Copyright (c) 1988,1990,1992,1993,1995,1998,2003,2009,2016,
            Gaussian, Inc.  All Rights Reserved.
  
 This is part of the Gaussian(R) 16 program.  It is based on
 the Gaussian(R) 09 system (copyright 2009, Gaussian, Inc.),
 the Gaussian(R) 03 system (copyright 2003, Gaussian, Inc.),
 the Gaussian(R) 98 system (copyright 1998, Gaussian, Inc.),
 the Gaussian(R) 94 system (copyright 1995, Gaussian, Inc.),
 the Gaussian 92(TM) system (copyright 1992, Gaussian, Inc.),
 the Gaussian 90(TM) system (copyright 1990, Gaussian, Inc.),
 the Gaussian 88(TM) system (copyright 1988, Gaussian, Inc.),
 the Gaussian 86(TM) system (copyright 1986, Carnegie Mellon
 University), and the Gaussian 82(TM) system (copyright 1983,
 Carnegie Mellon University). Gaussian is a federally registered
 trademark of Gaussian, Inc.
  
 This software contains proprietary and confidential information,
 including trade secrets, belonging to Gaussian, Inc.
  
 This software is provided under written license and may be
 used, copied, transmitted, or stored only in accord with that
 written license.
  
 The following legend is applicable only to US Government
 contracts under FAR:
  
                    RESTRICTED RIGHTS LEGEND
  
 Use, reproduction and disclosure by the US Government is
 subject to restrictions as set forth in subparagraphs (a)
 and (c) of the Commercial Computer Software - Restricted
 Rights clause in FAR 52.227-19.
  
 Gaussian, Inc.
 340 Quinnipiac St., Bldg. 40, Wallingford CT 06492
  
  
 ---------------------------------------------------------------
 Warning -- This program may not be used in any manner that
 competes with the business of Gaussian, Inc. or will provide
 assistance to any competitor of Gaussian, Inc.  The licensee
 of this program is prohibited from giving any competitor of
 Gaussian, Inc. access to this program.  By using this program,
 the user acknowledges that Gaussian, Inc. is engaged in the
 business of creating and licensing software in the field of
 computational chemistry and represents and warrants to the
 licensee that it is not a competitor of Gaussian, Inc. and that
 it will not use this program in any manner prohibited above.
 ---------------------------------------------------------------
  

 Cite this work as:
 Gaussian 16, Revision A.03,
 M. J. Frisch, G. W. Trucks, H. B. Schlegel, G. E. Scuseria, 
 M. A. Robb, J. R. Cheeseman, G. Scalmani, V. Barone, 
 G. A. Petersson, H. Nakatsuji, X. Li, M. Caricato, A. V. Marenich, 
 J. Bloino, B. G. Janesko, R. Gomperts, B. Mennucci, H. P. Hratchian, 
 J. V. Ortiz, A. F. Izmaylov, J. L. Sonnenberg, D. Williams-Young, 
 F. Ding, F. Lipparini, F. Egidi, J. Goings, B. Peng, A. Petrone, 
 T. Henderson, D. Ranasinghe, V. G. Zakrzewski, J. Gao, N. Rega, 
 G. Zheng, W. Liang, M. Hada, M. Ehara, K. Toyota, R. Fukuda, 
 J. Hasegawa, M. Ishida, T. Nakajima, Y. Honda, O. Kitao, H. Nakai, 
 T. Vreven, K. Throssell, J. A. Montgomery, Jr., J. E. Peralta, 
 F. Ogliaro, M. J. Bearpark, J. J. Heyd, E. N. Brothers, K. N. Kudin, 
 V. N. Staroverov, T. A. Keith, R. Kobayashi, J. Normand, 
 K. Raghavachari, A. P. Rendell, J. C. Burant, S. S. Iyengar, 
 J. Tomasi, M. Cossi, J. M. Millam, M. Klene, C. Adamo, R. Cammi, 
 J. W. Ochterski, R. L. Martin, K. Morokuma, O. Farkas, 
 J. B. Foresman, and D. J. Fox, Gaussian, Inc., Wallingford CT, 2016.
 
 ******************************************
 Gaussian 16:  ES64L-G16RevA.03 25-Dec-2016
                17-Jul-2024 
 ******************************************
 %nprocshared=9
 Will use up to    9 processors via shared memory.
 %mem=18GB
 %Chk=HHLMWQDRYZAENA-UHFFFAOYSA-N_conf_0_0.chk
 -------------------------------------------------------
 # opt=CalcFc B3LYP/6-31G** SCRF=(Solvent=water) scf=xqc
 -------------------------------------------------------
 1/10=4,18=20,19=15,26=3,38=1/1,3;
 2/9=110,12=2,17=6,18=5,40=1/2;
 3/5=1,6=6,7=101,11=2,25=1,30=1,70=2201,71=2,72=1,74=-5,140=1/1,2,3;
 4//1;
 5/5=2,8=3,13=1,38=5,53=1/2,8;
 8/6=4,10=90,11=11/1;
 11/6=1,8=1,9=11,15=111,16=1/1,2,10;
 10/6=1,13=1/2;
 6/7=2,8=2,9=2,10=2,28=1/1;
 7/10=1,18=20,25=1/1,2,3,16;
 1/10=4,18=20,19=15,26=3/3(2);
 2/9=110/2;
 99//99;
 2/9=110/2;
 3/5=1,6=6,7=101,11=2,25=1,30=1,70=2205,71=1,72=1,74=-5/1,2,3;
 4/5=5,16=3,69=1/1;
 5/5=2,8=3,13=1,38=5,53=1/2,8;
 7//1,2,3,16;
 1/18=20,19=15,26=3/3(-5);
 2/9=110/2;
 6/7=2,8=2,9=2,10=2,19=2,28=1/1;
 99/9=1/99;
 ----------------------------------
 HHLMWQDRYZAENA-UHFFFAOYSA-N_conf_0
 ----------------------------------
 Symbolic Z-matrix:
 Charge =  0 Multiplicity = 1
 F                     0.55172  -4.35217  -1.17305 
 C                    -0.36273  -3.49389  -0.66406 
 C                     0.02096  -2.01955  -0.86027 
 C                     1.35222  -1.59335  -0.16953 
 C                     1.75542  -0.2402   -0.21261 
 C                     2.94124   0.18612   0.39132 
 C                     3.76056  -0.73614   1.03724 
 O                     4.92407  -0.38495   1.6819 
 C                     5.77887   0.46768   1.02265 
 C                     6.2746    1.55385   1.74016 
 C                     7.16762   2.43978   1.13163 
 C                     7.61738   2.21597  -0.17296 
 N                     8.41366   3.1698   -0.81666 
 C                     7.08641   1.14143  -0.89281 
 C                     6.19276   0.25037  -0.29183 
 C                     3.37461  -2.07118   1.11278 
 C                     2.18669  -2.49937   0.50991 
 C                    -1.15188  -1.1447   -0.32139 
 C                    -1.38996  -1.0803    1.06935 
 C                    -2.4292   -0.3077    1.59358 
 C                    -3.26382   0.40622   0.74078 
 O                    -4.24445   1.17345   1.32598 
 C                    -5.48937   1.16416   0.74133 
 C                    -6.10118   2.39679   0.52536 
 C                    -7.37778   2.4496   -0.04032 
 C                    -8.07528   1.27538  -0.3385 
 N                    -9.29883   1.33574  -1.01497 
 C                    -7.43657   0.04641  -0.14807 
 C                    -6.15986  -0.01558   0.41754 
 C                    -3.0365    0.37865  -0.63412 
 C                    -1.99628  -0.39565  -1.16111 
 C                     0.23479  -1.94513  -2.3795 
 F                     0.47847  -0.67554  -2.79799 
 F                     1.2914   -2.6848   -2.7925 
 F                    -0.83731  -2.37166  -3.08688 
 F                    -0.48696  -3.81697   0.65024 
 F                    -1.54857  -3.80411  -1.23969 
 H                     1.14296   0.51085  -0.71215 
 H                     3.21101   1.23853   0.35517 
 H                     5.95241   1.72394   2.76346 
 H                     7.51293   3.30646   1.68873 
 H                     8.9371    2.80318  -1.60541 
 H                     8.99572   3.71233  -0.18614 
 H                     7.36948   0.98424  -1.93016 
 H                     5.82078  -0.59882  -0.85766 
 H                     4.00374  -2.78595   1.6381 
 H                     1.94769  -3.55745   0.59559 
 H                    -0.75975  -1.62679   1.77119 
 H                    -2.58724  -0.26699   2.66831 
 H                    -5.57966   3.31574   0.77719 
 H                    -7.82556   3.41883  -0.24248 
 H                    -9.8261    2.18428  -0.83489 
 H                    -9.86659   0.50053  -0.91139 
 H                    -7.93176  -0.87781  -0.43351 
 H                    -5.6969   -0.98258   0.59131 
 H                    -3.66052   0.96089  -1.30819 
 H                    -1.87666  -0.38187  -2.24272 
 

 GradGradGradGradGradGradGradGradGradGradGradGradGradGradGradGradGradGrad
 Berny optimization.
 Initialization pass.
                           ----------------------------
                           !    Initial Parameters    !
                           ! (Angstroms and Degrees)  !
 --------------------------                            --------------------------
 ! Name  Definition              Value          Derivative Info.                !
 --------------------------------------------------------------------------------
 ! R1    R(1,2)                  1.3535         calculate D2E/DX2 analytically  !
 ! R2    R(2,3)                  1.536          calculate D2E/DX2 analytically  !
 ! R3    R(2,36)                 1.3591         calculate D2E/DX2 analytically  !
 ! R4    R(2,37)                 1.3542         calculate D2E/DX2 analytically  !
 ! R5    R(3,4)                  1.5592         calculate D2E/DX2 analytically  !
 ! R6    R(3,18)                 1.5593         calculate D2E/DX2 analytically  !
 ! R7    R(3,32)                 1.536          calculate D2E/DX2 analytically  !
 ! R8    R(4,5)                  1.4126         calculate D2E/DX2 analytically  !
 ! R9    R(4,17)                 1.4067         calculate D2E/DX2 analytically  !
 ! R10   R(5,6)                  1.3974         calculate D2E/DX2 analytically  !
 ! R11   R(5,38)                 1.0903         calculate D2E/DX2 analytically  !
 ! R12   R(6,7)                  1.3925         calculate D2E/DX2 analytically  !
 ! R13   R(6,39)                 1.087          calculate D2E/DX2 analytically  !
 ! R14   R(7,8)                  1.3757         calculate D2E/DX2 analytically  !
 ! R15   R(7,16)                 1.3918         calculate D2E/DX2 analytically  !
 ! R16   R(8,9)                  1.3756         calculate D2E/DX2 analytically  !
 ! R17   R(9,10)                 1.393          calculate D2E/DX2 analytically  !
 ! R18   R(9,15)                 1.3951         calculate D2E/DX2 analytically  !
 ! R19   R(10,11)                1.3974         calculate D2E/DX2 analytically  !
 ! R20   R(10,40)                1.0862         calculate D2E/DX2 analytically  !
 ! R21   R(11,12)                1.398          calculate D2E/DX2 analytically  !
 ! R22   R(11,41)                1.0866         calculate D2E/DX2 analytically  !
 ! R23   R(12,13)                1.3994         calculate D2E/DX2 analytically  !
 ! R24   R(12,14)                1.3981         calculate D2E/DX2 analytically  !
 ! R25   R(13,42)                1.0151         calculate D2E/DX2 analytically  !
 ! R26   R(13,43)                1.0152         calculate D2E/DX2 analytically  !
 ! R27   R(14,15)                1.3978         calculate D2E/DX2 analytically  !
 ! R28   R(14,44)                1.0867         calculate D2E/DX2 analytically  !
 ! R29   R(15,45)                1.0861         calculate D2E/DX2 analytically  !
 ! R30   R(16,17)                1.3993         calculate D2E/DX2 analytically  !
 ! R31   R(16,46)                1.0875         calculate D2E/DX2 analytically  !
 ! R32   R(17,47)                1.0881         calculate D2E/DX2 analytically  !
 ! R33   R(18,19)                1.4124         calculate D2E/DX2 analytically  !
 ! R34   R(18,31)                1.4068         calculate D2E/DX2 analytically  !
 ! R35   R(19,20)                1.3971         calculate D2E/DX2 analytically  !
 ! R36   R(19,48)                1.0901         calculate D2E/DX2 analytically  !
 ! R37   R(20,21)                1.3905         calculate D2E/DX2 analytically  !
 ! R38   R(20,49)                1.0871         calculate D2E/DX2 analytically  !
 ! R39   R(21,22)                1.3758         calculate D2E/DX2 analytically  !
 ! R40   R(21,30)                1.3938         calculate D2E/DX2 analytically  !
 ! R41   R(22,23)                1.3754         calculate D2E/DX2 analytically  !
 ! R42   R(23,24)                1.393          calculate D2E/DX2 analytically  !
 ! R43   R(23,29)                1.395          calculate D2E/DX2 analytically  !
 ! R44   R(24,25)                1.3973         calculate D2E/DX2 analytically  !
 ! R45   R(24,50)                1.0862         calculate D2E/DX2 analytically  !
 ! R46   R(25,26)                1.3979         calculate D2E/DX2 analytically  !
 ! R47   R(25,51)                1.0866         calculate D2E/DX2 analytically  !
 ! R48   R(26,27)                1.3994         calculate D2E/DX2 analytically  !
 ! R49   R(26,28)                1.3981         calculate D2E/DX2 analytically  !
 ! R50   R(27,52)                1.0151         calculate D2E/DX2 analytically  !
 ! R51   R(27,53)                1.0152         calculate D2E/DX2 analytically  !
 ! R52   R(28,29)                1.3978         calculate D2E/DX2 analytically  !
 ! R53   R(28,54)                1.0867         calculate D2E/DX2 analytically  !
 ! R54   R(29,55)                1.0861         calculate D2E/DX2 analytically  !
 ! R55   R(30,31)                1.3998         calculate D2E/DX2 analytically  !
 ! R56   R(30,56)                1.0876         calculate D2E/DX2 analytically  !
 ! R57   R(31,57)                1.0883         calculate D2E/DX2 analytically  !
 ! R58   R(32,33)                1.3588         calculate D2E/DX2 analytically  !
 ! R59   R(32,34)                1.3543         calculate D2E/DX2 analytically  !
 ! R60   R(32,35)                1.3534         calculate D2E/DX2 analytically  !
 ! A1    A(1,2,3)              113.0701         calculate D2E/DX2 analytically  !
 ! A2    A(1,2,36)             105.9422         calculate D2E/DX2 analytically  !
 ! A3    A(1,2,37)             106.6494         calculate D2E/DX2 analytically  !
 ! A4    A(3,2,36)             111.995          calculate D2E/DX2 analytically  !
 ! A5    A(3,2,37)             112.6021         calculate D2E/DX2 analytically  !
 ! A6    A(36,2,37)            106.0548         calculate D2E/DX2 analytically  !
 ! A7    A(2,3,4)              114.7754         calculate D2E/DX2 analytically  !
 ! A8    A(2,3,18)             107.8484         calculate D2E/DX2 analytically  !
 ! A9    A(2,3,32)             101.9833         calculate D2E/DX2 analytically  !
 ! A10   A(4,3,18)             109.6178         calculate D2E/DX2 analytically  !
 ! A11   A(4,3,32)             107.823          calculate D2E/DX2 analytically  !
 ! A12   A(18,3,32)            114.7933         calculate D2E/DX2 analytically  !
 ! A13   A(3,4,5)              119.4753         calculate D2E/DX2 analytically  !
 ! A14   A(3,4,17)             122.9845         calculate D2E/DX2 analytically  !
 ! A15   A(5,4,17)             117.5399         calculate D2E/DX2 analytically  !
 ! A16   A(4,5,6)              121.4187         calculate D2E/DX2 analytically  !
 ! A17   A(4,5,38)             120.8968         calculate D2E/DX2 analytically  !
 ! A18   A(6,5,38)             117.6816         calculate D2E/DX2 analytically  !
 ! A19   A(5,6,7)              119.8491         calculate D2E/DX2 analytically  !
 ! A20   A(5,6,39)             119.4452         calculate D2E/DX2 analytically  !
 ! A21   A(7,6,39)             120.7051         calculate D2E/DX2 analytically  !
 ! A22   A(6,7,8)              123.0864         calculate D2E/DX2 analytically  !
 ! A23   A(6,7,16)             119.8232         calculate D2E/DX2 analytically  !
 ! A24   A(8,7,16)             116.9983         calculate D2E/DX2 analytically  !
 ! A25   A(7,8,9)              117.3348         calculate D2E/DX2 analytically  !
 ! A26   A(8,9,10)             117.2321         calculate D2E/DX2 analytically  !
 ! A27   A(8,9,15)             122.6395         calculate D2E/DX2 analytically  !
 ! A28   A(10,9,15)            120.0793         calculate D2E/DX2 analytically  !
 ! A29   A(9,10,11)            119.8334         calculate D2E/DX2 analytically  !
 ! A30   A(9,10,40)            120.1195         calculate D2E/DX2 analytically  !
 ! A31   A(11,10,40)           120.0351         calculate D2E/DX2 analytically  !
 ! A32   A(10,11,12)           120.697          calculate D2E/DX2 analytically  !
 ! A33   A(10,11,41)           119.0448         calculate D2E/DX2 analytically  !
 ! A34   A(12,11,41)           120.2577         calculate D2E/DX2 analytically  !
 ! A35   A(11,12,13)           120.2135         calculate D2E/DX2 analytically  !
 ! A36   A(11,12,14)           118.7722         calculate D2E/DX2 analytically  !
 ! A37   A(13,12,14)           120.2073         calculate D2E/DX2 analytically  !
 ! A38   A(12,13,42)           113.8694         calculate D2E/DX2 analytically  !
 ! A39   A(12,13,43)           113.8788         calculate D2E/DX2 analytically  !
 ! A40   A(42,13,43)           112.3294         calculate D2E/DX2 analytically  !
 ! A41   A(12,14,15)           120.7558         calculate D2E/DX2 analytically  !
 ! A42   A(12,14,44)           120.2468         calculate D2E/DX2 analytically  !
 ! A43   A(15,14,44)           118.9964         calculate D2E/DX2 analytically  !
 ! A44   A(9,15,14)            119.7013         calculate D2E/DX2 analytically  !
 ! A45   A(9,15,45)            120.7325         calculate D2E/DX2 analytically  !
 ! A46   A(14,15,45)           119.5635         calculate D2E/DX2 analytically  !
 ! A47   A(7,16,17)            120.37           calculate D2E/DX2 analytically  !
 ! A48   A(7,16,46)            119.7533         calculate D2E/DX2 analytically  !
 ! A49   A(17,16,46)           119.8755         calculate D2E/DX2 analytically  !
 ! A50   A(4,17,16)            120.9715         calculate D2E/DX2 analytically  !
 ! A51   A(4,17,47)            122.2778         calculate D2E/DX2 analytically  !
 ! A52   A(16,17,47)           116.7507         calculate D2E/DX2 analytically  !
 ! A53   A(3,18,19)            119.5153         calculate D2E/DX2 analytically  !
 ! A54   A(3,18,31)            122.9503         calculate D2E/DX2 analytically  !
 ! A55   A(19,18,31)           117.5332         calculate D2E/DX2 analytically  !
 ! A56   A(18,19,20)           121.3375         calculate D2E/DX2 analytically  !
 ! A57   A(18,19,48)           120.905          calculate D2E/DX2 analytically  !
 ! A58   A(20,19,48)           117.755          calculate D2E/DX2 analytically  !
 ! A59   A(19,20,21)           120.0193         calculate D2E/DX2 analytically  !
 ! A60   A(19,20,49)           119.99           calculate D2E/DX2 analytically  !
 ! A61   A(21,20,49)           119.9904         calculate D2E/DX2 analytically  !
 ! A62   A(20,21,22)           116.9543         calculate D2E/DX2 analytically  !
 ! A63   A(20,21,30)           119.7967         calculate D2E/DX2 analytically  !
 ! A64   A(22,21,30)           123.1516         calculate D2E/DX2 analytically  !
 ! A65   A(21,22,23)           117.4249         calculate D2E/DX2 analytically  !
 ! A66   A(22,23,24)           117.224          calculate D2E/DX2 analytically  !
 ! A67   A(22,23,29)           122.643          calculate D2E/DX2 analytically  !
 ! A68   A(24,23,29)           120.0822         calculate D2E/DX2 analytically  !
 ! A69   A(23,24,25)           119.8337         calculate D2E/DX2 analytically  !
 ! A70   A(23,24,50)           120.1201         calculate D2E/DX2 analytically  !
 ! A71   A(25,24,50)           120.0346         calculate D2E/DX2 analytically  !
 ! A72   A(24,25,26)           120.694          calculate D2E/DX2 analytically  !
 ! A73   A(24,25,51)           119.046          calculate D2E/DX2 analytically  !
 ! A74   A(26,25,51)           120.2594         calculate D2E/DX2 analytically  !
 ! A75   A(25,26,27)           120.2077         calculate D2E/DX2 analytically  !
 ! A76   A(25,26,28)           118.7747         calculate D2E/DX2 analytically  !
 ! A77   A(27,26,28)           120.2125         calculate D2E/DX2 analytically  !
 ! A78   A(26,27,52)           113.8565         calculate D2E/DX2 analytically  !
 ! A79   A(26,27,53)           113.839          calculate D2E/DX2 analytically  !
 ! A80   A(52,27,53)           112.279          calculate D2E/DX2 analytically  !
 ! A81   A(26,28,29)           120.7566         calculate D2E/DX2 analytically  !
 ! A82   A(26,28,54)           120.2428         calculate D2E/DX2 analytically  !
 ! A83   A(29,28,54)           118.9994         calculate D2E/DX2 analytically  !
 ! A84   A(23,29,28)           119.6971         calculate D2E/DX2 analytically  !
 ! A85   A(23,29,55)           120.7248         calculate D2E/DX2 analytically  !
 ! A86   A(28,29,55)           119.5755         calculate D2E/DX2 analytically  !
 ! A87   A(21,30,31)           120.2323         calculate D2E/DX2 analytically  !
 ! A88   A(21,30,56)           120.4787         calculate D2E/DX2 analytically  !
 ! A89   A(31,30,56)           119.2883         calculate D2E/DX2 analytically  !
 ! A90   A(18,31,30)           121.0543         calculate D2E/DX2 analytically  !
 ! A91   A(18,31,57)           122.2752         calculate D2E/DX2 analytically  !
 ! A92   A(30,31,57)           116.6699         calculate D2E/DX2 analytically  !
 ! A93   A(3,32,33)            112.0153         calculate D2E/DX2 analytically  !
 ! A94   A(3,32,34)            112.5672         calculate D2E/DX2 analytically  !
 ! A95   A(3,32,35)            113.0427         calculate D2E/DX2 analytically  !
 ! A96   A(33,32,34)           106.0495         calculate D2E/DX2 analytically  !
 ! A97   A(33,32,35)           105.9947         calculate D2E/DX2 analytically  !
 ! A98   A(34,32,35)           106.6493         calculate D2E/DX2 analytically  !
 ! D1    D(1,2,3,4)            -61.3017         calculate D2E/DX2 analytically  !
 ! D2    D(1,2,3,18)           176.2124         calculate D2E/DX2 analytically  !
 ! D3    D(1,2,3,32)            54.9669         calculate D2E/DX2 analytically  !
 ! D4    D(36,2,3,4)            58.3033         calculate D2E/DX2 analytically  !
 ! D5    D(36,2,3,18)          -64.1826         calculate D2E/DX2 analytically  !
 ! D6    D(36,2,3,32)          174.5719         calculate D2E/DX2 analytically  !
 ! D7    D(37,2,3,4)           177.725          calculate D2E/DX2 analytically  !
 ! D8    D(37,2,3,18)           55.2391         calculate D2E/DX2 analytically  !
 ! D9    D(37,2,3,32)          -66.0064         calculate D2E/DX2 analytically  !
 ! D10   D(2,3,4,5)           -175.9205         calculate D2E/DX2 analytically  !
 ! D11   D(2,3,4,17)             3.8873         calculate D2E/DX2 analytically  !
 ! D12   D(18,3,4,5)           -54.3947         calculate D2E/DX2 analytically  !
 ! D13   D(18,3,4,17)          125.4131         calculate D2E/DX2 analytically  !
 ! D14   D(32,3,4,5)            71.2126         calculate D2E/DX2 analytically  !
 ! D15   D(32,3,4,17)         -108.9796         calculate D2E/DX2 analytically  !
 ! D16   D(2,3,18,19)           70.6015         calculate D2E/DX2 analytically  !
 ! D17   D(2,3,18,31)         -109.8065         calculate D2E/DX2 analytically  !
 ! D18   D(4,3,18,19)          -55.0005         calculate D2E/DX2 analytically  !
 ! D19   D(4,3,18,31)          124.5914         calculate D2E/DX2 analytically  !
 ! D20   D(32,3,18,19)        -176.5057         calculate D2E/DX2 analytically  !
 ! D21   D(32,3,18,31)           3.0863         calculate D2E/DX2 analytically  !
 ! D22   D(2,3,32,33)          174.7801         calculate D2E/DX2 analytically  !
 ! D23   D(2,3,32,34)          -65.8151         calculate D2E/DX2 analytically  !
 ! D24   D(2,3,32,35)           55.1118         calculate D2E/DX2 analytically  !
 ! D25   D(4,3,32,33)          -64.006          calculate D2E/DX2 analytically  !
 ! D26   D(4,3,32,34)           55.3989         calculate D2E/DX2 analytically  !
 ! D27   D(4,3,32,35)          176.3258         calculate D2E/DX2 analytically  !
 ! D28   D(18,3,32,33)          58.4729         calculate D2E/DX2 analytically  !
 ! D29   D(18,3,32,34)         177.8777         calculate D2E/DX2 analytically  !
 ! D30   D(18,3,32,35)         -61.1954         calculate D2E/DX2 analytically  !
 ! D31   D(3,4,5,6)           -179.9292         calculate D2E/DX2 analytically  !
 ! D32   D(3,4,5,38)             0.7002         calculate D2E/DX2 analytically  !
 ! D33   D(17,4,5,6)             0.2526         calculate D2E/DX2 analytically  !
 ! D34   D(17,4,5,38)         -179.118          calculate D2E/DX2 analytically  !
 ! D35   D(3,4,17,16)          179.8604         calculate D2E/DX2 analytically  !
 ! D36   D(3,4,17,47)           -0.184          calculate D2E/DX2 analytically  !
 ! D37   D(5,4,17,16)           -0.3282         calculate D2E/DX2 analytically  !
 ! D38   D(5,4,17,47)          179.6273         calculate D2E/DX2 analytically  !
 ! D39   D(4,5,6,7)              0.8697         calculate D2E/DX2 analytically  !
 ! D40   D(4,5,6,39)          -178.8204         calculate D2E/DX2 analytically  !
 ! D41   D(38,5,6,7)          -179.7402         calculate D2E/DX2 analytically  !
 ! D42   D(38,5,6,39)            0.5697         calculate D2E/DX2 analytically  !
 ! D43   D(5,6,7,8)           -178.3219         calculate D2E/DX2 analytically  !
 ! D44   D(5,6,7,16)            -1.9199         calculate D2E/DX2 analytically  !
 ! D45   D(39,6,7,8)             1.3642         calculate D2E/DX2 analytically  !
 ! D46   D(39,6,7,16)          177.7663         calculate D2E/DX2 analytically  !
 ! D47   D(6,7,8,9)            -45.9102         calculate D2E/DX2 analytically  !
 ! D48   D(16,7,8,9)           137.5929         calculate D2E/DX2 analytically  !
 ! D49   D(6,7,16,17)            1.8536         calculate D2E/DX2 analytically  !
 ! D50   D(6,7,16,46)         -178.5389         calculate D2E/DX2 analytically  !
 ! D51   D(8,7,16,17)          178.4706         calculate D2E/DX2 analytically  !
 ! D52   D(8,7,16,46)           -1.9219         calculate D2E/DX2 analytically  !
 ! D53   D(7,8,9,10)           132.2687         calculate D2E/DX2 analytically  !
 ! D54   D(7,8,9,15)           -50.2808         calculate D2E/DX2 analytically  !
 ! D55   D(8,9,10,11)          178.7488         calculate D2E/DX2 analytically  !
 ! D56   D(8,9,10,40)           -2.5122         calculate D2E/DX2 analytically  !
 ! D57   D(15,9,10,11)           1.2298         calculate D2E/DX2 analytically  !
 ! D58   D(15,9,10,40)         179.9687         calculate D2E/DX2 analytically  !
 ! D59   D(8,9,15,14)         -178.6037         calculate D2E/DX2 analytically  !
 ! D60   D(8,9,15,45)            1.9949         calculate D2E/DX2 analytically  !
 ! D61   D(10,9,15,14)          -1.2235         calculate D2E/DX2 analytically  !
 ! D62   D(10,9,15,45)         179.3751         calculate D2E/DX2 analytically  !
 ! D63   D(9,10,11,12)          -2.8702         calculate D2E/DX2 analytically  !
 ! D64   D(9,10,11,41)         177.3791         calculate D2E/DX2 analytically  !
 ! D65   D(40,10,11,12)        178.3898         calculate D2E/DX2 analytically  !
 ! D66   D(40,10,11,41)         -1.3609         calculate D2E/DX2 analytically  !
 ! D67   D(10,11,12,13)        174.1639         calculate D2E/DX2 analytically  !
 ! D68   D(10,11,12,14)          4.4276         calculate D2E/DX2 analytically  !
 ! D69   D(41,11,12,13)         -6.0885         calculate D2E/DX2 analytically  !
 ! D70   D(41,11,12,14)       -175.8247         calculate D2E/DX2 analytically  !
 ! D71   D(11,12,13,42)        160.5515         calculate D2E/DX2 analytically  !
 ! D72   D(11,12,13,43)         29.9912         calculate D2E/DX2 analytically  !
 ! D73   D(14,12,13,42)        -29.8603         calculate D2E/DX2 analytically  !
 ! D74   D(14,12,13,43)       -160.4206         calculate D2E/DX2 analytically  !
 ! D75   D(11,12,14,15)         -4.4256         calculate D2E/DX2 analytically  !
 ! D76   D(11,12,14,44)        175.9488         calculate D2E/DX2 analytically  !
 ! D77   D(13,12,14,15)       -174.1625         calculate D2E/DX2 analytically  !
 ! D78   D(13,12,14,44)          6.2119         calculate D2E/DX2 analytically  !
 ! D79   D(12,14,15,9)           2.8601         calculate D2E/DX2 analytically  !
 ! D80   D(12,14,15,45)       -177.7314         calculate D2E/DX2 analytically  !
 ! D81   D(44,14,15,9)        -177.5097         calculate D2E/DX2 analytically  !
 ! D82   D(44,14,15,45)          1.8988         calculate D2E/DX2 analytically  !
 ! D83   D(7,16,17,4)           -0.7206         calculate D2E/DX2 analytically  !
 ! D84   D(7,16,17,47)         179.3214         calculate D2E/DX2 analytically  !
 ! D85   D(46,16,17,4)         179.6723         calculate D2E/DX2 analytically  !
 ! D86   D(46,16,17,47)         -0.2856         calculate D2E/DX2 analytically  !
 ! D87   D(3,18,19,20)         179.9427         calculate D2E/DX2 analytically  !
 ! D88   D(3,18,19,48)           0.5375         calculate D2E/DX2 analytically  !
 ! D89   D(31,18,19,20)          0.3288         calculate D2E/DX2 analytically  !
 ! D90   D(31,18,19,48)       -179.0764         calculate D2E/DX2 analytically  !
 ! D91   D(3,18,31,30)        -179.8833         calculate D2E/DX2 analytically  !
 ! D92   D(3,18,31,57)          -0.1623         calculate D2E/DX2 analytically  !
 ! D93   D(19,18,31,30)         -0.2838         calculate D2E/DX2 analytically  !
 ! D94   D(19,18,31,57)        179.4373         calculate D2E/DX2 analytically  !
 ! D95   D(18,19,20,21)          0.7247         calculate D2E/DX2 analytically  !
 ! D96   D(18,19,20,49)       -179.456          calculate D2E/DX2 analytically  !
 ! D97   D(48,19,20,21)       -179.8521         calculate D2E/DX2 analytically  !
 ! D98   D(48,19,20,49)         -0.0327         calculate D2E/DX2 analytically  !
 ! D99   D(19,20,21,22)       -178.3507         calculate D2E/DX2 analytically  !
 ! D100  D(19,20,21,30)         -1.8259         calculate D2E/DX2 analytically  !
 ! D101  D(49,20,21,22)          1.83           calculate D2E/DX2 analytically  !
 ! D102  D(49,20,21,30)        178.3548         calculate D2E/DX2 analytically  !
 ! D103  D(20,21,22,23)       -138.4087         calculate D2E/DX2 analytically  !
 ! D104  D(30,21,22,23)         45.1936         calculate D2E/DX2 analytically  !
 ! D105  D(20,21,30,31)          1.8736         calculate D2E/DX2 analytically  !
 ! D106  D(20,21,30,56)       -177.8216         calculate D2E/DX2 analytically  !
 ! D107  D(22,21,30,31)        178.1733         calculate D2E/DX2 analytically  !
 ! D108  D(22,21,30,56)         -1.5219         calculate D2E/DX2 analytically  !
 ! D109  D(21,22,23,24)       -132.1726         calculate D2E/DX2 analytically  !
 ! D110  D(21,22,23,29)         50.4236         calculate D2E/DX2 analytically  !
 ! D111  D(22,23,24,25)       -178.7068         calculate D2E/DX2 analytically  !
 ! D112  D(22,23,24,50)          2.5296         calculate D2E/DX2 analytically  !
 ! D113  D(29,23,24,25)         -1.2332         calculate D2E/DX2 analytically  !
 ! D114  D(29,23,24,50)       -179.9968         calculate D2E/DX2 analytically  !
 ! D115  D(22,23,29,28)        178.572          calculate D2E/DX2 analytically  !
 ! D116  D(22,23,29,55)         -2.017          calculate D2E/DX2 analytically  !
 ! D117  D(24,23,29,28)          1.24           calculate D2E/DX2 analytically  !
 ! D118  D(24,23,29,55)       -179.349          calculate D2E/DX2 analytically  !
 ! D119  D(23,24,25,26)          2.8653         calculate D2E/DX2 analytically  !
 ! D120  D(23,24,25,51)       -177.4028         calculate D2E/DX2 analytically  !
 ! D121  D(50,24,25,26)       -178.3701         calculate D2E/DX2 analytically  !
 ! D122  D(50,24,25,51)          1.3618         calculate D2E/DX2 analytically  !
 ! D123  D(24,25,26,27)       -174.1765         calculate D2E/DX2 analytically  !
 ! D124  D(24,25,26,28)         -4.4279         calculate D2E/DX2 analytically  !
 ! D125  D(51,25,26,27)          6.0948         calculate D2E/DX2 analytically  !
 ! D126  D(51,25,26,28)        175.8434         calculate D2E/DX2 analytically  !
 ! D127  D(25,26,27,52)        -30.0261         calculate D2E/DX2 analytically  !
 ! D128  D(25,26,27,53)       -160.4627         calculate D2E/DX2 analytically  !
 ! D129  D(28,26,27,52)        160.3735         calculate D2E/DX2 analytically  !
 ! D130  D(28,26,27,53)         29.9369         calculate D2E/DX2 analytically  !
 ! D131  D(25,26,28,29)          4.4394         calculate D2E/DX2 analytically  !
 ! D132  D(25,26,28,54)       -175.96           calculate D2E/DX2 analytically  !
 ! D133  D(27,26,28,29)        174.1875         calculate D2E/DX2 analytically  !
 ! D134  D(27,26,28,54)         -6.2119         calculate D2E/DX2 analytically  !
 ! D135  D(26,28,29,23)         -2.882          calculate D2E/DX2 analytically  !
 ! D136  D(26,28,29,55)        177.7002         calculate D2E/DX2 analytically  !
 ! D137  D(54,28,29,23)        177.5125         calculate D2E/DX2 analytically  !
 ! D138  D(54,28,29,55)         -1.9053         calculate D2E/DX2 analytically  !
 ! D139  D(21,30,31,18)         -0.8129         calculate D2E/DX2 analytically  !
 ! D140  D(21,30,31,57)        179.4511         calculate D2E/DX2 analytically  !
 ! D141  D(56,30,31,18)        178.886          calculate D2E/DX2 analytically  !
 ! D142  D(56,30,31,57)         -0.8501         calculate D2E/DX2 analytically  !
 --------------------------------------------------------------------------------
 Trust Radius=3.00D-01 FncErr=1.00D-07 GrdErr=1.00D-06 EigMax=2.50D+02 EigMin=1.00D-04
 Number of steps in this run=    310 maximum allowed number of steps=    342.
 GradGradGradGradGradGradGradGradGradGradGradGradGradGradGradGradGradGrad

 Stoichiometry    C27H20F6N2O2
 Framework group  C1[X(C27H20F6N2O2)]
 Deg. of freedom   165
 Full point group                 C1      NOp   1
 Largest Abelian subgroup         C1      NOp   1
 Largest concise Abelian subgroup C1      NOp   1
                         Standard orientation:                         
 ---------------------------------------------------------------------
 Center     Atomic      Atomic             Coordinates (Angstroms)
 Number     Number       Type             X           Y           Z
 ---------------------------------------------------------------------
      1          9           0        0.470502    4.033293   -0.282714
      2          6           0       -0.420225    3.042926   -0.522936
      3          6           0       -0.023649    1.706965    0.123061
      4          6           0        1.329756    1.115796   -0.376760
      5          6           0        1.748236   -0.151271    0.086784
      6          6           0        2.954072   -0.718817   -0.333336
      7          6           0        3.778145   -0.022609   -1.213815
      8          8           0        4.961793   -0.531524   -1.696159
      9          6           0        5.809986   -1.124952   -0.790244
     10          6           0        6.336936   -2.368705   -1.130461
     11          6           0        7.225024   -3.008607   -0.261846
     12          6           0        7.638873   -2.387872    0.920417
     13          7           0        8.430198   -3.083518    1.841329
     14          6           0        7.076779   -1.155151    1.265696
     15          6           0        6.187804   -0.508075    0.402687
     16          6           0        3.377957    1.217623   -1.702358
     17          6           0        2.170028    1.786589   -1.283862
     18          6           0       -1.171712    0.686676   -0.145798
     19          6           0       -1.373733    0.195433   -1.454557
     20          6           0       -2.389870   -0.720448   -1.738065
     21          6           0       -3.237011   -1.155367   -0.724793
     22          8           0       -4.193091   -2.083658   -1.066780
     23          6           0       -5.452420   -1.920109   -0.538516
     24          6           0       -6.054400   -3.039232    0.032019
     25          6           0       -7.344161   -2.941226    0.560599
     26          6           0       -8.063274   -1.745812    0.470653
     27          7           0       -9.302719   -1.620078    1.108060
     28          6           0       -7.434996   -0.621843   -0.073915
     29          6           0       -6.145242   -0.711099   -0.605237
     30          6           0       -3.044905   -0.704231    0.579949
     31          6           0       -2.027879    0.214127    0.865581
     32          6           0        0.152565    2.104893    1.596123
     33          9           0        0.401069    1.029092    2.388131
     34          9           0        1.189286    2.955752    1.784201
     35          9           0       -0.942211    2.706480    2.116957
     36          9           0       -0.515100    2.946099   -1.875278
     37          9           0       -1.623950    3.491304   -0.094208
     38          1           0        1.132547   -0.725270    0.779737
     39          1           0        3.235665   -1.704312    0.028812
     40          1           0        6.042836   -2.849818   -2.058854
     41          1           0        7.594870   -3.997287   -0.519652
     42          1           0        8.928997   -2.483174    2.490405
     43          1           0        9.034598   -3.781512    1.419200
     44          1           0        7.331573   -0.682785    2.210621
     45          1           0        5.791291    0.466104    0.673625
     46          1           0        4.011404    1.749533   -2.408396
     47          1           0        1.920374    2.762933   -1.694256
     48          1           0       -0.732685    0.513189   -2.277046
     49          1           0       -2.520158   -1.090959   -2.751687
     50          1           0       -5.515499   -3.980889    0.084337
     51          1           0       -7.785051   -3.810670    1.040679
     52          1           0       -9.814863   -2.493082    1.185769
     53          1           0       -9.877823   -0.867728    0.742181
     54          1           0       -7.948495    0.335616   -0.095324
     55          1           0       -5.689870    0.165198   -1.057301
     56          1           0       -3.678627   -1.064390    1.387084
     57          1           0       -1.935508    0.534126    1.901656
 ---------------------------------------------------------------------
 Rotational constants (GHZ):           0.1667878           0.0418613           0.0372132
 Standard basis: 6-31G(d,p) (6D, 7F)
 There are   655 symmetry adapted cartesian basis functions of A   symmetry.
 There are   655 symmetry adapted basis functions of A   symmetry.
   655 basis functions,  1176 primitive gaussians,   655 cartesian basis functions
   133 alpha electrons      133 beta electrons
       nuclear repulsion energy      3943.7273198780 Hartrees.
 NAtoms=   57 NActive=   57 NUniq=   57 SFac= 1.00D+00 NAtFMM=   60 NAOKFM=F Big=F
 Integral buffers will be    131072 words long.
 Raffenetti 2 integral format.
 Two-electron integral symmetry is turned on.
 Force inversion solution in PCM.
 ------------------------------------------------------------------------------
 Polarizable Continuum Model (PCM)
 =================================
 Model                : PCM.
 Atomic radii         : UFF (Universal Force Field).
 Polarization charges : Total charges.
 Charge compensation  : None.
 Solution method      : Matrix inversion.
 Cavity type          : Scaled VdW (van der Waals Surface) (Alpha=1.100).
 Cavity algorithm     : GePol (No added spheres)
                        Default sphere list used, NSphG=   57.
                        Lebedev-Laikov grids with approx.  5.0 points / Ang**2.
                        Smoothing algorithm: York/Karplus (Gamma=1.0000).
                        Polarization charges: spherical gaussians, with
                                              point-specific exponents (IZeta= 3).
                        Self-potential: point-specific (ISelfS= 7).
                        Self-field    : sphere-specific E.n sum rule (ISelfD= 2).
 1st derivatives      : Analytical E(r).r(x)/FMM algorithm (CHGder, D1EAlg=3).
                        Cavity 1st derivative terms included.
 2nd derivatives      : Analytical E(r).r(xy)/FMM algorithm (CHGder, D2EAlg=3).
                        Cavity 2nd derivative terms included.
 Solvent              : Water, Eps=  78.355300 Eps(inf)=   1.777849
 ------------------------------------------------------------------------------
 One-electron integrals computed using PRISM.
 NBasis=   655 RedAO= T EigKep=  3.96D-04  NBF=   655
 NBsUse=   655 1.00D-06 EigRej= -1.00D+00 NBFU=   655
 ExpMin= 1.61D-01 ExpMax= 7.00D+03 ExpMxC= 1.05D+03 IAcc=3 IRadAn=         5 AccDes= 0.00D+00
 Harris functional with IExCor=  402 and IRadAn=       5 diagonalized for initial guess.
 HarFok:  IExCor=  402 AccDes= 0.00D+00 IRadAn=         5 IDoV= 1 UseB2=F ITyADJ=14
 ICtDFT=  3500011 ScaDFX=  1.000000  1.000000  1.000000  1.000000
 FoFCou: FMM=F IPFlag=           0 FMFlag=      100000 FMFlg1=           0
         NFxFlg=           0 DoJE=T BraDBF=F KetDBF=T FulRan=T
         wScrn=  0.000000 ICntrl=       500 IOpCl=  0 I1Cent=   200000004 NGrid=           0
         NMat0=    1 NMatS0=      1 NMatT0=    0 NMatD0=    1 NMtDS0=    0 NMtDT0=    0
 Petite list used in FoFCou.
 Requested convergence on RMS density matrix=1.00D-08 within  32 cycles.
 Requested convergence on MAX density matrix=1.00D-06.
 Requested convergence on             energy=1.00D-06.
 No special actions if energy rises.
 Inv3:  Mode=1 IEnd=    54391692.
 Iteration    1 A*A^-1 deviation from unit magnitude is 3.33D-15 for    833.
 Iteration    1 A*A^-1 deviation from orthogonality  is 2.33D-15 for   2367    821.
 Iteration    1 A^-1*A deviation from unit magnitude is 3.11D-15 for    204.
 Iteration    1 A^-1*A deviation from orthogonality  is 2.06D-15 for   3168   2902.
 Error on total polarization charges =  0.01056
 SCF Done:  E(RB3LYP) =  -1899.94657092     A.U. after   12 cycles
            NFock= 12  Conv=0.86D-08     -V/T= 2.0086
 QCSCF skips out because SCF is already converged.
 DoSCS=F DFT=T ScalE2(SS,OS)=  1.000000  1.000000
 Range of M.O.s used for correlation:     1   655
 NBasis=   655 NAE=   133 NBE=   133 NFC=     0 NFV=     0
 NROrb=    655 NOA=   133 NOB=   133 NVA=   522 NVB=   522

 **** Warning!!: The largest alpha MO coefficient is  0.10813897D+02

 Symmetrizing basis deriv contribution to polar:
 IMax=3 JMax=2 DiffMx= 0.00D+00
 G2DrvN: will do    58 centers at a time, making    1 passes.
 Calling FoFCou, ICntrl=  3107 FMM=F I1Cent=   0 AccDes= 0.00D+00.
 NEqPCM:  Using equilibrium solvation (IEInf=0, Eps=  78.3553, EpsInf=   1.7778)
 G2PCM: DoFxE=T DoFxN=T DoGrad=T DoDP/DQ/DG/TGxP=FFFF NFrqRd=   0 IEInf=0 SqF1=F DoCFld=F IF1Alg=4.
 End of G2Drv F.D. properties file   721 does not exist.
 End of G2Drv F.D. properties file   722 does not exist.
 End of G2Drv F.D. properties file   788 does not exist.
          IDoAtm=11111111111111111111111111111111111111111111111111
          IDoAtm=1111111
 NEqPCM:  Using equilibrium solvation (IEInf=0, Eps=  78.3553, EpsInf=   1.7778)
          Differentiating once with respect to nuclear coordinates.
 CalDSu exits because no D1Ps are significant.
          There are   174 degrees of freedom in the 1st order CPHF.  IDoFFX=6 NUNeed=     0.
    168 vectors produced by pass  0 Test12= 6.94D-14 1.00D-09 XBig12= 1.61D-01 1.08D-01.
 AX will form   168 AO Fock derivatives at one time.
    168 vectors produced by pass  1 Test12= 6.94D-14 1.00D-09 XBig12= 2.04D-02 3.21D-02.
    168 vectors produced by pass  2 Test12= 6.94D-14 1.00D-09 XBig12= 2.05D-04 1.20D-03.
    168 vectors produced by pass  3 Test12= 6.94D-14 1.00D-09 XBig12= 1.09D-06 1.04D-04.
    168 vectors produced by pass  4 Test12= 6.94D-14 1.00D-09 XBig12= 2.76D-09 3.68D-06.
    136 vectors produced by pass  5 Test12= 6.94D-14 1.00D-09 XBig12= 3.46D-12 1.14D-07.
     38 vectors produced by pass  6 Test12= 6.94D-14 1.00D-09 XBig12= 3.85D-15 3.63D-09.
 InvSVY:  IOpt=1 It=  1 EMax= 4.44D-16
 Solved reduced A of dimension  1014 with   174 vectors.
 End of Minotr F.D. properties file   721 does not exist.
 End of Minotr F.D. properties file   722 does not exist.
 End of Minotr F.D. properties file   788 does not exist.

 **********************************************************************

            Population analysis using the SCF density.

 **********************************************************************

 Orbital symmetries:
       Occupied  (A) (A) (A) (A) (A) (A) (A) (A) (A) (A) (A) (A)
                 (A) (A) (A) (A) (A) (A) (A) (A) (A) (A) (A) (A)
                 (A) (A) (A) (A) (A) (A) (A) (A) (A) (A) (A) (A)
                 (A) (A) (A) (A) (A) (A) (A) (A) (A) (A) (A) (A)
                 (A) (A) (A) (A) (A) (A) (A) (A) (A) (A) (A) (A)
                 (A) (A) (A) (A) (A) (A) (A) (A) (A) (A) (A) (A)
                 (A) (A) (A) (A) (A) (A) (A) (A) (A) (A) (A) (A)
                 (A) (A) (A) (A) (A) (A) (A) (A) (A) (A) (A) (A)
                 (A) (A) (A) (A) (A) (A) (A) (A) (A) (A) (A) (A)
                 (A) (A) (A) (A) (A) (A) (A) (A) (A) (A) (A) (A)
                 (A) (A) (A) (A) (A) (A) (A) (A) (A) (A) (A) (A)
                 (A)
       Virtual   (A) (A) (A) (A) (A) (A) (A) (A) (A) (A) (A) (A)
                 (A) (A) (A) (A) (A) (A) (A) (A) (A) (A) (A) (A)
                 (A) (A) (A) (A) (A) (A) (A) (A) (A) (A) (A) (A)
                 (A) (A) (A) (A) (A) (A) (A) (A) (A) (A) (A) (A)
                 (A) (A) (A) (A) (A) (A) (A) (A) (A) (A) (A) (A)
                 (A) (A) (A) (A) (A) (A) (A) (A) (A) (A) (A) (A)
                 (A) (A) (A) (A) (A) (A) (A) (A) (A) (A) (A) (A)
                 (A) (A) (A) (A) (A) (A) (A) (A) (A) (A) (A) (A)
                 (A) (A) (A) (A) (A) (A) (A) (A) (A) (A) (A) (A)
                 (A) (A) (A) (A) (A) (A) (A) (A) (A) (A) (A) (A)
                 (A) (A) (A) (A) (A) (A) (A) (A) (A) (A) (A) (A)
                 (A) (A) (A) (A) (A) (A) (A) (A) (A) (A) (A) (A)
                 (A) (A) (A) (A) (A) (A) (A) (A) (A) (A) (A) (A)
                 (A) (A) (A) (A) (A) (A) (A) (A) (A) (A) (A) (A)
                 (A) (A) (A) (A) (A) (A) (A) (A) (A) (A) (A) (A)
                 (A) (A) (A) (A) (A) (A) (A) (A) (A) (A) (A) (A)
                 (A) (A) (A) (A) (A) (A) (A) (A) (A) (A) (A) (A)
                 (A) (A) (A) (A) (A) (A) (A) (A) (A) (A) (A) (A)
                 (A) (A) (A) (A) (A) (A) (A) (A) (A) (A) (A) (A)
                 (A) (A) (A) (A) (A) (A) (A) (A) (A) (A) (A) (A)
                 (A) (A) (A) (A) (A) (A) (A) (A) (A) (A) (A) (A)
                 (A) (A) (A) (A) (A) (A) (A) (A) (A) (A) (A) (A)
                 (A) (A) (A) (A) (A) (A) (A) (A) (A) (A) (A) (A)
                 (A) (A) (A) (A) (A) (A) (A) (A) (A) (A) (A) (A)
                 (A) (A) (A) (A) (A) (A) (A) (A) (A) (A) (A) (A)
                 (A) (A) (A) (A) (A) (A) (A) (A) (A) (A) (A) (A)
                 (A) (A) (A) (A) (A) (A) (A) (A) (A) (A) (A) (A)
                 (A) (A) (A) (A) (A) (A) (A) (A) (A) (A) (A) (A)
                 (A) (A) (A) (A) (A) (A) (A) (A) (A) (A) (A) (A)
                 (A) (A) (A) (A) (A) (A) (A) (A) (A) (A) (A) (A)
                 (A) (A) (A) (A) (A) (A) (A) (A) (A) (A) (A) (A)
                 (A) (A) (A) (A) (A) (A) (A) (A) (A) (A) (A) (A)
                 (A) (A) (A) (A) (A) (A) (A) (A) (A) (A) (A) (A)
                 (A) (A) (A) (A) (A) (A) (A) (A) (A) (A) (A) (A)
                 (A) (A) (A) (A) (A) (A) (A) (A) (A) (A) (A) (A)
                 (A) (A) (A) (A) (A) (A) (A) (A) (A) (A) (A) (A)
                 (A) (A) (A) (A) (A) (A) (A) (A) (A) (A) (A) (A)
                 (A) (A) (A) (A) (A) (A) (A) (A) (A) (A) (A) (A)
                 (A) (A) (A) (A) (A) (A) (A) (A) (A) (A) (A) (A)
                 (A) (A) (A) (A) (A) (A) (A) (A) (A) (A) (A) (A)
                 (A) (A) (A) (A) (A) (A) (A) (A) (A) (A) (A) (A)
                 (A) (A) (A) (A) (A) (A) (A) (A) (A) (A) (A) (A)
                 (A) (A) (A) (A) (A) (A) (A) (A) (A) (A) (A) (A)
                 (A) (A) (A) (A) (A) (A)
 The electronic state is 1-A.
 Alpha  occ. eigenvalues --  -24.74036 -24.74035 -24.73872 -24.73857 -24.73800
 Alpha  occ. eigenvalues --  -24.73788 -19.18946 -19.18935 -14.33596 -14.33591
 Alpha  occ. eigenvalues --  -10.45161 -10.45158 -10.26887 -10.25878 -10.25867
 Alpha  occ. eigenvalues --  -10.24158 -10.24156 -10.22679 -10.22672 -10.22332
 Alpha  occ. eigenvalues --  -10.22331 -10.20799 -10.20744 -10.20739 -10.20684
 Alpha  occ. eigenvalues --  -10.20062 -10.20000 -10.19841 -10.19783 -10.19325
 Alpha  occ. eigenvalues --  -10.19323 -10.19099 -10.19095 -10.18801 -10.18798
 Alpha  occ. eigenvalues --  -10.18721 -10.18715  -1.32197  -1.31229  -1.23402
 Alpha  occ. eigenvalues --   -1.22969  -1.22433  -1.22396  -1.08403  -1.08397
 Alpha  occ. eigenvalues --   -0.91458  -0.91457  -0.89126  -0.86518  -0.84713
 Alpha  occ. eigenvalues --   -0.83691  -0.83097  -0.76439  -0.76116  -0.75786
 Alpha  occ. eigenvalues --   -0.75592  -0.74830  -0.74804  -0.71885  -0.71699
 Alpha  occ. eigenvalues --   -0.71256  -0.67032  -0.63892  -0.63708  -0.62981
 Alpha  occ. eigenvalues --   -0.62495  -0.61971  -0.61845  -0.60398  -0.60143
 Alpha  occ. eigenvalues --   -0.59353  -0.58876  -0.58354  -0.58343  -0.56629
 Alpha  occ. eigenvalues --   -0.54989  -0.54948  -0.53747  -0.51566  -0.51421
 Alpha  occ. eigenvalues --   -0.50951  -0.50659  -0.50132  -0.48803  -0.48396
 Alpha  occ. eigenvalues --   -0.47945  -0.47486  -0.47060  -0.46679  -0.45766
 Alpha  occ. eigenvalues --   -0.45613  -0.45441  -0.45166  -0.44658  -0.44328
 Alpha  occ. eigenvalues --   -0.44217  -0.43617  -0.43563  -0.42883  -0.42750
 Alpha  occ. eigenvalues --   -0.42433  -0.42262  -0.41850  -0.41731  -0.41569
 Alpha  occ. eigenvalues --   -0.41210  -0.41066  -0.40415  -0.39814  -0.39549
 Alpha  occ. eigenvalues --   -0.39433  -0.39067  -0.38607  -0.37994  -0.37559
 Alpha  occ. eigenvalues --   -0.37136  -0.36543  -0.35988  -0.35686  -0.34855
 Alpha  occ. eigenvalues --   -0.34620  -0.33322  -0.32917  -0.29862  -0.29608
 Alpha  occ. eigenvalues --   -0.26566  -0.26339  -0.25543  -0.25441  -0.24891
 Alpha  occ. eigenvalues --   -0.23758  -0.19796  -0.19747
 Alpha virt. eigenvalues --   -0.02352  -0.01983  -0.01868  -0.01040  -0.00433
 Alpha virt. eigenvalues --   -0.00174   0.01873   0.01968   0.08336   0.08419
 Alpha virt. eigenvalues --    0.09064   0.09077   0.10262   0.10490   0.10876
 Alpha virt. eigenvalues --    0.11510   0.12434   0.12894   0.13070   0.13083
 Alpha virt. eigenvalues --    0.13817   0.14203   0.15264   0.15917   0.15949
 Alpha virt. eigenvalues --    0.16610   0.16766   0.17080   0.17104   0.17170
 Alpha virt. eigenvalues --    0.17327   0.17600   0.17855   0.18003   0.19241
 Alpha virt. eigenvalues --    0.19642   0.19978   0.20133   0.20230   0.21558
 Alpha virt. eigenvalues --    0.23599   0.24112   0.24681   0.24750   0.25732
 Alpha virt. eigenvalues --    0.25790   0.26124   0.27319   0.29435   0.31278
 Alpha virt. eigenvalues --    0.32154   0.32432   0.33203   0.33334   0.33661
 Alpha virt. eigenvalues --    0.33746   0.33941   0.34097   0.34400   0.35057
 Alpha virt. eigenvalues --    0.36458   0.36676   0.36770   0.37119   0.44395
 Alpha virt. eigenvalues --    0.44687   0.46514   0.46782   0.48288   0.48395
 Alpha virt. eigenvalues --    0.48583   0.49224   0.49758   0.49909   0.50323
 Alpha virt. eigenvalues --    0.51278   0.51568   0.52098   0.52587   0.52835
 Alpha virt. eigenvalues --    0.53223   0.53407   0.54053   0.54393   0.54924
 Alpha virt. eigenvalues --    0.55012   0.55634   0.56578   0.56782   0.57297
 Alpha virt. eigenvalues --    0.57703   0.57794   0.58135   0.58316   0.58838
 Alpha virt. eigenvalues --    0.59007   0.59278   0.59498   0.59819   0.59944
 Alpha virt. eigenvalues --    0.60122   0.60357   0.60770   0.60958   0.61225
 Alpha virt. eigenvalues --    0.61997   0.62063   0.62445   0.63046   0.63627
 Alpha virt. eigenvalues --    0.64029   0.64706   0.65850   0.66095   0.66852
 Alpha virt. eigenvalues --    0.67151   0.67858   0.68843   0.68997   0.69535
 Alpha virt. eigenvalues --    0.70070   0.70994   0.72156   0.73191   0.74287
 Alpha virt. eigenvalues --    0.75460   0.75563   0.75899   0.76913   0.77388
 Alpha virt. eigenvalues --    0.78195   0.78419   0.80238   0.80451   0.80971
 Alpha virt. eigenvalues --    0.81329   0.81785   0.81828   0.82094   0.82475
 Alpha virt. eigenvalues --    0.83333   0.83607   0.84034   0.84454   0.84556
 Alpha virt. eigenvalues --    0.84980   0.85828   0.85999   0.86223   0.86457
 Alpha virt. eigenvalues --    0.87461   0.87862   0.88655   0.89500   0.89651
 Alpha virt. eigenvalues --    0.89684   0.89978   0.90819   0.91281   0.91489
 Alpha virt. eigenvalues --    0.92931   0.93154   0.94165   0.97677   0.98574
 Alpha virt. eigenvalues --    0.98825   0.99220   0.99311   0.99712   0.99771
 Alpha virt. eigenvalues --    1.00512   1.00752   1.02562   1.03572   1.03880
 Alpha virt. eigenvalues --    1.04297   1.05578   1.05856   1.07160   1.08086
 Alpha virt. eigenvalues --    1.08379   1.09659   1.10233   1.11137   1.11568
 Alpha virt. eigenvalues --    1.11826   1.11924   1.13047   1.14126   1.14365
 Alpha virt. eigenvalues --    1.15059   1.15606   1.16047   1.16256   1.17540
 Alpha virt. eigenvalues --    1.17927   1.18654   1.19156   1.20041   1.20952
 Alpha virt. eigenvalues --    1.21242   1.22600   1.23740   1.25104   1.25823
 Alpha virt. eigenvalues --    1.26157   1.27064   1.27762   1.28262   1.29168
 Alpha virt. eigenvalues --    1.29623   1.30729   1.31646   1.32584   1.32678
 Alpha virt. eigenvalues --    1.33348   1.33922   1.34556   1.35126   1.35746
 Alpha virt. eigenvalues --    1.35982   1.36843   1.36912   1.37920   1.38013
 Alpha virt. eigenvalues --    1.38297   1.39016   1.39372   1.39649   1.39697
 Alpha virt. eigenvalues --    1.39776   1.40198   1.40377   1.40717   1.41386
 Alpha virt. eigenvalues --    1.41540   1.42697   1.43137   1.44605   1.45231
 Alpha virt. eigenvalues --    1.45883   1.46572   1.47219   1.47913   1.49773
 Alpha virt. eigenvalues --    1.49984   1.50927   1.52086   1.52188   1.56334
 Alpha virt. eigenvalues --    1.57692   1.58304   1.62158   1.62708   1.65632
 Alpha virt. eigenvalues --    1.65810   1.67684   1.67833   1.69919   1.70484
 Alpha virt. eigenvalues --    1.72894   1.73063   1.73288   1.74897   1.75372
 Alpha virt. eigenvalues --    1.75651   1.76388   1.77163   1.77332   1.78331
 Alpha virt. eigenvalues --    1.78542   1.79454   1.79924   1.80143   1.80312
 Alpha virt. eigenvalues --    1.80541   1.81338   1.82277   1.83215   1.83319
 Alpha virt. eigenvalues --    1.84021   1.84691   1.85187   1.85582   1.85708
 Alpha virt. eigenvalues --    1.86388   1.86749   1.87405   1.88179   1.88597
 Alpha virt. eigenvalues --    1.90214   1.90345   1.90503   1.90723   1.91389
 Alpha virt. eigenvalues --    1.91576   1.91633   1.92198   1.92472   1.92618
 Alpha virt. eigenvalues --    1.93033   1.95002   1.95466   1.95708   1.96001
 Alpha virt. eigenvalues --    1.96201   1.97348   1.97415   1.97667   1.97847
 Alpha virt. eigenvalues --    1.98419   1.98842   1.99112   1.99873   2.00112
 Alpha virt. eigenvalues --    2.00552   2.01326   2.01445   2.01878   2.02175
 Alpha virt. eigenvalues --    2.03080   2.05388   2.05793   2.06061   2.06303
 Alpha virt. eigenvalues --    2.06713   2.06764   2.08893   2.08947   2.10278
 Alpha virt. eigenvalues --    2.10570   2.11289   2.12519   2.13045   2.13962
 Alpha virt. eigenvalues --    2.14581   2.16501   2.16620   2.17125   2.19087
 Alpha virt. eigenvalues --    2.19803   2.21557   2.23675   2.23785   2.24101
 Alpha virt. eigenvalues --    2.24249   2.25375   2.26180   2.26410   2.26671
 Alpha virt. eigenvalues --    2.26736   2.27245   2.27728   2.29498   2.30051
 Alpha virt. eigenvalues --    2.30102   2.30307   2.31516   2.32036   2.32795
 Alpha virt. eigenvalues --    2.33000   2.33466   2.34657   2.35040   2.35681
 Alpha virt. eigenvalues --    2.35888   2.36051   2.38024   2.40783   2.41129
 Alpha virt. eigenvalues --    2.41145   2.41275   2.41725   2.41811   2.42152
 Alpha virt. eigenvalues --    2.43956   2.44485   2.45062   2.45270   2.45891
 Alpha virt. eigenvalues --    2.45968   2.46501   2.46590   2.47690   2.48030
 Alpha virt. eigenvalues --    2.48624   2.49180   2.49440   2.50466   2.51119
 Alpha virt. eigenvalues --    2.51983   2.52687   2.53881   2.54436   2.55792
 Alpha virt. eigenvalues --    2.55901   2.56046   2.56975   2.57291   2.57840
 Alpha virt. eigenvalues --    2.58283   2.58584   2.58603   2.59010   2.59543
 Alpha virt. eigenvalues --    2.59604   2.60627   2.63264   2.63733   2.65345
 Alpha virt. eigenvalues --    2.65681   2.67407   2.69507   2.70256   2.71657
 Alpha virt. eigenvalues --    2.71715   2.73316   2.73772   2.73963   2.74742
 Alpha virt. eigenvalues --    2.75671   2.76701   2.77929   2.79153   2.79620
 Alpha virt. eigenvalues --    2.80466   2.80813   2.82711   2.83214   2.84184
 Alpha virt. eigenvalues --    2.84533   2.85075   2.85918   2.88061   2.89154
 Alpha virt. eigenvalues --    2.89956   2.91179   2.96368   2.97367   2.98318
 Alpha virt. eigenvalues --    2.98438   2.98814   2.98932   3.01649   3.03884
 Alpha virt. eigenvalues --    3.04006   3.05647   3.06008   3.07798   3.08560
 Alpha virt. eigenvalues --    3.11033   3.11562   3.11974   3.14380   3.17113
 Alpha virt. eigenvalues --    3.17910   3.18379   3.19346   3.21310   3.22709
 Alpha virt. eigenvalues --    3.24347   3.24567   3.24892   3.24899   3.25699
 Alpha virt. eigenvalues --    3.28279   3.28295   3.30791   3.31339   3.35063
 Alpha virt. eigenvalues --    3.35302   3.36802   3.37137   3.37610   3.37802
 Alpha virt. eigenvalues --    3.48515   3.48660   3.48876   3.49723   3.54338
 Alpha virt. eigenvalues --    3.54347   3.78441   3.79516   3.83562   3.83657
 Alpha virt. eigenvalues --    4.03735   4.03746   4.12939   4.13296   4.13460
 Alpha virt. eigenvalues --    4.13595   4.14379   4.15022   4.15764   4.16224
 Alpha virt. eigenvalues --    4.17521   4.18389   4.21383   4.22468   4.35920
 Alpha virt. eigenvalues --    4.40490   4.41729   4.42639   4.44311   4.44871
 Alpha virt. eigenvalues --    4.45133   4.45592   4.45793   4.55132   4.57680
 Alpha virt. eigenvalues --    4.64680   4.69016   4.79186   4.81004   4.84607
 Alpha virt. eigenvalues --    4.86110   4.88286   5.06448   5.23897   5.55230
 Alpha virt. eigenvalues --    5.56656   6.56908
          Condensed to atoms (all electrons):
 Mulliken charges:
               1
     1  F   -0.271822
     2  C    0.859525
     3  C   -0.311705
     4  C    0.088036
     5  C   -0.119747
     6  C   -0.114977
     7  C    0.327026
     8  O   -0.583000
     9  C    0.289360
    10  C   -0.131861
    11  C   -0.140265
    12  C    0.258932
    13  N   -0.672089
    14  C   -0.140790
    15  C   -0.117187
    16  C   -0.139631
    17  C   -0.132726
    18  C    0.087696
    19  C   -0.118046
    20  C   -0.132426
    21  C    0.327563
    22  O   -0.583294
    23  C    0.290098
    24  C   -0.132038
    25  C   -0.140118
    26  C    0.258787
    27  N   -0.672019
    28  C   -0.140735
    29  C   -0.116986
    30  C   -0.122743
    31  C   -0.134518
    32  C    0.860161
    33  F   -0.276506
    34  F   -0.268967
    35  F   -0.271960
    36  F   -0.276636
    37  F   -0.268736
    38  H    0.119250
    39  H    0.120651
    40  H    0.104961
    41  H    0.100976
    42  H    0.277454
    43  H    0.277452
    44  H    0.102464
    45  H    0.109441
    46  H    0.115238
    47  H    0.114472
    48  H    0.118311
    49  H    0.116447
    50  H    0.104926
    51  H    0.100998
    52  H    0.277450
    53  H    0.277330
    54  H    0.102354
    55  H    0.109427
    56  H    0.119331
    57  H    0.115412
 Sum of Mulliken charges =  -0.00000
 Mulliken charges with hydrogens summed into heavy atoms:
               1
     1  F   -0.271822
     2  C    0.859525
     3  C   -0.311705
     4  C    0.088036
     5  C   -0.000497
     6  C    0.005674
     7  C    0.327026
     8  O   -0.583000
     9  C    0.289360
    10  C   -0.026899
    11  C   -0.039289
    12  C    0.258932
    13  N   -0.117183
    14  C   -0.038326
    15  C   -0.007747
    16  C   -0.024393
    17  C   -0.018254
    18  C    0.087696
    19  C    0.000265
    20  C   -0.015978
    21  C    0.327563
    22  O   -0.583294
    23  C    0.290098
    24  C   -0.027112
    25  C   -0.039120
    26  C    0.258787
    27  N   -0.117240
    28  C   -0.038381
    29  C   -0.007559
    30  C   -0.003412
    31  C   -0.019106
    32  C    0.860161
    33  F   -0.276506
    34  F   -0.268967
    35  F   -0.271960
    36  F   -0.276636
    37  F   -0.268736
 APT charges:
               1
     1  F    0.215983
     2  C   -0.150360
     3  C   -0.451733
     4  C   -0.535983
     5  C   -0.566667
     6  C   -0.444462
     7  C    0.247088
     8  O   -0.178942
     9  C   -0.709265
    10  C   -0.535784
    11  C   -0.237793
    12  C    0.691232
    13  N   -2.356756
    14  C   -0.259238
    15  C   -0.796733
    16  C   -0.491768
    17  C   -0.519965
    18  C   -0.415357
    19  C   -0.536242
    20  C   -0.512678
    21  C    0.240096
    22  O   -0.301807
    23  C   -0.873306
    24  C   -0.561152
    25  C   -0.218215
    26  C    0.788196
    27  N   -2.275845
    28  C   -0.239466
    29  C   -0.771367
    30  C   -0.456321
    31  C   -0.568995
    32  C   -0.058004
    33  F   -0.144138
    34  F    0.213874
    35  F    0.143522
    36  F    0.012058
    37  F    0.166238
    38  H    0.171513
    39  H    0.478720
    40  H    0.371391
    41  H    1.067240
    42  H    1.082315
    43  H    1.604946
    44  H    0.596865
    45  H   -0.090949
    46  H    0.876993
    47  H    0.564396
    48  H    0.362624
    49  H    0.632980
    50  H    0.271514
    51  H    1.113761
    52  H    1.571027
    53  H    1.116508
    54  H    0.704182
    55  H   -0.126651
    56  H    0.666606
    57  H    0.414073
 Sum of APT charges =  -0.00000
 APT charges with hydrogens summed into heavy atoms:
               1
     1  F    0.215983
     2  C   -0.150360
     3  C   -0.451733
     4  C   -0.535983
     5  C   -0.395154
     6  C    0.034258
     7  C    0.247088
     8  O   -0.178942
     9  C   -0.709265
    10  C   -0.164393
    11  C    0.829447
    12  C    0.691232
    13  N    0.330505
    14  C    0.337627
    15  C   -0.887682
    16  C    0.385225
    17  C    0.044431
    18  C   -0.415357
    19  C   -0.173619
    20  C    0.120302
    21  C    0.240096
    22  O   -0.301807
    23  C   -0.873306
    24  C   -0.289638
    25  C    0.895546
    26  C    0.788196
    27  N    0.411691
    28  C    0.464716
    29  C   -0.898017
    30  C    0.210285
    31  C   -0.154922
    32  C   -0.058004
    33  F   -0.144138
    34  F    0.213874
    35  F    0.143522
    36  F    0.012058
    37  F    0.166238
 Electronic spatial extent (au):  <R**2>=          27507.5891
 Charge=             -0.0000 electrons
 Dipole moment (field-independent basis, Debye):
    X=             -0.2456    Y=             -3.0974    Z=              0.7625  Tot=              3.1993
 Quadrupole moment (field-independent basis, Debye-Ang):
   XX=           -112.0230   YY=           -201.5443   ZZ=           -206.8319
   XY=             -5.4991   XZ=              9.4723   YZ=             -6.1637
 Traceless Quadrupole moment (field-independent basis, Debye-Ang):
   XX=             61.4434   YY=            -28.0779   ZZ=            -33.3655
   XY=             -5.4991   XZ=              9.4723   YZ=             -6.1637
 Octapole moment (field-independent basis, Debye-Ang**2):
  XXX=           -149.9531  YYY=             24.9078  ZZZ=             20.8142  XYY=             24.3181
  XXY=           -226.6006  XXZ=            157.9336  XZZ=             41.9001  YZZ=             39.7964
  YYZ=              3.8289  XYZ=             17.5095
 Hexadecapole moment (field-independent basis, Debye-Ang**3):
 XXXX=         -17231.5497 YYYY=          -4894.9870 ZZZZ=          -1805.7959 XXXY=           -684.1394
 XXXZ=           1106.7784 YYYX=            -66.3726 YYYZ=             10.1436 ZZZX=            141.2384
 ZZZY=             48.3155 XXYY=          -4505.8036 XXZZ=          -5191.5576 YYZZ=          -1169.6077
 XXYZ=           -343.7534 YYXZ=           -185.6499 ZZXY=            -34.2236
 N-N= 3.943727319878D+03 E-N=-1.233752983051D+04  KE= 1.883779649289D+03
  Exact polarizability:   0.000   0.000   0.000   0.000   0.000   0.000
 Approx polarizability: 521.294 -23.520 475.193 -38.528 -20.824 413.768
 D2PCM: PCM CHGder 2nd derivatives, FixD1E=F FixD2E=F DoIter=F DoCFld=F I1PDM=0
 Calling FoFJK, ICntrl=    100147 FMM=F ISym2X=0 I1Cent= 0 IOpClX= 0 NMat=1 NMatS=1 NMatT=0.
 ***** Axes restored to original set *****
 -------------------------------------------------------------------
 Center     Atomic                   Forces (Hartrees/Bohr)
 Number     Number              X              Y              Z
 -------------------------------------------------------------------
      1        9          -0.002543271   -0.000522459    0.002406618
      2        6          -0.005226203   -0.020337696    0.017655535
      3        6           0.000650064    0.004993892    0.004791996
      4        6           0.001732939   -0.004752369    0.001994357
      5        6          -0.001813655   -0.001037639    0.000574301
      6        6          -0.006137615    0.003510243   -0.005682698
      7        6          -0.000871987   -0.006636016    0.003712504
      8        8          -0.006437125   -0.008207649    0.002773048
      9        6           0.007793355    0.009406791   -0.000061299
     10        6           0.003466801    0.006486318   -0.002669277
     11        6          -0.001240343   -0.005740807    0.011022156
     12        6          -0.004875616    0.014075727   -0.008612470
     13        7           0.003283809   -0.001290302    0.000734430
     14        6          -0.003170007   -0.011857832    0.001087454
     15        6           0.002579279    0.002161544   -0.003947788
     16        6          -0.004352338   -0.004980355   -0.001729733
     17        6           0.001160903   -0.000271621    0.001346781
     18        6          -0.001901526    0.001889847   -0.004298022
     19        6           0.003381635    0.000738018   -0.000977361
     20        6           0.007765045   -0.007189411    0.001103968
     21        6           0.002850048    0.000826417    0.001556947
     22        8           0.009488788   -0.003060578    0.004671600
     23        6          -0.010274034    0.005773427   -0.003529190
     24        6          -0.006032386    0.001717846   -0.004583359
     25        6           0.006159285    0.005592261    0.009274130
     26        6          -0.002908260    0.001098761   -0.016916189
     27        7          -0.002304015   -0.000206284    0.002786405
     28        6           0.007232132   -0.006155678    0.007914861
     29        6          -0.004195471   -0.001893386   -0.002456502
     30        6           0.000991609   -0.000853822   -0.005510079
     31        6          -0.002454617    0.000826523    0.000558722
     32        6           0.004732443    0.015509458   -0.021762542
     33        9          -0.000761757   -0.002301564    0.003192969
     34        9          -0.003643154    0.006122283    0.002956305
     35        9           0.002610206    0.002099106   -0.000943184
     36        9           0.000833870    0.002991377   -0.002692311
     37        9           0.004762186    0.002872449    0.005263705
     38        1           0.000793820   -0.004515438    0.002187290
     39        1           0.000756840   -0.002163561   -0.000304191
     40        1          -0.001134887   -0.001004037   -0.001044991
     41        1           0.001483883   -0.000305572   -0.000505477
     42        1           0.001008363    0.002495056    0.002972253
     43        1           0.000664119   -0.001797741   -0.003635610
     44        1           0.001464619    0.000153918    0.000546627
     45        1          -0.001044583    0.000693191    0.000995981
     46        1          -0.000278050    0.001968946   -0.001132070
     47        1          -0.001274087    0.004673607   -0.001905888
     48        1          -0.001282910    0.001624105   -0.004573662
     49        1          -0.000927975    0.000093303   -0.001901147
     50        1           0.001065039   -0.001460423   -0.000303984
     51        1          -0.001339714   -0.000587546    0.000640143
     52        1          -0.001081655   -0.003823981   -0.000228938
     53        1          -0.000899459    0.003939264    0.000058710
     54        1          -0.001212376    0.000535987    0.000839971
     55        1           0.000967517    0.001162413   -0.000493781
     56        1           0.000260326   -0.001552992    0.002009190
     57        1           0.001680154   -0.001525316    0.004772787
 -------------------------------------------------------------------
 Cartesian Forces:  Max     0.021762542 RMS     0.005016338
 FormGI is forming the generalized inverse of G from B-inverse, IUseBI=4.

 GradGradGradGradGradGradGradGradGradGradGradGradGradGradGradGradGradGrad
 Berny optimization.
 Internal  Forces:  Max     0.024689420 RMS     0.004057355
 Search for a local minimum.
 Step number   1 out of a maximum of  310
 All quantities printed in internal units (Hartrees-Bohrs-Radians)
 Mixed Optimization -- RFO/linear search
 Second derivative matrix not updated -- analytic derivatives used.
 ITU=  0
     Eigenvalues ---    0.00038   0.00072   0.00205   0.00293   0.00497
     Eigenvalues ---    0.00506   0.00705   0.00727   0.00818   0.01496
     Eigenvalues ---    0.01577   0.01623   0.01635   0.01731   0.01732
     Eigenvalues ---    0.01742   0.01748   0.01770   0.01802   0.01804
     Eigenvalues ---    0.01812   0.01844   0.01850   0.01884   0.02121
     Eigenvalues ---    0.02123   0.02128   0.02139   0.02180   0.02192
     Eigenvalues ---    0.02305   0.02307   0.02365   0.02371   0.02577
     Eigenvalues ---    0.02580   0.02690   0.02726   0.02736   0.02754
     Eigenvalues ---    0.02759   0.02794   0.02805   0.02806   0.02870
     Eigenvalues ---    0.02892   0.03046   0.03079   0.06158   0.06813
     Eigenvalues ---    0.07176   0.09600   0.10006   0.10813   0.10830
     Eigenvalues ---    0.10891   0.10939   0.11249   0.11271   0.11437
     Eigenvalues ---    0.11484   0.11717   0.11762   0.11811   0.11994
     Eigenvalues ---    0.12044   0.12147   0.12551   0.12555   0.12864
     Eigenvalues ---    0.13035   0.13570   0.13574   0.14059   0.15437
     Eigenvalues ---    0.15575   0.17463   0.17652   0.17658   0.17779
     Eigenvalues ---    0.17835   0.18015   0.18035   0.18146   0.19382
     Eigenvalues ---    0.19392   0.19883   0.19897   0.20566   0.20646
     Eigenvalues ---    0.20654   0.21823   0.22089   0.22183   0.22720
     Eigenvalues ---    0.22854   0.22981   0.23194   0.24551   0.24820
     Eigenvalues ---    0.25356   0.26527   0.27328   0.27815   0.29024
     Eigenvalues ---    0.30829   0.32170   0.32541   0.32587   0.32745
     Eigenvalues ---    0.32828   0.33846   0.34137   0.34570   0.34587
     Eigenvalues ---    0.35088   0.35182   0.35684   0.35692   0.35804
     Eigenvalues ---    0.35859   0.35909   0.35947   0.36025   0.36062
     Eigenvalues ---    0.36067   0.36131   0.36132   0.36359   0.36528
     Eigenvalues ---    0.36822   0.37313   0.38160   0.38932   0.40046
     Eigenvalues ---    0.40525   0.41175   0.41365   0.41446   0.41809
     Eigenvalues ---    0.43322   0.43389   0.44591   0.44692   0.45505
     Eigenvalues ---    0.45543   0.45972   0.45995   0.46614   0.46711
     Eigenvalues ---    0.46866   0.46972   0.47287   0.47360   0.47753
     Eigenvalues ---    0.47768   0.48821   0.48879   0.50450   0.51608
     Eigenvalues ---    0.51671   0.52181   0.52797   0.52870   0.63431
 RFO step:  Lambda=-1.60950409D-02 EMin= 3.84846485D-04
 Linear search not attempted -- first point.
 Iteration  1 RMS(Cart)=  0.15380519 RMS(Int)=  0.00283688
 Iteration  2 RMS(Cart)=  0.00769627 RMS(Int)=  0.00016917
 Iteration  3 RMS(Cart)=  0.00002163 RMS(Int)=  0.00016900
 Iteration  4 RMS(Cart)=  0.00000000 RMS(Int)=  0.00016900
 Variable       Old X    -DE/DX   Delta X   Delta X   Delta X     New X
                                 (Linear)    (Quad)   (Total)
    R1        2.55772  -0.00229   0.00000  -0.00356  -0.00356   2.55417
    R2        2.90267   0.01783   0.00000   0.03722   0.03722   2.93989
    R3        2.56836  -0.00339   0.00000  -0.01708  -0.01708   2.55129
    R4        2.55903  -0.00707   0.00000  -0.01479  -0.01479   2.54424
    R5        2.94640  -0.00851   0.00000  -0.02396  -0.02396   2.92245
    R6        2.94659  -0.00850   0.00000  -0.02385  -0.02385   2.92274
    R7        2.90263   0.01782   0.00000   0.03697   0.03697   2.93959
    R8        2.66944  -0.00841   0.00000  -0.01479  -0.01478   2.65466
    R9        2.65831  -0.00518   0.00000  -0.00955  -0.00954   2.64877
   R10        2.64065  -0.00538   0.00000  -0.01228  -0.01229   2.62836
   R11        2.06035  -0.00456   0.00000  -0.01238  -0.01238   2.04797
   R12        2.63144   0.00407   0.00000   0.01107   0.01105   2.64248
   R13        2.05420  -0.00190   0.00000  -0.00527  -0.00527   2.04893
   R14        2.59978   0.00443   0.00000   0.00162   0.00162   2.60140
   R15        2.63005   0.00208   0.00000   0.00477   0.00475   2.63480
   R16        2.59950   0.01624   0.00000   0.03302   0.03302   2.63252
   R17        2.63232   0.00266   0.00000   0.00148   0.00142   2.63374
   R18        2.63640   0.00141   0.00000   0.00199   0.00195   2.63835
   R19        2.64066  -0.00233   0.00000  -0.00703  -0.00704   2.63362
   R20        2.05266  -0.00081   0.00000  -0.00176  -0.00176   2.05090
   R21        2.64179   0.00703   0.00000   0.01533   0.01538   2.65716
   R22        2.05341  -0.00003   0.00000   0.00001   0.00001   2.05342
   R23        2.64440   0.00239   0.00000  -0.00270  -0.00270   2.64170
   R24        2.64208   0.00737   0.00000   0.01639   0.01645   2.65854
   R25        1.91834  -0.00269   0.00000  -0.00509  -0.00509   1.91325
   R26        1.91850  -0.00284   0.00000  -0.00549  -0.00549   1.91302
   R27        2.64141  -0.00282   0.00000  -0.00940  -0.00938   2.63203
   R28        2.05358  -0.00016   0.00000  -0.00029  -0.00029   2.05329
   R29        2.05247  -0.00070   0.00000  -0.00167  -0.00167   2.05080
   R30        2.64424  -0.00388   0.00000  -0.00896  -0.00896   2.63528
   R31        2.05509  -0.00200   0.00000  -0.00514  -0.00514   2.04995
   R32        2.05624  -0.00442   0.00000  -0.01279  -0.01279   2.04345
   R33        2.66912  -0.00891   0.00000  -0.01501  -0.01500   2.65412
   R34        2.65855  -0.00462   0.00000  -0.00925  -0.00923   2.64932
   R35        2.64004  -0.00504   0.00000  -0.01224  -0.01225   2.62779
   R36        2.06006  -0.00450   0.00000  -0.01243  -0.01243   2.04763
   R37        2.62769   0.00534   0.00000   0.01172   0.01170   2.63939
   R38        2.05423  -0.00174   0.00000  -0.00427  -0.00427   2.04996
   R39        2.59985   0.00428   0.00000   0.00134   0.00134   2.60118
   R40        2.63397   0.00077   0.00000   0.00397   0.00396   2.63793
   R41        2.59913   0.01635   0.00000   0.03346   0.03346   2.63258
   R42        2.63231   0.00264   0.00000   0.00140   0.00135   2.63365
   R43        2.63626   0.00149   0.00000   0.00215   0.00211   2.63837
   R44        2.64054  -0.00229   0.00000  -0.00691  -0.00692   2.63362
   R45        2.05265  -0.00080   0.00000  -0.00173  -0.00173   2.05092
   R46        2.64172   0.00702   0.00000   0.01521   0.01525   2.65697
   R47        2.05346  -0.00009   0.00000  -0.00017  -0.00017   2.05328
   R48        2.64448   0.00248   0.00000  -0.00285  -0.00285   2.64163
   R49        2.64197   0.00747   0.00000   0.01665   0.01671   2.65867
   R50        1.91830  -0.00268   0.00000  -0.00528  -0.00528   1.91301
   R51        1.91846  -0.00273   0.00000  -0.00528  -0.00528   1.91318
   R52        2.64138  -0.00279   0.00000  -0.00934  -0.00933   2.63206
   R53        2.05352  -0.00012   0.00000  -0.00015  -0.00015   2.05337
   R54        2.05244  -0.00070   0.00000  -0.00172  -0.00172   2.05072
   R55        2.64515  -0.00438   0.00000  -0.00928  -0.00927   2.63589
   R56        2.05519  -0.00223   0.00000  -0.00633  -0.00633   2.04886
   R57        2.05658  -0.00458   0.00000  -0.01308  -0.01308   2.04349
   R58        2.56779  -0.00327   0.00000  -0.01651  -0.01651   2.55127
   R59        2.55925  -0.00709   0.00000  -0.01497  -0.01497   2.54428
   R60        2.55757  -0.00224   0.00000  -0.00353  -0.00353   2.55403
    A1        1.97345   0.00611   0.00000  -0.00133  -0.00139   1.97206
    A2        1.84904  -0.00043   0.00000   0.01546   0.01548   1.86452
    A3        1.86138  -0.00030   0.00000   0.00436   0.00424   1.86562
    A4        1.95468  -0.00554   0.00000  -0.00689  -0.00693   1.94775
    A5        1.96528  -0.00107   0.00000  -0.02395  -0.02407   1.94120
    A6        1.85100   0.00121   0.00000   0.01597   0.01588   1.86688
    A7        2.00321  -0.01070   0.00000  -0.03590  -0.03599   1.96722
    A8        1.88231  -0.00681   0.00000  -0.00980  -0.00930   1.87301
    A9        1.77994   0.02469   0.00000   0.06858   0.06888   1.84882
   A10        1.91319   0.01003   0.00000   0.02096   0.02043   1.93363
   A11        1.88187  -0.00675   0.00000  -0.00898  -0.00847   1.87340
   A12        2.00352  -0.01080   0.00000  -0.03582  -0.03589   1.96763
   A13        2.08524  -0.00544   0.00000  -0.02190  -0.02191   2.06332
   A14        2.14648   0.00131   0.00000   0.01515   0.01513   2.16161
   A15        2.05146   0.00414   0.00000   0.00677   0.00678   2.05824
   A16        2.11916  -0.00000   0.00000   0.00287   0.00287   2.12203
   A17        2.11005  -0.00219   0.00000  -0.01683  -0.01683   2.09322
   A18        2.05393   0.00219   0.00000   0.01392   0.01392   2.06785
   A19        2.09176  -0.00102   0.00000  -0.00515  -0.00519   2.08657
   A20        2.08471   0.00143   0.00000   0.01273   0.01274   2.09746
   A21        2.10670  -0.00041   0.00000  -0.00759  -0.00757   2.09913
   A22        2.14826  -0.00253   0.00000  -0.00475  -0.00472   2.14354
   A23        2.09131  -0.00109   0.00000  -0.00039  -0.00044   2.09086
   A24        2.04201   0.00360   0.00000   0.00491   0.00493   2.04693
   A25        2.04788   0.00899   0.00000   0.03241   0.03241   2.08029
   A26        2.04609   0.00356   0.00000   0.01049   0.01047   2.05655
   A27        2.14046  -0.00256   0.00000  -0.01084  -0.01083   2.12963
   A28        2.09578  -0.00103   0.00000  -0.00045  -0.00062   2.09516
   A29        2.09149   0.00181   0.00000   0.00378   0.00365   2.09513
   A30        2.09648  -0.00245   0.00000  -0.01246  -0.01248   2.08400
   A31        2.09501   0.00066   0.00000   0.00906   0.00904   2.10405
   A32        2.10656   0.00031   0.00000   0.00222   0.00225   2.10881
   A33        2.07772   0.00101   0.00000   0.00779   0.00777   2.08549
   A34        2.09889  -0.00132   0.00000  -0.00998  -0.01001   2.08889
   A35        2.09812   0.00209   0.00000   0.01196   0.01105   2.10917
   A36        2.07297  -0.00347   0.00000  -0.00860  -0.00940   2.06357
   A37        2.09801   0.00191   0.00000   0.00875   0.00783   2.10585
   A38        1.98740   0.00195   0.00000   0.00929   0.00930   1.99669
   A39        1.98756   0.00190   0.00000   0.01001   0.01002   1.99758
   A40        1.96052  -0.00339   0.00000  -0.02471  -0.02469   1.93582
   A41        2.10759   0.00119   0.00000   0.00452   0.00460   2.11219
   A42        2.09870  -0.00163   0.00000  -0.01203  -0.01207   2.08663
   A43        2.07688   0.00044   0.00000   0.00750   0.00745   2.08433
   A44        2.08918   0.00133   0.00000   0.00189   0.00184   2.09102
   A45        2.10718  -0.00185   0.00000  -0.00992  -0.00992   2.09726
   A46        2.08678   0.00052   0.00000   0.00812   0.00812   2.09490
   A47        2.10085  -0.00158   0.00000  -0.00332  -0.00335   2.09750
   A48        2.09009  -0.00025   0.00000  -0.00745  -0.00743   2.08265
   A49        2.09222   0.00183   0.00000   0.01080   0.01081   2.10303
[...]
   482    F   33  S      Val( 2S)     1.83838
   483    F   33  S      Ryd( 3S)     0.00075
   484    F   33  S      Ryd( 4S)     0.00009
   485    F   33  px     Val( 2p)     1.92938
   486    F   33  px     Ryd( 3p)     0.00018
   487    F   33  py     Val( 2p)     1.74304
   488    F   33  py     Ryd( 3p)     0.00019
   489    F   33  pz     Val( 2p)     1.84356
   490    F   33  pz     Ryd( 3p)     0.00051
   491    F   33  dxy    Ryd( 3d)     0.00104
   492    F   33  dxz    Ryd( 3d)     0.00051
   493    F   33  dyz    Ryd( 3d)     0.00116
   494    F   33  dx2y2  Ryd( 3d)     0.00082
   495    F   33  dz2    Ryd( 3d)     0.00099

   496    F   34  S      Cor( 1S)     1.99992
   497    F   34  S      Val( 2S)     1.83750
   498    F   34  S      Ryd( 3S)     0.00068
   499    F   34  S      Ryd( 4S)     0.00009
   500    F   34  px     Val( 2p)     1.75422
   501    F   34  px     Ryd( 3p)     0.00015
   502    F   34  py     Val( 2p)     1.83696
   503    F   34  py     Ryd( 3p)     0.00021
   504    F   34  pz     Val( 2p)     1.92365
   505    F   34  pz     Ryd( 3p)     0.00053
   506    F   34  dxy    Ryd( 3d)     0.00112
   507    F   34  dxz    Ryd( 3d)     0.00096
   508    F   34  dyz    Ryd( 3d)     0.00058
   509    F   34  dx2y2  Ryd( 3d)     0.00138
   510    F   34  dz2    Ryd( 3d)     0.00055

   511    F   35  S      Cor( 1S)     1.99992
   512    F   35  S      Val( 2S)     1.84035
   513    F   35  S      Ryd( 3S)     0.00081
   514    F   35  S      Ryd( 4S)     0.00009
   515    F   35  px     Val( 2p)     1.73985
   516    F   35  px     Ryd( 3p)     0.00017
   517    F   35  py     Val( 2p)     1.85422
   518    F   35  py     Ryd( 3p)     0.00019
   519    F   35  pz     Val( 2p)     1.92507
   520    F   35  pz     Ryd( 3p)     0.00056
   521    F   35  dxy    Ryd( 3d)     0.00114
   522    F   35  dxz    Ryd( 3d)     0.00099
   523    F   35  dyz    Ryd( 3d)     0.00052
   524    F   35  dx2y2  Ryd( 3d)     0.00127
   525    F   35  dz2    Ryd( 3d)     0.00060

   526    F   36  S      Cor( 1S)     1.99992
   527    F   36  S      Val( 2S)     1.83845
   528    F   36  S      Ryd( 3S)     0.00075
   529    F   36  S      Ryd( 4S)     0.00009
   530    F   36  px     Val( 2p)     1.92351
   531    F   36  px     Ryd( 3p)     0.00020
   532    F   36  py     Val( 2p)     1.93637
   533    F   36  py     Ryd( 3p)     0.00044
   534    F   36  pz     Val( 2p)     1.65602
   535    F   36  pz     Ryd( 3p)     0.00024
   536    F   36  dxy    Ryd( 3d)     0.00012
   537    F   36  dxz    Ryd( 3d)     0.00140
   538    F   36  dyz    Ryd( 3d)     0.00138
   539    F   36  dx2y2  Ryd( 3d)     0.00012
   540    F   36  dz2    Ryd( 3d)     0.00150

   541    F   37  S      Cor( 1S)     1.99992
   542    F   37  S      Val( 2S)     1.83742
   543    F   37  S      Ryd( 3S)     0.00068
   544    F   37  S      Ryd( 4S)     0.00009
   545    F   37  px     Val( 2p)     1.66517
   546    F   37  px     Ryd( 3p)     0.00015
   547    F   37  py     Val( 2p)     1.91890
   548    F   37  py     Ryd( 3p)     0.00039
   549    F   37  pz     Val( 2p)     1.93203
   550    F   37  pz     Ryd( 3p)     0.00035
   551    F   37  dxy    Ryd( 3d)     0.00137
   552    F   37  dxz    Ryd( 3d)     0.00136
   553    F   37  dyz    Ryd( 3d)     0.00016
   554    F   37  dx2y2  Ryd( 3d)     0.00124
   555    F   37  dz2    Ryd( 3d)     0.00047

   556    H   38  S      Val( 1S)     0.75718
   557    H   38  S      Ryd( 2S)     0.00101
   558    H   38  px     Ryd( 2p)     0.00025
   559    H   38  py     Ryd( 2p)     0.00018
   560    H   38  pz     Ryd( 2p)     0.00023

   561    H   39  S      Val( 1S)     0.75505
   562    H   39  S      Ryd( 2S)     0.00076
   563    H   39  px     Ryd( 2p)     0.00009
   564    H   39  py     Ryd( 2p)     0.00038
   565    H   39  pz     Ryd( 2p)     0.00019

   566    H   40  S      Val( 1S)     0.72746
   567    H   40  S      Ryd( 2S)     0.00089
   568    H   40  px     Ryd( 2p)     0.00016
   569    H   40  py     Ryd( 2p)     0.00007
   570    H   40  pz     Ryd( 2p)     0.00036

   571    H   41  S      Val( 1S)     0.73580
   572    H   41  S      Ryd( 2S)     0.00084
   573    H   41  px     Ryd( 2p)     0.00013
   574    H   41  py     Ryd( 2p)     0.00025
   575    H   41  pz     Ryd( 2p)     0.00023

   576    H   42  S      Val( 1S)     0.55178
   577    H   42  S      Ryd( 2S)     0.00088
   578    H   42  px     Ryd( 2p)     0.00052
   579    H   42  py     Ryd( 2p)     0.00023
   580    H   42  pz     Ryd( 2p)     0.00045

   581    H   43  S      Val( 1S)     0.55187
   582    H   43  S      Ryd( 2S)     0.00087
   583    H   43  px     Ryd( 2p)     0.00034
   584    H   43  py     Ryd( 2p)     0.00039
   585    H   43  pz     Ryd( 2p)     0.00046

   586    H   44  S      Val( 1S)     0.73584
   587    H   44  S      Ryd( 2S)     0.00084
   588    H   44  px     Ryd( 2p)     0.00017
   589    H   44  py     Ryd( 2p)     0.00006
   590    H   44  pz     Ryd( 2p)     0.00037

   591    H   45  S      Val( 1S)     0.72730
   592    H   45  S      Ryd( 2S)     0.00086
   593    H   45  px     Ryd( 2p)     0.00012
   594    H   45  py     Ryd( 2p)     0.00027
   595    H   45  pz     Ryd( 2p)     0.00020

   596    H   46  S      Val( 1S)     0.75900
   597    H   46  S      Ryd( 2S)     0.00100
   598    H   46  px     Ryd( 2p)     0.00025
   599    H   46  py     Ryd( 2p)     0.00017
   600    H   46  pz     Ryd( 2p)     0.00021

   601    H   47  S      Val( 1S)     0.75765
   602    H   47  S      Ryd( 2S)     0.00187
   603    H   47  px     Ryd( 2p)     0.00010
   604    H   47  py     Ryd( 2p)     0.00039
   605    H   47  pz     Ryd( 2p)     0.00017

   606    H   48  S      Val( 1S)     0.74135
   607    H   48  S      Ryd( 2S)     0.00118
   608    H   48  px     Ryd( 2p)     0.00032
   609    H   48  py     Ryd( 2p)     0.00011
   610    H   48  pz     Ryd( 2p)     0.00019

   611    H   49  S      Val( 1S)     0.74548
   612    H   49  S      Ryd( 2S)     0.00121
   613    H   49  px     Ryd( 2p)     0.00008
   614    H   49  py     Ryd( 2p)     0.00018
   615    H   49  pz     Ryd( 2p)     0.00033

   616    H   50  S      Val( 1S)     0.74159
   617    H   50  S      Ryd( 2S)     0.00096
   618    H   50  px     Ryd( 2p)     0.00033
   619    H   50  py     Ryd( 2p)     0.00017
   620    H   50  pz     Ryd( 2p)     0.00009

   621    H   51  S      Val( 1S)     0.75047
   622    H   51  S      Ryd( 2S)     0.00090
   623    H   51  px     Ryd( 2p)     0.00006
   624    H   51  py     Ryd( 2p)     0.00029
   625    H   51  pz     Ryd( 2p)     0.00025

   626    H   52  S      Val( 1S)     0.58165
   627    H   52  S      Ryd( 2S)     0.00107
   628    H   52  px     Ryd( 2p)     0.00020
   629    H   52  py     Ryd( 2p)     0.00063
   630    H   52  pz     Ryd( 2p)     0.00043

   631    H   53  S      Val( 1S)     0.58165
   632    H   53  S      Ryd( 2S)     0.00107
   633    H   53  px     Ryd( 2p)     0.00050
   634    H   53  py     Ryd( 2p)     0.00032
   635    H   53  pz     Ryd( 2p)     0.00045

   636    H   54  S      Val( 1S)     0.75044
   637    H   54  S      Ryd( 2S)     0.00089
   638    H   54  px     Ryd( 2p)     0.00031
   639    H   54  py     Ryd( 2p)     0.00018
   640    H   54  pz     Ryd( 2p)     0.00010

   641    H   55  S      Val( 1S)     0.74153
   642    H   55  S      Ryd( 2S)     0.00097
   643    H   55  px     Ryd( 2p)     0.00006
   644    H   55  py     Ryd( 2p)     0.00028
   645    H   55  pz     Ryd( 2p)     0.00025

   646    H   56  S      Val( 1S)     0.74193
   647    H   56  S      Ryd( 2S)     0.00086
   648    H   56  px     Ryd( 2p)     0.00030
   649    H   56  py     Ryd( 2p)     0.00011
   650    H   56  pz     Ryd( 2p)     0.00019

   651    H   57  S      Val( 1S)     0.74697
   652    H   57  S      Ryd( 2S)     0.00203
   653    H   57  px     Ryd( 2p)     0.00010
   654    H   57  py     Ryd( 2p)     0.00020
   655    H   57  pz     Ryd( 2p)     0.00034

 WARNING:  1 low occupancy (<1.9990e) core orbital  found on  C    3
           1 low occupancy (<1.9990e) core orbital  found on  C    7
           1 low occupancy (<1.9990e) core orbital  found on  C    9
           1 low occupancy (<1.9990e) core orbital  found on  C   12
           1 low occupancy (<1.9990e) core orbital  found on  C   21
           1 low occupancy (<1.9990e) core orbital  found on  C   23
           1 low occupancy (<1.9990e) core orbital  found on  C   24
           1 low occupancy (<1.9990e) core orbital  found on  C   26
           1 low occupancy (<1.9990e) core orbital  found on  C   29


 Summary of Natural Population Analysis:                  
                                                          
                                       Natural Population 
                Natural  -----------------------------------------------
    Atom  No    Charge         Core      Valence    Rydberg      Total
 -----------------------------------------------------------------------
      F    1   -0.36414      1.99992     7.35790    0.00632     9.36414
      C    2    1.14540      1.99910     2.77973    0.07577     4.85460
      C    3   -0.24908      1.99875     4.23021    0.02013     6.24908
      C    4   -0.09122      1.99901     4.07200    0.02021     6.09122
      C    5   -0.31490      1.99905     4.29812    0.01773     6.31490
      C    6   -0.35515      1.99901     4.34157    0.01457     6.35515
      C    7    0.31197      1.99872     3.66729    0.02202     5.68803
      O    8   -0.51342      1.99968     6.50226    0.01147     8.51342
      C    9    0.40123      1.99870     3.57745    0.02262     5.59877
      C   10   -0.30027      1.99900     4.28374    0.01753     6.30027
      C   11   -0.25746      1.99906     4.24225    0.01615     6.25746
      C   12    0.20211      1.99898     3.78202    0.01688     5.79789
      N   13   -0.64857      1.99946     5.64043    0.00868     7.64857
      C   14   -0.25975      1.99906     4.24447    0.01621     6.25975
      C   15   -0.29932      1.99900     4.28286    0.01747     6.29932
      C   16   -0.37682      1.99904     4.36027    0.01752     6.37682
      C   17   -0.25631      1.99904     4.24242    0.01486     6.25631
      C   18   -0.08563      1.99901     4.06651    0.02011     6.08563
      C   19   -0.22177      1.99905     4.20820    0.01453     6.22177
      C   20   -0.29824      1.99902     4.28458    0.01464     6.29824
      C   21    0.32477      1.99875     3.65482    0.02166     5.67523
      O   22   -0.52506      1.99970     6.51386    0.01150     8.52506
      C   23    0.24157      1.99869     3.73716    0.02257     5.75843
      C   24   -0.26058      1.99899     4.24813    0.01346     6.26058
      C   25   -0.28464      1.99905     4.27293    0.01266     6.28464
      C   26    0.16316      1.99899     3.82080    0.01705     5.83684
      N   27   -0.85813      1.99952     5.84683    0.01178     7.85813
      C   28   -0.28479      1.99905     4.27310    0.01265     6.28479
      C   29   -0.26026      1.99899     4.24778    0.01348     6.26026
      C   30   -0.32294      1.99902     4.31180    0.01212     6.32294
      C   31   -0.22293      1.99904     4.20953    0.01436     6.22293
      C   32    1.14379      1.99910     2.78121    0.07590     4.85621
      F   33   -0.36052      1.99992     7.35436    0.00625     9.36052
      F   34   -0.35851      1.99992     7.35233    0.00626     9.35851
      F   35   -0.36574      1.99992     7.35950    0.00632     9.36574
      F   36   -0.36052      1.99992     7.35435    0.00624     9.36052
      F   37   -0.35969      1.99992     7.35351    0.00626     9.35969
      H   38    0.24115      0.00000     0.75718    0.00166     0.75885
      H   39    0.24355      0.00000     0.75505    0.00141     0.75645
      H   40    0.27107      0.00000     0.72746    0.00148     0.72893
      H   41    0.26275      0.00000     0.73580    0.00145     0.73725
      H   42    0.44614      0.00000     0.55178    0.00208     0.55386
      H   43    0.44605      0.00000     0.55187    0.00207     0.55395
      H   44    0.26271      0.00000     0.73584    0.00145     0.73729
      H   45    0.27125      0.00000     0.72730    0.00145     0.72875
      H   46    0.23938      0.00000     0.75900    0.00163     0.76062
      H   47    0.23982      0.00000     0.75765    0.00253     0.76018
      H   48    0.25686      0.00000     0.74135    0.00180     0.74314
      H   49    0.25273      0.00000     0.74548    0.00180     0.74727
      H   50    0.25686      0.00000     0.74159    0.00154     0.74314
      H   51    0.24804      0.00000     0.75047    0.00149     0.75196
      H   52    0.41603      0.00000     0.58165    0.00233     0.58397
      H   53    0.41602      0.00000     0.58165    0.00233     0.58398
      H   54    0.24807      0.00000     0.75044    0.00149     0.75193
      H   55    0.25692      0.00000     0.74153    0.00155     0.74308
      H   56    0.25660      0.00000     0.74193    0.00146     0.74340
      H   57    0.25037      0.00000     0.74697    0.00267     0.74963
 =======================================================================
   * Total *   -0.00000     73.97017   191.33826    0.69157   266.00000

                                 Natural Population      
 --------------------------------------------------------
   Core                      73.97017 ( 99.9597% of  74)
   Valence                  191.33826 ( 99.6553% of 192)
   Natural Minimal Basis    265.30843 ( 99.7400% of 266)
   Natural Rydberg Basis      0.69157 (  0.2600% of 266)
 --------------------------------------------------------

    Atom  No          Natural Electron Configuration
 ----------------------------------------------------------------------------
      F    1      [core]2S( 1.84)2p( 5.52)
      C    2      [core]2S( 0.79)2p( 1.99)3S( 0.01)3p( 0.05)3d( 0.02)
      C    3      [core]2S( 0.95)2p( 3.28)3p( 0.01)
      C    4      [core]2S( 0.86)2p( 3.21)3p( 0.02)
      C    5      [core]2S( 0.93)2p( 3.37)3p( 0.01)
      C    6      [core]2S( 0.95)2p( 3.39)3p( 0.01)
      C    7      [core]2S( 0.83)2p( 2.83)3p( 0.01)3d( 0.01)
      O    8      [core]2S( 1.57)2p( 4.94)3p( 0.01)3d( 0.01)
      C    9      [core]2S( 0.85)2p( 2.72)3p( 0.01)3d( 0.01)
      C   10      [core]2S( 0.97)2p( 3.31)3p( 0.01)
      C   11      [core]2S( 0.96)2p( 3.28)3p( 0.01)
      C   12      [core]2S( 0.86)2p( 2.92)3p( 0.01)
      N   13      [core]2S( 1.38)2p( 4.27)3p( 0.01)
      C   14      [core]2S( 0.96)2p( 3.28)3p( 0.01)
      C   15      [core]2S( 0.97)2p( 3.31)3p( 0.01)
      C   16      [core]2S( 0.95)2p( 3.41)3p( 0.01)
      C   17      [core]2S( 0.94)2p( 3.30)3p( 0.01)
      C   18      [core]2S( 0.86)2p( 3.20)3p( 0.02)
      C   19      [core]2S( 0.95)2p( 3.26)3p( 0.01)
      C   20      [core]2S( 0.96)2p( 3.33)3p( 0.01)
      C   21      [core]2S( 0.84)2p( 2.82)3p( 0.01)3d( 0.01)
      O   22      [core]2S( 1.57)2p( 4.95)3p( 0.01)3d( 0.01)
      C   23      [core]2S( 0.84)2p( 2.90)3p( 0.02)3d( 0.01)
      C   24      [core]2S( 0.97)2p( 3.28)3p( 0.01)
      C   25      [core]2S( 0.96)2p( 3.32)3p( 0.01)
      C   26      [core]2S( 0.85)2p( 2.98)3p( 0.01)
      N   27      [core]2S( 1.36)2p( 4.49)3p( 0.01)
      C   28      [core]2S( 0.96)2p( 3.32)3p( 0.01)
      C   29      [core]2S( 0.97)2p( 3.28)3p( 0.01)
      C   30      [core]2S( 0.96)2p( 3.35)3p( 0.01)
      C   31      [core]2S( 0.94)2p( 3.27)3p( 0.01)
      C   32      [core]2S( 0.79)2p( 1.99)3S( 0.01)3p( 0.05)3d( 0.02)
      F   33      [core]2S( 1.84)2p( 5.52)
      F   34      [core]2S( 1.84)2p( 5.51)
      F   35      [core]2S( 1.84)2p( 5.52)
      F   36      [core]2S( 1.84)2p( 5.52)
      F   37      [core]2S( 1.84)2p( 5.52)
      H   38            1S( 0.76)
      H   39            1S( 0.76)
      H   40            1S( 0.73)
      H   41            1S( 0.74)
      H   42            1S( 0.55)
      H   43            1S( 0.55)
      H   44            1S( 0.74)
      H   45            1S( 0.73)
      H   46            1S( 0.76)
      H   47            1S( 0.76)
      H   48            1S( 0.74)
      H   49            1S( 0.75)
      H   50            1S( 0.74)
      H   51            1S( 0.75)
      H   52            1S( 0.58)
      H   53            1S( 0.58)
      H   54            1S( 0.75)
      H   55            1S( 0.74)
      H   56            1S( 0.74)
      H   57            1S( 0.75)


 NBO analysis skipped by request.
 1\1\GINC-DRG2-W004\SP\RB3LYP TD-FC\6-31G(d,p)\C27H20F6N2O2\QDUEZ\18-Ju
 l-2024\0\\# TD(NStates=10, Root=1) B3LYP/6-31G** SCRF=(Solvent=water) 
 volume pop=NPA density=current Geom=AllCheck Guess=Read\\HHLMWQDRYZAEN
 A-UHFFFAOYSA-N_conf_0\\0,1\F,0,0.4191296555,-5.0649872764,-0.706878550
 4\C,0,-0.3255803323,-4.0760870312,-0.1581372619\C,0,0.0133761819,-2.66
 85291978,-0.7305049731\C,0,1.4253012384,-2.1918701861,-0.3203289111\C,
 0,1.7397344787,-0.8325643138,-0.4568416421\C,0,3.0089691622,-0.3384440
 121,-0.1628463843\C,0,4.001668893,-1.2158667282,0.2820310764\O,0,5.279
 2880916,-0.8362766149,0.6107126268\C,0,5.6615544931,0.5004432237,0.464
 7134532\C,0,5.582835556,1.3643680131,1.5558216402\C,0,6.0448782095,2.6
 733447304,1.4392052436\C,0,6.5925274717,3.1394498738,0.2288859354\N,0,
 6.9954401618,4.4676492836,0.0919850932\C,0,6.6662445321,2.2486230272,-
 0.8590261028\C,0,6.205176244,0.9396497052,-0.7417690384\C,0,3.71102553
 4,-2.5771185352,0.4181339992\C,0,2.4426464045,-3.0578614281,0.11031768
 51\C,0,-1.0839305573,-1.7110236274,-0.2130710688\C,0,-0.9998802417,-1.
 2473857045,1.1112372042\C,0,-1.9813611546,-0.4298741193,1.6555885376\C
 ,0,-3.0834388814,-0.0498328337,0.8803824969\O,0,-3.9993997048,0.766151
 596,1.4963412845\C,0,-5.1234414797,1.2008710649,0.7880216478\C,0,-5.07
 67920192,2.4031178105,0.0836612755\C,0,-6.2217409585,2.8810507358,-0.5
 492888828\C,0,-7.4324665352,2.1650500408,-0.4866515477\N,0,-8.56211453
 9,2.6117938608,-1.1720542486\C,0,-7.4579885634,0.9555249921,0.23350344
 24\C,0,-6.3125694781,0.4775262433,0.8658162006\C,0,-3.1922412548,-0.50
 51797678,-0.4349098899\C,0,-2.2036026661,-1.3358287076,-0.96510004\C,0
 ,0.0205983716,-2.7776414917,-2.283446548\F,0,0.0777190982,-1.557155688
 3,-2.8534289914\F,0,1.0852865772,-3.4732452547,-2.7255850838\F,0,-1.07
 74976965,-3.3980067506,-2.7763052715\F,0,-0.121924742,-4.1172832809,1.
 174102493\F,0,-1.6140445176,-4.4012145423,-0.3741111445\H,0,0.98103507
 29,-0.1365059041,-0.7954496462\H,0,3.2192089112,0.7180550205,-0.276060
 3745\H,0,5.1699800706,1.0073143748,2.4939698101\H,0,5.9840796537,3.342
 8239376,2.2927062953\H,0,7.6867413896,4.630317397,-0.6290731798\H,0,7.
 2564888128,4.9242523659,0.9566088632\H,0,7.0910491317,2.5866822599,-1.
 8000822449\H,0,6.2742091811,0.2544189218,-1.5807065686\H,0,4.489265314
 5,-3.2507873584,0.7607966068\H,0,2.2644252207,-4.1195534085,0.21516924
 76\H,0,-0.1523250165,-1.524527063,1.7270862084\H,0,-1.9061573709,-0.07
 50164803,2.6780014603\H,0,-4.1488411462,2.964539439,0.0409758438\H,0,-
 6.1819405102,3.8193680569,-1.0955267101\H,0,-8.5907989922,3.6094940653
 ,-1.3394816026\H,0,-9.4431432058,2.2796094524,-0.8010554506\H,0,-8.383
 6224929,0.3904098358,0.298748349\H,0,-6.3402191851,-0.4504521594,1.428
 1113559\H,0,-4.041392453,-0.2221077144,-1.0448491396\H,0,-2.3314274187
 ,-1.6796721474,-1.9827427039\\Version=ES64L-G16RevA.03\State=1-A\HF=-1
 899.9601198\RMSD=4.462e-09\Dipole=4.3570156,7.10184,0.4556993\Quadrupo
 le=66.9943251,-12.1461116,-54.8482135,53.6599818,6.4725148,0.0726163\P
 G=C01 [X(C27H20F6N2O2)]\\@


 TO BEHOLD HARMS OF OUR OWN HANDS DOING,
 WHERE NONE BESIDE US WROUGHT,
 CAUSES SHARP RUING...

                                         SOPHOCLES
 Job cpu time:       0 days  4 hours 25 minutes 47.0 seconds.
 Elapsed time:       0 days  1 hours 28 minutes 49.1 seconds.
 File lengths (MBytes):  RWF=   3542 Int=      0 D2E=      0 Chk=    206 Scr=      1
 Normal termination of Gaussian 16 at Thu Jul 18 02:14:00 2024.
