 Entering Gaussian System, Link 0=g16
 Initial command:
 /opt/sw/arch/manual/gaussian/G16_A03/g16/l1.exe "/scratch/1380838/Gau-40564.inp" -scrdir="/scratch/1380838/"
 Entering Link 1 = /opt/sw/arch/manual/gaussian/G16_A03/g16/l1.exe PID=     40565.
  
 Copyright (c) 1988,1990,1992,1993,1995,1998,2003,2009,2016,
            Gaussian, Inc.  All Rights Reserved.
  
 This is part of the Gaussian(R) 16 program.  It is based on
 the Gaussian(R) 09 system (copyright 2009, Gaussian, Inc.),
 the Gaussian(R) 03 system (copyright 2003, Gaussian, Inc.),
 the Gaussian(R) 98 system (copyright 1998, Gaussian, Inc.),
 the Gaussian(R) 94 system (copyright 1995, Gaussian, Inc.),
 the Gaussian 92(TM) system (copyright 1992, Gaussian, Inc.),
 the Gaussian 90(TM) system (copyright 1990, Gaussian, Inc.),
 the Gaussian 88(TM) system (copyright 1988, Gaussian, Inc.),
 the Gaussian 86(TM) system (copyright 1986, Carnegie Mellon
 University), and the Gaussian 82(TM) system (copyright 1983,
 Carnegie Mellon University). Gaussian is a federally registered
 trademark of Gaussian, Inc.
  
 This software contains proprietary and confidential information,
 including trade secrets, belonging to Gaussian, Inc.
  
 This software is provided under written license and may be
 used, copied, transmitted, or stored only in accord with that
 written license.
  
 The following legend is applicable only to US Government
 contracts under FAR:
  
                    RESTRICTED RIGHTS LEGEND
  
 Use, reproduction and disclosure by the US Government is
 subject to restrictions as set forth in subparagraphs (a)
 and (c) of the Commercial Computer Software - Restricted
 Rights clause in FAR 52.227-19.
  
 Gaussian, Inc.
 340 Quinnipiac St., Bldg. 40, Wallingford CT 06492
  
  
 ---------------------------------------------------------------
 Warning -- This program may not be used in any manner that
 competes with the business of Gaussian, Inc. or will provide
 assistance to any competitor of Gaussian, Inc.  The licensee
 of this program is prohibited from giving any competitor of
 Gaussian, Inc. access to this program.  By using this program,
 the user acknowledges that Gaussian, Inc. is engaged in the
 business of creating and licensing software in the field of
 computational chemistry and represents and warrants to the
 licensee that it is not a competitor of Gaussian, Inc. and that
 it will not use this program in any manner prohibited above.
 ---------------------------------------------------------------
  

 Cite this work as:
 Gaussian 16, Revision A.03,
 M. J. Frisch, G. W. Trucks, H. B. Schlegel, G. E. Scuseria, 
 M. A. Robb, J. R. Cheeseman, G. Scalmani, V. Barone, 
 G. A. Petersson, H. Nakatsuji, X. Li, M. Caricato, A. V. Marenich, 
 J. Bloino, B. G. Janesko, R. Gomperts, B. Mennucci, H. P. Hratchian, 
 J. V. Ortiz, A. F. Izmaylov, J. L. Sonnenberg, D. Williams-Young, 
 F. Ding, F. Lipparini, F. Egidi, J. Goings, B. Peng, A. Petrone, 
 T. Henderson, D. Ranasinghe, V. G. Zakrzewski, J. Gao, N. Rega, 
 G. Zheng, W. Liang, M. Hada, M. Ehara, K. Toyota, R. Fukuda, 
 J. Hasegawa, M. Ishida, T. Nakajima, Y. Honda, O. Kitao, H. Nakai, 
 T. Vreven, K. Throssell, J. A. Montgomery, Jr., J. E. Peralta, 
 F. Ogliaro, M. J. Bearpark, J. J. Heyd, E. N. Brothers, K. N. Kudin, 
 V. N. Staroverov, T. A. Keith, R. Kobayashi, J. Normand, 
 K. Raghavachari, A. P. Rendell, J. C. Burant, S. S. Iyengar, 
 J. Tomasi, M. Cossi, J. M. Millam, M. Klene, C. Adamo, R. Cammi, 
 J. W. Ochterski, R. L. Martin, K. Morokuma, O. Farkas, 
 J. B. Foresman, and D. J. Fox, Gaussian, Inc., Wallingford CT, 2016.
 
 ******************************************
 Gaussian 16:  ES64L-G16RevA.03 25-Dec-2016
                17-Jul-2024 
 ******************************************
 %nprocshared=9
 Will use up to    9 processors via shared memory.
 %mem=18GB
 %Chk=HHLMWQDRYZAENA-UHFFFAOYSA-N_conf_4_0.chk
 -------------------------------------------------------
 # opt=CalcFc B3LYP/6-31G** SCRF=(Solvent=water) scf=xqc
 -------------------------------------------------------
 1/10=4,18=20,19=15,26=3,38=1/1,3;
 2/9=110,12=2,17=6,18=5,40=1/2;
 3/5=1,6=6,7=101,11=2,25=1,30=1,70=2201,71=2,72=1,74=-5,140=1/1,2,3;
 4//1;
 5/5=2,8=3,13=1,38=5,53=1/2,8;
 8/6=4,10=90,11=11/1;
 11/6=1,8=1,9=11,15=111,16=1/1,2,10;
 10/6=1,13=1/2;
 6/7=2,8=2,9=2,10=2,28=1/1;
 7/10=1,18=20,25=1/1,2,3,16;
 1/10=4,18=20,19=15,26=3/3(2);
 2/9=110/2;
 99//99;
 2/9=110/2;
 3/5=1,6=6,7=101,11=2,25=1,30=1,70=2205,71=1,72=1,74=-5/1,2,3;
 4/5=5,16=3,69=1/1;
 5/5=2,8=3,13=1,38=5,53=1/2,8;
 7//1,2,3,16;
 1/18=20,19=15,26=3/3(-5);
 2/9=110/2;
 6/7=2,8=2,9=2,10=2,19=2,28=1/1;
 99/9=1/99;
 ----------------------------------
 HHLMWQDRYZAENA-UHFFFAOYSA-N_conf_4
 ----------------------------------
 Symbolic Z-matrix:
 Charge =  0 Multiplicity = 1
 F                    -0.94698  -0.37266   3.6889 
 C                     0.15131  -0.24306   2.90866 
 C                     0.00091   0.84273   1.83274 
 C                    -1.14927   0.59478   0.80968 
 C                    -1.31883   1.48398  -0.27525 
 C                    -2.33986   1.30226  -1.21081 
 C                    -3.22495   0.23988  -1.0718 
 O                    -4.19515   0.09091  -2.03413 
 C                    -5.49112  -0.06684  -1.59757 
 C                    -6.06039   0.73065  -0.60415 
 C                    -7.39563   0.53675  -0.2384 
 C                    -8.16225  -0.46764  -0.83606 
 N                    -9.527    -0.5785   -0.54622 
 C                    -7.60352  -1.20309  -1.88508 
 C                    -6.26944  -1.01542  -2.25738 
 C                    -3.06695  -0.66656  -0.02542 
 C                    -2.04276  -0.48732   0.91084 
 C                     1.36067   0.95721   1.07801 
 C                     2.21937   2.06341   1.2121 
 C                     3.43349   2.12084   0.5189 
 C                     3.82085   1.07152  -0.3091 
 O                     5.01189   1.21396  -0.98298 
 C                     5.8487    0.12312  -1.02365 
 C                     6.3948   -0.21437  -2.25974 
 C                     7.27585  -1.29471  -2.35951 
 C                     7.66369  -2.00711  -1.22085 
 N                     8.44933  -3.15889  -1.34358 
 C                     7.08119  -1.68042   0.00741 
 C                     6.19912  -0.60085   0.11627 
 C                     2.97866  -0.02409  -0.47928 
 C                     1.76614  -0.08366   0.21332 
 C                    -0.37511   2.07337   2.67162 
 F                     0.51905   2.33916   3.65258 
 F                    -1.58267   1.94501   3.2716 
 F                    -0.44859   3.20083   1.91647 
 F                     0.37198  -1.4694    2.3669 
 F                     1.19298  -0.00829   3.74162 
 H                    -0.64922   2.33286  -0.41313 
 H                    -2.44702   1.99448  -2.04206 
 H                    -5.48481   1.51685  -0.12424 
 H                    -7.83392   1.18295   0.5176 
 H                    -9.77584  -0.26306   0.38598 
 H                    -9.92065  -1.48846  -0.76313 
 H                    -8.20495  -1.92957  -2.42518 
 H                    -5.84416  -1.60223  -3.06638 
 H                    -3.73563  -1.51875   0.0672 
 H                    -1.97607  -1.223     1.7099 
 H                     1.9792    2.91167   1.85032 
 H                     4.08148   2.9868    0.63203 
 H                     6.12188   0.34831  -3.14786 
 H                     7.66142  -1.57245  -3.33655 
 H                     9.06923  -3.14971  -2.14744 
 H                     8.93053  -3.42049  -0.48871 
 H                     7.31533  -2.2612    0.8957 
 H                     5.78819  -0.34082   1.08729 
 H                     3.25057  -0.83333  -1.15201 
 H                     1.13492  -0.95833   0.05597 
 

 GradGradGradGradGradGradGradGradGradGradGradGradGradGradGradGradGradGrad
 Berny optimization.
 Initialization pass.
                           ----------------------------
                           !    Initial Parameters    !
                           ! (Angstroms and Degrees)  !
 --------------------------                            --------------------------
 ! Name  Definition              Value          Derivative Info.                !
 --------------------------------------------------------------------------------
 ! R1    R(1,2)                  1.3534         calculate D2E/DX2 analytically  !
 ! R2    R(2,3)                  1.536          calculate D2E/DX2 analytically  !
 ! R3    R(2,36)                 1.3587         calculate D2E/DX2 analytically  !
 ! R4    R(2,37)                 1.3543         calculate D2E/DX2 analytically  !
 ! R5    R(3,4)                  1.5592         calculate D2E/DX2 analytically  !
 ! R6    R(3,18)                 1.5594         calculate D2E/DX2 analytically  !
 ! R7    R(3,32)                 1.5361         calculate D2E/DX2 analytically  !
 ! R8    R(4,5)                  1.413          calculate D2E/DX2 analytically  !
 ! R9    R(4,17)                 1.4069         calculate D2E/DX2 analytically  !
 ! R10   R(5,6)                  1.3967         calculate D2E/DX2 analytically  !
 ! R11   R(5,38)                 1.0899         calculate D2E/DX2 analytically  !
 ! R12   R(6,7)                  1.3897         calculate D2E/DX2 analytically  !
 ! R13   R(6,39)                 1.087          calculate D2E/DX2 analytically  !
 ! R14   R(7,8)                  1.3746         calculate D2E/DX2 analytically  !
 ! R15   R(7,16)                 1.3934         calculate D2E/DX2 analytically  !
 ! R16   R(8,9)                  1.3766         calculate D2E/DX2 analytically  !
 ! R17   R(9,10)                 1.3953         calculate D2E/DX2 analytically  !
 ! R18   R(9,15)                 1.3932         calculate D2E/DX2 analytically  !
 ! R19   R(10,11)                1.3979         calculate D2E/DX2 analytically  !
 ! R20   R(10,40)                1.0861         calculate D2E/DX2 analytically  !
 ! R21   R(11,12)                1.3977         calculate D2E/DX2 analytically  !
 ! R22   R(11,41)                1.0868         calculate D2E/DX2 analytically  !
 ! R23   R(12,13)                1.3996         calculate D2E/DX2 analytically  !
 ! R24   R(12,14)                1.3977         calculate D2E/DX2 analytically  !
 ! R25   R(13,42)                1.0151         calculate D2E/DX2 analytically  !
 ! R26   R(13,43)                1.0149         calculate D2E/DX2 analytically  !
 ! R27   R(14,15)                1.3977         calculate D2E/DX2 analytically  !
 ! R28   R(14,44)                1.0868         calculate D2E/DX2 analytically  !
 ! R29   R(15,45)                1.0861         calculate D2E/DX2 analytically  !
 ! R30   R(16,17)                1.3992         calculate D2E/DX2 analytically  !
 ! R31   R(16,46)                1.0872         calculate D2E/DX2 analytically  !
 ! R32   R(17,47)                1.0882         calculate D2E/DX2 analytically  !
 ! R33   R(18,19)                1.4068         calculate D2E/DX2 analytically  !
 ! R34   R(18,31)                1.4126         calculate D2E/DX2 analytically  !
 ! R35   R(19,20)                1.3992         calculate D2E/DX2 analytically  !
 ! R36   R(19,48)                1.0884         calculate D2E/DX2 analytically  !
 ! R37   R(20,21)                1.3917         calculate D2E/DX2 analytically  !
 ! R38   R(20,49)                1.0875         calculate D2E/DX2 analytically  !
 ! R39   R(21,22)                1.3759         calculate D2E/DX2 analytically  !
 ! R40   R(21,30)                1.3923         calculate D2E/DX2 analytically  !
 ! R41   R(22,23)                1.3754         calculate D2E/DX2 analytically  !
 ! R42   R(23,24)                1.3929         calculate D2E/DX2 analytically  !
 ! R43   R(23,29)                1.3951         calculate D2E/DX2 analytically  !
 ! R44   R(24,25)                1.3976         calculate D2E/DX2 analytically  !
 ! R45   R(24,50)                1.0862         calculate D2E/DX2 analytically  !
 ! R46   R(25,26)                1.398          calculate D2E/DX2 analytically  !
 ! R47   R(25,51)                1.0865         calculate D2E/DX2 analytically  !
 ! R48   R(26,27)                1.3996         calculate D2E/DX2 analytically  !
 ! R49   R(26,28)                1.3981         calculate D2E/DX2 analytically  !
 ! R50   R(27,52)                1.0152         calculate D2E/DX2 analytically  !
 ! R51   R(27,53)                1.0153         calculate D2E/DX2 analytically  !
 ! R52   R(28,29)                1.3983         calculate D2E/DX2 analytically  !
 ! R53   R(28,54)                1.0868         calculate D2E/DX2 analytically  !
 ! R54   R(29,55)                1.086          calculate D2E/DX2 analytically  !
 ! R55   R(30,31)                1.3977         calculate D2E/DX2 analytically  !
 ! R56   R(30,56)                1.0869         calculate D2E/DX2 analytically  !
 ! R57   R(31,57)                1.0901         calculate D2E/DX2 analytically  !
 ! R58   R(32,33)                1.3537         calculate D2E/DX2 analytically  !
 ! R59   R(32,34)                1.3545         calculate D2E/DX2 analytically  !
 ! R60   R(32,35)                1.359          calculate D2E/DX2 analytically  !
 ! A1    A(1,2,3)              113.0823         calculate D2E/DX2 analytically  !
 ! A2    A(1,2,36)             105.9761         calculate D2E/DX2 analytically  !
 ! A3    A(1,2,37)             106.6302         calculate D2E/DX2 analytically  !
 ! A4    A(3,2,36)             112.0021         calculate D2E/DX2 analytically  !
 ! A5    A(3,2,37)             112.5578         calculate D2E/DX2 analytically  !
 ! A6    A(36,2,37)            106.0683         calculate D2E/DX2 analytically  !
 ! A7    A(2,3,4)              114.7995         calculate D2E/DX2 analytically  !
 ! A8    A(2,3,18)             107.791          calculate D2E/DX2 analytically  !
 ! A9    A(2,3,32)             101.9916         calculate D2E/DX2 analytically  !
 ! A10   A(4,3,18)             109.7153         calculate D2E/DX2 analytically  !
 ! A11   A(4,3,32)             107.7678         calculate D2E/DX2 analytically  !
 ! A12   A(18,3,32)            114.7686         calculate D2E/DX2 analytically  !
 ! A13   A(3,4,5)              119.4897         calculate D2E/DX2 analytically  !
 ! A14   A(3,4,17)             122.929          calculate D2E/DX2 analytically  !
 ! A15   A(5,4,17)             117.5813         calculate D2E/DX2 analytically  !
 ! A16   A(4,5,6)              121.3434         calculate D2E/DX2 analytically  !
 ! A17   A(4,5,38)             120.899          calculate D2E/DX2 analytically  !
 ! A18   A(6,5,38)             117.756          calculate D2E/DX2 analytically  !
 ! A19   A(5,6,7)              119.8702         calculate D2E/DX2 analytically  !
 ! A20   A(5,6,39)             120.0946         calculate D2E/DX2 analytically  !
 ! A21   A(7,6,39)             120.0336         calculate D2E/DX2 analytically  !
 ! A22   A(6,7,8)              117.5377         calculate D2E/DX2 analytically  !
 ! A23   A(6,7,16)             120.0129         calculate D2E/DX2 analytically  !
 ! A24   A(8,7,16)             122.3616         calculate D2E/DX2 analytically  !
 ! A25   A(7,8,9)              117.0563         calculate D2E/DX2 analytically  !
 ! A26   A(8,9,10)             122.9822         calculate D2E/DX2 analytically  !
 ! A27   A(8,9,15)             116.9863         calculate D2E/DX2 analytically  !
 ! A28   A(10,9,15)            119.8947         calculate D2E/DX2 analytically  !
 ! A29   A(9,10,11)            119.7805         calculate D2E/DX2 analytically  !
 ! A30   A(9,10,40)            120.8024         calculate D2E/DX2 analytically  !
 ! A31   A(11,10,40)           119.404          calculate D2E/DX2 analytically  !
 ! A32   A(10,11,12)           120.7752         calculate D2E/DX2 analytically  !
 ! A33   A(10,11,41)           118.9929         calculate D2E/DX2 analytically  !
 ! A34   A(12,11,41)           120.2314         calculate D2E/DX2 analytically  !
 ! A35   A(11,12,13)           120.2113         calculate D2E/DX2 analytically  !
 ! A36   A(11,12,14)           118.6709         calculate D2E/DX2 analytically  !
 ! A37   A(13,12,14)           120.2355         calculate D2E/DX2 analytically  !
 ! A38   A(12,13,42)           113.8662         calculate D2E/DX2 analytically  !
 ! A39   A(12,13,43)           113.8896         calculate D2E/DX2 analytically  !
 ! A40   A(42,13,43)           112.3217         calculate D2E/DX2 analytically  !
 ! A41   A(12,14,15)           120.7189         calculate D2E/DX2 analytically  !
 ! A42   A(12,14,44)           120.2312         calculate D2E/DX2 analytically  !
 ! A43   A(15,14,44)           119.0497         calculate D2E/DX2 analytically  !
 ! A44   A(9,15,14)            119.9011         calculate D2E/DX2 analytically  !
 ! A45   A(9,15,45)            120.1237         calculate D2E/DX2 analytically  !
 ! A46   A(14,15,45)           119.9727         calculate D2E/DX2 analytically  !
 ! A47   A(7,16,17)            120.1442         calculate D2E/DX2 analytically  !
 ! A48   A(7,16,46)            120.2756         calculate D2E/DX2 analytically  !
 ! A49   A(17,16,46)           119.5798         calculate D2E/DX2 analytically  !
 ! A50   A(4,17,16)            121.0159         calculate D2E/DX2 analytically  !
 ! A51   A(4,17,47)            122.2651         calculate D2E/DX2 analytically  !
 ! A52   A(16,17,47)           116.7189         calculate D2E/DX2 analytically  !
 ! A53   A(3,18,19)            122.9465         calculate D2E/DX2 analytically  !
 ! A54   A(3,18,31)            119.5023         calculate D2E/DX2 analytically  !
 ! A55   A(19,18,31)           117.551          calculate D2E/DX2 analytically  !
 ! A56   A(18,19,20)           120.9766         calculate D2E/DX2 analytically  !
 ! A57   A(18,19,48)           122.2795         calculate D2E/DX2 analytically  !
 ! A58   A(20,19,48)           116.7439         calculate D2E/DX2 analytically  !
 ! A59   A(19,20,21)           120.3535         calculate D2E/DX2 analytically  !
 ! A60   A(19,20,49)           119.8791         calculate D2E/DX2 analytically  !
 ! A61   A(21,20,49)           119.7662         calculate D2E/DX2 analytically  !
 ! A62   A(20,21,22)           117.0203         calculate D2E/DX2 analytically  !
 ! A63   A(20,21,30)           119.8461         calculate D2E/DX2 analytically  !
 ! A64   A(22,21,30)           123.0402         calculate D2E/DX2 analytically  !
 ! A65   A(21,22,23)           117.3255         calculate D2E/DX2 analytically  !
 ! A66   A(22,23,24)           117.1897         calculate D2E/DX2 analytically  !
 ! A67   A(22,23,29)           122.6977         calculate D2E/DX2 analytically  !
 ! A68   A(24,23,29)           120.0601         calculate D2E/DX2 analytically  !
 ! A69   A(23,24,25)           119.8544         calculate D2E/DX2 analytically  !
 ! A70   A(23,24,50)           120.1053         calculate D2E/DX2 analytically  !
 ! A71   A(25,24,50)           120.0296         calculate D2E/DX2 analytically  !
 ! A72   A(24,25,26)           120.7064         calculate D2E/DX2 analytically  !
 ! A73   A(24,25,51)           119.0454         calculate D2E/DX2 analytically  !
 ! A74   A(26,25,51)           120.2475         calculate D2E/DX2 analytically  !
 ! A75   A(25,26,27)           120.2416         calculate D2E/DX2 analytically  !
 ! A76   A(25,26,28)           118.7434         calculate D2E/DX2 analytically  !
 ! A77   A(27,26,28)           120.2121         calculate D2E/DX2 analytically  !
 ! A78   A(26,27,52)           113.8764         calculate D2E/DX2 analytically  !
 ! A79   A(26,27,53)           113.8443         calculate D2E/DX2 analytically  !
 ! A80   A(52,27,53)           112.3122         calculate D2E/DX2 analytically  !
 ! A81   A(26,28,29)           120.7712         calculate D2E/DX2 analytically  !
 ! A82   A(26,28,54)           120.2265         calculate D2E/DX2 analytically  !
 ! A83   A(29,28,54)           119.0008         calculate D2E/DX2 analytically  !
 ! A84   A(23,29,28)           119.7            calculate D2E/DX2 analytically  !
 ! A85   A(23,29,55)           120.7495         calculate D2E/DX2 analytically  !
 ! A86   A(28,29,55)           119.5486         calculate D2E/DX2 analytically  !
 ! A87   A(21,30,31)           119.8494         calculate D2E/DX2 analytically  !
 ! A88   A(21,30,56)           120.6766         calculate D2E/DX2 analytically  !
 ! A89   A(31,30,56)           119.4726         calculate D2E/DX2 analytically  !
 ! A90   A(18,31,30)           121.3953         calculate D2E/DX2 analytically  !
 ! A91   A(18,31,57)           120.8896         calculate D2E/DX2 analytically  !
 ! A92   A(30,31,57)           117.7119         calculate D2E/DX2 analytically  !
 ! A93   A(3,32,33)            113.0391         calculate D2E/DX2 analytically  !
 ! A94   A(3,32,34)            112.5952         calculate D2E/DX2 analytically  !
 ! A95   A(3,32,35)            111.9895         calculate D2E/DX2 analytically  !
 ! A96   A(33,32,34)           106.6483         calculate D2E/DX2 analytically  !
 ! A97   A(33,32,35)           105.9912         calculate D2E/DX2 analytically  !
 ! A98   A(34,32,35)           106.0551         calculate D2E/DX2 analytically  !
 ! D1    D(1,2,3,4)            -61.3799         calculate D2E/DX2 analytically  !
 ! D2    D(1,2,3,18)           176.0351         calculate D2E/DX2 analytically  !
 ! D3    D(1,2,3,32)            54.8389         calculate D2E/DX2 analytically  !
 ! D4    D(36,2,3,4)            58.2828         calculate D2E/DX2 analytically  !
 ! D5    D(36,2,3,18)          -64.3022         calculate D2E/DX2 analytically  !
 ! D6    D(36,2,3,32)          174.5016         calculate D2E/DX2 analytically  !
 ! D7    D(37,2,3,4)           177.696          calculate D2E/DX2 analytically  !
 ! D8    D(37,2,3,18)           55.111          calculate D2E/DX2 analytically  !
 ! D9    D(37,2,3,32)          -66.0852         calculate D2E/DX2 analytically  !
 ! D10   D(2,3,4,5)           -175.7485         calculate D2E/DX2 analytically  !
 ! D11   D(2,3,4,17)             4.2079         calculate D2E/DX2 analytically  !
 ! D12   D(18,3,4,5)           -54.2066         calculate D2E/DX2 analytically  !
 ! D13   D(18,3,4,17)          125.7499         calculate D2E/DX2 analytically  !
 ! D14   D(32,3,4,5)            71.3965         calculate D2E/DX2 analytically  !
 ! D15   D(32,3,4,17)         -108.6471         calculate D2E/DX2 analytically  !
 ! D16   D(2,3,18,19)         -109.2288         calculate D2E/DX2 analytically  !
 ! D17   D(2,3,18,31)           70.936          calculate D2E/DX2 analytically  !
 ! D18   D(4,3,18,19)          125.1141         calculate D2E/DX2 analytically  !
 ! D19   D(4,3,18,31)          -54.721          calculate D2E/DX2 analytically  !
 ! D20   D(32,3,18,19)           3.6243         calculate D2E/DX2 analytically  !
 ! D21   D(32,3,18,31)        -176.2109         calculate D2E/DX2 analytically  !
 ! D22   D(2,3,32,33)           55.1167         calculate D2E/DX2 analytically  !
 ! D23   D(2,3,32,34)          -65.8271         calculate D2E/DX2 analytically  !
 ! D24   D(2,3,32,35)          174.7594         calculate D2E/DX2 analytically  !
 ! D25   D(4,3,32,33)          176.3378         calculate D2E/DX2 analytically  !
 ! D26   D(4,3,32,34)           55.3939         calculate D2E/DX2 analytically  !
 ! D27   D(4,3,32,35)          -64.0195         calculate D2E/DX2 analytically  !
 ! D28   D(18,3,32,33)         -61.1155         calculate D2E/DX2 analytically  !
 ! D29   D(18,3,32,34)         177.9406         calculate D2E/DX2 analytically  !
 ! D30   D(18,3,32,35)          58.5271         calculate D2E/DX2 analytically  !
 ! D31   D(3,4,5,6)           -179.6975         calculate D2E/DX2 analytically  !
 ! D32   D(3,4,5,38)             0.769          calculate D2E/DX2 analytically  !
 ! D33   D(17,4,5,6)             0.3438         calculate D2E/DX2 analytically  !
 ! D34   D(17,4,5,38)         -179.1898         calculate D2E/DX2 analytically  !
 ! D35   D(3,4,17,16)          179.5596         calculate D2E/DX2 analytically  !
 ! D36   D(3,4,17,47)           -0.5437         calculate D2E/DX2 analytically  !
 ! D37   D(5,4,17,16)           -0.4832         calculate D2E/DX2 analytically  !
 ! D38   D(5,4,17,47)          179.4136         calculate D2E/DX2 analytically  !
 ! D39   D(4,5,6,7)              0.9309         calculate D2E/DX2 analytically  !
 ! D40   D(4,5,6,39)          -179.5291         calculate D2E/DX2 analytically  !
 ! D41   D(38,5,6,7)          -179.5214         calculate D2E/DX2 analytically  !
 ! D42   D(38,5,6,39)            0.0187         calculate D2E/DX2 analytically  !
 ! D43   D(5,6,7,8)           -178.7499         calculate D2E/DX2 analytically  !
 ! D44   D(5,6,7,16)            -2.0754         calculate D2E/DX2 analytically  !
 ! D45   D(39,6,7,8)             1.7098         calculate D2E/DX2 analytically  !
 ! D46   D(39,6,7,16)          178.3843         calculate D2E/DX2 analytically  !
 ! D47   D(6,7,8,9)           -130.0963         calculate D2E/DX2 analytically  !
 ! D48   D(16,7,8,9)            53.3129         calculate D2E/DX2 analytically  !
 ! D49   D(6,7,16,17)            1.9417         calculate D2E/DX2 analytically  !
 ! D50   D(6,7,16,46)         -177.8512         calculate D2E/DX2 analytically  !
 ! D51   D(8,7,16,17)          178.4506         calculate D2E/DX2 analytically  !
 ! D52   D(8,7,16,46)           -1.3424         calculate D2E/DX2 analytically  !
 ! D53   D(7,8,9,10)            45.8833         calculate D2E/DX2 analytically  !
 ! D54   D(7,8,9,15)          -138.3785         calculate D2E/DX2 analytically  !
 ! D55   D(8,9,10,11)          178.1882         calculate D2E/DX2 analytically  !
 ! D56   D(8,9,10,40)           -0.4919         calculate D2E/DX2 analytically  !
 ! D57   D(15,9,10,11)           2.5691         calculate D2E/DX2 analytically  !
 ! D58   D(15,9,10,40)        -176.111          calculate D2E/DX2 analytically  !
 ! D59   D(8,9,15,14)         -178.4752         calculate D2E/DX2 analytically  !
 ! D60   D(8,9,15,45)            0.941          calculate D2E/DX2 analytically  !
 ! D61   D(10,9,15,14)          -2.5987         calculate D2E/DX2 analytically  !
 ! D62   D(10,9,15,45)         176.8176         calculate D2E/DX2 analytically  !
 ! D63   D(9,10,11,12)           1.3942         calculate D2E/DX2 analytically  !
 ! D64   D(9,10,11,41)        -178.3478         calculate D2E/DX2 analytically  !
 ! D65   D(40,10,11,12)       -179.9072         calculate D2E/DX2 analytically  !
 ! D66   D(40,10,11,41)          0.3508         calculate D2E/DX2 analytically  !
 ! D67   D(10,11,12,13)       -174.5081         calculate D2E/DX2 analytically  !
 ! D68   D(10,11,12,14)         -5.2331         calculate D2E/DX2 analytically  !
 ! D69   D(41,11,12,13)          5.2307         calculate D2E/DX2 analytically  !
 ! D70   D(41,11,12,14)        174.5057         calculate D2E/DX2 analytically  !
 ! D71   D(11,12,13,42)        -29.898          calculate D2E/DX2 analytically  !
 ! D72   D(11,12,13,43)       -160.4546         calculate D2E/DX2 analytically  !
 ! D73   D(14,12,13,42)        160.9956         calculate D2E/DX2 analytically  !
 ! D74   D(14,12,13,43)         30.4391         calculate D2E/DX2 analytically  !
 ! D75   D(11,12,14,15)          5.2032         calculate D2E/DX2 analytically  !
 ! D76   D(11,12,14,44)       -174.6493         calculate D2E/DX2 analytically  !
 ! D77   D(13,12,14,15)        174.4755         calculate D2E/DX2 analytically  !
 ! D78   D(13,12,14,44)         -5.377          calculate D2E/DX2 analytically  !
 ! D79   D(12,14,15,9)          -1.3356         calculate D2E/DX2 analytically  !
 ! D80   D(12,14,15,45)        179.2472         calculate D2E/DX2 analytically  !
 ! D81   D(44,14,15,9)         178.5186         calculate D2E/DX2 analytically  !
 ! D82   D(44,14,15,45)         -0.8985         calculate D2E/DX2 analytically  !
 ! D83   D(7,16,17,4)           -0.6485         calculate D2E/DX2 analytically  !
 ! D84   D(7,16,17,47)         179.4492         calculate D2E/DX2 analytically  !
 ! D85   D(46,16,17,4)         179.1459         calculate D2E/DX2 analytically  !
 ! D86   D(46,16,17,47)         -0.7564         calculate D2E/DX2 analytically  !
 ! D87   D(3,18,19,20)         179.7392         calculate D2E/DX2 analytically  !
 ! D88   D(3,18,19,48)          -0.3845         calculate D2E/DX2 analytically  !
 ! D89   D(31,18,19,20)         -0.4226         calculate D2E/DX2 analytically  !
 ! D90   D(31,18,19,48)        179.4537         calculate D2E/DX2 analytically  !
 ! D91   D(3,18,31,30)        -179.7909         calculate D2E/DX2 analytically  !
 ! D92   D(3,18,31,57)           0.8828         calculate D2E/DX2 analytically  !
 ! D93   D(19,18,31,30)          0.3652         calculate D2E/DX2 analytically  !
 ! D94   D(19,18,31,57)       -178.9612         calculate D2E/DX2 analytically  !
 ! D95   D(18,19,20,21)         -0.6856         calculate D2E/DX2 analytically  !
 ! D96   D(18,19,20,49)        179.7044         calculate D2E/DX2 analytically  !
 ! D97   D(48,19,20,21)        179.4315         calculate D2E/DX2 analytically  !
 ! D98   D(48,19,20,49)         -0.1784         calculate D2E/DX2 analytically  !
 ! D99   D(19,20,21,22)        178.4567         calculate D2E/DX2 analytically  !
 ! D100  D(19,20,21,30)          1.8644         calculate D2E/DX2 analytically  !
 ! D101  D(49,20,21,22)         -1.9329         calculate D2E/DX2 analytically  !
 ! D102  D(49,20,21,30)       -178.5252         calculate D2E/DX2 analytically  !
 ! D103  D(20,21,22,23)        136.7419         calculate D2E/DX2 analytically  !
 ! D104  D(30,21,22,23)        -46.7841         calculate D2E/DX2 analytically  !
 ! D105  D(20,21,30,31)         -1.9133         calculate D2E/DX2 analytically  !
 ! D106  D(20,21,30,56)        177.6557         calculate D2E/DX2 analytically  !
 ! D107  D(22,21,30,31)       -178.2917         calculate D2E/DX2 analytically  !
 ! D108  D(22,21,30,56)          1.2773         calculate D2E/DX2 analytically  !
 ! D109  D(21,22,23,24)        133.0283         calculate D2E/DX2 analytically  !
 ! D110  D(21,22,23,29)        -49.6089         calculate D2E/DX2 analytically  !
 ! D111  D(22,23,24,25)        178.5806         calculate D2E/DX2 analytically  !
 ! D112  D(22,23,24,50)         -2.6122         calculate D2E/DX2 analytically  !
 ! D113  D(29,23,24,25)          1.1447         calculate D2E/DX2 analytically  !
 ! D114  D(29,23,24,50)        179.952          calculate D2E/DX2 analytically  !
 ! D115  D(22,23,29,28)       -178.443          calculate D2E/DX2 analytically  !
 ! D116  D(22,23,29,55)          2.0621         calculate D2E/DX2 analytically  !
 ! D117  D(24,23,29,28)         -1.1534         calculate D2E/DX2 analytically  !
 ! D118  D(24,23,29,55)        179.3518         calculate D2E/DX2 analytically  !
 ! D119  D(23,24,25,26)         -2.8538         calculate D2E/DX2 analytically  !
 ! D120  D(23,24,25,51)        177.4498         calculate D2E/DX2 analytically  !
 ! D121  D(50,24,25,26)        178.338          calculate D2E/DX2 analytically  !
 ! D122  D(50,24,25,51)         -1.3584         calculate D2E/DX2 analytically  !
 ! D123  D(24,25,26,27)        174.2536         calculate D2E/DX2 analytically  !
 ! D124  D(24,25,26,28)          4.4919         calculate D2E/DX2 analytically  !
 ! D125  D(51,25,26,27)         -6.0536         calculate D2E/DX2 analytically  !
 ! D126  D(51,25,26,28)       -175.8153         calculate D2E/DX2 analytically  !
 ! D127  D(25,26,27,52)         30.0185         calculate D2E/DX2 analytically  !
 ! D128  D(25,26,27,53)        160.5275         calculate D2E/DX2 analytically  !
 ! D129  D(28,26,27,52)       -160.3708         calculate D2E/DX2 analytically  !
 ! D130  D(28,26,27,53)        -29.8618         calculate D2E/DX2 analytically  !
 ! D131  D(25,26,28,29)         -4.5056         calculate D2E/DX2 analytically  !
 ! D132  D(25,26,28,54)        175.9434         calculate D2E/DX2 analytically  !
 ! D133  D(27,26,28,29)       -174.2704         calculate D2E/DX2 analytically  !
 ! D134  D(27,26,28,54)          6.1785         calculate D2E/DX2 analytically  !
 ! D135  D(26,28,29,23)          2.8746         calculate D2E/DX2 analytically  !
 ! D136  D(26,28,29,55)       -177.6244         calculate D2E/DX2 analytically  !
 ! D137  D(54,28,29,23)       -177.5689         calculate D2E/DX2 analytically  !
 ! D138  D(54,28,29,55)          1.9321         calculate D2E/DX2 analytically  !
 ! D139  D(21,30,31,18)          0.799          calculate D2E/DX2 analytically  !
 ! D140  D(21,30,31,57)       -179.854          calculate D2E/DX2 analytically  !
 ! D141  D(56,30,31,18)       -178.7752         calculate D2E/DX2 analytically  !
 ! D142  D(56,30,31,57)          0.5718         calculate D2E/DX2 analytically  !
 --------------------------------------------------------------------------------
 Trust Radius=3.00D-01 FncErr=1.00D-07 GrdErr=1.00D-06 EigMax=2.50D+02 EigMin=1.00D-04
 Number of steps in this run=    310 maximum allowed number of steps=    342.
 GradGradGradGradGradGradGradGradGradGradGradGradGradGradGradGradGradGrad

 Stoichiometry    C27H20F6N2O2
 Framework group  C1[X(C27H20F6N2O2)]
 Deg. of freedom   165
 Full point group                 C1      NOp   1
 Largest Abelian subgroup         C1      NOp   1
 Largest concise Abelian subgroup C1      NOp   1
                         Standard orientation:                         
 ---------------------------------------------------------------------
 Center     Atomic      Atomic             Coordinates (Angstroms)
 Number     Number       Type             X           Y           Z
 ---------------------------------------------------------------------
      1          9           0       -0.919465    2.719596    2.074715
      2          6           0        0.170946    2.107968    1.556338
      3          6           0       -0.033833    1.637300    0.108683
      4          6           0       -1.170027    0.586887   -0.082959
      5          6           0       -1.384058    0.018717   -1.358846
      6          6           0       -2.394599   -0.920768   -1.575544
      7          6           0       -3.225130   -1.298217   -0.527164
      8          8           0       -4.186559   -2.245567   -0.787433
      9          6           0       -5.472973   -1.957526   -0.390974
     10          6           0       -6.081695   -0.723961   -0.624899
     11          6           0       -7.405512   -0.516307   -0.226602
     12          6           0       -8.120600   -1.521363    0.430809
     13          7           0       -9.478056   -1.344436    0.722087
     14          6           0       -7.525521   -2.776629    0.584765
     15          6           0       -6.202556   -2.992975    0.189100
     16          6           0       -3.021782   -0.772475    0.747108
     17          6           0       -2.007952    0.166578    0.966196
     18          6           0        1.318482    1.047540   -0.396390
     19          6           0        2.120445    1.687648   -1.358769
     20          6           0        3.330165    1.123560   -1.778624
     21          6           0        3.769869   -0.080770   -1.237377
     22          8           0        4.952266   -0.589655   -1.723117
     23          6           0        5.842897   -1.100789   -0.808040
     24          6           0        6.405344   -2.342851   -1.092600
     25          6           0        7.339642   -2.900884   -0.215643
     26          6           0        7.762770   -2.199771    0.917435
     27          7           0        8.605364   -2.812806    1.851842
     28          6           0        7.164515   -0.970414    1.209682
     29          6           0        6.229237   -0.404644    0.337595
     30          6           0        2.983876   -0.747858   -0.301532
     31          6           0        1.775847   -0.185245    0.119888
     32          6           0       -0.471329    2.933704   -0.589542
     33          9           0        0.408278    3.948829   -0.421403
     34          9           0       -1.670929    3.382729   -0.149105
     35          9           0       -0.601393    2.769560   -1.932285
     36          9           0        0.453064    1.074785    2.392422
     37          9           0        1.199448    2.980499    1.678372
     38          1           0       -0.757992    0.295560   -2.207006
     39          1           0       -2.536408   -1.350607   -2.563850
     40          1           0       -5.546417    0.072972   -1.132918
     41          1           0       -7.875794    0.440132   -0.439380
     42          1           0       -9.742502   -0.376410    0.875144
     43          1           0       -9.825414   -1.958850    1.451378
     44          1           0       -8.089617   -3.600759    1.013503
     45          1           0       -5.748249   -3.970052    0.325565
     46          1           0       -3.646748   -1.091135    1.577655
     47          1           0       -1.904375    0.547132    1.980408
     48          1           0        1.837867    2.635147   -1.813689
     49          1           0        3.933763    1.631368   -2.527210
     50          1           0        6.104513   -2.885840   -1.983948
     51          1           0        7.738737   -3.888668   -0.428730
     52          1           0        9.224062   -3.510951    1.451379
     53          1           0        9.099078   -2.158342    2.450777
     54          1           0        7.427529   -0.436357    2.118968
     55          1           0        5.805704    0.569175    0.564840
     56          1           0        3.296181   -1.707720    0.101581
     57          1           0        1.189439   -0.736026    0.855420
 ---------------------------------------------------------------------
 Rotational constants (GHZ):           0.1758330           0.0411670           0.0369479
 Standard basis: 6-31G(d,p) (6D, 7F)
 There are   655 symmetry adapted cartesian basis functions of A   symmetry.
 There are   655 symmetry adapted basis functions of A   symmetry.
   655 basis functions,  1176 primitive gaussians,   655 cartesian basis functions
   133 alpha electrons      133 beta electrons
       nuclear repulsion energy      3944.0979630471 Hartrees.
 NAtoms=   57 NActive=   57 NUniq=   57 SFac= 1.00D+00 NAtFMM=   60 NAOKFM=F Big=F
 Integral buffers will be    131072 words long.
 Raffenetti 2 integral format.
 Two-electron integral symmetry is turned on.
 Force inversion solution in PCM.
 ------------------------------------------------------------------------------
 Polarizable Continuum Model (PCM)
 =================================
 Model                : PCM.
 Atomic radii         : UFF (Universal Force Field).
 Polarization charges : Total charges.
 Charge compensation  : None.
 Solution method      : Matrix inversion.
 Cavity type          : Scaled VdW (van der Waals Surface) (Alpha=1.100).
 Cavity algorithm     : GePol (No added spheres)
                        Default sphere list used, NSphG=   57.
                        Lebedev-Laikov grids with approx.  5.0 points / Ang**2.
                        Smoothing algorithm: York/Karplus (Gamma=1.0000).
                        Polarization charges: spherical gaussians, with
                                              point-specific exponents (IZeta= 3).
                        Self-potential: point-specific (ISelfS= 7).
                        Self-field    : sphere-specific E.n sum rule (ISelfD= 2).
 1st derivatives      : Analytical E(r).r(x)/FMM algorithm (CHGder, D1EAlg=3).
                        Cavity 1st derivative terms included.
 2nd derivatives      : Analytical E(r).r(xy)/FMM algorithm (CHGder, D2EAlg=3).
                        Cavity 2nd derivative terms included.
 Solvent              : Water, Eps=  78.355300 Eps(inf)=   1.777849
 ------------------------------------------------------------------------------
 One-electron integrals computed using PRISM.
 NBasis=   655 RedAO= T EigKep=  3.95D-04  NBF=   655
 NBsUse=   655 1.00D-06 EigRej= -1.00D+00 NBFU=   655
 ExpMin= 1.61D-01 ExpMax= 7.00D+03 ExpMxC= 1.05D+03 IAcc=3 IRadAn=         5 AccDes= 0.00D+00
 Harris functional with IExCor=  402 and IRadAn=       5 diagonalized for initial guess.
 HarFok:  IExCor=  402 AccDes= 0.00D+00 IRadAn=         5 IDoV= 1 UseB2=F ITyADJ=14
 ICtDFT=  3500011 ScaDFX=  1.000000  1.000000  1.000000  1.000000
 FoFCou: FMM=F IPFlag=           0 FMFlag=      100000 FMFlg1=           0
         NFxFlg=           0 DoJE=T BraDBF=F KetDBF=T FulRan=T
         wScrn=  0.000000 ICntrl=       500 IOpCl=  0 I1Cent=   200000004 NGrid=           0
         NMat0=    1 NMatS0=      1 NMatT0=    0 NMatD0=    1 NMtDS0=    0 NMtDT0=    0
 Petite list used in FoFCou.
 Requested convergence on RMS density matrix=1.00D-08 within  32 cycles.
 Requested convergence on MAX density matrix=1.00D-06.
 Requested convergence on             energy=1.00D-06.
 No special actions if energy rises.
 Inv3:  Mode=1 IEnd=    54340608.
 Iteration    1 A*A^-1 deviation from unit magnitude is 3.77D-15 for   4188.
 Iteration    1 A*A^-1 deviation from orthogonality  is 2.00D-15 for   2392    915.
 Iteration    1 A^-1*A deviation from unit magnitude is 3.33D-15 for   4188.
 Iteration    1 A^-1*A deviation from orthogonality  is 2.50D-15 for   3854   3599.
 Error on total polarization charges =  0.01058
 SCF Done:  E(RB3LYP) =  -1899.94597529     A.U. after   12 cycles
            NFock= 12  Conv=0.86D-08     -V/T= 2.0086
 QCSCF skips out because SCF is already converged.
 DoSCS=F DFT=T ScalE2(SS,OS)=  1.000000  1.000000
 Range of M.O.s used for correlation:     1   655
 NBasis=   655 NAE=   133 NBE=   133 NFC=     0 NFV=     0
 NROrb=    655 NOA=   133 NOB=   133 NVA=   522 NVB=   522

 **** Warning!!: The largest alpha MO coefficient is  0.10723769D+02

 Symmetrizing basis deriv contribution to polar:
 IMax=3 JMax=2 DiffMx= 0.00D+00
 G2DrvN: will do    58 centers at a time, making    1 passes.
 Calling FoFCou, ICntrl=  3107 FMM=F I1Cent=   0 AccDes= 0.00D+00.
 NEqPCM:  Using equilibrium solvation (IEInf=0, Eps=  78.3553, EpsInf=   1.7778)
 G2PCM: DoFxE=T DoFxN=T DoGrad=T DoDP/DQ/DG/TGxP=FFFF NFrqRd=   0 IEInf=0 SqF1=F DoCFld=F IF1Alg=4.
 End of G2Drv F.D. properties file   721 does not exist.
 End of G2Drv F.D. properties file   722 does not exist.
 End of G2Drv F.D. properties file   788 does not exist.
          IDoAtm=11111111111111111111111111111111111111111111111111
          IDoAtm=1111111
 NEqPCM:  Using equilibrium solvation (IEInf=0, Eps=  78.3553, EpsInf=   1.7778)
          Differentiating once with respect to nuclear coordinates.
 CalDSu exits because no D1Ps are significant.
          There are   174 degrees of freedom in the 1st order CPHF.  IDoFFX=6 NUNeed=     0.
    168 vectors produced by pass  0 Test12= 6.94D-14 1.00D-09 XBig12= 1.57D-01 1.43D-01.
 AX will form   168 AO Fock derivatives at one time.
    168 vectors produced by pass  1 Test12= 6.94D-14 1.00D-09 XBig12= 2.13D-02 2.43D-02.
    168 vectors produced by pass  2 Test12= 6.94D-14 1.00D-09 XBig12= 2.27D-04 1.65D-03.
    168 vectors produced by pass  3 Test12= 6.94D-14 1.00D-09 XBig12= 9.41D-07 8.82D-05.
    168 vectors produced by pass  4 Test12= 6.94D-14 1.00D-09 XBig12= 3.37D-09 4.55D-06.
    139 vectors produced by pass  5 Test12= 6.94D-14 1.00D-09 XBig12= 4.12D-12 1.13D-07.
     38 vectors produced by pass  6 Test12= 6.94D-14 1.00D-09 XBig12= 3.99D-15 3.30D-09.
 InvSVY:  IOpt=1 It=  1 EMax= 5.55D-16
 Solved reduced A of dimension  1017 with   174 vectors.
 End of Minotr F.D. properties file   721 does not exist.
 End of Minotr F.D. properties file   722 does not exist.
 End of Minotr F.D. properties file   788 does not exist.

 **********************************************************************

            Population analysis using the SCF density.

 **********************************************************************

 Orbital symmetries:
       Occupied  (A) (A) (A) (A) (A) (A) (A) (A) (A) (A) (A) (A)
                 (A) (A) (A) (A) (A) (A) (A) (A) (A) (A) (A) (A)
                 (A) (A) (A) (A) (A) (A) (A) (A) (A) (A) (A) (A)
                 (A) (A) (A) (A) (A) (A) (A) (A) (A) (A) (A) (A)
                 (A) (A) (A) (A) (A) (A) (A) (A) (A) (A) (A) (A)
                 (A) (A) (A) (A) (A) (A) (A) (A) (A) (A) (A) (A)
                 (A) (A) (A) (A) (A) (A) (A) (A) (A) (A) (A) (A)
                 (A) (A) (A) (A) (A) (A) (A) (A) (A) (A) (A) (A)
                 (A) (A) (A) (A) (A) (A) (A) (A) (A) (A) (A) (A)
                 (A) (A) (A) (A) (A) (A) (A) (A) (A) (A) (A) (A)
                 (A) (A) (A) (A) (A) (A) (A) (A) (A) (A) (A) (A)
                 (A)
       Virtual   (A) (A) (A) (A) (A) (A) (A) (A) (A) (A) (A) (A)
                 (A) (A) (A) (A) (A) (A) (A) (A) (A) (A) (A) (A)
                 (A) (A) (A) (A) (A) (A) (A) (A) (A) (A) (A) (A)
                 (A) (A) (A) (A) (A) (A) (A) (A) (A) (A) (A) (A)
                 (A) (A) (A) (A) (A) (A) (A) (A) (A) (A) (A) (A)
                 (A) (A) (A) (A) (A) (A) (A) (A) (A) (A) (A) (A)
                 (A) (A) (A) (A) (A) (A) (A) (A) (A) (A) (A) (A)
                 (A) (A) (A) (A) (A) (A) (A) (A) (A) (A) (A) (A)
                 (A) (A) (A) (A) (A) (A) (A) (A) (A) (A) (A) (A)
                 (A) (A) (A) (A) (A) (A) (A) (A) (A) (A) (A) (A)
                 (A) (A) (A) (A) (A) (A) (A) (A) (A) (A) (A) (A)
                 (A) (A) (A) (A) (A) (A) (A) (A) (A) (A) (A) (A)
                 (A) (A) (A) (A) (A) (A) (A) (A) (A) (A) (A) (A)
                 (A) (A) (A) (A) (A) (A) (A) (A) (A) (A) (A) (A)
                 (A) (A) (A) (A) (A) (A) (A) (A) (A) (A) (A) (A)
                 (A) (A) (A) (A) (A) (A) (A) (A) (A) (A) (A) (A)
                 (A) (A) (A) (A) (A) (A) (A) (A) (A) (A) (A) (A)
                 (A) (A) (A) (A) (A) (A) (A) (A) (A) (A) (A) (A)
                 (A) (A) (A) (A) (A) (A) (A) (A) (A) (A) (A) (A)
                 (A) (A) (A) (A) (A) (A) (A) (A) (A) (A) (A) (A)
                 (A) (A) (A) (A) (A) (A) (A) (A) (A) (A) (A) (A)
                 (A) (A) (A) (A) (A) (A) (A) (A) (A) (A) (A) (A)
                 (A) (A) (A) (A) (A) (A) (A) (A) (A) (A) (A) (A)
                 (A) (A) (A) (A) (A) (A) (A) (A) (A) (A) (A) (A)
                 (A) (A) (A) (A) (A) (A) (A) (A) (A) (A) (A) (A)
                 (A) (A) (A) (A) (A) (A) (A) (A) (A) (A) (A) (A)
                 (A) (A) (A) (A) (A) (A) (A) (A) (A) (A) (A) (A)
                 (A) (A) (A) (A) (A) (A) (A) (A) (A) (A) (A) (A)
                 (A) (A) (A) (A) (A) (A) (A) (A) (A) (A) (A) (A)
                 (A) (A) (A) (A) (A) (A) (A) (A) (A) (A) (A) (A)
                 (A) (A) (A) (A) (A) (A) (A) (A) (A) (A) (A) (A)
                 (A) (A) (A) (A) (A) (A) (A) (A) (A) (A) (A) (A)
                 (A) (A) (A) (A) (A) (A) (A) (A) (A) (A) (A) (A)
                 (A) (A) (A) (A) (A) (A) (A) (A) (A) (A) (A) (A)
                 (A) (A) (A) (A) (A) (A) (A) (A) (A) (A) (A) (A)
                 (A) (A) (A) (A) (A) (A) (A) (A) (A) (A) (A) (A)
                 (A) (A) (A) (A) (A) (A) (A) (A) (A) (A) (A) (A)
                 (A) (A) (A) (A) (A) (A) (A) (A) (A) (A) (A) (A)
                 (A) (A) (A) (A) (A) (A) (A) (A) (A) (A) (A) (A)
                 (A) (A) (A) (A) (A) (A) (A) (A) (A) (A) (A) (A)
                 (A) (A) (A) (A) (A) (A) (A) (A) (A) (A) (A) (A)
                 (A) (A) (A) (A) (A) (A) (A) (A) (A) (A) (A) (A)
                 (A) (A) (A) (A) (A) (A) (A) (A) (A) (A) (A) (A)
                 (A) (A) (A) (A) (A) (A)
 The electronic state is 1-A.
 Alpha  occ. eigenvalues --  -24.74055 -24.74054 -24.73883 -24.73878 -24.73809
 Alpha  occ. eigenvalues --  -24.73806 -19.18935 -19.18853 -14.33594 -14.33548
 Alpha  occ. eigenvalues --  -10.45184 -10.45178 -10.26922 -10.25870 -10.25804
 Alpha  occ. eigenvalues --  -10.24208 -10.24169 -10.22675 -10.22601 -10.22429
 Alpha  occ. eigenvalues --  -10.22362 -10.20821 -10.20790 -10.20778 -10.20703
 Alpha  occ. eigenvalues --  -10.20084 -10.20045 -10.19903 -10.19800 -10.19327
 Alpha  occ. eigenvalues --  -10.19283 -10.19095 -10.19027 -10.18807 -10.18765
 Alpha  occ. eigenvalues --  -10.18723 -10.18682  -1.32210  -1.31241  -1.23414
 Alpha  occ. eigenvalues --   -1.22986  -1.22449  -1.22408  -1.08403  -1.08374
 Alpha  occ. eigenvalues --   -0.91448  -0.91412  -0.89161  -0.86547  -0.84718
 Alpha  occ. eigenvalues --   -0.83676  -0.83099  -0.76450  -0.76125  -0.75847
 Alpha  occ. eigenvalues --   -0.75606  -0.74809  -0.74748  -0.71891  -0.71704
 Alpha  occ. eigenvalues --   -0.71272  -0.67043  -0.63893  -0.63710  -0.63029
 Alpha  occ. eigenvalues --   -0.62504  -0.61900  -0.61847  -0.60401  -0.60163
 Alpha  occ. eigenvalues --   -0.59375  -0.58895  -0.58367  -0.58357  -0.56649
 Alpha  occ. eigenvalues --   -0.54979  -0.54949  -0.53781  -0.51555  -0.51416
 Alpha  occ. eigenvalues --   -0.50923  -0.50599  -0.50142  -0.48810  -0.48393
 Alpha  occ. eigenvalues --   -0.47977  -0.47498  -0.47092  -0.46703  -0.45855
 Alpha  occ. eigenvalues --   -0.45649  -0.45467  -0.45175  -0.44647  -0.44305
 Alpha  occ. eigenvalues --   -0.44187  -0.43645  -0.43592  -0.42934  -0.42777
 Alpha  occ. eigenvalues --   -0.42437  -0.42253  -0.41860  -0.41747  -0.41579
 Alpha  occ. eigenvalues --   -0.41243  -0.41181  -0.40435  -0.39718  -0.39534
 Alpha  occ. eigenvalues --   -0.39358  -0.38899  -0.38522  -0.37885  -0.37697
 Alpha  occ. eigenvalues --   -0.37151  -0.36643  -0.36001  -0.35706  -0.34906
 Alpha  occ. eigenvalues --   -0.34667  -0.33333  -0.32971  -0.29759  -0.29383
 Alpha  occ. eigenvalues --   -0.26598  -0.26371  -0.25566  -0.25406  -0.25015
 Alpha  occ. eigenvalues --   -0.23893  -0.19775  -0.19651
 Alpha virt. eigenvalues --   -0.02385  -0.01995  -0.01966  -0.01077  -0.00441
 Alpha virt. eigenvalues --   -0.00189   0.01909   0.02028   0.08297   0.08389
 Alpha virt. eigenvalues --    0.09041   0.09060   0.10308   0.10564   0.10849
 Alpha virt. eigenvalues --    0.11501   0.12370   0.12831   0.13075   0.13131
 Alpha virt. eigenvalues --    0.13805   0.14191   0.15244   0.15946   0.16105
 Alpha virt. eigenvalues --    0.16579   0.16749   0.17074   0.17122   0.17159
 Alpha virt. eigenvalues --    0.17358   0.17582   0.17755   0.17923   0.19218
 Alpha virt. eigenvalues --    0.19603   0.19955   0.20130   0.20220   0.21526
 Alpha virt. eigenvalues --    0.23499   0.24128   0.24696   0.24803   0.25689
 Alpha virt. eigenvalues --    0.25833   0.26059   0.27362   0.29492   0.31224
 Alpha virt. eigenvalues --    0.32218   0.32438   0.33155   0.33351   0.33609
 Alpha virt. eigenvalues --    0.33767   0.34023   0.34043   0.34393   0.35182
 Alpha virt. eigenvalues --    0.36275   0.36638   0.36693   0.37027   0.44386
 Alpha virt. eigenvalues --    0.44664   0.46561   0.46770   0.48216   0.48375
 Alpha virt. eigenvalues --    0.48538   0.49148   0.49777   0.49931   0.50379
 Alpha virt. eigenvalues --    0.51417   0.51818   0.52087   0.52511   0.52819
 Alpha virt. eigenvalues --    0.53191   0.53398   0.54033   0.54399   0.54824
 Alpha virt. eigenvalues --    0.55067   0.55575   0.56517   0.56653   0.57284
 Alpha virt. eigenvalues --    0.57704   0.57863   0.58094   0.58261   0.58844
 Alpha virt. eigenvalues --    0.59097   0.59286   0.59568   0.59736   0.59924
 Alpha virt. eigenvalues --    0.60095   0.60362   0.60839   0.60957   0.61285
 Alpha virt. eigenvalues --    0.61983   0.62064   0.62849   0.63120   0.63343
 Alpha virt. eigenvalues --    0.63918   0.64590   0.65919   0.66243   0.66870
 Alpha virt. eigenvalues --    0.67490   0.67857   0.68687   0.69129   0.69697
 Alpha virt. eigenvalues --    0.70064   0.70746   0.72029   0.73256   0.74279
 Alpha virt. eigenvalues --    0.75559   0.75615   0.76066   0.76915   0.77534
 Alpha virt. eigenvalues --    0.77958   0.78360   0.79756   0.80346   0.80810
 Alpha virt. eigenvalues --    0.81298   0.81797   0.81923   0.82202   0.82731
 Alpha virt. eigenvalues --    0.83293   0.83662   0.83784   0.84215   0.84447
 Alpha virt. eigenvalues --    0.84704   0.85791   0.85950   0.86204   0.86516
 Alpha virt. eigenvalues --    0.87435   0.87812   0.88761   0.89381   0.89651
 Alpha virt. eigenvalues --    0.89768   0.89877   0.90680   0.91395   0.92429
 Alpha virt. eigenvalues --    0.92947   0.93246   0.94257   0.97556   0.98510
 Alpha virt. eigenvalues --    0.98785   0.99223   0.99296   0.99659   0.99841
 Alpha virt. eigenvalues --    1.00344   1.00737   1.02859   1.03273   1.03772
 Alpha virt. eigenvalues --    1.04326   1.05477   1.05876   1.06956   1.08166
 Alpha virt. eigenvalues --    1.08359   1.09605   1.10631   1.11129   1.11504
 Alpha virt. eigenvalues --    1.11798   1.12109   1.12910   1.14208   1.14495
 Alpha virt. eigenvalues --    1.15149   1.15426   1.16011   1.16046   1.17251
 Alpha virt. eigenvalues --    1.17787   1.18543   1.18953   1.20158   1.20982
 Alpha virt. eigenvalues --    1.21463   1.22788   1.23559   1.24224   1.25793
 Alpha virt. eigenvalues --    1.25909   1.26948   1.28123   1.28422   1.29386
 Alpha virt. eigenvalues --    1.30090   1.31144   1.31675   1.32289   1.32677
 Alpha virt. eigenvalues --    1.33203   1.33922   1.34515   1.34959   1.35618
 Alpha virt. eigenvalues --    1.36014   1.36469   1.36881   1.37669   1.37953
 Alpha virt. eigenvalues --    1.38088   1.39077   1.39409   1.39543   1.39705
 Alpha virt. eigenvalues --    1.40107   1.40465   1.40554   1.41041   1.41184
 Alpha virt. eigenvalues --    1.42184   1.42470   1.43474   1.43973   1.45145
 Alpha virt. eigenvalues --    1.45452   1.46461   1.47366   1.48652   1.49752
 Alpha virt. eigenvalues --    1.49950   1.51046   1.52136   1.52251   1.56310
 Alpha virt. eigenvalues --    1.57521   1.58333   1.61999   1.62625   1.65568
 Alpha virt. eigenvalues --    1.65762   1.67873   1.68457   1.69519   1.70366
 Alpha virt. eigenvalues --    1.72776   1.73034   1.73185   1.74934   1.75471
 Alpha virt. eigenvalues --    1.75665   1.76462   1.76554   1.77242   1.78344
 Alpha virt. eigenvalues --    1.78457   1.79449   1.79828   1.80193   1.80315
 Alpha virt. eigenvalues --    1.80501   1.81226   1.82178   1.83276   1.83309
 Alpha virt. eigenvalues --    1.84077   1.84674   1.85144   1.85680   1.86056
 Alpha virt. eigenvalues --    1.86480   1.87179   1.87606   1.88209   1.88550
 Alpha virt. eigenvalues --    1.89954   1.90197   1.90392   1.90562   1.91252
 Alpha virt. eigenvalues --    1.91508   1.91649   1.92230   1.92361   1.92599
 Alpha virt. eigenvalues --    1.93435   1.95177   1.95449   1.95824   1.96078
 Alpha virt. eigenvalues --    1.96195   1.97375   1.97437   1.97612   1.97877
 Alpha virt. eigenvalues --    1.98490   1.98902   1.99165   1.99814   2.00434
 Alpha virt. eigenvalues --    2.00619   2.00904   2.01310   2.01826   2.02141
 Alpha virt. eigenvalues --    2.03112   2.05310   2.05730   2.06010   2.06274
 Alpha virt. eigenvalues --    2.06434   2.06695   2.08935   2.09206   2.10207
 Alpha virt. eigenvalues --    2.10548   2.11371   2.12443   2.13026   2.13806
 Alpha virt. eigenvalues --    2.14527   2.16516   2.16645   2.17138   2.19075
 Alpha virt. eigenvalues --    2.19800   2.21550   2.23419   2.23840   2.24097
 Alpha virt. eigenvalues --    2.24561   2.25355   2.25740   2.26081   2.26354
 Alpha virt. eigenvalues --    2.26718   2.27293   2.28093   2.29504   2.30074
 Alpha virt. eigenvalues --    2.30244   2.30907   2.31683   2.31986   2.32910
 Alpha virt. eigenvalues --    2.32995   2.33341   2.34467   2.34966   2.35722
 Alpha virt. eigenvalues --    2.35935   2.36378   2.38079   2.40757   2.41134
 Alpha virt. eigenvalues --    2.41235   2.41353   2.41725   2.41754   2.42191
 Alpha virt. eigenvalues --    2.44135   2.44472   2.44822   2.45088   2.45880
 Alpha virt. eigenvalues --    2.45982   2.46470   2.46591   2.47409   2.47884
 Alpha virt. eigenvalues --    2.48592   2.49255   2.49409   2.49872   2.51356
 Alpha virt. eigenvalues --    2.51695   2.52502   2.53841   2.55199   2.55926
 Alpha virt. eigenvalues --    2.56000   2.56678   2.57046   2.57230   2.57639
 Alpha virt. eigenvalues --    2.58006   2.58551   2.58701   2.58989   2.59568
 Alpha virt. eigenvalues --    2.59740   2.60575   2.63258   2.63844   2.65500
 Alpha virt. eigenvalues --    2.65512   2.67279   2.68646   2.70160   2.71690
 Alpha virt. eigenvalues --    2.72681   2.73358   2.73826   2.74057   2.74948
 Alpha virt. eigenvalues --    2.75278   2.76527   2.77856   2.79208   2.79747
 Alpha virt. eigenvalues --    2.80370   2.80788   2.82610   2.83188   2.84231
 Alpha virt. eigenvalues --    2.84734   2.85398   2.85824   2.88009   2.89390
 Alpha virt. eigenvalues --    2.90054   2.91888   2.96406   2.96828   2.98003
 Alpha virt. eigenvalues --    2.98335   2.98774   2.99138   3.01631   3.03847
 Alpha virt. eigenvalues --    3.03962   3.05564   3.06071   3.07889   3.08558
 Alpha virt. eigenvalues --    3.11136   3.11584   3.11975   3.14355   3.17078
 Alpha virt. eigenvalues --    3.17887   3.18443   3.19577   3.21371   3.22576
 Alpha virt. eigenvalues --    3.24276   3.24465   3.24913   3.24945   3.25690
 Alpha virt. eigenvalues --    3.28281   3.28389   3.30756   3.31345   3.35004
 Alpha virt. eigenvalues --    3.35249   3.36728   3.37131   3.37597   3.37692
 Alpha virt. eigenvalues --    3.48498   3.48627   3.48862   3.49723   3.54313
 Alpha virt. eigenvalues --    3.54501   3.78454   3.79566   3.83528   3.83616
 Alpha virt. eigenvalues --    4.03670   4.03739   4.13077   4.13357   4.13401
 Alpha virt. eigenvalues --    4.13754   4.14432   4.15030   4.15743   4.16239
 Alpha virt. eigenvalues --    4.17010   4.17922   4.21520   4.22698   4.35916
 Alpha virt. eigenvalues --    4.40503   4.41765   4.42758   4.44302   4.44580
 Alpha virt. eigenvalues --    4.44993   4.45388   4.45752   4.55123   4.57513
 Alpha virt. eigenvalues --    4.64156   4.68953   4.79221   4.81057   4.84652
 Alpha virt. eigenvalues --    4.86146   4.88216   5.06199   5.23566   5.55214
 Alpha virt. eigenvalues --    5.56595   6.56515
          Condensed to atoms (all electrons):
 Mulliken charges:
               1
     1  F   -0.271781
     2  C    0.860045
     3  C   -0.311832
     4  C    0.088757
     5  C   -0.118644
     6  C   -0.129581
     7  C    0.324228
     8  O   -0.583927
     9  C    0.291858
    10  C   -0.118766
    11  C   -0.141843
    12  C    0.258301
    13  N   -0.672775
    14  C   -0.140170
    15  C   -0.133803
    16  C   -0.118916
    17  C   -0.134123
    18  C    0.087808
    19  C   -0.132915
    20  C   -0.139288
    21  C    0.326625
    22  O   -0.582998
    23  C    0.289961
    24  C   -0.132133
    25  C   -0.140226
    26  C    0.258837
    27  N   -0.672215
    28  C   -0.140953
    29  C   -0.117697
    30  C   -0.114417
    31  C   -0.119722
    32  C    0.860147
    33  F   -0.271817
    34  F   -0.268923
    35  F   -0.276476
    36  F   -0.276347
    37  F   -0.268809
    38  H    0.118873
    39  H    0.117204
    40  H    0.109005
    41  H    0.102134
    42  H    0.277146
    43  H    0.277181
    44  H    0.100638
    45  H    0.104583
    46  H    0.119047
    47  H    0.115845
    48  H    0.114716
    49  H    0.115460
    50  H    0.104910
    51  H    0.100986
    52  H    0.277438
    53  H    0.277403
    54  H    0.102307
    55  H    0.109431
    56  H    0.120765
    57  H    0.119459
 Sum of Mulliken charges =  -0.00000
 Mulliken charges with hydrogens summed into heavy atoms:
               1
     1  F   -0.271781
     2  C    0.860045
     3  C   -0.311832
     4  C    0.088757
     5  C    0.000229
     6  C   -0.012377
     7  C    0.324228
     8  O   -0.583927
     9  C    0.291858
    10  C   -0.009761
    11  C   -0.039709
    12  C    0.258301
    13  N   -0.118448
    14  C   -0.039532
    15  C   -0.029220
    16  C    0.000131
    17  C   -0.018278
    18  C    0.087808
    19  C   -0.018199
    20  C   -0.023828
    21  C    0.326625
    22  O   -0.582998
    23  C    0.289961
    24  C   -0.027224
    25  C   -0.039241
    26  C    0.258837
    27  N   -0.117374
    28  C   -0.038646
    29  C   -0.008266
    30  C    0.006348
    31  C   -0.000263
    32  C    0.860147
    33  F   -0.271817
    34  F   -0.268923
    35  F   -0.276476
    36  F   -0.276347
    37  F   -0.268809
 APT charges:
               1
     1  F    0.142521
     2  C   -0.062280
     3  C   -0.449977
     4  C   -0.420487
     5  C   -0.534184
     6  C   -0.526157
     7  C    0.263987
     8  O   -0.316578
     9  C   -0.991593
    10  C   -0.715851
    11  C   -0.310750
    12  C    0.651571
    13  N   -1.453983
    14  C   -0.269391
    15  C   -0.499917
    16  C   -0.461788
    17  C   -0.566427
    18  C   -0.539613
    19  C   -0.521869
    20  C   -0.495900
    21  C    0.257058
    22  O   -0.187097
    23  C   -0.728645
    24  C   -0.538624
    25  C   -0.234592
    26  C    0.708374
    27  N   -2.356101
    28  C   -0.259838
    29  C   -0.799732
    30  C   -0.443614
    31  C   -0.566010
    32  C   -0.138561
    33  F    0.208934
    34  F    0.161163
    35  F    0.001604
    36  F   -0.130085
    37  F    0.210010
    38  H    0.351284
    39  H    0.628041
    40  H   -0.168276
    41  H    0.688157
    42  H    0.692648
    43  H    1.287996
    44  H    1.229122
    45  H    0.358071
    46  H    0.686346
    47  H    0.423879
    48  H    0.548654
    49  H    0.865732
    50  H    0.371062
    51  H    1.085341
    52  H    1.618957
    53  H    1.076634
    54  H    0.598262
    55  H   -0.106880
    56  H    0.495622
    57  H    0.183769
 Sum of APT charges =  -0.00000
 APT charges with hydrogens summed into heavy atoms:
               1
     1  F    0.142521
     2  C   -0.062280
     3  C   -0.449977
     4  C   -0.420487
     5  C   -0.182899
     6  C    0.101884
     7  C    0.263987
     8  O   -0.316578
     9  C   -0.991593
    10  C   -0.884126
    11  C    0.377406
    12  C    0.651571
    13  N    0.526661
    14  C    0.959731
    15  C   -0.141846
    16  C    0.224559
    17  C   -0.142548
    18  C   -0.539613
    19  C    0.026785
    20  C    0.369831
    21  C    0.257058
    22  O   -0.187097
    23  C   -0.728645
    24  C   -0.167562
    25  C    0.850750
    26  C    0.708374
    27  N    0.339490
    28  C    0.338424
    29  C   -0.906611
    30  C    0.052009
    31  C   -0.382241
    32  C   -0.138561
    33  F    0.208934
    34  F    0.161163
    35  F    0.001604
    36  F   -0.130085
    37  F    0.210010
 Electronic spatial extent (au):  <R**2>=          27658.9392
 Charge=             -0.0000 electrons
 Dipole moment (field-independent basis, Debye):
    X=              0.7872    Y=             -1.8958    Z=              2.6337  Tot=              3.3392
 Quadrupole moment (field-independent basis, Debye-Ang):
   XX=           -127.5738   YY=           -205.4879   ZZ=           -202.0392
   XY=            -14.1626   XZ=             -9.1169   YZ=             -7.5627
 Traceless Quadrupole moment (field-independent basis, Debye-Ang):
   XX=             50.7931   YY=            -27.1210   ZZ=            -23.6722
   XY=            -14.1626   XZ=             -9.1169   YZ=             -7.5627
 Octapole moment (field-independent basis, Debye-Ang**2):
  XXX=            119.5730  YYY=             40.5251  ZZZ=             26.2626  XYY=             46.0921
  XXY=           -103.5371  XXZ=            332.3069  XZZ=             -8.5429  YZZ=             35.3404
  YYZ=              4.6716  XYZ=             40.8479
 Hexadecapole moment (field-independent basis, Debye-Ang**3):
 XXXX=         -20485.9551 YYYY=          -4643.5336 ZZZZ=          -1743.3968 XXXY=          -1749.1394
 XXXZ=           -539.2682 YYYX=           -148.6859 YYYZ=              7.7285 ZZZX=             37.8974
 ZZZY=             37.9316 XXYY=          -4923.6763 XXZZ=          -4902.3694 YYZZ=          -1099.4880
 XXYZ=           -482.9528 YYXZ=           -202.7759 ZZXY=             48.0303
 N-N= 3.944097963047D+03 E-N=-1.233809037217D+04  KE= 1.883782131883D+03
  Exact polarizability:   0.000   0.000   0.000   0.000   0.000   0.000
 Approx polarizability: 530.324 -26.984 469.544 -31.309 -22.185 409.681
 D2PCM: PCM CHGder 2nd derivatives, FixD1E=F FixD2E=F DoIter=F DoCFld=F I1PDM=0
 Calling FoFJK, ICntrl=    100147 FMM=F ISym2X=0 I1Cent= 0 IOpClX= 0 NMat=1 NMatS=1 NMatT=0.
 ***** Axes restored to original set *****
 -------------------------------------------------------------------
 Center     Atomic                   Forces (Hartrees/Bohr)
 Number     Number              X              Y              Z
 -------------------------------------------------------------------
      1        9           0.002620998   -0.002327124   -0.000605468
      2        6           0.003879608   -0.026429283    0.005768105
      3        6           0.000928380   -0.000443967   -0.006942247
      4        6          -0.002163167   -0.003756639    0.001167906
      5        6           0.004065435   -0.001444953    0.001264176
      6        6           0.007217915    0.005448950    0.004038274
      7        6           0.003478441   -0.000171240   -0.000573553
      8        8           0.008100767    0.003276802   -0.002498951
      9        6          -0.010866591   -0.004834038   -0.001609880
     10        6          -0.004021736    0.001552021    0.002577327
     11        6           0.011250153    0.002618738    0.003880490
     12        6          -0.013082586    0.007959335   -0.006902360
     13        7           0.000012059   -0.002251158    0.002730571
     14        6           0.009332284   -0.005092392   -0.005071449
     15        6          -0.007295697   -0.002934449    0.001539496
     16        6           0.001356369   -0.002203687    0.004559941
     17        6          -0.002466962   -0.000508556   -0.000504870
     18        6           0.001752212    0.004899570    0.001809040
     19        6           0.001095062    0.001246602   -0.000701638
     20        6          -0.004512061    0.002601129    0.004481247
     21        6          -0.000683096    0.007472819    0.001742363
     22        8          -0.006518392    0.008038467    0.003076113
     23        6           0.008003456   -0.007261736   -0.005801121
     24        6           0.003685860   -0.006832726   -0.002345994
     25        6          -0.000967744    0.011763945   -0.004310007
     26        6          -0.005002538   -0.016073822   -0.003192788
     27        7           0.003160327    0.001434807    0.000581470
     28        6          -0.003532647    0.009837284    0.007048009
     29        6           0.002767714   -0.004589194    0.001555083
     30        6          -0.006654151   -0.006169390    0.001658857
     31        6          -0.001587164    0.001336965    0.000172965
     32        6          -0.004576659    0.027036289    0.000748946
     33        9          -0.002560093    0.001952631   -0.001627359
     34        9           0.005142079    0.001500390   -0.005840624
     35        9           0.000763175   -0.004120681    0.000032144
     36        9          -0.000649778    0.003885565   -0.000896642
     37        9          -0.003553456   -0.002222246   -0.006387660
     38        1          -0.001290233   -0.004144463    0.002294713
     39        1          -0.000916695   -0.001278229    0.001347412
     40        1           0.000868731   -0.001409831   -0.000458041
     41        1          -0.000421817   -0.001168044    0.000359964
     42        1          -0.001094209   -0.003307223   -0.002133791
     43        1          -0.000520413    0.002279957    0.003080438
     44        1          -0.000453606   -0.000288402    0.001347578
     45        1           0.001265218    0.000676463    0.001140734
     46        1           0.000318066    0.002039605   -0.000237004
     47        1           0.001967252    0.004210848   -0.002390699
     48        1          -0.001246586   -0.004905984   -0.001808926
     49        1          -0.000315966   -0.002187315   -0.000514711
     50        1          -0.001180864    0.000063122    0.001358816
     51        1           0.001463393   -0.000163231    0.000579582
     52        1           0.000500532   -0.001080959    0.003846586
     53        1           0.001143087    0.000133908   -0.003966469
     54        1           0.001424431    0.000302529   -0.000430358
     55        1          -0.001035827    0.000166873   -0.001184458
     56        1           0.000740818    0.001254685    0.001684635
     57        1           0.000866915    0.004610659    0.001464085
 -------------------------------------------------------------------
 Cartesian Forces:  Max     0.027036289 RMS     0.004977917
 FormGI is forming the generalized inverse of G from B-inverse, IUseBI=4.

 GradGradGradGradGradGradGradGradGradGradGradGradGradGradGradGradGradGrad
 Berny optimization.
 Internal  Forces:  Max     0.024672655 RMS     0.004062794
 Search for a local minimum.
 Step number   1 out of a maximum of  310
 All quantities printed in internal units (Hartrees-Bohrs-Radians)
 Mixed Optimization -- RFO/linear search
 Second derivative matrix not updated -- analytic derivatives used.
 ITU=  0
     Eigenvalues ---   -0.00025  -0.00015   0.00188   0.00244   0.00479
     Eigenvalues ---    0.00482   0.00547   0.00672   0.00721   0.01495
     Eigenvalues ---    0.01551   0.01581   0.01603   0.01730   0.01730
     Eigenvalues ---    0.01741   0.01745   0.01768   0.01786   0.01787
     Eigenvalues ---    0.01808   0.01839   0.01841   0.01888   0.02111
     Eigenvalues ---    0.02119   0.02130   0.02148   0.02187   0.02192
     Eigenvalues ---    0.02298   0.02299   0.02363   0.02390   0.02578
     Eigenvalues ---    0.02586   0.02657   0.02703   0.02714   0.02736
     Eigenvalues ---    0.02741   0.02755   0.02786   0.02791   0.02846
     Eigenvalues ---    0.02858   0.03019   0.03030   0.06142   0.06806
     Eigenvalues ---    0.07182   0.09603   0.10005   0.10811   0.10843
     Eigenvalues ---    0.10876   0.10932   0.11264   0.11313   0.11431
     Eigenvalues ---    0.11461   0.11731   0.11741   0.11810   0.12005
     Eigenvalues ---    0.12038   0.12157   0.12546   0.12561   0.12870
     Eigenvalues ---    0.13048   0.13564   0.13569   0.14065   0.15507
     Eigenvalues ---    0.15545   0.17471   0.17654   0.17694   0.17790
     Eigenvalues ---    0.17829   0.18017   0.18041   0.18144   0.19366
     Eigenvalues ---    0.19380   0.19881   0.19902   0.20495   0.20535
     Eigenvalues ---    0.20665   0.21838   0.22118   0.22229   0.22553
     Eigenvalues ---    0.22688   0.22970   0.23187   0.24368   0.24675
     Eigenvalues ---    0.25205   0.26412   0.27238   0.27757   0.28927
     Eigenvalues ---    0.30736   0.32150   0.32528   0.32597   0.32740
     Eigenvalues ---    0.32810   0.33835   0.34107   0.34579   0.34617
     Eigenvalues ---    0.35104   0.35216   0.35658   0.35677   0.35843
     Eigenvalues ---    0.35868   0.35920   0.35944   0.36014   0.36062
     Eigenvalues ---    0.36079   0.36135   0.36137   0.36376   0.36533
     Eigenvalues ---    0.36798   0.37291   0.38092   0.38952   0.40060
     Eigenvalues ---    0.40498   0.41199   0.41257   0.41278   0.41809
     Eigenvalues ---    0.43323   0.43380   0.44550   0.44666   0.45488
     Eigenvalues ---    0.45548   0.45950   0.46011   0.46625   0.46729
     Eigenvalues ---    0.46885   0.46971   0.47269   0.47346   0.47748
     Eigenvalues ---    0.47801   0.48779   0.48832   0.50427   0.51581
     Eigenvalues ---    0.51707   0.52168   0.52779   0.52805   0.63355
 RFO step:  Lambda=-1.62458447D-02 EMin=-2.48601818D-04
 Linear search not attempted -- first point.
 Iteration  1 RMS(Cart)=  0.23808932 RMS(Int)=  0.04296853
 Iteration  2 RMS(Cart)=  0.18185258 RMS(Int)=  0.02232654
 Iteration  3 RMS(Cart)=  0.19034852 RMS(Int)=  0.00757945
 Iteration  4 RMS(Cart)=  0.06780305 RMS(Int)=  0.00069230
 Iteration  5 RMS(Cart)=  0.00169835 RMS(Int)=  0.00017958
 Iteration  6 RMS(Cart)=  0.00000174 RMS(Int)=  0.00017958
 Iteration  7 RMS(Cart)=  0.00000000 RMS(Int)=  0.00017958
 Variable       Old X    -DE/DX   Delta X   Delta X   Delta X     New X
                                 (Linear)    (Quad)   (Total)
    R1        2.55763  -0.00225   0.00000  -0.00333  -0.00333   2.55430
    R2        2.90254   0.01789   0.00000   0.03726   0.03726   2.93980
    R3        2.56759  -0.00326   0.00000  -0.01603  -0.01603   2.55157
    R4        2.55918  -0.00705   0.00000  -0.01457  -0.01457   2.54461
    R5        2.94642  -0.00854   0.00000  -0.02474  -0.02474   2.92167
    R6        2.94680  -0.00864   0.00000  -0.02417  -0.02417   2.92263
    R7        2.90280   0.01778   0.00000   0.03700   0.03700   2.93980
    R8        2.67015  -0.00958   0.00000  -0.01415  -0.01416   2.65599
    R9        2.65875  -0.00449   0.00000  -0.01071  -0.01070   2.64805
   R10        2.63939  -0.00416   0.00000  -0.01511  -0.01513   2.62426
   R11        2.05969  -0.00431   0.00000  -0.01185  -0.01185   2.04784
   R12        2.62621   0.00546   0.00000   0.01752   0.01750   2.64371
   R13        2.05418  -0.00175   0.00000  -0.00410  -0.00410   2.05008
   R14        2.59764   0.00662   0.00000  -0.00593  -0.00593   2.59171
   R15        2.63312   0.00119   0.00000   0.00737   0.00737   2.64049
   R16        2.60138   0.01501   0.00000   0.03622   0.03622   2.63760
   R17        2.63679   0.00118   0.00000   0.00224   0.00217   2.63896
   R18        2.63272   0.00275   0.00000  -0.00324  -0.00330   2.62941
   R19        2.64173  -0.00284   0.00000  -0.01417  -0.01418   2.62755
   R20        2.05251  -0.00076   0.00000  -0.00027  -0.00027   2.05225
   R21        2.64135   0.00763   0.00000   0.02184   0.02191   2.66325
   R22        2.05382  -0.00027   0.00000  -0.00079  -0.00079   2.05303
   R23        2.64483   0.00258   0.00000  -0.00958  -0.00958   2.63525
   R24        2.64124   0.00725   0.00000   0.01487   0.01494   2.65618
   R25        1.91827  -0.00272   0.00000  -0.00604  -0.00604   1.91223
   R26        1.91789  -0.00250   0.00000  -0.00549  -0.00549   1.91240
   R27        2.64129  -0.00278   0.00000  -0.00466  -0.00465   2.63664
   R28        2.05382  -0.00023   0.00000  -0.00098  -0.00098   2.05284
   R29        2.05250  -0.00072   0.00000  -0.00171  -0.00171   2.05080
   R30        2.64404  -0.00404   0.00000  -0.00784  -0.00783   2.63622
   R31        2.05445  -0.00181   0.00000  -0.00673  -0.00673   2.04772
   R32        2.05640  -0.00448   0.00000  -0.01273  -0.01273   2.04367
   R33        2.65845  -0.00524   0.00000  -0.00956  -0.00954   2.64891
   R34        2.66946  -0.00842   0.00000  -0.01495  -0.01494   2.65452
   R35        2.64419  -0.00384   0.00000  -0.00871  -0.00871   2.63548
   R36        2.05673  -0.00461   0.00000  -0.01322  -0.01322   2.04350
   R37        2.62984   0.00213   0.00000   0.00511   0.00510   2.63494
   R38        2.05501  -0.00198   0.00000  -0.00501  -0.00501   2.05000
   R39        2.59998   0.00450   0.00000   0.00146   0.00146   2.60144
   R40        2.63113   0.00412   0.00000   0.01141   0.01140   2.64253
   R41        2.59921   0.01629   0.00000   0.03376   0.03376   2.63297
   R42        2.63211   0.00279   0.00000   0.00138   0.00132   2.63343
   R43        2.63639   0.00142   0.00000   0.00204   0.00200   2.63840
   R44        2.64114  -0.00265   0.00000  -0.00738  -0.00739   2.63375
   R45        2.05262  -0.00078   0.00000  -0.00175  -0.00175   2.05087
   R46        2.64188   0.00692   0.00000   0.01490   0.01494   2.65682
   R47        2.05312   0.00004   0.00000   0.00012   0.00012   2.05324
   R48        2.64487   0.00226   0.00000  -0.00368  -0.00368   2.64119
   R49        2.64199   0.00742   0.00000   0.01689   0.01694   2.65894
   R50        1.91839  -0.00275   0.00000  -0.00542  -0.00542   1.91297
   R51        1.91861  -0.00283   0.00000  -0.00553  -0.00553   1.91308
   R52        2.64249  -0.00326   0.00000  -0.01051  -0.01049   2.63200
   R53        2.05381  -0.00021   0.00000  -0.00035  -0.00035   2.05346
   R54        2.05220  -0.00063   0.00000  -0.00130  -0.00130   2.05090
   R55        2.64120  -0.00564   0.00000  -0.01303  -0.01304   2.62817
   R56        2.05396  -0.00179   0.00000  -0.00510  -0.00510   2.04885
   R57        2.05992  -0.00441   0.00000  -0.01200  -0.01200   2.04792
   R58        2.55809  -0.00249   0.00000  -0.00326  -0.00326   2.55483
   R59        2.55962  -0.00731   0.00000  -0.01527  -0.01527   2.54435
   R60        2.56809  -0.00348   0.00000  -0.01659  -0.01659   2.55150
    A1        1.97366   0.00616   0.00000  -0.00232  -0.00237   1.97129
    A2        1.84963  -0.00044   0.00000   0.01479   0.01481   1.86444
    A3        1.86105  -0.00029   0.00000   0.00457   0.00446   1.86551
    A4        1.95481  -0.00570   0.00000  -0.00663  -0.00666   1.94814
    A5        1.96450  -0.00100   0.00000  -0.02171  -0.02181   1.94269
    A6        1.85124   0.00126   0.00000   0.01470   0.01461   1.86586
    A7        2.00363  -0.01067   0.00000  -0.03737  -0.03753   1.96610
    A8        1.88131  -0.00677   0.00000  -0.00862  -0.00812   1.87319
    A9        1.78009   0.02467   0.00000   0.06775   0.06807   1.84816
   A10        1.91489   0.00987   0.00000   0.01987   0.01937   1.93426
   A11        1.88090  -0.00674   0.00000  -0.00624  -0.00570   1.87520
   A12        2.00309  -0.01067   0.00000  -0.03633  -0.03642   1.96667
   A13        2.08549  -0.00562   0.00000  -0.01915  -0.01915   2.06634
   A14        2.14552   0.00135   0.00000   0.01762   0.01763   2.16314
   A15        2.05218   0.00428   0.00000   0.00153   0.00151   2.05369
   A16        2.11784  -0.00096   0.00000   0.00175   0.00168   2.11952
   A17        2.11009  -0.00192   0.00000  -0.01500  -0.01499   2.09510
   A18        2.05523   0.00288   0.00000   0.01332   0.01333   2.06856
   A19        2.09213  -0.00016   0.00000   0.00314   0.00307   2.09520
   A20        2.09605   0.00105   0.00000   0.01178   0.01181   2.10785
   A21        2.09498  -0.00089   0.00000  -0.01487  -0.01485   2.08013
   A22        2.05142   0.00310   0.00000  -0.03025  -0.03023   2.02119
   A23        2.09462  -0.00172   0.00000  -0.00893  -0.00896   2.08566
   A24        2.13561  -0.00141   0.00000   0.03926   0.03928   2.17489
   A25        2.04302   0.00959   0.00000   0.03942   0.03942   2.08244
   A26        2.14645  -0.00290   0.00000  -0.04626  -0.04616   2.10029
   A27        2.04180   0.00335   0.00000   0.03855   0.03858   2.08038
   A28        2.09256  -0.00043   0.00000   0.00675   0.00653   2.09909
   A29        2.09056   0.00091   0.00000   0.00158   0.00143   2.09199
   A30        2.10840  -0.00175   0.00000  -0.01802  -0.01797   2.09043
   A31        2.08399   0.00085   0.00000   0.01666   0.01671   2.10071
   A32        2.10792   0.00124   0.00000   0.00021   0.00021   2.10814
   A33        2.07682   0.00031   0.00000   0.01145   0.01144   2.08825
   A34        2.09843  -0.00155   0.00000  -0.01168  -0.01169   2.08674
   A35        2.09808   0.00199   0.00000   0.00669   0.00567   2.10375
   A36        2.07120  -0.00339   0.00000  -0.00394  -0.00483   2.06637
   A37        2.09851   0.00198   0.00000   0.01057   0.00958   2.10809
   A38        1.98734   0.00192   0.00000   0.01707   0.01695   2.00429
   A39        1.98775   0.00190   0.00000   0.01604   0.01592   2.00367
   A40        1.96038  -0.00341   0.00000  -0.01514  -0.01531   1.94508
   A41        2.10694   0.00026   0.00000   0.00079   0.00083   2.10777
   A42        2.09843  -0.00124   0.00000  -0.01199  -0.01201   2.08642
   A43        2.07781   0.00097   0.00000   0.01121   0.01119   2.08900
   A44        2.09267   0.00160   0.00000  -0.00060  -0.00069   2.09197
   A45        2.09655  -0.00239   0.00000  -0.00882  -0.00877   2.08778
   A46        2.09392   0.00079   0.00000   0.00941   0.00946   2.10337
   A47        2.09691  -0.00175   0.00000  -0.00477  -0.00478   2.09213
[...]

   481    F   33  S      Cor( 1S)     1.99992
   482    F   33  S      Val( 2S)     1.84034
   483    F   33  S      Ryd( 3S)     0.00081
   484    F   33  S      Ryd( 4S)     0.00008
   485    F   33  px     Val( 2p)     1.85027
   486    F   33  px     Ryd( 3p)     0.00020
   487    F   33  py     Val( 2p)     1.75190
   488    F   33  py     Ryd( 3p)     0.00038
   489    F   33  pz     Val( 2p)     1.91541
   490    F   33  pz     Ryd( 3p)     0.00034
   491    F   33  dxy    Ryd( 3d)     0.00111
   492    F   33  dxz    Ryd( 3d)     0.00049
   493    F   33  dyz    Ryd( 3d)     0.00102
   494    F   33  dx2y2  Ryd( 3d)     0.00132
   495    F   33  dz2    Ryd( 3d)     0.00057

   496    F   34  S      Cor( 1S)     1.99992
   497    F   34  S      Val( 2S)     1.83742
   498    F   34  S      Ryd( 3S)     0.00068
   499    F   34  S      Ryd( 4S)     0.00009
   500    F   34  px     Val( 2p)     1.66434
   501    F   34  px     Ryd( 3p)     0.00015
   502    F   34  py     Val( 2p)     1.91966
   503    F   34  py     Ryd( 3p)     0.00039
   504    F   34  pz     Val( 2p)     1.93211
   505    F   34  pz     Ryd( 3p)     0.00035
   506    F   34  dxy    Ryd( 3d)     0.00137
   507    F   34  dxz    Ryd( 3d)     0.00137
   508    F   34  dyz    Ryd( 3d)     0.00015
   509    F   34  dx2y2  Ryd( 3d)     0.00123
   510    F   34  dz2    Ryd( 3d)     0.00047

   511    F   35  S      Cor( 1S)     1.99992
   512    F   35  S      Val( 2S)     1.83844
   513    F   35  S      Ryd( 3S)     0.00075
   514    F   35  S      Ryd( 4S)     0.00009
   515    F   35  px     Val( 2p)     1.92362
   516    F   35  px     Ryd( 3p)     0.00020
   517    F   35  py     Val( 2p)     1.93600
   518    F   35  py     Ryd( 3p)     0.00044
   519    F   35  pz     Val( 2p)     1.65629
   520    F   35  pz     Ryd( 3p)     0.00024
   521    F   35  dxy    Ryd( 3d)     0.00012
   522    F   35  dxz    Ryd( 3d)     0.00140
   523    F   35  dyz    Ryd( 3d)     0.00137
   524    F   35  dx2y2  Ryd( 3d)     0.00012
   525    F   35  dz2    Ryd( 3d)     0.00150

   526    F   36  S      Cor( 1S)     1.99992
   527    F   36  S      Val( 2S)     1.83838
   528    F   36  S      Ryd( 3S)     0.00075
   529    F   36  S      Ryd( 4S)     0.00009
   530    F   36  px     Val( 2p)     1.92927
   531    F   36  px     Ryd( 3p)     0.00018
   532    F   36  py     Val( 2p)     1.74445
   533    F   36  py     Ryd( 3p)     0.00019
   534    F   36  pz     Val( 2p)     1.84228
   535    F   36  pz     Ryd( 3p)     0.00051
   536    F   36  dxy    Ryd( 3d)     0.00103
   537    F   36  dxz    Ryd( 3d)     0.00052
   538    F   36  dyz    Ryd( 3d)     0.00115
   539    F   36  dx2y2  Ryd( 3d)     0.00082
   540    F   36  dz2    Ryd( 3d)     0.00100

   541    F   37  S      Cor( 1S)     1.99992
   542    F   37  S      Val( 2S)     1.83750
   543    F   37  S      Ryd( 3S)     0.00068
   544    F   37  S      Ryd( 4S)     0.00009
   545    F   37  px     Val( 2p)     1.75548
   546    F   37  px     Ryd( 3p)     0.00015
   547    F   37  py     Val( 2p)     1.83520
   548    F   37  py     Ryd( 3p)     0.00021
   549    F   37  pz     Val( 2p)     1.92416
   550    F   37  pz     Ryd( 3p)     0.00053
   551    F   37  dxy    Ryd( 3d)     0.00112
   552    F   37  dxz    Ryd( 3d)     0.00095
   553    F   37  dyz    Ryd( 3d)     0.00059
   554    F   37  dx2y2  Ryd( 3d)     0.00139
   555    F   37  dz2    Ryd( 3d)     0.00055

   556    H   38  S      Val( 1S)     0.74134
   557    H   38  S      Ryd( 2S)     0.00118
   558    H   38  px     Ryd( 2p)     0.00032
   559    H   38  py     Ryd( 2p)     0.00011
   560    H   38  pz     Ryd( 2p)     0.00019

   561    H   39  S      Val( 1S)     0.74549
   562    H   39  S      Ryd( 2S)     0.00120
   563    H   39  px     Ryd( 2p)     0.00008
   564    H   39  py     Ryd( 2p)     0.00018
   565    H   39  pz     Ryd( 2p)     0.00033

   566    H   40  S      Val( 1S)     0.74152
   567    H   40  S      Ryd( 2S)     0.00095
   568    H   40  px     Ryd( 2p)     0.00006
   569    H   40  py     Ryd( 2p)     0.00028
   570    H   40  pz     Ryd( 2p)     0.00024

   571    H   41  S      Val( 1S)     0.75041
   572    H   41  S      Ryd( 2S)     0.00089
   573    H   41  px     Ryd( 2p)     0.00031
   574    H   41  py     Ryd( 2p)     0.00018
   575    H   41  pz     Ryd( 2p)     0.00011

   576    H   42  S      Val( 1S)     0.58157
   577    H   42  S      Ryd( 2S)     0.00107
   578    H   42  px     Ryd( 2p)     0.00043
   579    H   42  py     Ryd( 2p)     0.00051
   580    H   42  pz     Ryd( 2p)     0.00032

   581    H   43  S      Val( 1S)     0.58156
   582    H   43  S      Ryd( 2S)     0.00107
   583    H   43  px     Ryd( 2p)     0.00024
   584    H   43  py     Ryd( 2p)     0.00042
   585    H   43  pz     Ryd( 2p)     0.00060

   586    H   44  S      Val( 1S)     0.75045
   587    H   44  S      Ryd( 2S)     0.00089
   588    H   44  px     Ryd( 2p)     0.00006
   589    H   44  py     Ryd( 2p)     0.00030
   590    H   44  pz     Ryd( 2p)     0.00024

   591    H   45  S      Val( 1S)     0.74161
   592    H   45  S      Ryd( 2S)     0.00096
   593    H   45  px     Ryd( 2p)     0.00032
   594    H   45  py     Ryd( 2p)     0.00017
   595    H   45  pz     Ryd( 2p)     0.00009

   596    H   46  S      Val( 1S)     0.74205
   597    H   46  S      Ryd( 2S)     0.00086
   598    H   46  px     Ryd( 2p)     0.00030
   599    H   46  py     Ryd( 2p)     0.00011
   600    H   46  pz     Ryd( 2p)     0.00019

   601    H   47  S      Val( 1S)     0.74703
   602    H   47  S      Ryd( 2S)     0.00203
   603    H   47  px     Ryd( 2p)     0.00010
   604    H   47  py     Ryd( 2p)     0.00020
   605    H   47  pz     Ryd( 2p)     0.00034

   606    H   48  S      Val( 1S)     0.75766
   607    H   48  S      Ryd( 2S)     0.00187
   608    H   48  px     Ryd( 2p)     0.00010
   609    H   48  py     Ryd( 2p)     0.00039
   610    H   48  pz     Ryd( 2p)     0.00017

   611    H   49  S      Val( 1S)     0.75902
   612    H   49  S      Ryd( 2S)     0.00100
   613    H   49  px     Ryd( 2p)     0.00025
   614    H   49  py     Ryd( 2p)     0.00017
   615    H   49  pz     Ryd( 2p)     0.00021

   616    H   50  S      Val( 1S)     0.72741
   617    H   50  S      Ryd( 2S)     0.00088
   618    H   50  px     Ryd( 2p)     0.00017
   619    H   50  py     Ryd( 2p)     0.00007
   620    H   50  pz     Ryd( 2p)     0.00036

   621    H   51  S      Val( 1S)     0.73575
   622    H   51  S      Ryd( 2S)     0.00084
   623    H   51  px     Ryd( 2p)     0.00013
   624    H   51  py     Ryd( 2p)     0.00025
   625    H   51  pz     Ryd( 2p)     0.00023

   626    H   52  S      Val( 1S)     0.55185
   627    H   52  S      Ryd( 2S)     0.00087
   628    H   52  px     Ryd( 2p)     0.00034
   629    H   52  py     Ryd( 2p)     0.00040
   630    H   52  pz     Ryd( 2p)     0.00046

   631    H   53  S      Val( 1S)     0.55177
   632    H   53  S      Ryd( 2S)     0.00088
   633    H   53  px     Ryd( 2p)     0.00052
   634    H   53  py     Ryd( 2p)     0.00023
   635    H   53  pz     Ryd( 2p)     0.00045

   636    H   54  S      Val( 1S)     0.73579
   637    H   54  S      Ryd( 2S)     0.00084
   638    H   54  px     Ryd( 2p)     0.00017
   639    H   54  py     Ryd( 2p)     0.00006
   640    H   54  pz     Ryd( 2p)     0.00037

   641    H   55  S      Val( 1S)     0.72728
   642    H   55  S      Ryd( 2S)     0.00086
   643    H   55  px     Ryd( 2p)     0.00012
   644    H   55  py     Ryd( 2p)     0.00027
   645    H   55  pz     Ryd( 2p)     0.00020

   646    H   56  S      Val( 1S)     0.75507
   647    H   56  S      Ryd( 2S)     0.00076
   648    H   56  px     Ryd( 2p)     0.00009
   649    H   56  py     Ryd( 2p)     0.00037
   650    H   56  pz     Ryd( 2p)     0.00019

   651    H   57  S      Val( 1S)     0.75720
   652    H   57  S      Ryd( 2S)     0.00101
   653    H   57  px     Ryd( 2p)     0.00025
   654    H   57  py     Ryd( 2p)     0.00018
   655    H   57  pz     Ryd( 2p)     0.00023

 WARNING:  1 low occupancy (<1.9990e) core orbital  found on  C    3
           1 low occupancy (<1.9990e) core orbital  found on  C    7
           1 low occupancy (<1.9990e) core orbital  found on  C    9
           1 low occupancy (<1.9990e) core orbital  found on  C   10
           1 low occupancy (<1.9990e) core orbital  found on  C   12
           1 low occupancy (<1.9990e) core orbital  found on  C   15
           1 low occupancy (<1.9990e) core orbital  found on  C   21
           1 low occupancy (<1.9990e) core orbital  found on  C   23
           1 low occupancy (<1.9990e) core orbital  found on  C   26


 Summary of Natural Population Analysis:                  
                                                          
                                       Natural Population 
                Natural  -----------------------------------------------
    Atom  No    Charge         Core      Valence    Rydberg      Total
 -----------------------------------------------------------------------
      F    1   -0.36577      1.99992     7.35953    0.00632     9.36577
      C    2    1.14377      1.99910     2.78122    0.07591     4.85623
      C    3   -0.24906      1.99875     4.23019    0.02013     6.24906
      C    4   -0.08562      1.99901     4.06651    0.02010     6.08562
      C    5   -0.22183      1.99905     4.20825    0.01453     6.22183
      C    6   -0.29838      1.99902     4.28472    0.01464     6.29838
      C    7    0.32475      1.99875     3.65485    0.02165     5.67525
      O    8   -0.52502      1.99970     6.51382    0.01150     8.52502
      C    9    0.24173      1.99869     3.73702    0.02256     5.75827
      C   10   -0.26055      1.99899     4.24811    0.01346     6.26055
      C   11   -0.28474      1.99905     4.27304    0.01266     6.28474
      C   12    0.16318      1.99900     3.82077    0.01706     5.83682
      N   13   -0.85809      1.99952     5.84679    0.01178     7.85809
      C   14   -0.28473      1.99905     4.27303    0.01265     6.28473
      C   15   -0.26045      1.99899     4.24797    0.01349     6.26045
      C   16   -0.32308      1.99902     4.31193    0.01213     6.32308
      C   17   -0.22304      1.99904     4.20964    0.01437     6.22304
      C   18   -0.09138      1.99901     4.07216    0.02021     6.09138
      C   19   -0.25617      1.99904     4.24229    0.01485     6.25617
      C   20   -0.37692      1.99904     4.36037    0.01752     6.37692
      C   21    0.31190      1.99872     3.66736    0.02202     5.68810
      O   22   -0.51354      1.99968     6.50238    0.01147     8.51354
      C   23    0.40128      1.99870     3.57740    0.02262     5.59872
      C   24   -0.30011      1.99900     4.28359    0.01752     6.30011
      C   25   -0.25744      1.99906     4.24223    0.01614     6.25744
      C   26    0.20214      1.99898     3.78200    0.01688     5.79786
      N   27   -0.64854      1.99946     5.64040    0.00868     7.64854
      C   28   -0.25940      1.99906     4.24413    0.01620     6.25940
      C   29   -0.29921      1.99900     4.28275    0.01746     6.29921
      C   30   -0.35512      1.99901     4.34154    0.01457     6.35512
      C   31   -0.31504      1.99905     4.29825    0.01774     6.31504
      C   32    1.14539      1.99910     2.77974    0.07577     4.85461
      F   33   -0.36416      1.99992     7.35792    0.00632     9.36416
      F   34   -0.35971      1.99992     7.35353    0.00626     9.35971
      F   35   -0.36051      1.99992     7.35435    0.00624     9.36051
      F   36   -0.36054      1.99992     7.35437    0.00624     9.36054
      F   37   -0.35851      1.99992     7.35234    0.00626     9.35851
      H   38    0.25686      0.00000     0.74134    0.00179     0.74314
      H   39    0.25272      0.00000     0.74549    0.00180     0.74728
      H   40    0.25695      0.00000     0.74152    0.00153     0.74305
      H   41    0.24810      0.00000     0.75041    0.00149     0.75190
      H   42    0.41610      0.00000     0.58157    0.00233     0.58390
      H   43    0.41611      0.00000     0.58156    0.00233     0.58389
      H   44    0.24806      0.00000     0.75045    0.00149     0.75194
      H   45    0.25684      0.00000     0.74161    0.00155     0.74316
      H   46    0.25649      0.00000     0.74205    0.00146     0.74351
      H   47    0.25031      0.00000     0.74703    0.00267     0.74969
      H   48    0.23981      0.00000     0.75766    0.00253     0.76019
      H   49    0.23936      0.00000     0.75902    0.00163     0.76064
      H   50    0.27112      0.00000     0.72741    0.00147     0.72888
      H   51    0.26280      0.00000     0.73575    0.00145     0.73720
      H   52    0.44608      0.00000     0.55185    0.00207     0.55392
      H   53    0.44615      0.00000     0.55177    0.00208     0.55385
      H   54    0.26276      0.00000     0.73579    0.00145     0.73724
      H   55    0.27127      0.00000     0.72728    0.00145     0.72873
      H   56    0.24352      0.00000     0.75507    0.00141     0.75648
      H   57    0.24114      0.00000     0.75720    0.00166     0.75886
 =======================================================================
   * Total *   -0.00000     73.97017   191.33830    0.69153   266.00000

                                 Natural Population      
 --------------------------------------------------------
   Core                      73.97017 ( 99.9597% of  74)
   Valence                  191.33830 ( 99.6554% of 192)
   Natural Minimal Basis    265.30847 ( 99.7400% of 266)
   Natural Rydberg Basis      0.69153 (  0.2600% of 266)
 --------------------------------------------------------

    Atom  No          Natural Electron Configuration
 ----------------------------------------------------------------------------
      F    1      [core]2S( 1.84)2p( 5.52)
      C    2      [core]2S( 0.79)2p( 1.99)3S( 0.01)3p( 0.05)3d( 0.02)
      C    3      [core]2S( 0.95)2p( 3.28)3p( 0.01)
      C    4      [core]2S( 0.86)2p( 3.20)3p( 0.02)
      C    5      [core]2S( 0.95)2p( 3.26)3p( 0.01)
      C    6      [core]2S( 0.96)2p( 3.33)3p( 0.01)
      C    7      [core]2S( 0.84)2p( 2.82)3p( 0.01)3d( 0.01)
      O    8      [core]2S( 1.57)2p( 4.95)3p( 0.01)3d( 0.01)
      C    9      [core]2S( 0.84)2p( 2.90)3p( 0.02)3d( 0.01)
      C   10      [core]2S( 0.97)2p( 3.28)3p( 0.01)
      C   11      [core]2S( 0.96)2p( 3.32)3p( 0.01)
      C   12      [core]2S( 0.85)2p( 2.98)3p( 0.01)
      N   13      [core]2S( 1.36)2p( 4.49)3p( 0.01)
      C   14      [core]2S( 0.96)2p( 3.32)3p( 0.01)
      C   15      [core]2S( 0.97)2p( 3.28)3p( 0.01)
      C   16      [core]2S( 0.96)2p( 3.35)3p( 0.01)
      C   17      [core]2S( 0.94)2p( 3.27)3p( 0.01)
      C   18      [core]2S( 0.86)2p( 3.21)3p( 0.02)
      C   19      [core]2S( 0.94)2p( 3.30)3p( 0.01)
      C   20      [core]2S( 0.95)2p( 3.42)3p( 0.01)
      C   21      [core]2S( 0.83)2p( 2.83)3p( 0.01)3d( 0.01)
      O   22      [core]2S( 1.57)2p( 4.94)3p( 0.01)3d( 0.01)
      C   23      [core]2S( 0.85)2p( 2.72)3p( 0.01)3d( 0.01)
      C   24      [core]2S( 0.97)2p( 3.31)3p( 0.01)
      C   25      [core]2S( 0.96)2p( 3.28)3p( 0.01)
      C   26      [core]2S( 0.86)2p( 2.92)3p( 0.01)
      N   27      [core]2S( 1.38)2p( 4.27)3p( 0.01)
      C   28      [core]2S( 0.96)2p( 3.28)3p( 0.01)
      C   29      [core]2S( 0.97)2p( 3.31)3p( 0.01)
      C   30      [core]2S( 0.95)2p( 3.39)3p( 0.01)
      C   31      [core]2S( 0.93)2p( 3.37)3p( 0.01)
      C   32      [core]2S( 0.79)2p( 1.99)3S( 0.01)3p( 0.05)3d( 0.02)
      F   33      [core]2S( 1.84)2p( 5.52)
      F   34      [core]2S( 1.84)2p( 5.52)
      F   35      [core]2S( 1.84)2p( 5.52)
      F   36      [core]2S( 1.84)2p( 5.52)
      F   37      [core]2S( 1.84)2p( 5.51)
      H   38            1S( 0.74)
      H   39            1S( 0.75)
      H   40            1S( 0.74)
      H   41            1S( 0.75)
      H   42            1S( 0.58)
      H   43            1S( 0.58)
      H   44            1S( 0.75)
      H   45            1S( 0.74)
      H   46            1S( 0.74)
      H   47            1S( 0.75)
      H   48            1S( 0.76)
      H   49            1S( 0.76)
      H   50            1S( 0.73)
      H   51            1S( 0.74)
      H   52            1S( 0.55)
      H   53            1S( 0.55)
      H   54            1S( 0.74)
      H   55            1S( 0.73)
      H   56            1S( 0.76)
      H   57            1S( 0.76)


 NBO analysis skipped by request.
 1\1\GINC-DRG2-W001\SP\RB3LYP TD-FC\6-31G(d,p)\C27H20F6N2O2\QDUEZ\18-Ju
 l-2024\0\\# TD(NStates=10, Root=1) B3LYP/6-31G** SCRF=(Solvent=water) 
 volume pop=NPA density=current Geom=AllCheck Guess=Read\\HHLMWQDRYZAEN
 A-UHFFFAOYSA-N_conf_4\\0,1\F,0,-1.1851511564,0.6794596744,4.172254789\
 C,0,-0.0687282835,0.5036967647,3.4263645192\C,0,0.0180043799,1.4826332
 102,2.2189526964\C,0,-1.0597236686,1.1944665418,1.1493391764\C,0,-0.90
 0238537,1.7514831033,-0.1313123147\C,0,-1.8594149158,1.5787774629,-1.1
 20341435\C,0,-3.0147554667,0.8353408553,-0.8512331255\O,0,-3.903028589
 3,0.7068678082,-1.889869656\C,0,-5.0909696537,-0.0047018493,-1.6984862
 133\C,0,-6.2379966069,0.6623776863,-1.2706132286\C,0,-7.4417701378,-0.
 0293582672,-1.1591646359\C,0,-7.5181363672,-1.3990990607,-1.4759904666
 \N,0,-8.7370266161,-2.075388276,-1.4296176586\C,0,-6.3480641969,-2.052
 4991765,-1.9074409815\C,0,-5.1442586532,-1.3605100277,-2.0182408848\C,
 0,-3.1981936068,0.2792184642,0.4161730464\C,0,-2.2307827969,0.47074138
 91,1.4040173132\C,0,1.4452591599,1.3394562071,1.6432882345\C,0,2.49969
 49145,2.211758381,1.9557736007\C,0,3.7773675929,2.0035550302,1.4470444
 572\C,0,4.0391423121,0.901330611,0.6269379081\O,0,5.3289253046,0.78061
 87223,0.1727641797\C,0,5.6810643746,-0.3128228978,-0.6238723701\C,0,5.
 6507114001,-0.1942566603,-2.0124585723\C,0,6.0847531272,-1.2515698284,
 -2.808792599\C,0,6.555872167,-2.4448049787,-2.2288591241\N,0,6.9297867
 468,-3.5269216881,-3.0253661076\C,0,6.581818698,-2.5413174239,-0.82439
 01746\C,0,6.1485272224,-1.4836909663,-0.0284788181\C,0,3.008291905,0.0
 0964487,0.3179264749\C,0,1.7307812462,0.2370795637,0.8256916949\C,0,-0
 .26401674,2.9180980455,2.7514918458\F,0,0.4604023207,3.2267326572,3.85
 31355302\F,0,-1.5582682821,3.0764731636,3.0866782224\F,0,0.0215435158,
 3.8450658197,1.8149172961\F,0,-0.0660980381,-0.7786183611,3.0099820418
 \F,0,0.9775186105,0.6531684656,4.2605853575\H,0,-0.0110618831,2.326126
 3705,-0.3627885992\H,0,-1.7260937096,2.0108087205,-2.1064870742\H,0,-6
 .1857958365,1.7193996126,-1.0295850046\H,0,-8.3343351365,0.4943006261,
 -0.8282691704\H,0,-9.4182177473,-1.6808024476,-0.7936880343\H,0,-8.662
 6839983,-3.0773775163,-1.3086182611\H,0,-6.3869999662,-3.1082736337,-2
 .1607775205\H,0,-4.2459496022,-1.8679561799,-2.3553389587\H,0,-4.08869
 28073,-0.2956112651,0.6392812434\H,0,-2.416377884,0.0367550786,2.37735
 21187\H,0,2.3438543503,3.0680355668,2.5979806947\H,0,4.5849300674,2.68
 80673642,1.6840881207\H,0,5.2973057303,0.7270391666,-2.4645432773\H,0,
 6.0617595377,-1.1542890476,-3.8906258326\H,0,7.2328359052,-3.282818762
 5,-3.9596010429\H,0,7.576250741,-4.1723466222,-2.5897059757\H,0,6.9474
 524429,-3.4513052295,-0.3568811476\H,0,6.1806417584,-1.5599362886,1.05
 37758177\H,0,3.1956959273,-0.8502284939,-0.3135058899\H,0,0.9426394252
 ,-0.4620720545,0.5711208415\\Version=ES64L-G16RevA.03\State=1-A\HF=-18
 99.9601227\RMSD=5.722e-10\Dipole=4.4770268,-5.2984395,-4.065555\Quadru
 pole=62.5305861,-22.312903,-40.2176831,-38.2295782,-54.7245434,17.9490
 026\PG=C01 [X(C27H20F6N2O2)]\\@


 MY GROUP MEETINGS AREN'T VERY STRUCTURED.
     -- PROF. M. S. GORDON, OCT. 5, 1984
 Job cpu time:       0 days  3 hours 35 minutes 21.0 seconds.
 Elapsed time:       0 days  1 hours 11 minutes 58.3 seconds.
 File lengths (MBytes):  RWF=   3541 Int=      0 D2E=      0 Chk=    206 Scr=      1
 Normal termination of Gaussian 16 at Thu Jul 18 01:54:51 2024.
