 Entering Gaussian System, Link 0=g16
 Initial command:
 /opt/sw/arch/manual/gaussian/G16_A03/g16/l1.exe "/scratch/1380968/Gau-188191.inp" -scrdir="/scratch/1380968/"
 Entering Link 1 = /opt/sw/arch/manual/gaussian/G16_A03/g16/l1.exe PID=    188192.
  
 Copyright (c) 1988,1990,1992,1993,1995,1998,2003,2009,2016,
            Gaussian, Inc.  All Rights Reserved.
  
 This is part of the Gaussian(R) 16 program.  It is based on
 the Gaussian(R) 09 system (copyright 2009, Gaussian, Inc.),
 the Gaussian(R) 03 system (copyright 2003, Gaussian, Inc.),
 the Gaussian(R) 98 system (copyright 1998, Gaussian, Inc.),
 the Gaussian(R) 94 system (copyright 1995, Gaussian, Inc.),
 the Gaussian 92(TM) system (copyright 1992, Gaussian, Inc.),
 the Gaussian 90(TM) system (copyright 1990, Gaussian, Inc.),
 the Gaussian 88(TM) system (copyright 1988, Gaussian, Inc.),
 the Gaussian 86(TM) system (copyright 1986, Carnegie Mellon
 University), and the Gaussian 82(TM) system (copyright 1983,
 Carnegie Mellon University). Gaussian is a federally registered
 trademark of Gaussian, Inc.
  
 This software contains proprietary and confidential information,
 including trade secrets, belonging to Gaussian, Inc.
  
 This software is provided under written license and may be
 used, copied, transmitted, or stored only in accord with that
 written license.
  
 The following legend is applicable only to US Government
 contracts under FAR:
  
                    RESTRICTED RIGHTS LEGEND
  
 Use, reproduction and disclosure by the US Government is
 subject to restrictions as set forth in subparagraphs (a)
 and (c) of the Commercial Computer Software - Restricted
 Rights clause in FAR 52.227-19.
  
 Gaussian, Inc.
 340 Quinnipiac St., Bldg. 40, Wallingford CT 06492
  
  
 ---------------------------------------------------------------
 Warning -- This program may not be used in any manner that
 competes with the business of Gaussian, Inc. or will provide
 assistance to any competitor of Gaussian, Inc.  The licensee
 of this program is prohibited from giving any competitor of
 Gaussian, Inc. access to this program.  By using this program,
 the user acknowledges that Gaussian, Inc. is engaged in the
 business of creating and licensing software in the field of
 computational chemistry and represents and warrants to the
 licensee that it is not a competitor of Gaussian, Inc. and that
 it will not use this program in any manner prohibited above.
 ---------------------------------------------------------------
  

 Cite this work as:
 Gaussian 16, Revision A.03,
 M. J. Frisch, G. W. Trucks, H. B. Schlegel, G. E. Scuseria, 
 M. A. Robb, J. R. Cheeseman, G. Scalmani, V. Barone, 
 G. A. Petersson, H. Nakatsuji, X. Li, M. Caricato, A. V. Marenich, 
 J. Bloino, B. G. Janesko, R. Gomperts, B. Mennucci, H. P. Hratchian, 
 J. V. Ortiz, A. F. Izmaylov, J. L. Sonnenberg, D. Williams-Young, 
 F. Ding, F. Lipparini, F. Egidi, J. Goings, B. Peng, A. Petrone, 
 T. Henderson, D. Ranasinghe, V. G. Zakrzewski, J. Gao, N. Rega, 
 G. Zheng, W. Liang, M. Hada, M. Ehara, K. Toyota, R. Fukuda, 
 J. Hasegawa, M. Ishida, T. Nakajima, Y. Honda, O. Kitao, H. Nakai, 
 T. Vreven, K. Throssell, J. A. Montgomery, Jr., J. E. Peralta, 
 F. Ogliaro, M. J. Bearpark, J. J. Heyd, E. N. Brothers, K. N. Kudin, 
 V. N. Staroverov, T. A. Keith, R. Kobayashi, J. Normand, 
 K. Raghavachari, A. P. Rendell, J. C. Burant, S. S. Iyengar, 
 J. Tomasi, M. Cossi, J. M. Millam, M. Klene, C. Adamo, R. Cammi, 
 J. W. Ochterski, R. L. Martin, K. Morokuma, O. Farkas, 
 J. B. Foresman, and D. J. Fox, Gaussian, Inc., Wallingford CT, 2016.
 
 ******************************************
 Gaussian 16:  ES64L-G16RevA.03 25-Dec-2016
                18-Jul-2024 
 ******************************************
 %nprocshared=7
 Will use up to    7 processors via shared memory.
 %mem=14GB
 %Chk=QJENIOQDYXRGLF-UHFFFAOYSA-N_conf_2_0.chk
 -------------------------------------------------------
 # opt=CalcFc B3LYP/6-31G** SCRF=(Solvent=water) scf=xqc
 -------------------------------------------------------
 1/10=4,18=20,19=15,26=3,38=1/1,3;
 2/9=110,12=2,17=6,18=5,40=1/2;
 3/5=1,6=6,7=101,11=2,25=1,30=1,70=2201,71=2,72=1,74=-5,140=1/1,2,3;
 4//1;
 5/5=2,8=3,13=1,38=5,53=1/2,8;
 8/6=4,10=90,11=11/1;
 11/6=1,8=1,9=11,15=111,16=1/1,2,10;
 10/6=1,13=1/2;
 6/7=2,8=2,9=2,10=2,28=1/1;
 7/10=1,18=20,25=1/1,2,3,16;
 1/10=4,18=20,19=15,26=3/3(2);
 2/9=110/2;
 99//99;
 2/9=110/2;
 3/5=1,6=6,7=101,11=2,25=1,30=1,70=2205,71=1,72=1,74=-5/1,2,3;
 4/5=5,16=3,69=1/1;
 5/5=2,8=3,13=1,38=5,53=1/2,8;
 7//1,2,3,16;
 1/18=20,19=15,26=3/3(-5);
 2/9=110/2;
 6/7=2,8=2,9=2,10=2,19=2,28=1/1;
 99/9=1/99;
 ----------------------------------
 QJENIOQDYXRGLF-UHFFFAOYSA-N_conf_2
 ----------------------------------
 Symbolic Z-matrix:
 Charge =  0 Multiplicity = 1
 N                     4.82531  -1.60918  -0.24075 
 C                     3.70357  -0.84471  -0.62519 
 C                     3.24333  -0.90547  -1.95955 
 C                     3.98439  -1.68099  -3.01636 
 C                     2.07613  -0.21813  -2.32854 
 C                     1.32784   0.48963  -1.38542 
 C                     0.07895   1.23727  -1.79911 
 C                    -1.18351   0.78384  -1.10067 
 C                    -1.67026  -0.51466  -1.27488 
 C                    -2.837    -0.94904  -0.62273 
 C                    -3.27286  -2.37796  -0.81245 
 C                    -3.57234  -0.0505    0.18155 
 C                    -3.05834   1.24599   0.4037 
 C                    -3.70734   2.2328    1.35081 
 C                    -3.3056    1.98671   2.79778 
 C                    -1.88      1.6503   -0.25323 
 N                    -4.67779  -0.51763   0.91832 
 C                     1.75653   0.49336  -0.05172 
 C                     2.91651  -0.19104   0.35492 
 C                     3.33778  -0.22234   1.81429 
 C                     2.38754   0.38846   2.83916 
 H                     5.28141  -1.27095   0.59881 
 H                     5.49282  -1.75738  -0.98903 
 H                     4.10077  -2.72644  -2.71268 
 H                     4.96963  -1.23667  -3.19027 
 H                     3.44686  -1.67925  -3.97071 
 H                     1.74174  -0.24711  -3.36372 
 H                    -0.08342   1.14362  -2.88098 
 H                     0.25196   2.30692  -1.62209 
 H                    -1.11797  -1.20742  -1.90785 
 H                    -4.23831  -2.41358  -1.32723 
 H                    -3.35288  -2.88456   0.1548 
 H                    -2.55508  -2.94325  -1.41654 
 H                    -3.42238   3.25516   1.07112 
 H                    -4.79737   2.20463   1.24492 
 H                    -2.22006   2.06067   2.9246 
 H                    -3.61544   0.99406   3.13976 
 H                    -3.77423   2.72965   3.45096 
 H                    -1.49335   2.65385  -0.08402 
 H                    -5.32825   0.20737   1.1952 
 H                    -5.1567   -1.29888   0.48488 
 H                     1.15053   1.02781   0.67591 
 H                     4.30084   0.29595   1.90124 
 H                     3.4931   -1.26933   2.10366 
 H                     2.79603   0.26459   3.84761 
 H                     1.40651  -0.0974    2.81354 
 H                     2.25039   1.46125   2.66815 
 

 GradGradGradGradGradGradGradGradGradGradGradGradGradGradGradGradGradGrad
 Berny optimization.
 Initialization pass.
                           ----------------------------
                           !    Initial Parameters    !
                           ! (Angstroms and Degrees)  !
 --------------------------                            --------------------------
 ! Name  Definition              Value          Derivative Info.                !
 --------------------------------------------------------------------------------
 ! R1    R(1,2)                  1.4109         calculate D2E/DX2 analytically  !
 ! R2    R(1,22)                 1.0135         calculate D2E/DX2 analytically  !
 ! R3    R(1,23)                 1.0136         calculate D2E/DX2 analytically  !
 ! R4    R(2,3)                  1.4128         calculate D2E/DX2 analytically  !
 ! R5    R(2,19)                 1.4168         calculate D2E/DX2 analytically  !
 ! R6    R(3,4)                  1.5058         calculate D2E/DX2 analytically  !
 ! R7    R(3,5)                  1.4039         calculate D2E/DX2 analytically  !
 ! R8    R(4,24)                 1.0949         calculate D2E/DX2 analytically  !
 ! R9    R(4,25)                 1.0947         calculate D2E/DX2 analytically  !
 ! R10   R(4,26)                 1.0953         calculate D2E/DX2 analytically  !
 ! R11   R(5,6)                  1.3965         calculate D2E/DX2 analytically  !
 ! R12   R(5,27)                 1.0882         calculate D2E/DX2 analytically  !
 ! R13   R(6,7)                  1.5132         calculate D2E/DX2 analytically  !
 ! R14   R(6,18)                 1.4009         calculate D2E/DX2 analytically  !
 ! R15   R(7,8)                  1.5124         calculate D2E/DX2 analytically  !
 ! R16   R(7,28)                 1.098          calculate D2E/DX2 analytically  !
 ! R17   R(7,29)                 1.0979         calculate D2E/DX2 analytically  !
 ! R18   R(8,9)                  1.3976         calculate D2E/DX2 analytically  !
 ! R19   R(8,16)                 1.3979         calculate D2E/DX2 analytically  !
 ! R20   R(9,10)                 1.4054         calculate D2E/DX2 analytically  !
 ! R21   R(9,30)                 1.0888         calculate D2E/DX2 analytically  !
 ! R22   R(10,11)                1.5059         calculate D2E/DX2 analytically  !
 ! R23   R(10,12)                1.4124         calculate D2E/DX2 analytically  !
 ! R24   R(11,31)                1.0947         calculate D2E/DX2 analytically  !
 ! R25   R(11,32)                1.0948         calculate D2E/DX2 analytically  !
 ! R26   R(11,33)                1.0953         calculate D2E/DX2 analytically  !
 ! R27   R(12,13)                1.4122         calculate D2E/DX2 analytically  !
 ! R28   R(12,17)                1.4082         calculate D2E/DX2 analytically  !
 ! R29   R(13,14)                1.5139         calculate D2E/DX2 analytically  !
 ! R30   R(13,16)                1.4084         calculate D2E/DX2 analytically  !
 ! R31   R(14,15)                1.5217         calculate D2E/DX2 analytically  !
 ! R32   R(14,34)                1.0976         calculate D2E/DX2 analytically  !
 ! R33   R(14,35)                1.0955         calculate D2E/DX2 analytically  !
 ! R34   R(15,36)                1.0954         calculate D2E/DX2 analytically  !
 ! R35   R(15,37)                1.0947         calculate D2E/DX2 analytically  !
 ! R36   R(15,38)                1.0946         calculate D2E/DX2 analytically  !
 ! R37   R(16,39)                1.0887         calculate D2E/DX2 analytically  !
 ! R38   R(17,40)                1.0126         calculate D2E/DX2 analytically  !
 ! R39   R(17,41)                1.0137         calculate D2E/DX2 analytically  !
 ! R40   R(18,19)                1.4069         calculate D2E/DX2 analytically  !
 ! R41   R(18,42)                1.0873         calculate D2E/DX2 analytically  !
 ! R42   R(19,20)                1.5193         calculate D2E/DX2 analytically  !
 ! R43   R(20,21)                1.5253         calculate D2E/DX2 analytically  !
 ! R44   R(20,43)                1.0971         calculate D2E/DX2 analytically  !
 ! R45   R(20,44)                1.0973         calculate D2E/DX2 analytically  !
 ! R46   R(21,45)                1.0951         calculate D2E/DX2 analytically  !
 ! R47   R(21,46)                1.0951         calculate D2E/DX2 analytically  !
 ! R48   R(21,47)                1.095          calculate D2E/DX2 analytically  !
 ! A1    A(2,1,22)             113.7462         calculate D2E/DX2 analytically  !
 ! A2    A(2,1,23)             113.6813         calculate D2E/DX2 analytically  !
 ! A3    A(22,1,23)            111.3423         calculate D2E/DX2 analytically  !
 ! A4    A(1,2,3)              119.5421         calculate D2E/DX2 analytically  !
 ! A5    A(1,2,19)             120.2097         calculate D2E/DX2 analytically  !
 ! A6    A(3,2,19)             119.4877         calculate D2E/DX2 analytically  !
 ! A7    A(2,3,4)              121.6472         calculate D2E/DX2 analytically  !
 ! A8    A(2,3,5)              119.869          calculate D2E/DX2 analytically  !
 ! A9    A(4,3,5)              118.4796         calculate D2E/DX2 analytically  !
 ! A10   A(3,4,24)             110.4525         calculate D2E/DX2 analytically  !
 ! A11   A(3,4,25)             110.205          calculate D2E/DX2 analytically  !
 ! A12   A(3,4,26)             111.6642         calculate D2E/DX2 analytically  !
 ! A13   A(24,4,25)            109.6312         calculate D2E/DX2 analytically  !
 ! A14   A(24,4,26)            107.1784         calculate D2E/DX2 analytically  !
 ! A15   A(25,4,26)            107.6147         calculate D2E/DX2 analytically  !
 ! A16   A(3,5,6)              121.0707         calculate D2E/DX2 analytically  !
 ! A17   A(3,5,27)             119.5017         calculate D2E/DX2 analytically  !
 ! A18   A(6,5,27)             119.4232         calculate D2E/DX2 analytically  !
 ! A19   A(5,6,7)              120.5295         calculate D2E/DX2 analytically  !
 ! A20   A(5,6,18)             118.7061         calculate D2E/DX2 analytically  !
 ! A21   A(7,6,18)             120.7643         calculate D2E/DX2 analytically  !
 ! A22   A(6,7,8)              114.4917         calculate D2E/DX2 analytically  !
 ! A23   A(6,7,28)             110.4437         calculate D2E/DX2 analytically  !
 ! A24   A(6,7,29)             107.8919         calculate D2E/DX2 analytically  !
 ! A25   A(8,7,28)             107.8197         calculate D2E/DX2 analytically  !
 ! A26   A(8,7,29)             110.4367         calculate D2E/DX2 analytically  !
 ! A27   A(28,7,29)            105.3828         calculate D2E/DX2 analytically  !
 ! A28   A(7,8,9)              120.7773         calculate D2E/DX2 analytically  !
 ! A29   A(7,8,16)             120.6683         calculate D2E/DX2 analytically  !
 ! A30   A(9,8,16)             118.5497         calculate D2E/DX2 analytically  !
 ! A31   A(8,9,10)             121.2263         calculate D2E/DX2 analytically  !
 ! A32   A(8,9,30)             119.1378         calculate D2E/DX2 analytically  !
 ! A33   A(10,9,30)            119.6163         calculate D2E/DX2 analytically  !
 ! A34   A(9,10,11)            118.3643         calculate D2E/DX2 analytically  !
 ! A35   A(9,10,12)            119.9874         calculate D2E/DX2 analytically  !
 ! A36   A(11,10,12)           121.6477         calculate D2E/DX2 analytically  !
 ! A37   A(10,11,31)           110.2045         calculate D2E/DX2 analytically  !
 ! A38   A(10,11,32)           110.4213         calculate D2E/DX2 analytically  !
 ! A39   A(10,11,33)           111.6868         calculate D2E/DX2 analytically  !
 ! A40   A(31,11,32)           109.6298         calculate D2E/DX2 analytically  !
 ! A41   A(31,11,33)           107.5656         calculate D2E/DX2 analytically  !
 ! A42   A(32,11,33)           107.2387         calculate D2E/DX2 analytically  !
 ! A43   A(10,12,13)           118.9541         calculate D2E/DX2 analytically  !
 ! A44   A(10,12,17)           119.7081         calculate D2E/DX2 analytically  !
 ! A45   A(13,12,17)           120.5268         calculate D2E/DX2 analytically  !
 ! A46   A(12,13,14)           122.7362         calculate D2E/DX2 analytically  !
 ! A47   A(12,13,16)           119.649          calculate D2E/DX2 analytically  !
 ! A48   A(14,13,16)           117.6038         calculate D2E/DX2 analytically  !
 ! A49   A(13,14,15)           112.1035         calculate D2E/DX2 analytically  !
 ! A50   A(13,14,34)           109.6595         calculate D2E/DX2 analytically  !
 ! A51   A(13,14,35)           110.4447         calculate D2E/DX2 analytically  !
 ! A52   A(15,14,34)           108.9293         calculate D2E/DX2 analytically  !
 ! A53   A(15,14,35)           110.5137         calculate D2E/DX2 analytically  !
 ! A54   A(34,14,35)           104.9303         calculate D2E/DX2 analytically  !
 ! A55   A(14,15,36)           111.1483         calculate D2E/DX2 analytically  !
 ! A56   A(14,15,37)           111.6524         calculate D2E/DX2 analytically  !
 ! A57   A(14,15,38)           110.158          calculate D2E/DX2 analytically  !
 ! A58   A(36,15,37)           107.7913         calculate D2E/DX2 analytically  !
 ! A59   A(36,15,38)           108.0201         calculate D2E/DX2 analytically  !
 ! A60   A(37,15,38)           107.9306         calculate D2E/DX2 analytically  !
 ! A61   A(8,16,13)            121.4476         calculate D2E/DX2 analytically  !
 ! A62   A(8,16,39)            119.2511         calculate D2E/DX2 analytically  !
 ! A63   A(13,16,39)           119.2927         calculate D2E/DX2 analytically  !
 ! A64   A(12,17,40)           114.1927         calculate D2E/DX2 analytically  !
 ! A65   A(12,17,41)           113.7541         calculate D2E/DX2 analytically  !
 ! A66   A(40,17,41)           111.4223         calculate D2E/DX2 analytically  !
 ! A67   A(6,18,19)            121.7473         calculate D2E/DX2 analytically  !
 ! A68   A(6,18,42)            117.8947         calculate D2E/DX2 analytically  !
 ! A69   A(19,18,42)           120.3448         calculate D2E/DX2 analytically  !
 ! A70   A(2,19,18)            118.85           calculate D2E/DX2 analytically  !
 ! A71   A(2,19,20)            120.0629         calculate D2E/DX2 analytically  !
 ! A72   A(18,19,20)           121.0832         calculate D2E/DX2 analytically  !
 ! A73   A(19,20,21)           117.6739         calculate D2E/DX2 analytically  !
 ! A74   A(19,20,43)           108.047          calculate D2E/DX2 analytically  !
 ! A75   A(19,20,44)           108.1931         calculate D2E/DX2 analytically  !
 ! A76   A(21,20,43)           107.7249         calculate D2E/DX2 analytically  !
 ! A77   A(21,20,44)           107.0427         calculate D2E/DX2 analytically  !
 ! A78   A(43,20,44)           107.7946         calculate D2E/DX2 analytically  !
 ! A79   A(20,21,45)           109.9433         calculate D2E/DX2 analytically  !
 ! A80   A(20,21,46)           111.3914         calculate D2E/DX2 analytically  !
 ! A81   A(20,21,47)           111.4347         calculate D2E/DX2 analytically  !
 ! A82   A(45,21,46)           107.7912         calculate D2E/DX2 analytically  !
 ! A83   A(45,21,47)           107.5401         calculate D2E/DX2 analytically  !
 ! A84   A(46,21,47)           108.5925         calculate D2E/DX2 analytically  !
 ! D1    D(22,1,2,3)           159.2603         calculate D2E/DX2 analytically  !
 ! D2    D(22,1,2,19)          -30.7784         calculate D2E/DX2 analytically  !
 ! D3    D(23,1,2,3)            30.4236         calculate D2E/DX2 analytically  !
 ! D4    D(23,1,2,19)         -159.6152         calculate D2E/DX2 analytically  !
 ! D5    D(1,2,3,4)             -4.9937         calculate D2E/DX2 analytically  !
 ! D6    D(1,2,3,5)            175.77           calculate D2E/DX2 analytically  !
 ! D7    D(19,2,3,4)          -175.028          calculate D2E/DX2 analytically  !
 ! D8    D(19,2,3,5)             5.7357         calculate D2E/DX2 analytically  !
 ! D9    D(1,2,19,18)         -176.0241         calculate D2E/DX2 analytically  !
 ! D10   D(1,2,19,20)            4.6871         calculate D2E/DX2 analytically  !
 ! D11   D(3,2,19,18)           -6.0574         calculate D2E/DX2 analytically  !
 ! D12   D(3,2,19,20)          174.6538         calculate D2E/DX2 analytically  !
 ! D13   D(2,3,4,24)            56.6186         calculate D2E/DX2 analytically  !
 ! D14   D(2,3,4,25)           -64.6689         calculate D2E/DX2 analytically  !
 ! D15   D(2,3,4,26)           175.783          calculate D2E/DX2 analytically  !
 ! D16   D(5,3,4,24)          -124.1348         calculate D2E/DX2 analytically  !
 ! D17   D(5,3,4,25)           114.5777         calculate D2E/DX2 analytically  !
 ! D18   D(5,3,4,26)            -4.9704         calculate D2E/DX2 analytically  !
 ! D19   D(2,3,5,6)             -2.4009         calculate D2E/DX2 analytically  !
 ! D20   D(2,3,5,27)           178.3651         calculate D2E/DX2 analytically  !
 ! D21   D(4,3,5,6)            178.3387         calculate D2E/DX2 analytically  !
 ! D22   D(4,3,5,27)            -0.8953         calculate D2E/DX2 analytically  !
 ! D23   D(3,5,6,7)            179.4063         calculate D2E/DX2 analytically  !
 ! D24   D(3,5,6,18)            -0.5782         calculate D2E/DX2 analytically  !
 ! D25   D(27,5,6,7)            -1.3591         calculate D2E/DX2 analytically  !
 ! D26   D(27,5,6,18)          178.6564         calculate D2E/DX2 analytically  !
 ! D27   D(5,6,7,8)            120.397          calculate D2E/DX2 analytically  !
 ! D28   D(5,6,7,28)            -1.5205         calculate D2E/DX2 analytically  !
 ! D29   D(5,6,7,29)          -116.2179         calculate D2E/DX2 analytically  !
 ! D30   D(18,6,7,8)           -59.6189         calculate D2E/DX2 analytically  !
 ! D31   D(18,6,7,28)          178.4636         calculate D2E/DX2 analytically  !
 ! D32   D(18,6,7,29)           63.7662         calculate D2E/DX2 analytically  !
 ! D33   D(5,6,18,19)            0.185          calculate D2E/DX2 analytically  !
 ! D34   D(5,6,18,42)         -178.4975         calculate D2E/DX2 analytically  !
 ! D35   D(7,6,18,19)         -179.7994         calculate D2E/DX2 analytically  !
 ! D36   D(7,6,18,42)            1.5181         calculate D2E/DX2 analytically  !
 ! D37   D(6,7,8,9)            -63.4349         calculate D2E/DX2 analytically  !
 ! D38   D(6,7,8,16)           115.7677         calculate D2E/DX2 analytically  !
 ! D39   D(28,7,8,9)            59.9046         calculate D2E/DX2 analytically  !
 ! D40   D(28,7,8,16)         -120.8928         calculate D2E/DX2 analytically  !
 ! D41   D(29,7,8,9)           174.5579         calculate D2E/DX2 analytically  !
 ! D42   D(29,7,8,16)           -6.2395         calculate D2E/DX2 analytically  !
 ! D43   D(7,8,9,10)           179.5264         calculate D2E/DX2 analytically  !
 ! D44   D(7,8,9,30)             1.1425         calculate D2E/DX2 analytically  !
 ! D45   D(16,8,9,10)            0.3073         calculate D2E/DX2 analytically  !
 ! D46   D(16,8,9,30)         -178.0767         calculate D2E/DX2 analytically  !
 ! D47   D(7,8,16,13)          179.8966         calculate D2E/DX2 analytically  !
 ! D48   D(7,8,16,39)           -1.1816         calculate D2E/DX2 analytically  !
 ! D49   D(9,8,16,13)           -0.8834         calculate D2E/DX2 analytically  !
 ! D50   D(9,8,16,39)          178.0385         calculate D2E/DX2 analytically  !
 ! D51   D(8,9,10,11)         -177.5635         calculate D2E/DX2 analytically  !
 ! D52   D(8,9,10,12)            2.7267         calculate D2E/DX2 analytically  !
 ! D53   D(30,9,10,11)           0.8128         calculate D2E/DX2 analytically  !
 ! D54   D(30,9,10,12)        -178.897          calculate D2E/DX2 analytically  !
 ! D55   D(9,10,11,31)        -115.8386         calculate D2E/DX2 analytically  !
 ! D56   D(9,10,11,32)         122.8964         calculate D2E/DX2 analytically  !
 ! D57   D(9,10,11,33)           3.6622         calculate D2E/DX2 analytically  !
 ! D58   D(12,10,11,31)         63.8661         calculate D2E/DX2 analytically  !
 ! D59   D(12,10,11,32)        -57.3988         calculate D2E/DX2 analytically  !
 ! D60   D(12,10,11,33)       -176.633          calculate D2E/DX2 analytically  !
 ! D61   D(9,10,12,13)          -5.1237         calculate D2E/DX2 analytically  !
 ! D62   D(9,10,12,17)        -174.8684         calculate D2E/DX2 analytically  !
 ! D63   D(11,10,12,13)        175.1762         calculate D2E/DX2 analytically  !
 ! D64   D(11,10,12,17)          5.4315         calculate D2E/DX2 analytically  !
 ! D65   D(10,12,13,14)       -174.2149         calculate D2E/DX2 analytically  !
 ! D66   D(10,12,13,16)          4.5477         calculate D2E/DX2 analytically  !
 ! D67   D(17,12,13,14)         -4.5565         calculate D2E/DX2 analytically  !
 ! D68   D(17,12,13,16)        174.2061         calculate D2E/DX2 analytically  !
 ! D69   D(10,12,17,40)       -159.5832         calculate D2E/DX2 analytically  !
 ! D70   D(10,12,17,41)        -30.1493         calculate D2E/DX2 analytically  !
 ! D71   D(13,12,17,40)         30.836          calculate D2E/DX2 analytically  !
 ! D72   D(13,12,17,41)        160.2699         calculate D2E/DX2 analytically  !
 ! D73   D(12,13,14,15)         82.1619         calculate D2E/DX2 analytically  !
 ! D74   D(12,13,14,34)       -156.7136         calculate D2E/DX2 analytically  !
 ! D75   D(12,13,14,35)        -41.5526         calculate D2E/DX2 analytically  !
 ! D76   D(16,13,14,15)        -96.6246         calculate D2E/DX2 analytically  !
 ! D77   D(16,13,14,34)         24.4999         calculate D2E/DX2 analytically  !
 ! D78   D(16,13,14,35)        139.6609         calculate D2E/DX2 analytically  !
 ! D79   D(12,13,16,8)          -1.5734         calculate D2E/DX2 analytically  !
 ! D80   D(12,13,16,39)        179.5052         calculate D2E/DX2 analytically  !
 ! D81   D(14,13,16,8)         177.2521         calculate D2E/DX2 analytically  !
 ! D82   D(14,13,16,39)         -1.6693         calculate D2E/DX2 analytically  !
 ! D83   D(13,14,15,36)         59.0706         calculate D2E/DX2 analytically  !
 ! D84   D(13,14,15,37)        -61.331          calculate D2E/DX2 analytically  !
 ! D85   D(13,14,15,38)        178.7626         calculate D2E/DX2 analytically  !
 ! D86   D(34,14,15,36)        -62.4738         calculate D2E/DX2 analytically  !
 ! D87   D(34,14,15,37)        177.1246         calculate D2E/DX2 analytically  !
 ! D88   D(34,14,15,38)         57.2183         calculate D2E/DX2 analytically  !
 ! D89   D(35,14,15,36)       -177.2536         calculate D2E/DX2 analytically  !
 ! D90   D(35,14,15,37)         62.3448         calculate D2E/DX2 analytically  !
 ! D91   D(35,14,15,38)        -57.5615         calculate D2E/DX2 analytically  !
 ! D92   D(6,18,19,2)            3.1442         calculate D2E/DX2 analytically  !
 ! D93   D(6,18,19,20)        -177.5745         calculate D2E/DX2 analytically  !
 ! D94   D(42,18,19,2)        -178.2051         calculate D2E/DX2 analytically  !
 ! D95   D(42,18,19,20)          1.0762         calculate D2E/DX2 analytically  !
 ! D96   D(2,19,20,21)        -174.5537         calculate D2E/DX2 analytically  !
 ! D97   D(2,19,20,43)          63.2762         calculate D2E/DX2 analytically  !
 ! D98   D(2,19,20,44)         -53.1737         calculate D2E/DX2 analytically  !
 ! D99   D(18,19,20,21)          6.1737         calculate D2E/DX2 analytically  !
 ! D100  D(18,19,20,43)       -115.9964         calculate D2E/DX2 analytically  !
 ! D101  D(18,19,20,44)        127.5537         calculate D2E/DX2 analytically  !
 ! D102  D(19,20,21,45)        177.8971         calculate D2E/DX2 analytically  !
 ! D103  D(19,20,21,46)         58.4759         calculate D2E/DX2 analytically  !
 ! D104  D(19,20,21,47)        -62.9676         calculate D2E/DX2 analytically  !
 ! D105  D(43,20,21,45)        -59.7681         calculate D2E/DX2 analytically  !
 ! D106  D(43,20,21,46)       -179.1893         calculate D2E/DX2 analytically  !
 ! D107  D(43,20,21,47)         59.3673         calculate D2E/DX2 analytically  !
 ! D108  D(44,20,21,45)         55.925          calculate D2E/DX2 analytically  !
 ! D109  D(44,20,21,46)        -63.4962         calculate D2E/DX2 analytically  !
 ! D110  D(44,20,21,47)        175.0603         calculate D2E/DX2 analytically  !
 --------------------------------------------------------------------------------
 Trust Radius=3.00D-01 FncErr=1.00D-07 GrdErr=1.00D-06 EigMax=2.50D+02 EigMin=1.00D-04
 Number of steps in this run=    252 maximum allowed number of steps=    282.
 GradGradGradGradGradGradGradGradGradGradGradGradGradGradGradGradGradGrad

                          Input orientation:                          
 ---------------------------------------------------------------------
 Center     Atomic      Atomic             Coordinates (Angstroms)
 Number     Number       Type             X           Y           Z
 ---------------------------------------------------------------------
      1          7           0        4.825314   -1.609177   -0.240745
      2          6           0        3.703567   -0.844709   -0.625193
      3          6           0        3.243333   -0.905469   -1.959548
      4          6           0        3.984390   -1.680992   -3.016357
      5          6           0        2.076130   -0.218130   -2.328540
      6          6           0        1.327843    0.489628   -1.385417
      7          6           0        0.078953    1.237268   -1.799113
      8          6           0       -1.183511    0.783842   -1.100672
      9          6           0       -1.670256   -0.514665   -1.274879
     10          6           0       -2.836999   -0.949036   -0.622727
     11          6           0       -3.272859   -2.377963   -0.812448
     12          6           0       -3.572341   -0.050497    0.181549
     13          6           0       -3.058340    1.245993    0.403697
     14          6           0       -3.707338    2.232797    1.350814
     15          6           0       -3.305598    1.986711    2.797782
     16          6           0       -1.880004    1.650296   -0.253229
     17          7           0       -4.677795   -0.517631    0.918320
     18          6           0        1.756527    0.493361   -0.051718
     19          6           0        2.916508   -0.191037    0.354917
     20          6           0        3.337782   -0.222342    1.814289
     21          6           0        2.387540    0.388458    2.839164
     22          1           0        5.281414   -1.270950    0.598811
     23          1           0        5.492824   -1.757378   -0.989028
     24          1           0        4.100771   -2.726445   -2.712681
     25          1           0        4.969632   -1.236666   -3.190270
     26          1           0        3.446862   -1.679253   -3.970707
     27          1           0        1.741738   -0.247112   -3.363724
     28          1           0       -0.083422    1.143620   -2.880976
     29          1           0        0.251959    2.306923   -1.622090
     30          1           0       -1.117966   -1.207418   -1.907851
     31          1           0       -4.238307   -2.413577   -1.327235
     32          1           0       -3.352885   -2.884565    0.154802
     33          1           0       -2.555084   -2.943254   -1.416542
     34          1           0       -3.422377    3.255159    1.071121
     35          1           0       -4.797368    2.204631    1.244920
     36          1           0       -2.220058    2.060674    2.924599
     37          1           0       -3.615439    0.994059    3.139765
     38          1           0       -3.774230    2.729651    3.450957
     39          1           0       -1.493350    2.653848   -0.084017
     40          1           0       -5.328254    0.207370    1.195201
     41          1           0       -5.156701   -1.298884    0.484882
     42          1           0        1.150530    1.027807    0.675914
     43          1           0        4.300841    0.295946    1.901240
     44          1           0        3.493095   -1.269333    2.103658
     45          1           0        2.796030    0.264589    3.847610
     46          1           0        1.406506   -0.097398    2.813541
     47          1           0        2.250393    1.461248    2.668154
 ---------------------------------------------------------------------
                    Distance matrix (angstroms):
                    1          2          3          4          5
     1  N    0.000000
     2  C    1.410861   0.000000
     3  C    2.439703   1.412802   0.000000
     4  C    2.901092   2.548705   1.505805   0.000000
     5  C    3.721816   2.437734   1.403907   2.500903   0.000000
     6  C    4.236456   2.828862   2.438242   3.798526   1.396545
     7  C    5.749670   4.341721   3.824966   5.024974   2.527289
     8  C    6.524721   5.173179   4.815432   6.037587   3.624481
     9  C    6.667820   5.423006   4.976430   6.030596   3.903017
    10  C    7.700178   6.541398   6.225707   7.266125   5.251938
    11  C    8.154648   7.145379   6.778262   7.616472   5.964486
    12  C    8.551516   7.363453   7.195046   8.365961   6.183354
    13  C    8.409477   7.152135   7.065748   8.358472   5.997629
    14  C    9.492101   8.264209   8.313786   9.672260   7.279642
    15  C    9.395466   8.298318   8.595661  10.019989   7.752644
    16  C    7.455576   6.126962   5.974281   7.288585   4.842409
    17  N    9.635558   8.528577   8.436635   9.584807   7.499819
    18  C    3.724762   2.431104   2.794124   4.298868   2.406716
    19  C    2.451423   1.416814   2.444171   3.837424   2.812101
    20  C    2.891233   2.544054   3.836330   5.087328   4.330683
    21  C    4.406714   3.905687   5.043239   6.412463   5.212494
    22  H    1.013548   2.041927   3.291283   3.862621   4.466728
    23  H    1.013637   2.041270   2.593813   2.528097   3.979621
    24  H    2.807796   2.838364   2.149037   1.094867   3.246287
    25  H    2.976456   2.887243   2.145804   1.094702   3.186275
    26  H    3.977142   3.457576   2.164470   1.095319   2.590463
    27  H    4.595287   3.421323   2.158688   2.684430   1.088239
    28  H    6.216462   4.835628   4.014361   4.954176   2.612128
    29  H    6.177340   4.779140   4.402460   5.637241   3.194145
    30  H    6.185728   5.002394   4.372045   5.242814   3.370151
    31  H    9.163883   8.125735   7.658273   8.426302   6.759786
    32  H    8.286495   7.386671   7.203984   8.083343   6.538429
    33  H    7.591610   6.648371   6.170014   6.849630   5.450338
    34  H    9.664738   8.394371   8.421844   9.794552   7.338597
    35  H   10.456976   9.222889   9.197511  10.505990   8.116918
    36  H    8.551285   7.492102   7.905791   9.369642   7.158606
    37  H    9.457854   8.433494   8.755224  10.139583   7.985344
    38  H   10.315340   9.236259   9.577778  11.021620   8.736057
    39  H    7.623875   6.288141   6.214702   7.575955   5.101699
    40  H   10.414256   9.273321   9.201247  10.393674   8.211132
    41  H   10.013163   8.941078   8.757316   9.796133   7.835637
    42  H    4.614974   3.423039   3.881113   5.385279   3.381692
    43  H    2.914218   2.835611   4.179402   5.309537   4.806730
    44  H    2.717817   2.769699   4.087104   5.159979   4.770451
    45  H    4.933927   4.696821   5.940723   7.232671   6.236674
    46  H    4.827255   4.202362   5.177768   6.568178   5.186904
    47  H    4.951709   4.274960   5.291777   6.722655   5.274243
                    6          7          8          9         10
     6  C    0.000000
     7  C    1.513220   0.000000
     8  C    2.544511   1.512359   0.000000
     9  C    3.163767   2.530577   1.397637   0.000000
    10  C    4.471841   3.829698   2.442401   1.405443   0.000000
    11  C    5.451406   5.027727   3.800718   2.500811   1.505922
    12  C    5.172902   4.348943   2.836675   2.440197   1.412430
    13  C    4.797042   3.833413   2.447794   2.800770   2.433247
    14  C    5.989878   5.024850   3.805123   4.311904   3.844010
    15  C    6.419437   5.757455   4.598705   5.051514   4.531895
    16  C    3.594340   2.529399   1.397857   2.403085   2.794439
    17  N    6.510718   5.752457   4.240304   3.722287   2.439152
    18  C    1.400906   2.533978   3.135045   3.775590   4.848406
    19  C    2.452738   3.838179   4.458619   4.878460   5.884997
    20  C    3.845110   5.080069   5.472795   5.891422   6.677952
    21  C    4.356636   5.250111   5.332076   5.848648   6.408540
    22  H    4.761042   6.253543   6.993258   7.239364   8.216107
    23  H    4.749024   6.239723   7.144488   7.275697   8.376965
    24  H    4.449032   5.720196   6.545557   6.345392   7.460546
    25  H    4.415905   5.654591   6.805147   6.948245   8.223047
    26  H    3.984723   4.956281   5.978653   5.899885   7.157451
    27  H    2.151231   2.723279   3.839447   4.009559   5.382434
    28  H    2.157793   1.097982   2.123468   2.801339   4.130507
    29  H    2.125112   1.097921   2.156902   3.431738   4.598006
    30  H    3.022397   2.724138   2.149639   1.088845   2.161800
    31  H    6.278058   5.673630   4.427934   3.194291   2.145898
    32  H    5.972157   5.708310   4.442928   3.239082   2.148712
    33  H    5.182930   4.955933   3.983997   2.588635   2.164838
    34  H    6.020575   4.956757   3.979524   4.773386   4.570234
    35  H    6.883176   5.829274   4.536564   4.850030   4.156533
    36  H    5.799312   5.317603   4.348280   4.956841   4.692813
    37  H    6.720696   6.172536   4.892829   5.054609   4.305569
    38  H    7.378303   6.681127   5.587068   6.106211   5.568306
    39  H    3.786373   2.724040   2.150933   3.389532   3.882831
    40  H    7.144430   6.266138   4.773075   4.472536   3.293704
    41  H    6.981840   6.249862   4.757937   3.983347   2.594264
    42  H    2.137794   2.705164   2.943386   3.760538   4.636244
    43  H    4.436028   5.692367   6.271175   6.811668   7.672623
    44  H    4.467203   5.759430   6.029420   6.216449   6.899700
    45  H    5.439741   6.341458   6.371174   6.840675   7.292997
    46  H    4.240523   4.981998   4.775545   5.133785   5.526351
    47  H    4.269260   4.972102   5.143407   5.901122   6.520807
                   11         12         13         14         15
    11  C    0.000000
    12  C    2.548493   0.000000
    13  C    3.828588   1.412244   0.000000
    14  C    5.111515   2.568820   1.513939   0.000000
    15  C    5.664381   3.326566   2.518222   1.521732   0.000000
    16  C    4.298795   2.438387   1.408364   2.500282   3.384399
    17  N    2.903487   1.408216   2.449049   2.948507   3.418630
    18  C    5.841056   5.361626   4.894569   5.903097   5.997904
    19  C    6.667357   6.492686   6.145425   7.123350   7.030276
    20  C    7.432834   7.102476   6.712388   7.475040   7.069771
    21  C    7.281996   6.540319   6.026978   6.539442   5.913369
    22  H    8.740292   8.947211   8.713470   9.676746   9.443760
    23  H    8.789397   9.298436   9.169642  10.297540  10.284472
    24  H    7.622515   8.626350   8.760419  10.103100  10.365005
    25  H    8.654204   9.259668   9.139394  10.389823  10.711038
    26  H    7.457710   8.316447   8.367206   9.736801  10.239504
    27  H    6.016287   6.391170   6.282004   7.620318   8.272226
    28  H    5.181975   4.793489   4.432798   5.676894   6.583427
    29  H    5.918447   4.841055   4.023365   4.951736   5.682782
    30  H    2.685823   3.424619   3.889412   5.399891   6.093535
    31  H    1.094698   2.881682   4.216741   5.389126   6.103134
    32  H    1.094817   2.842678   4.148519   5.267208   5.542283
    33  H    1.095300   3.457853   4.595250   5.981426   6.529039
    34  H    5.941570   3.426541   2.148191   1.097567   2.145682
    35  H    5.249482   2.777958   2.156586   1.095524   2.164312
    36  H    5.897068   3.716185   2.778735   2.172194   1.095422
    37  H    5.206523   3.137514   2.803551   2.177903   1.094675
    38  H    6.672010   4.296394   3.464034   2.159152   1.094629
    39  H    5.386686   3.421434   2.160813   2.671660   3.469017
    40  H    3.865133   2.043823   2.618725   2.598834   3.134559
    41  H    2.529098   2.039774   3.299410   3.914494   4.423938
    42  H    5.777617   4.869563   4.223303   5.050383   5.027811
    43  H    8.477901   8.066247   7.569859   8.257438   7.843493
    44  H    7.450561   7.422968   7.220667   8.042259   7.570063
    45  H    8.095099   7.354959   6.862750   7.238896   6.426329
    46  H    6.343912   5.631917   5.248513   5.806959   5.152444
    47  H    7.573668   6.509440   5.775530   6.150222   5.582289
                   16         17         18         19         20
    16  C    0.000000
    17  N    3.728279   0.000000
    18  C    3.821448   6.585102   0.000000
    19  C    5.173672   7.622173   1.406879   0.000000
    20  C    5.916645   8.070899   2.548446   1.519283   0.000000
    21  C    5.419138   7.377641   2.960807   2.605208   1.525256
    22  H    7.781102   9.992768   3.995098   2.611221   2.520848
    23  H    8.155503  10.421921   4.461422   3.301063   3.854754
    24  H    7.808612   9.753268   4.789922   4.152219   5.229354
    25  H    7.992388  10.510488   4.813267   4.228120   5.360727
    26  H    7.299386   9.553114   4.789150   4.605115   5.966630
    27  H    5.137349   7.721365   3.393804   3.900195   5.418468
    28  H    3.223272   6.188915   3.436998   4.609978   5.967914
    29  H    2.617290   6.223685   2.831749   4.153093   5.265756
    30  H    3.388953   4.597328   3.821071   4.736045   5.888836
    31  H    4.819766   2.971578   6.783456   7.678587   8.489276
    32  H    4.785481   2.817928   6.128550   6.826450   7.389610
    33  H    4.786410   3.980091   5.680058   6.375820   7.250345
    34  H    2.590058   3.979116   5.975729   7.250564   7.638393
    35  H    3.326072   2.744390   6.896612   8.126206   8.508527
    36  H    3.222210   4.088188   5.208470   6.169099   6.110198
    37  H    3.867142   2.889398   6.268516   7.199040   7.182186
    38  H    4.298150   4.216102   6.918020   7.929808   7.872334
    39  H    1.088693   4.604742   3.902621   5.266202   5.934296
    40  H    4.008791   1.012614   7.199355   8.297042   8.698740
    41  H    4.469811   1.013694   7.161899   8.149903   8.665016
    42  H    3.230315   6.034609   1.087343   2.169631   2.764569
    43  H    6.684223   9.068844   3.213495   2.131817   1.097117
    44  H    6.553575   8.290568   3.281525   2.133840   1.097291
    45  H    6.371998   8.065399   4.041987   3.524346   2.159859
    46  H    4.822930   6.386483   2.946391   2.886816   2.178059
    47  H    5.062648   7.414693   2.928893   2.919730   2.178526
                   21         22         23         24         25
    21  C    0.000000
    22  H    4.018373   0.000000
    23  H    5.376101   1.674078   0.000000
    24  H    6.592478   3.805044   2.418240   0.000000
    25  H    6.757388   3.802041   2.321710   1.789539   0.000000
    26  H    7.195272   4.940930   3.616971   1.762622   1.767426
    27  H    6.268718   5.411029   4.689428   3.483674   3.380621
    28  H    6.276617   6.835242   6.564281   5.702034   5.594173
    29  H    5.305092   6.559649   6.662280   6.429427   6.105133
    30  H    6.113063   6.873096   6.696957   5.494580   6.221278
    31  H    8.313370   9.779588   9.759093   8.459171   9.467954
    32  H    7.132387   8.794999   8.990298   7.987768   9.119723
    33  H    7.323992   8.262503   8.146036   6.784349   7.917064
    34  H    6.715584   9.821645  10.433146  10.329302  10.428890
    35  H    7.580435  10.680776  11.250604  10.915814  11.265333
    36  H    4.902403   8.531183   9.454234   9.728736   9.997785
    37  H    6.040933   9.525792  10.371972  10.374641  10.897198
    38  H    6.619885  10.302632  11.212724  11.391885  11.674445
    39  H    5.360810   7.859245   8.311714   8.194609   8.158127
    40  H    7.891063  10.728754  11.212797  10.620043  11.285567
    41  H    8.081171  10.438774  10.760809   9.897632  10.772800
    42  H    2.572666   4.728047   5.420776   5.854990   5.887339
    43  H    2.132834   2.261196   3.740402   5.519342   5.359072
    44  H    2.124028   2.337232   3.715079   5.068487   5.496080
    45  H    1.095067   4.369177   5.895262   7.327076   7.517317
    46  H    1.095053   4.614885   5.823492   6.686559   7.073863
    47  H    1.094958   4.575388   5.852170   7.064988   6.999581
                   26         27         28         29         30
    26  H    0.000000
    27  H    2.308008   0.000000
    28  H    4.649627   2.344865   0.000000
    29  H    5.622544   3.431592   1.746582   0.000000
    30  H    5.031467   3.349576   2.746749   3.782716   0.000000
    31  H    8.160208   6.678458   5.686021   6.521698   3.395359
    32  H    8.044200   6.729886   6.010958   6.565347   3.473071
    33  H    6.644156   5.433542   4.995620   5.957021   2.306474
    34  H    9.846567   7.655184   5.588049   4.653309   5.839449
    35  H   10.500222   8.367231   6.353743   5.807402   5.926217
    36  H    9.677101   7.782333   6.253871   5.181109   5.936969
    37  H   10.372151   8.516761   6.981894   6.273408   6.046676
    38  H   11.254496   9.258882   7.498729   6.490354   7.160521
    39  H    7.634646   5.444065   3.477308   2.352048   4.286800
    40  H   10.356090   8.424674   6.708207   6.594241   5.418217
    41  H    9.696301   7.969093   6.559953   6.833357   4.695201
    42  H    5.847427   4.277105   3.766632   2.779279   4.100993
    43  H    6.253835   5.879096   6.542928   5.731608   6.792109
    44  H    6.088356   5.831334   6.592450   6.097194   6.112113
    45  H    8.082585   7.305936   7.371418   6.368755   7.114176
    46  H    7.258880   6.188166   6.015608   5.175767   5.467782
    47  H    7.441019   6.289737   6.028303   4.807817   6.277535
                   31         32         33         34         35
    31  H    0.000000
    32  H    1.789480   0.000000
    33  H    1.766854   1.763251   0.000000
    34  H    6.209060   6.208113   6.735056   0.000000
    35  H    5.315673   5.401371   6.213850   1.739084   0.000000
    36  H    6.493870   5.780178   6.633026   2.511522   3.079704
    37  H    5.652790   4.901291   6.114467   3.070689   2.540251
    38  H    7.035572   6.523923   7.573685   2.462433   2.487781
    39  H    5.895692   5.847129   5.850680   2.327458   3.589485
    40  H    3.797372   3.813735   4.943490   3.596773   2.067212
    41  H    2.317274   2.424271   3.617703   4.908244   3.602971
    42  H    6.700395   5.988234   5.820590   5.101838   6.089841
    43  H    9.522689   8.470254   8.276702   8.312288   9.319401
    44  H    8.535508   7.298935   7.195435   8.328320   9.029820
    45  H    9.134194   7.833463   8.163086   7.437807   8.258175
    46  H    7.373915   6.122825   6.456523   6.131375   6.800585
    47  H    8.548722   7.523281   7.692658   6.160272   7.228358
                   36         37         38         39         40
    36  H    0.000000
    37  H    1.769479   0.000000
    38  H    1.772014   1.770405   0.000000
    39  H    3.151465   4.201301   4.207636   0.000000
    40  H    4.010790   2.708125   3.723617   4.725266   0.000000
    41  H    5.085540   3.831641   5.190175   5.419213   1.674152
    42  H    4.181418   5.365273   5.903422   3.195561   6.551138
    43  H    6.832543   8.042935   8.575040   6.563048   9.655350
    44  H    6.663558   7.531781   8.403636   6.711327   8.990113
    45  H    5.407310   6.491542   7.028668   6.290074   8.546492
    46  H    4.221560   5.149527   5.936204   4.937040   6.933173
    47  H    4.517743   5.903277   6.206263   4.797120   7.821617
                   41         42         43         44         45
    41  H    0.000000
    42  H    6.725410   0.000000
    43  H    9.695083   3.458541   0.000000
    44  H    8.800016   3.578117   1.772999   0.000000
    45  H    8.774868   3.653741   2.460446   2.424909   0.000000
    46  H    7.066958   2.429209   3.060096   2.496242   1.769495
    47  H    8.200613   2.316591   2.480005   3.052710   1.766586
                   46         47
    46  H    0.000000
    47  H    1.778388   0.000000
 Stoichiometry    C19H26N2
 Framework group  C1[X(C19H26N2)]
 Deg. of freedom   135
 Full point group                 C1      NOp   1
 Largest Abelian subgroup         C1      NOp   1
 Largest concise Abelian subgroup C1      NOp   1
                         Standard orientation:                         
 ---------------------------------------------------------------------
 Center     Atomic      Atomic             Coordinates (Angstroms)
 Number     Number       Type             X           Y           Z
 ---------------------------------------------------------------------
      1          7           0        4.940554    0.501692    1.031143
      2          6           0        3.798275    0.195345    0.261806
      3          6           0        3.633871   -1.110583   -0.251549
      4          6           0        4.700658   -2.161569   -0.093944
      5          6           0        2.458829   -1.447664   -0.941917
      6          6           0        1.420250   -0.525837   -1.089990
      7          6           0        0.164530   -0.897817   -1.848036
      8          6           0       -1.107808   -0.809504   -1.035272
      9          6           0       -1.304207   -1.632131    0.077428
     10          6           0       -2.478614   -1.551137    0.845204
     11          6           0       -2.599103   -2.428655    2.063090
     12          6           0       -3.511748   -0.666731    0.463865
     13          6           0       -3.298355    0.203849   -0.627459
     14          6           0       -4.293137    1.271986   -1.029335
     15          6           0       -4.151560    2.531998   -0.187911
     16          6           0       -2.106341    0.109123   -1.371514
     17          7           0       -4.638139   -0.509901    1.294358
     18          6           0        1.564836    0.747394   -0.523851
     19          6           0        2.724843    1.116563    0.181420
     20          6           0        2.843502    2.482476    0.835958
     21          6           0        1.611859    3.382122    0.826103
     22          1           0        5.149485    1.492507    1.074869
     23          1           0        5.760119   -0.037211    0.775491
     24          1           0        4.942763   -2.305302    0.964102
     25          1           0        5.602679   -1.869774   -0.641288
     26          1           0        4.374265   -3.130958   -0.485705
     27          1           0        2.349775   -2.447280   -1.358017
     28          1           0        0.242215   -1.920294   -2.240553
     29          1           0        0.100186   -0.250441   -2.732454
     30          1           0       -0.519194   -2.329017    0.366713
     31          1           0       -3.418671   -3.142954    1.934833
     32          1           0       -2.777489   -1.820624    2.955894
     33          1           0       -1.683877   -3.003868    2.239654
     34          1           0       -4.149531    1.531515   -2.086063
     35          1           0       -5.315945    0.883951   -0.970468
     36          1           0       -3.145634    2.956255   -0.277735
     37          1           0       -4.337028    2.332609    0.872352
     38          1           0       -4.869268    3.289297   -0.518978
     39          1           0       -1.951405    0.777691   -2.216655
     40          1           0       -5.452152   -0.134781    0.823131
     41          1           0       -4.869510   -1.339143    1.829523
     42          1           0        0.738067    1.446257   -0.625628
     43          1           0        3.658370    3.026363    0.342154
     44          1           0        3.126230    2.335804    1.886005
     45          1           0        1.825515    4.313734    1.360539
     46          1           0        0.761472    2.900480    1.320071
     47          1           0        1.318179    3.647281   -0.194864
 ---------------------------------------------------------------------
 Rotational constants (GHZ):           0.4866810           0.1587340           0.1395579
 Standard basis: 6-31G(d,p) (6D, 7F)
 There are   445 symmetry adapted cartesian basis functions of A   symmetry.
 There are   445 symmetry adapted basis functions of A   symmetry.
   445 basis functions,   770 primitive gaussians,   445 cartesian basis functions
    77 alpha electrons       77 beta electrons
       nuclear repulsion energy      1620.1300422682 Hartrees.
 NAtoms=   47 NActive=   47 NUniq=   47 SFac= 1.00D+00 NAtFMM=   60 NAOKFM=F Big=F
 Integral buffers will be    131072 words long.
 Raffenetti 2 integral format.
 Two-electron integral symmetry is turned on.
 Force inversion solution in PCM.
 ------------------------------------------------------------------------------
 Polarizable Continuum Model (PCM)
 =================================
 Model                : PCM.
 Atomic radii         : UFF (Universal Force Field).
 Polarization charges : Total charges.
 Charge compensation  : None.
 Solution method      : Matrix inversion.
 Cavity type          : Scaled VdW (van der Waals Surface) (Alpha=1.100).
 Cavity algorithm     : GePol (No added spheres)
                        Default sphere list used, NSphG=   47.
                        Lebedev-Laikov grids with approx.  5.0 points / Ang**2.
                        Smoothing algorithm: York/Karplus (Gamma=1.0000).
                        Polarization charges: spherical gaussians, with
                                              point-specific exponents (IZeta= 3).
                        Self-potential: point-specific (ISelfS= 7).
                        Self-field    : sphere-specific E.n sum rule (ISelfD= 2).
 1st derivatives      : Analytical E(r).r(x)/FMM algorithm (CHGder, D1EAlg=3).
                        Cavity 1st derivative terms included.
 2nd derivatives      : Analytical E(r).r(xy)/FMM algorithm (CHGder, D2EAlg=3).
                        Cavity 2nd derivative terms included.
 Solvent              : Water, Eps=  78.355300 Eps(inf)=   1.777849
 ------------------------------------------------------------------------------
 One-electron integrals computed using PRISM.
 NBasis=   445 RedAO= T EigKep=  3.51D-04  NBF=   445
 NBsUse=   445 1.00D-06 EigRej= -1.00D+00 NBFU=   445
 ExpMin= 1.61D-01 ExpMax= 4.17D+03 ExpMxC= 6.27D+02 IAcc=3 IRadAn=         5 AccDes= 0.00D+00
 Harris functional with IExCor=  402 and IRadAn=       5 diagonalized for initial guess.
 HarFok:  IExCor=  402 AccDes= 0.00D+00 IRadAn=         5 IDoV= 1 UseB2=F ITyADJ=14
 ICtDFT=  3500011 ScaDFX=  1.000000  1.000000  1.000000  1.000000
 FoFCou: FMM=F IPFlag=           0 FMFlag=      100000 FMFlg1=           0
         NFxFlg=           0 DoJE=T BraDBF=F KetDBF=T FulRan=T
         wScrn=  0.000000 ICntrl=       500 IOpCl=  0 I1Cent=   200000004 NGrid=           0
         NMat0=    1 NMatS0=      1 NMatT0=    0 NMatD0=    1 NMtDS0=    0 NMtDT0=    0
 Petite list used in FoFCou.
 Requested convergence on RMS density matrix=1.00D-08 within  32 cycles.
 Requested convergence on MAX density matrix=1.00D-06.
 Requested convergence on             energy=1.00D-06.
 No special actions if energy rises.
 Inv3:  Mode=1 IEnd=    29503488.
 Iteration    1 A*A^-1 deviation from unit magnitude is 4.00D-15 for      5.
 Iteration    1 A*A^-1 deviation from orthogonality  is 1.73D-15 for    372    350.
 Iteration    1 A^-1*A deviation from unit magnitude is 3.66D-15 for   1777.
 Iteration    1 A^-1*A deviation from orthogonality  is 1.04D-12 for   2954   2880.
 Error on total polarization charges =  0.01255
 SCF Done:  E(RB3LYP) =  -849.265907302     A.U. after   12 cycles
            NFock= 12  Conv=0.55D-08     -V/T= 2.0099
 QCSCF skips out because SCF is already converged.
 DoSCS=F DFT=T ScalE2(SS,OS)=  1.000000  1.000000
 Range of M.O.s used for correlation:     1   445
 NBasis=   445 NAE=    77 NBE=    77 NFC=     0 NFV=     0
 NROrb=    445 NOA=    77 NOB=    77 NVA=   368 NVB=   368
 Symmetrizing basis deriv contribution to polar:
 IMax=3 JMax=2 DiffMx= 0.00D+00
 G2DrvN: will do    48 centers at a time, making    1 passes.
 Calling FoFCou, ICntrl=  3107 FMM=F I1Cent=   0 AccDes= 0.00D+00.
 NEqPCM:  Using equilibrium solvation (IEInf=0, Eps=  78.3553, EpsInf=   1.7778)
 G2PCM: DoFxE=T DoFxN=T DoGrad=T DoDP/DQ/DG/TGxP=FFFF NFrqRd=   0 IEInf=0 SqF1=F DoCFld=F IF1Alg=4.
 End of G2Drv F.D. properties file   721 does not exist.
 End of G2Drv F.D. properties file   722 does not exist.
 End of G2Drv F.D. properties file   788 does not exist.
          IDoAtm=11111111111111111111111111111111111111111111111
 NEqPCM:  Using equilibrium solvation (IEInf=0, Eps=  78.3553, EpsInf=   1.7778)
          Differentiating once with respect to nuclear coordinates.
 CalDSu exits because no D1Ps are significant.
          There are   144 degrees of freedom in the 1st order CPHF.  IDoFFX=6 NUNeed=     0.
    138 vectors produced by pass  0 Test12= 2.83D-14 1.00D-09 XBig12= 1.34D-01 1.38D-01.
 AX will form   138 AO Fock derivatives at one time.
    138 vectors produced by pass  1 Test12= 2.83D-14 1.00D-09 XBig12= 2.03D-02 3.32D-02.
    138 vectors produced by pass  2 Test12= 2.83D-14 1.00D-09 XBig12= 1.87D-04 2.03D-03.
    138 vectors produced by pass  3 Test12= 2.83D-14 1.00D-09 XBig12= 5.75D-07 6.41D-05.
    138 vectors produced by pass  4 Test12= 2.83D-14 1.00D-09 XBig12= 6.05D-10 1.53D-06.
     79 vectors produced by pass  5 Test12= 2.83D-14 1.00D-09 XBig12= 4.88D-13 6.11D-08.
      8 vectors produced by pass  6 Test12= 2.83D-14 1.00D-09 XBig12= 4.02D-16 2.18D-09.
 InvSVY:  IOpt=1 It=  1 EMax= 3.89D-16
 Solved reduced A of dimension   777 with   144 vectors.
 End of Minotr F.D. properties file   721 does not exist.
 End of Minotr F.D. properties file   722 does not exist.
 End of Minotr F.D. properties file   788 does not exist.

 **********************************************************************

            Population analysis using the SCF density.

 **********************************************************************

 Orbital symmetries:
       Occupied  (A) (A) (A) (A) (A) (A) (A) (A) (A) (A) (A) (A)
                 (A) (A) (A) (A) (A) (A) (A) (A) (A) (A) (A) (A)
                 (A) (A) (A) (A) (A) (A) (A) (A) (A) (A) (A) (A)
                 (A) (A) (A) (A) (A) (A) (A) (A) (A) (A) (A) (A)
                 (A) (A) (A) (A) (A) (A) (A) (A) (A) (A) (A) (A)
                 (A) (A) (A) (A) (A) (A) (A) (A) (A) (A) (A) (A)
                 (A) (A) (A) (A) (A)
       Virtual   (A) (A) (A) (A) (A) (A) (A) (A) (A) (A) (A) (A)
                 (A) (A) (A) (A) (A) (A) (A) (A) (A) (A) (A) (A)
                 (A) (A) (A) (A) (A) (A) (A) (A) (A) (A) (A) (A)
                 (A) (A) (A) (A) (A) (A) (A) (A) (A) (A) (A) (A)
                 (A) (A) (A) (A) (A) (A) (A) (A) (A) (A) (A) (A)
                 (A) (A) (A) (A) (A) (A) (A) (A) (A) (A) (A) (A)
                 (A) (A) (A) (A) (A) (A) (A) (A) (A) (A) (A) (A)
                 (A) (A) (A) (A) (A) (A) (A) (A) (A) (A) (A) (A)
                 (A) (A) (A) (A) (A) (A) (A) (A) (A) (A) (A) (A)
                 (A) (A) (A) (A) (A) (A) (A) (A) (A) (A) (A) (A)
                 (A) (A) (A) (A) (A) (A) (A) (A) (A) (A) (A) (A)
                 (A) (A) (A) (A) (A) (A) (A) (A) (A) (A) (A) (A)
                 (A) (A) (A) (A) (A) (A) (A) (A) (A) (A) (A) (A)
                 (A) (A) (A) (A) (A) (A) (A) (A) (A) (A) (A) (A)
                 (A) (A) (A) (A) (A) (A) (A) (A) (A) (A) (A) (A)
                 (A) (A) (A) (A) (A) (A) (A) (A) (A) (A) (A) (A)
                 (A) (A) (A) (A) (A) (A) (A) (A) (A) (A) (A) (A)
                 (A) (A) (A) (A) (A) (A) (A) (A) (A) (A) (A) (A)
                 (A) (A) (A) (A) (A) (A) (A) (A) (A) (A) (A) (A)
                 (A) (A) (A) (A) (A) (A) (A) (A) (A) (A) (A) (A)
                 (A) (A) (A) (A) (A) (A) (A) (A) (A) (A) (A) (A)
                 (A) (A) (A) (A) (A) (A) (A) (A) (A) (A) (A) (A)
                 (A) (A) (A) (A) (A) (A) (A) (A) (A) (A) (A) (A)
                 (A) (A) (A) (A) (A) (A) (A) (A) (A) (A) (A) (A)
                 (A) (A) (A) (A) (A) (A) (A) (A) (A) (A) (A) (A)
                 (A) (A) (A) (A) (A) (A) (A) (A) (A) (A) (A) (A)
                 (A) (A) (A) (A) (A) (A) (A) (A) (A) (A) (A) (A)
                 (A) (A) (A) (A) (A) (A) (A) (A) (A) (A) (A) (A)
                 (A) (A) (A) (A) (A) (A) (A) (A) (A) (A) (A) (A)
                 (A) (A) (A) (A) (A) (A) (A) (A) (A) (A) (A) (A)
                 (A) (A) (A) (A) (A) (A) (A) (A)
 The electronic state is 1-A.
 Alpha  occ. eigenvalues --  -14.33403 -14.33400 -10.21789 -10.21696 -10.18627
 Alpha  occ. eigenvalues --  -10.18604 -10.18570 -10.18421 -10.18351 -10.18267
 Alpha  occ. eigenvalues --  -10.18048 -10.17905 -10.17867 -10.17790 -10.17750
 Alpha  occ. eigenvalues --  -10.17495 -10.17490 -10.17424 -10.17404 -10.17399
 Alpha  occ. eigenvalues --  -10.17192  -0.91077  -0.90990  -0.84233  -0.82862
 Alpha  occ. eigenvalues --   -0.78845  -0.78631  -0.77442  -0.74582  -0.72605
 Alpha  occ. eigenvalues --   -0.70742  -0.67977  -0.67346  -0.65752  -0.63317
 Alpha  occ. eigenvalues --   -0.62710  -0.57329  -0.57031  -0.55986  -0.54446
 Alpha  occ. eigenvalues --   -0.51230  -0.50570  -0.50144  -0.50083  -0.45098
 Alpha  occ. eigenvalues --   -0.44619  -0.44230  -0.43784  -0.43569  -0.42966
 Alpha  occ. eigenvalues --   -0.42267  -0.42075  -0.41605  -0.41206  -0.40424
 Alpha  occ. eigenvalues --   -0.40128  -0.38988  -0.38677  -0.38369  -0.37328
 Alpha  occ. eigenvalues --   -0.36889  -0.36524  -0.36497  -0.34980  -0.34910
 Alpha  occ. eigenvalues --   -0.33943  -0.33812  -0.32797  -0.32473  -0.32177
 Alpha  occ. eigenvalues --   -0.31077  -0.29950  -0.29028  -0.23006  -0.22943
 Alpha  occ. eigenvalues --   -0.19824  -0.18888
 Alpha virt. eigenvalues --    0.00515   0.00857   0.01506   0.02742   0.07819
 Alpha virt. eigenvalues --    0.08459   0.10138   0.10913   0.11288   0.12064
 Alpha virt. eigenvalues --    0.12876   0.13460   0.13661   0.14545   0.14986
 Alpha virt. eigenvalues --    0.15370   0.15839   0.16165   0.16467   0.16562
 Alpha virt. eigenvalues --    0.16979   0.17746   0.18069   0.18259   0.18903
 Alpha virt. eigenvalues --    0.19212   0.19511   0.20085   0.20233   0.21289
 Alpha virt. eigenvalues --    0.21854   0.22369   0.22593   0.24612   0.25099
 Alpha virt. eigenvalues --    0.25332   0.26690   0.27235   0.27784   0.28941
 Alpha virt. eigenvalues --    0.29771   0.30296   0.35087   0.35731   0.36274
 Alpha virt. eigenvalues --    0.37163   0.38145   0.38970   0.39375   0.40955
 Alpha virt. eigenvalues --    0.44924   0.47246   0.49148   0.49478   0.51198
 Alpha virt. eigenvalues --    0.51633   0.52558   0.53314   0.53515   0.54090
 Alpha virt. eigenvalues --    0.54377   0.54877   0.55404   0.56487   0.56655
 Alpha virt. eigenvalues --    0.57322   0.57391   0.57840   0.58377   0.58770
 Alpha virt. eigenvalues --    0.59594   0.60754   0.61656   0.62027   0.63139
 Alpha virt. eigenvalues --    0.63619   0.64479   0.64662   0.65488   0.65964
 Alpha virt. eigenvalues --    0.66288   0.67350   0.68497   0.69500   0.69805
 Alpha virt. eigenvalues --    0.70186   0.70612   0.71090   0.72912   0.74781
 Alpha virt. eigenvalues --    0.75005   0.75465   0.76256   0.76694   0.77839
 Alpha virt. eigenvalues --    0.79000   0.79617   0.80018   0.81031   0.81429
 Alpha virt. eigenvalues --    0.82464   0.82880   0.83063   0.83833   0.84162
 Alpha virt. eigenvalues --    0.84443   0.84972   0.86027   0.86243   0.86699
 Alpha virt. eigenvalues --    0.87055   0.87629   0.88700   0.88964   0.89052
 Alpha virt. eigenvalues --    0.89856   0.91343   0.91978   0.92430   0.93017
 Alpha virt. eigenvalues --    0.93369   0.94232   0.94587   0.94821   0.95647
 Alpha virt. eigenvalues --    0.96376   0.97338   0.98227   0.99011   1.00560
 Alpha virt. eigenvalues --    1.01070   1.01817   1.02258   1.02951   1.03472
 Alpha virt. eigenvalues --    1.04250   1.06573   1.08479   1.11551   1.11687
 Alpha virt. eigenvalues --    1.12688   1.15831   1.16847   1.18127   1.18796
 Alpha virt. eigenvalues --    1.20633   1.21510   1.22661   1.24184   1.26600
 Alpha virt. eigenvalues --    1.27272   1.28817   1.29684   1.29754   1.31010
 Alpha virt. eigenvalues --    1.31511   1.32051   1.34965   1.36136   1.37248
 Alpha virt. eigenvalues --    1.38437   1.39621   1.41269   1.43030   1.43435
 Alpha virt. eigenvalues --    1.47763   1.48704   1.51509   1.54081   1.56953
 Alpha virt. eigenvalues --    1.57854   1.59507   1.60701   1.62231   1.62893
 Alpha virt. eigenvalues --    1.66895   1.67212   1.68566   1.70723   1.71282
 Alpha virt. eigenvalues --    1.72578   1.73143   1.74349   1.75429   1.76237
 Alpha virt. eigenvalues --    1.77123   1.78213   1.78976   1.80784   1.83351
 Alpha virt. eigenvalues --    1.83705   1.84476   1.84822   1.85579   1.85862
 Alpha virt. eigenvalues --    1.87176   1.87831   1.88177   1.88528   1.89525
 Alpha virt. eigenvalues --    1.90480   1.93055   1.94412   1.94696   1.95208
 Alpha virt. eigenvalues --    1.97297   1.97944   1.99880   2.01234   2.02239
 Alpha virt. eigenvalues --    2.02902   2.03285   2.04085   2.04518   2.05210
 Alpha virt. eigenvalues --    2.05660   2.05945   2.07025   2.07242   2.07826
 Alpha virt. eigenvalues --    2.09045   2.09133   2.09238   2.10817   2.12373
 Alpha virt. eigenvalues --    2.12697   2.13060   2.13366   2.14078   2.15302
 Alpha virt. eigenvalues --    2.15862   2.16893   2.17532   2.17714   2.19822
 Alpha virt. eigenvalues --    2.20709   2.21581   2.21792   2.22956   2.23630
 Alpha virt. eigenvalues --    2.24317   2.24583   2.25572   2.26655   2.27668
 Alpha virt. eigenvalues --    2.28655   2.30101   2.31950   2.32265   2.33375
 Alpha virt. eigenvalues --    2.34248   2.34972   2.35455   2.36648   2.36806
 Alpha virt. eigenvalues --    2.40823   2.41367   2.41781   2.44074   2.44347
 Alpha virt. eigenvalues --    2.45278   2.45847   2.47170   2.48152   2.48833
 Alpha virt. eigenvalues --    2.49293   2.50898   2.51329   2.52836   2.53025
 Alpha virt. eigenvalues --    2.54117   2.55019   2.56884   2.57378   2.59299
 Alpha virt. eigenvalues --    2.60773   2.63096   2.63495   2.64142   2.65304
 Alpha virt. eigenvalues --    2.66012   2.66468   2.66564   2.68884   2.69741
 Alpha virt. eigenvalues --    2.71549   2.71934   2.72668   2.73573   2.73754
 Alpha virt. eigenvalues --    2.75158   2.76022   2.77734   2.79757   2.80766
 Alpha virt. eigenvalues --    2.82037   2.83480   2.85158   2.85888   2.86123
 Alpha virt. eigenvalues --    2.87120   2.87434   2.87894   2.88431   2.89844
 Alpha virt. eigenvalues --    2.90292   2.91322   2.91461   2.92581   2.97749
 Alpha virt. eigenvalues --    2.99040   3.00376   3.02118   3.06450   3.07311
 Alpha virt. eigenvalues --    3.07792   3.14616   3.19170   3.20318   3.20601
 Alpha virt. eigenvalues --    3.20997   3.21433   3.21906   3.28009   3.29308
 Alpha virt. eigenvalues --    3.31112   3.33111   3.34183   3.35470   3.36675
 Alpha virt. eigenvalues --    3.38316   3.41019   3.41641   3.42610   3.42739
 Alpha virt. eigenvalues --    3.42767   3.46837   3.47082   3.47200   3.47815
 Alpha virt. eigenvalues --    3.49998   3.52043   3.52567   3.54418   3.56789
 Alpha virt. eigenvalues --    3.70417   3.71219   4.10602   4.11272   4.13692
 Alpha virt. eigenvalues --    4.14533   4.16192   4.18973   4.19616   4.23682
 Alpha virt. eigenvalues --    4.35821   4.36951   4.39193   4.40182   4.42953
 Alpha virt. eigenvalues --    4.48103   4.51927   4.54937   4.61879   4.64548
 Alpha virt. eigenvalues --    4.67056   4.84200   4.87555
          Condensed to atoms (all electrons):
               1          2          3          4          5          6
     1  N    6.875269   0.302297  -0.084127  -0.013866   0.005137   0.000215
     2  C    0.302297   4.819429   0.494958  -0.063186  -0.019064  -0.044734
     3  C   -0.084127   0.494958   4.856703   0.343818   0.516896  -0.025204
     4  C   -0.013866  -0.063186   0.343818   5.058773  -0.050829   0.006996
     5  C    0.005137  -0.019064   0.516896  -0.050829   5.019180   0.518300
     6  C    0.000215  -0.044734  -0.025204   0.006996   0.518300   4.797961
     7  C    0.000004   0.001263   0.005821  -0.000244  -0.039745   0.337824
     8  C    0.000000   0.000065  -0.000159   0.000001  -0.002496  -0.053938
     9  C    0.000000  -0.000000  -0.000084   0.000000   0.001505   0.000116
    10  C    0.000000  -0.000000   0.000000   0.000000   0.000033   0.000076
    11  C    0.000000  -0.000000   0.000000  -0.000000  -0.000002  -0.000007
    12  C   -0.000000  -0.000000   0.000000   0.000000   0.000001   0.000071
    13  C    0.000000   0.000000  -0.000000   0.000000   0.000003  -0.000117
    14  C    0.000000  -0.000000   0.000000  -0.000000  -0.000000  -0.000000
    15  C    0.000000   0.000000  -0.000000  -0.000000   0.000000   0.000000
    16  C    0.000000   0.000002   0.000003  -0.000000  -0.000175  -0.003393
    17  N   -0.000000  -0.000000   0.000000   0.000000  -0.000000   0.000000
    18  C    0.005189  -0.023007  -0.049506   0.000710  -0.050544   0.501100
    19  C   -0.083907   0.482635  -0.027525   0.006666  -0.048941  -0.020477
    20  C   -0.013603  -0.055797   0.006648  -0.000151   0.000666   0.006513
    21  C    0.000321   0.003831  -0.000137   0.000001  -0.000004   0.000121
    22  H    0.338515  -0.022574   0.006530  -0.000067  -0.000139   0.000005
    23  H    0.339354  -0.021753  -0.017571   0.008229  -0.000146   0.000002
    24  H    0.005658  -0.005936  -0.030734   0.369978   0.001354  -0.000231
    25  H    0.000240  -0.002730  -0.032171   0.370882  -0.000675  -0.000152
    26  H    0.000281   0.003822  -0.025429   0.375541  -0.005727   0.000120
    27  H   -0.000104   0.004951  -0.041356  -0.011015   0.361133  -0.043062
    28  H   -0.000000  -0.000006   0.000271  -0.000008  -0.008978  -0.032585
    29  H   -0.000000  -0.000018  -0.000218   0.000004   0.001816  -0.028499
    30  H    0.000000  -0.000016   0.000077  -0.000003   0.001794   0.003807
    31  H   -0.000000   0.000000   0.000000   0.000000  -0.000000   0.000000
    32  H   -0.000000   0.000000  -0.000000   0.000000  -0.000000  -0.000001
    33  H    0.000000   0.000000  -0.000000  -0.000000  -0.000001  -0.000003
    34  H   -0.000000  -0.000000   0.000000  -0.000000  -0.000000   0.000000
    35  H   -0.000000   0.000000  -0.000000   0.000000   0.000000   0.000000
    36  H   -0.000000   0.000000  -0.000000   0.000000   0.000000  -0.000000
    37  H   -0.000000   0.000000   0.000000   0.000000   0.000000  -0.000000
    38  H   -0.000000  -0.000000   0.000000  -0.000000  -0.000000  -0.000000
    39  H   -0.000000   0.000000  -0.000000  -0.000000  -0.000003   0.000227
    40  H    0.000000  -0.000000  -0.000000  -0.000000   0.000000   0.000000
    41  H    0.000000  -0.000000   0.000000  -0.000000   0.000000   0.000000
    42  H   -0.000096   0.005043   0.000395   0.000010   0.006384  -0.048215
    43  H   -0.000084  -0.003418  -0.000031   0.000001   0.000004  -0.000159
    44  H    0.007051  -0.009192  -0.000427   0.000001   0.000054  -0.000149
    45  H   -0.000003  -0.000091   0.000002  -0.000000   0.000000  -0.000005
    46  H   -0.000011   0.000120   0.000003   0.000000  -0.000009  -0.000095
    47  H    0.000000  -0.000126  -0.000003   0.000000  -0.000002   0.000108
               7          8          9         10         11         12
     1  N    0.000004   0.000000   0.000000   0.000000   0.000000  -0.000000
     2  C    0.001263   0.000065  -0.000000  -0.000000  -0.000000  -0.000000
     3  C    0.005821  -0.000159  -0.000084   0.000000   0.000000   0.000000
     4  C   -0.000244   0.000001   0.000000   0.000000  -0.000000   0.000000
     5  C   -0.039745  -0.002496   0.001505   0.000033  -0.000002   0.000001
     6  C    0.337824  -0.053938   0.000116   0.000076  -0.000007   0.000071
     7  C    5.141824   0.337434  -0.061230   0.004899  -0.000229   0.001259
     8  C    0.337434   4.783500   0.508438  -0.022685   0.006643  -0.042937
     9  C   -0.061230   0.508438   5.016782   0.532197  -0.052516  -0.020165
    10  C    0.004899  -0.022685   0.532197   4.846332   0.343205   0.488185
    11  C   -0.000229   0.006643  -0.052516   0.343205   5.057688  -0.060938
    12  C    0.001259  -0.042937  -0.020165   0.488185  -0.060938   4.800578
    13  C    0.005616  -0.025274  -0.048584  -0.030292   0.007030   0.498361
    14  C   -0.000230   0.006245   0.000742   0.006611  -0.000153  -0.052546
    15  C   -0.000001  -0.000227   0.000046  -0.000227   0.000002  -0.003411
    16  C   -0.038953   0.519854  -0.052964  -0.047934   0.000803  -0.025941
    17  N    0.000004   0.000206   0.005150  -0.082917  -0.014009   0.299881
    18  C   -0.060131  -0.001368  -0.001124  -0.000109   0.000002   0.000006
    19  C    0.004655   0.000100  -0.000120  -0.000005   0.000000  -0.000000
    20  C   -0.000199  -0.000002   0.000002   0.000000  -0.000000  -0.000000
    21  C    0.000000  -0.000013  -0.000001   0.000000  -0.000000   0.000000
    22  H    0.000000   0.000000   0.000000   0.000000  -0.000000  -0.000000
    23  H    0.000000   0.000000  -0.000000  -0.000000  -0.000000  -0.000000
    24  H    0.000001  -0.000000  -0.000000  -0.000000   0.000000   0.000000
    25  H    0.000005  -0.000000  -0.000000   0.000000  -0.000000  -0.000000
    26  H   -0.000007  -0.000000  -0.000000   0.000000  -0.000000   0.000000
    27  H   -0.010104   0.000220  -0.000031   0.000001  -0.000000   0.000000
    28  H    0.357082  -0.028366  -0.007391   0.000080   0.000004  -0.000024
    29  H    0.355833  -0.031965   0.005899  -0.000170   0.000002  -0.000006
    30  H   -0.008397  -0.046757   0.359758  -0.038602  -0.010924   0.005135
    31  H    0.000004  -0.000177  -0.000265  -0.032520   0.370876  -0.002694
    32  H    0.000003  -0.000193   0.001156  -0.030792   0.370562  -0.005880
    33  H   -0.000009   0.000147  -0.005469  -0.025313   0.375494   0.003713
    34  H   -0.000001   0.000291  -0.000007  -0.000165   0.000002   0.003702
    35  H    0.000003  -0.000205  -0.000013   0.000083   0.000001  -0.005983
    36  H    0.000001  -0.000146  -0.000019   0.000010   0.000000  -0.000036
    37  H   -0.000000   0.000042  -0.000012  -0.000218   0.000005   0.001483
    38  H   -0.000000   0.000004  -0.000000   0.000005  -0.000000   0.000076
    39  H   -0.010188  -0.042875   0.006251   0.000462   0.000010   0.004853
    40  H    0.000000  -0.000002  -0.000130   0.006506  -0.000102  -0.023953
    41  H    0.000000   0.000004  -0.000142  -0.017793   0.008346  -0.021696
    42  H   -0.009131   0.004687   0.000418  -0.000051   0.000000  -0.000027
    43  H    0.000003   0.000000  -0.000000  -0.000000   0.000000   0.000000
    44  H    0.000002  -0.000001   0.000000   0.000000  -0.000000   0.000000
    45  H   -0.000000  -0.000000  -0.000000   0.000000   0.000000   0.000000
    46  H   -0.000005   0.000020   0.000000  -0.000000   0.000000  -0.000000
    47  H    0.000002  -0.000003   0.000000   0.000000  -0.000000   0.000000
              13         14         15         16         17         18
     1  N    0.000000   0.000000   0.000000   0.000000  -0.000000   0.005189
     2  C    0.000000  -0.000000   0.000000   0.000002  -0.000000  -0.023007
     3  C   -0.000000   0.000000  -0.000000   0.000003   0.000000  -0.049506
     4  C    0.000000  -0.000000  -0.000000  -0.000000   0.000000   0.000710
     5  C    0.000003  -0.000000   0.000000  -0.000175  -0.000000  -0.050544
     6  C   -0.000117  -0.000000   0.000000  -0.003393   0.000000   0.501100
     7  C    0.005616  -0.000230  -0.000001  -0.038953   0.000004  -0.060131
     8  C   -0.025274   0.006245  -0.000227   0.519854   0.000206  -0.001368
     9  C   -0.048584   0.000742   0.000046  -0.052964   0.005150  -0.001124
    10  C   -0.030292   0.006611  -0.000227  -0.047934  -0.082917  -0.000109
    11  C    0.007030  -0.000153   0.000002   0.000803  -0.014009   0.000002
    12  C    0.498361  -0.052546  -0.003411  -0.025941   0.299881   0.000006
    13  C    4.888010   0.346664  -0.045738   0.506789  -0.082700  -0.000114
    14  C    0.346664   5.007539   0.357367  -0.049789  -0.011294   0.000001
    15  C   -0.045738   0.357367   4.943156  -0.003725  -0.001837  -0.000001
    16  C    0.506789  -0.049789  -0.003725   5.030821   0.005283   0.001175
    17  N   -0.082700  -0.011294  -0.001837   0.005283   6.873265   0.000000
    18  C   -0.000114   0.000001  -0.000001   0.001175   0.000000   5.037139
    19  C    0.000000   0.000000  -0.000000   0.000046   0.000000   0.527552
    20  C    0.000000  -0.000000   0.000000  -0.000001   0.000000  -0.059734
    21  C   -0.000001   0.000000  -0.000002  -0.000011  -0.000000  -0.006596
    22  H    0.000000  -0.000000  -0.000000   0.000000   0.000000  -0.000102
    23  H   -0.000000  -0.000000  -0.000000   0.000000   0.000000  -0.000120
    24  H   -0.000000   0.000000   0.000000  -0.000000   0.000000   0.000055
    25  H   -0.000000   0.000000  -0.000000   0.000000  -0.000000  -0.000006
    26  H    0.000000  -0.000000   0.000000  -0.000000   0.000000   0.000009
    27  H   -0.000000   0.000000   0.000000  -0.000003  -0.000000   0.006114
    28  H   -0.000234   0.000004  -0.000000   0.002109  -0.000000   0.005723
    29  H    0.000260  -0.000007  -0.000000  -0.008992  -0.000000  -0.007530
    30  H    0.000435   0.000009   0.000000   0.005957  -0.000102   0.000407
    31  H   -0.000047   0.000002   0.000000  -0.000000   0.000217  -0.000000
    32  H   -0.000309   0.000002  -0.000003   0.000047   0.005447   0.000000
    33  H   -0.000165   0.000002  -0.000000   0.000007   0.000286  -0.000000
    34  H   -0.029724   0.379215  -0.038117  -0.007437   0.000176   0.000000
    35  H   -0.033052   0.369038  -0.041832   0.002957  -0.000855  -0.000000
    36  H   -0.003583  -0.035461   0.385918   0.003184  -0.000012  -0.000011
    37  H   -0.007120  -0.033174   0.386617  -0.000154   0.006318  -0.000000
    38  H    0.004960  -0.029213   0.373196   0.000041  -0.000065   0.000000
    39  H   -0.043968  -0.010208   0.000466   0.362752  -0.000100  -0.000079
    40  H   -0.014062   0.005252  -0.000553  -0.000087   0.339737   0.000000
    41  H    0.006541  -0.000212   0.000043  -0.000121   0.339161   0.000000
    42  H    0.000100  -0.000006  -0.000001   0.002734   0.000000   0.360925
    43  H   -0.000000   0.000000  -0.000000  -0.000000  -0.000000  -0.000131
    44  H   -0.000000   0.000000  -0.000000  -0.000000  -0.000000   0.002488
    45  H    0.000000  -0.000000   0.000000  -0.000000  -0.000000   0.000329
    46  H    0.000001  -0.000000  -0.000001   0.000014  -0.000000   0.001044
    47  H   -0.000000   0.000000  -0.000000  -0.000003   0.000000   0.001616
              19         20         21         22         23         24
     1  N   -0.083907  -0.013603   0.000321   0.338515   0.339354   0.005658
     2  C    0.482635  -0.055797   0.003831  -0.022574  -0.021753  -0.005936
     3  C   -0.027525   0.006648  -0.000137   0.006530  -0.017571  -0.030734
     4  C    0.006666  -0.000151   0.000001  -0.000067   0.008229   0.369978
     5  C   -0.048941   0.000666  -0.000004  -0.000139  -0.000146   0.001354
     6  C   -0.020477   0.006513   0.000121   0.000005   0.000002  -0.000231
     7  C    0.004655  -0.000199   0.000000   0.000000   0.000000   0.000001
     8  C    0.000100  -0.000002  -0.000013   0.000000   0.000000  -0.000000
     9  C   -0.000120   0.000002  -0.000001   0.000000  -0.000000  -0.000000
    10  C   -0.000005   0.000000   0.000000   0.000000  -0.000000  -0.000000
    11  C    0.000000  -0.000000  -0.000000  -0.000000  -0.000000   0.000000
    12  C   -0.000000  -0.000000   0.000000  -0.000000  -0.000000   0.000000
    13  C    0.000000   0.000000  -0.000001   0.000000  -0.000000  -0.000000
    14  C    0.000000  -0.000000   0.000000  -0.000000  -0.000000   0.000000
    15  C   -0.000000   0.000000  -0.000002  -0.000000  -0.000000   0.000000
    16  C    0.000046  -0.000001  -0.000011   0.000000   0.000000  -0.000000
    17  N    0.000000   0.000000  -0.000000   0.000000   0.000000   0.000000
    18  C    0.527552  -0.059734  -0.006596  -0.000102  -0.000120   0.000055
    19  C    4.864479   0.349760  -0.033342  -0.017367   0.006604  -0.000322
    20  C    0.349760   5.014771   0.359411   0.008542  -0.000074   0.000003
    21  C   -0.033342   0.359411   4.924103  -0.000324  -0.000004   0.000000
    22  H   -0.017367   0.008542  -0.000324   0.435768  -0.027653  -0.000098
[...]
   234    C   16  pz     Val( 2p)     1.16608
   235    C   16  pz     Ryd( 3p)     0.00486
   236    C   16  dxy    Ryd( 3d)     0.00053
   237    C   16  dxz    Ryd( 3d)     0.00053
   238    C   16  dyz    Ryd( 3d)     0.00056
   239    C   16  dx2y2  Ryd( 3d)     0.00054
   240    C   16  dz2    Ryd( 3d)     0.00047

   241    N   17  S      Cor( 1S)     1.99949
   242    N   17  S      Val( 2S)     1.37035
   243    N   17  S      Ryd( 3S)     0.00018
   244    N   17  S      Ryd( 4S)     0.00001
   245    N   17  px     Val( 2p)     1.35397
   246    N   17  px     Ryd( 3p)     0.00203
   247    N   17  py     Val( 2p)     1.49412
   248    N   17  py     Ryd( 3p)     0.00209
   249    N   17  pz     Val( 2p)     1.52207
   250    N   17  pz     Ryd( 3p)     0.00292
   251    N   17  dxy    Ryd( 3d)     0.00042
   252    N   17  dxz    Ryd( 3d)     0.00087
   253    N   17  dyz    Ryd( 3d)     0.00073
   254    N   17  dx2y2  Ryd( 3d)     0.00068
   255    N   17  dz2    Ryd( 3d)     0.00064

   256    C   18  S      Cor( 1S)     1.99898
   257    C   18  S      Val( 2S)     0.93763
   258    C   18  S      Ryd( 3S)     0.00066
   259    C   18  S      Ryd( 4S)     0.00006
   260    C   18  px     Val( 2p)     1.12512
   261    C   18  px     Ryd( 3p)     0.00336
   262    C   18  py     Val( 2p)     1.13060
   263    C   18  py     Ryd( 3p)     0.00341
   264    C   18  pz     Val( 2p)     1.02271
   265    C   18  pz     Ryd( 3p)     0.00142
   266    C   18  dxy    Ryd( 3d)     0.00074
   267    C   18  dxz    Ryd( 3d)     0.00041
   268    C   18  dyz    Ryd( 3d)     0.00042
   269    C   18  dx2y2  Ryd( 3d)     0.00052
   270    C   18  dz2    Ryd( 3d)     0.00059

   271    C   19  S      Cor( 1S)     1.99899
   272    C   19  S      Val( 2S)     0.87057
   273    C   19  S      Ryd( 3S)     0.00058
   274    C   19  S      Ryd( 4S)     0.00005
   275    C   19  px     Val( 2p)     1.07590
   276    C   19  px     Ryd( 3p)     0.00421
   277    C   19  py     Val( 2p)     1.05579
   278    C   19  py     Ryd( 3p)     0.00422
   279    C   19  pz     Val( 2p)     1.04749
   280    C   19  pz     Ryd( 3p)     0.00261
   281    C   19  dxy    Ryd( 3d)     0.00077
   282    C   19  dxz    Ryd( 3d)     0.00044
   283    C   19  dyz    Ryd( 3d)     0.00052
   284    C   19  dx2y2  Ryd( 3d)     0.00052
   285    C   19  dz2    Ryd( 3d)     0.00060

   286    C   20  S      Cor( 1S)     1.99930
   287    C   20  S      Val( 2S)     1.02864
   288    C   20  S      Ryd( 3S)     0.00089
   289    C   20  S      Ryd( 4S)     0.00002
   290    C   20  px     Val( 2p)     1.16448
   291    C   20  px     Ryd( 3p)     0.00208
   292    C   20  py     Val( 2p)     1.06659
   293    C   20  py     Ryd( 3p)     0.00190
   294    C   20  pz     Val( 2p)     1.21830
   295    C   20  pz     Ryd( 3p)     0.00146
   296    C   20  dxy    Ryd( 3d)     0.00067
   297    C   20  dxz    Ryd( 3d)     0.00047
   298    C   20  dyz    Ryd( 3d)     0.00055
   299    C   20  dx2y2  Ryd( 3d)     0.00069
   300    C   20  dz2    Ryd( 3d)     0.00087

   301    C   21  S      Cor( 1S)     1.99948
   302    C   21  S      Val( 2S)     1.10113
   303    C   21  S      Ryd( 3S)     0.00033
   304    C   21  S      Ryd( 4S)     0.00001
   305    C   21  px     Val( 2p)     1.15523
   306    C   21  px     Ryd( 3p)     0.00114
   307    C   21  py     Val( 2p)     1.17827
   308    C   21  py     Ryd( 3p)     0.00190
   309    C   21  pz     Val( 2p)     1.24904
   310    C   21  pz     Ryd( 3p)     0.00135
   311    C   21  dxy    Ryd( 3d)     0.00059
   312    C   21  dxz    Ryd( 3d)     0.00043
   313    C   21  dyz    Ryd( 3d)     0.00049
   314    C   21  dx2y2  Ryd( 3d)     0.00057
   315    C   21  dz2    Ryd( 3d)     0.00069

   316    H   22  S      Val( 1S)     0.57848
   317    H   22  S      Ryd( 2S)     0.00097
   318    H   22  px     Ryd( 2p)     0.00026
   319    H   22  py     Ryd( 2p)     0.00057
   320    H   22  pz     Ryd( 2p)     0.00044

   321    H   23  S      Val( 1S)     0.57850
   322    H   23  S      Ryd( 2S)     0.00093
   323    H   23  px     Ryd( 2p)     0.00047
   324    H   23  py     Ryd( 2p)     0.00034
   325    H   23  pz     Ryd( 2p)     0.00045

   326    H   24  S      Val( 1S)     0.74830
   327    H   24  S      Ryd( 2S)     0.00129
   328    H   24  px     Ryd( 2p)     0.00010
   329    H   24  py     Ryd( 2p)     0.00010
   330    H   24  pz     Ryd( 2p)     0.00033

   331    H   25  S      Val( 1S)     0.75319
   332    H   25  S      Ryd( 2S)     0.00117
   333    H   25  px     Ryd( 2p)     0.00029
   334    H   25  py     Ryd( 2p)     0.00010
   335    H   25  pz     Ryd( 2p)     0.00015

   336    H   26  S      Val( 1S)     0.74500
   337    H   26  S      Ryd( 2S)     0.00068
   338    H   26  px     Ryd( 2p)     0.00009
   339    H   26  py     Ryd( 2p)     0.00027
   340    H   26  pz     Ryd( 2p)     0.00013

   341    H   27  S      Val( 1S)     0.75928
   342    H   27  S      Ryd( 2S)     0.00111
   343    H   27  px     Ryd( 2p)     0.00007
   344    H   27  py     Ryd( 2p)     0.00035
   345    H   27  pz     Ryd( 2p)     0.00017

   346    H   28  S      Val( 1S)     0.74115
   347    H   28  S      Ryd( 2S)     0.00207
   348    H   28  px     Ryd( 2p)     0.00010
   349    H   28  py     Ryd( 2p)     0.00030
   350    H   28  pz     Ryd( 2p)     0.00015

   351    H   29  S      Val( 1S)     0.74294
   352    H   29  S      Ryd( 2S)     0.00146
   353    H   29  px     Ryd( 2p)     0.00010
   354    H   29  py     Ryd( 2p)     0.00019
   355    H   29  pz     Ryd( 2p)     0.00026

   356    H   30  S      Val( 1S)     0.77434
   357    H   30  S      Ryd( 2S)     0.00127
   358    H   30  px     Ryd( 2p)     0.00026
   359    H   30  py     Ryd( 2p)     0.00027
   360    H   30  pz     Ryd( 2p)     0.00013

   361    H   31  S      Val( 1S)     0.76974
   362    H   31  S      Ryd( 2S)     0.00176
   363    H   31  px     Ryd( 2p)     0.00024
   364    H   31  py     Ryd( 2p)     0.00021
   365    H   31  pz     Ryd( 2p)     0.00012

   366    H   32  S      Val( 1S)     0.76345
   367    H   32  S      Ryd( 2S)     0.00194
   368    H   32  px     Ryd( 2p)     0.00009
   369    H   32  py     Ryd( 2p)     0.00017
   370    H   32  pz     Ryd( 2p)     0.00029

   371    H   33  S      Val( 1S)     0.75235
   372    H   33  S      Ryd( 2S)     0.00078
   373    H   33  px     Ryd( 2p)     0.00025
   374    H   33  py     Ryd( 2p)     0.00017
   375    H   33  pz     Ryd( 2p)     0.00008

   376    H   34  S      Val( 1S)     0.75383
   377    H   34  S      Ryd( 2S)     0.00210
   378    H   34  px     Ryd( 2p)     0.00009
   379    H   34  py     Ryd( 2p)     0.00012
   380    H   34  pz     Ryd( 2p)     0.00032

   381    H   35  S      Val( 1S)     0.77164
   382    H   35  S      Ryd( 2S)     0.00198
   383    H   35  px     Ryd( 2p)     0.00032
   384    H   35  py     Ryd( 2p)     0.00015
   385    H   35  pz     Ryd( 2p)     0.00012

   386    H   36  S      Val( 1S)     0.76801
   387    H   36  S      Ryd( 2S)     0.00118
   388    H   36  px     Ryd( 2p)     0.00030
   389    H   36  py     Ryd( 2p)     0.00014
   390    H   36  pz     Ryd( 2p)     0.00009

   391    H   37  S      Val( 1S)     0.76961
   392    H   37  S      Ryd( 2S)     0.00141
   393    H   37  px     Ryd( 2p)     0.00010
   394    H   37  py     Ryd( 2p)     0.00011
   395    H   37  pz     Ryd( 2p)     0.00032

   396    H   38  S      Val( 1S)     0.77009
   397    H   38  S      Ryd( 2S)     0.00234
   398    H   38  px     Ryd( 2p)     0.00021
   399    H   38  py     Ryd( 2p)     0.00020
   400    H   38  pz     Ryd( 2p)     0.00010

   401    H   39  S      Val( 1S)     0.77585
   402    H   39  S      Ryd( 2S)     0.00117
   403    H   39  px     Ryd( 2p)     0.00009
   404    H   39  py     Ryd( 2p)     0.00026
   405    H   39  pz     Ryd( 2p)     0.00030

   406    H   40  S      Val( 1S)     0.57598
   407    H   40  S      Ryd( 2S)     0.00101
   408    H   40  px     Ryd( 2p)     0.00047
   409    H   40  py     Ryd( 2p)     0.00036
   410    H   40  pz     Ryd( 2p)     0.00042

   411    H   41  S      Val( 1S)     0.57376
   412    H   41  S      Ryd( 2S)     0.00120
   413    H   41  px     Ryd( 2p)     0.00026
   414    H   41  py     Ryd( 2p)     0.00059
   415    H   41  pz     Ryd( 2p)     0.00040

   416    H   42  S      Val( 1S)     0.75609
   417    H   42  S      Ryd( 2S)     0.00215
   418    H   42  px     Ryd( 2p)     0.00026
   419    H   42  py     Ryd( 2p)     0.00023
   420    H   42  pz     Ryd( 2p)     0.00011

   421    H   43  S      Val( 1S)     0.75431
   422    H   43  S      Ryd( 2S)     0.00178
   423    H   43  px     Ryd( 2p)     0.00027
   424    H   43  py     Ryd( 2p)     0.00017
   425    H   43  pz     Ryd( 2p)     0.00014

   426    H   44  S      Val( 1S)     0.74765
   427    H   44  S      Ryd( 2S)     0.00204
   428    H   44  px     Ryd( 2p)     0.00010
   429    H   44  py     Ryd( 2p)     0.00011
   430    H   44  pz     Ryd( 2p)     0.00036

   431    H   45  S      Val( 1S)     0.75341
   432    H   45  S      Ryd( 2S)     0.00070
   433    H   45  px     Ryd( 2p)     0.00010
   434    H   45  py     Ryd( 2p)     0.00028
   435    H   45  pz     Ryd( 2p)     0.00014

   436    H   46  S      Val( 1S)     0.76282
   437    H   46  S      Ryd( 2S)     0.00112
   438    H   46  px     Ryd( 2p)     0.00028
   439    H   46  py     Ryd( 2p)     0.00011
   440    H   46  pz     Ryd( 2p)     0.00014

   441    H   47  S      Val( 1S)     0.76375
   442    H   47  S      Ryd( 2S)     0.00103
   443    H   47  px     Ryd( 2p)     0.00009
   444    H   47  py     Ryd( 2p)     0.00011
   445    H   47  pz     Ryd( 2p)     0.00032

 WARNING:  1 low occupancy (<1.9990e) core orbital  found on  C    2
           1 low occupancy (<1.9990e) core orbital  found on  C    3
           1 low occupancy (<1.9990e) core orbital  found on  C    5
           1 low occupancy (<1.9990e) core orbital  found on  C    6
           1 low occupancy (<1.9990e) core orbital  found on  C    9
           1 low occupancy (<1.9990e) core orbital  found on  C   12
           1 low occupancy (<1.9990e) core orbital  found on  C   13
           1 low occupancy (<1.9990e) core orbital  found on  C   16
           1 low occupancy (<1.9990e) core orbital  found on  C   18
           1 low occupancy (<1.9990e) core orbital  found on  C   19


 Summary of Natural Population Analysis:                  
                                                          
                                       Natural Population 
                Natural  -----------------------------------------------
    Atom  No    Charge         Core      Valence    Rydberg      Total
 -----------------------------------------------------------------------
      N    1   -0.83313      1.99951     5.82223    0.01139     7.83313
      C    2    0.18405      1.99886     3.80093    0.01616     5.81595
      C    3   -0.05094      1.99899     4.03814    0.01382     6.05094
      C    4   -0.71580      1.99940     4.70897    0.00743     6.71580
      C    5   -0.24464      1.99898     4.23349    0.01218     6.24464
      C    6   -0.02918      1.99900     4.01279    0.01739     6.02918
      C    7   -0.48970      1.99921     4.47622    0.01426     6.48970
      C    8    0.03694      1.99901     3.94676    0.01729     5.96306
      C    9   -0.32290      1.99899     4.30714    0.01676     6.32290
      C   10   -0.13227      1.99900     4.11587    0.01739     6.13227
      C   11   -0.70877      1.99942     4.70182    0.00753     6.70877
      C   12    0.19708      1.99885     3.78694    0.01713     5.80292
      C   13   -0.11632      1.99899     4.09792    0.01941     6.11632
      C   14   -0.47975      1.99931     4.46841    0.01203     6.47975
      C   15   -0.68002      1.99945     4.67379    0.00677     6.68002
      C   16   -0.33926      1.99900     4.32259    0.01768     6.33926
      N   17   -0.75056      1.99949     5.74051    0.01057     7.75056
      C   18   -0.22664      1.99898     4.21607    0.01159     6.22664
      C   19   -0.06325      1.99899     4.04975    0.01451     6.06325
      C   20   -0.48692      1.99930     4.47800    0.00961     6.48692
      C   21   -0.69066      1.99948     4.68367    0.00751     6.69066
      H   22    0.41928      0.00000     0.57848    0.00224     0.58072
      H   23    0.41930      0.00000     0.57850    0.00219     0.58070
      H   24    0.24988      0.00000     0.74830    0.00182     0.75012
      H   25    0.24510      0.00000     0.75319    0.00171     0.75490
      H   26    0.25383      0.00000     0.74500    0.00117     0.74617
      H   27    0.23902      0.00000     0.75928    0.00170     0.76098
      H   28    0.25623      0.00000     0.74115    0.00262     0.74377
      H   29    0.25506      0.00000     0.74294    0.00201     0.74494
      H   30    0.22373      0.00000     0.77434    0.00193     0.77627
      H   31    0.22793      0.00000     0.76974    0.00232     0.77207
      H   32    0.23406      0.00000     0.76345    0.00248     0.76594
      H   33    0.24637      0.00000     0.75235    0.00128     0.75363
      H   34    0.24354      0.00000     0.75383    0.00263     0.75646
      H   35    0.22580      0.00000     0.77164    0.00256     0.77420
      H   36    0.23028      0.00000     0.76801    0.00170     0.76972
      H   37    0.22845      0.00000     0.76961    0.00194     0.77155
      H   38    0.22705      0.00000     0.77009    0.00286     0.77295
      H   39    0.22233      0.00000     0.77585    0.00182     0.77767
      H   40    0.42177      0.00000     0.57598    0.00226     0.57823
      H   41    0.42379      0.00000     0.57376    0.00245     0.57621
      H   42    0.24115      0.00000     0.75609    0.00276     0.75885
      H   43    0.24332      0.00000     0.75431    0.00237     0.75668
      H   44    0.24974      0.00000     0.74765    0.00261     0.75026
      H   45    0.24537      0.00000     0.75341    0.00121     0.75463
      H   46    0.23553      0.00000     0.76282    0.00165     0.76447
      H   47    0.23469      0.00000     0.76375    0.00156     0.76531
 =======================================================================
   * Total *   -0.00000     41.98221   111.68554    0.33224   154.00000

                                 Natural Population      
 --------------------------------------------------------
   Core                      41.98221 ( 99.9577% of  42)
   Valence                  111.68554 ( 99.7192% of 112)
   Natural Minimal Basis    153.66776 ( 99.7843% of 154)
   Natural Rydberg Basis      0.33224 (  0.2157% of 154)
 --------------------------------------------------------

    Atom  No          Natural Electron Configuration
 ----------------------------------------------------------------------------
      N    1      [core]2S( 1.36)2p( 4.46)3p( 0.01)
      C    2      [core]2S( 0.83)2p( 2.97)3p( 0.01)
      C    3      [core]2S( 0.88)2p( 3.16)3p( 0.01)
      C    4      [core]2S( 1.10)2p( 3.61)
      C    5      [core]2S( 0.94)2p( 3.29)3p( 0.01)
      C    6      [core]2S( 0.88)2p( 3.14)3p( 0.01)
      C    7      [core]2S( 1.02)2p( 3.45)3p( 0.01)
      C    8      [core]2S( 0.88)2p( 3.07)3p( 0.01)
      C    9      [core]2S( 0.93)2p( 3.38)3p( 0.01)
      C   10      [core]2S( 0.86)2p( 3.25)3p( 0.01)
      C   11      [core]2S( 1.10)2p( 3.61)
      C   12      [core]2S( 0.84)2p( 2.95)3p( 0.01)3d( 0.01)
      C   13      [core]2S( 0.86)2p( 3.23)3p( 0.02)
      C   14      [core]2S( 1.03)2p( 3.44)3p( 0.01)
      C   15      [core]2S( 1.11)2p( 3.56)
      C   16      [core]2S( 0.93)2p( 3.39)3p( 0.01)
      N   17      [core]2S( 1.37)2p( 4.37)3p( 0.01)
      C   18      [core]2S( 0.94)2p( 3.28)3p( 0.01)
      C   19      [core]2S( 0.87)2p( 3.18)3p( 0.01)
      C   20      [core]2S( 1.03)2p( 3.45)3p( 0.01)
      C   21      [core]2S( 1.10)2p( 3.58)
      H   22            1S( 0.58)
      H   23            1S( 0.58)
      H   24            1S( 0.75)
      H   25            1S( 0.75)
      H   26            1S( 0.75)
      H   27            1S( 0.76)
      H   28            1S( 0.74)
      H   29            1S( 0.74)
      H   30            1S( 0.77)
      H   31            1S( 0.77)
      H   32            1S( 0.76)
      H   33            1S( 0.75)
      H   34            1S( 0.75)
      H   35            1S( 0.77)
      H   36            1S( 0.77)
      H   37            1S( 0.77)
      H   38            1S( 0.77)
      H   39            1S( 0.78)
      H   40            1S( 0.58)
      H   41            1S( 0.57)
      H   42            1S( 0.76)
      H   43            1S( 0.75)
      H   44            1S( 0.75)
      H   45            1S( 0.75)
      H   46            1S( 0.76)
      H   47            1S( 0.76)


 NBO analysis skipped by request.
 1\1\GINC-DRG2-W002\SP\RB3LYP TD-FC\6-31G(d,p)\C19H26N2\QDUEZ\18-Jul-20
 24\0\\# TD(NStates=10, Root=1) B3LYP/6-31G** SCRF=(Solvent=water) volu
 me pop=NPA density=current Geom=AllCheck Guess=Read\\QJENIOQDYXRGLF-UH
 FFFAOYSA-N_conf_2\\0,1\N,0,4.8000555442,-1.6893975543,-0.2380255619\C,
 0,3.6815120608,-0.930508862,-0.6145676768\C,0,3.2208910591,-0.97205861
 08,-1.947248272\C,0,3.9606233968,-1.7813083537,-2.9856373357\C,0,2.067
 0355095,-0.2569663993,-2.2877504678\C,0,1.3543197132,0.4949993538,-1.3
 521858224\C,0,0.1063840444,1.2707958374,-1.7454344316\C,0,-1.169464819
 ,0.8042099809,-1.0616265039\C,0,-1.6750397977,-0.4844826591,-1.2751482
 873\C,0,-2.8485699372,-0.9335286086,-0.6693994887\C,0,-3.3609774332,-2
 .3313381132,-0.9214688444\C,0,-3.555817303,-0.0631568239,0.1955430943\
 C,0,-3.0650150705,1.2395280545,0.4342679193\C,0,-3.7721930765,2.189370
 9767,1.3806122262\C,0,-3.5396542536,1.8688461083,2.8691249436\C,0,-1.8
 842328747,1.6419180085,-0.2029340279\N,0,-4.7037060867,-0.5321927233,0
 .8539972562\C,0,1.8283804209,0.5139782617,-0.033206961\C,0,2.973692410
 7,-0.1802223293,0.3585424993\C,0,3.4845763388,-0.1678111776,1.78887647
 69\C,0,2.6482557104,0.6125139125,2.8057159953\H,0,5.3073603855,-1.3292
 052632,0.5596549939\H,0,5.440362351,-1.894483417,-0.9940388121\H,0,4.0
 29773126,-2.8397912142,-2.7042581729\H,0,4.9898088034,-1.4246637812,-3
 .1310485129\H,0,3.458253954,-1.7259943222,-3.9544150617\H,0,1.72255125
 98,-0.2898886777,-3.3196254472\H,0,-0.0142453325,1.2028924771,-2.83398
 56068\H,0,0.2489516022,2.335489864,-1.5212846728\H,0,-1.137918599,-1.1
 64158701,-1.9337110884\H,0,-4.3471702522,-2.3287010961,-1.4061635795\H
 ,0,-3.4699728119,-2.8972921947,0.012129419\H,0,-2.6809015348,-2.885263
 9269,-1.5729549554\H,0,-3.427299715,3.2088743737,1.1767774422\H,0,-4.8
 531262434,2.1995037372,1.1791145153\H,0,-2.4742558551,1.9275383432,3.1
 138667702\H,0,-3.8846968159,0.8608125601,3.1179366482\H,0,-4.074662561
 9,2.5780532435,3.5092922765\H,0,-1.5191779116,2.6512795239,-0.02137340
 14\H,0,-5.3372374621,0.1945204053,1.1614219098\H,0,-5.213380917,-1.244
 3042751,0.3464238637\H,0,1.2786734031,1.0869670817,0.7074290563\H,0,4.
 5089164273,0.2368939545,1.8010651533\H,0,3.5855299967,-1.2068504702,2.
 1343986435\H,0,3.1038199808,0.5435273906,3.7979037206\H,0,1.6298208678
 ,0.2175428677,2.8781914339\H,0,2.5791682981,1.6735132376,2.5452067353\
 \Version=ES64L-G16RevA.03\State=1-A\HF=-849.2712099\RMSD=2.793e-09\Dip
 ole=1.0221137,-0.4228764,0.1173059\Quadrupole=24.896024,-14.2859984,-1
 0.6100256,-1.5842051,-3.6426534,3.2340339\PG=C01 [X(C19H26N2)]\\@


 WHAT THE SLIME CONTAINS, THE GLOWING REVEALS
 BY THE FLAME'S BRIGHT HUE WHEN YOU IGNITE IT.
   --  LEONARD THURNEYSSER, 1531-1596
 DESCRIBING HIS FLAME PHOTOLYSIS ANALYTIC METHOD
 Job cpu time:       0 days  2 hours  6 minutes 18.0 seconds.
 Elapsed time:       0 days  0 hours 42 minutes 12.8 seconds.
 File lengths (MBytes):  RWF=   1540 Int=      0 D2E=      0 Chk=     98 Scr=      1
 Normal termination of Gaussian 16 at Thu Jul 18 20:52:06 2024.
