 Entering Gaussian System, Link 0=g16
 Initial command:
 /opt/sw/arch/manual/gaussian/G16_A03/g16/l1.exe "/scratch/1380967/Gau-186372.inp" -scrdir="/scratch/1380967/"
 Entering Link 1 = /opt/sw/arch/manual/gaussian/G16_A03/g16/l1.exe PID=    186373.
  
 Copyright (c) 1988,1990,1992,1993,1995,1998,2003,2009,2016,
            Gaussian, Inc.  All Rights Reserved.
  
 This is part of the Gaussian(R) 16 program.  It is based on
 the Gaussian(R) 09 system (copyright 2009, Gaussian, Inc.),
 the Gaussian(R) 03 system (copyright 2003, Gaussian, Inc.),
 the Gaussian(R) 98 system (copyright 1998, Gaussian, Inc.),
 the Gaussian(R) 94 system (copyright 1995, Gaussian, Inc.),
 the Gaussian 92(TM) system (copyright 1992, Gaussian, Inc.),
 the Gaussian 90(TM) system (copyright 1990, Gaussian, Inc.),
 the Gaussian 88(TM) system (copyright 1988, Gaussian, Inc.),
 the Gaussian 86(TM) system (copyright 1986, Carnegie Mellon
 University), and the Gaussian 82(TM) system (copyright 1983,
 Carnegie Mellon University). Gaussian is a federally registered
 trademark of Gaussian, Inc.
  
 This software contains proprietary and confidential information,
 including trade secrets, belonging to Gaussian, Inc.
  
 This software is provided under written license and may be
 used, copied, transmitted, or stored only in accord with that
 written license.
  
 The following legend is applicable only to US Government
 contracts under FAR:
  
                    RESTRICTED RIGHTS LEGEND
  
 Use, reproduction and disclosure by the US Government is
 subject to restrictions as set forth in subparagraphs (a)
 and (c) of the Commercial Computer Software - Restricted
 Rights clause in FAR 52.227-19.
  
 Gaussian, Inc.
 340 Quinnipiac St., Bldg. 40, Wallingford CT 06492
  
  
 ---------------------------------------------------------------
 Warning -- This program may not be used in any manner that
 competes with the business of Gaussian, Inc. or will provide
 assistance to any competitor of Gaussian, Inc.  The licensee
 of this program is prohibited from giving any competitor of
 Gaussian, Inc. access to this program.  By using this program,
 the user acknowledges that Gaussian, Inc. is engaged in the
 business of creating and licensing software in the field of
 computational chemistry and represents and warrants to the
 licensee that it is not a competitor of Gaussian, Inc. and that
 it will not use this program in any manner prohibited above.
 ---------------------------------------------------------------
  

 Cite this work as:
 Gaussian 16, Revision A.03,
 M. J. Frisch, G. W. Trucks, H. B. Schlegel, G. E. Scuseria, 
 M. A. Robb, J. R. Cheeseman, G. Scalmani, V. Barone, 
 G. A. Petersson, H. Nakatsuji, X. Li, M. Caricato, A. V. Marenich, 
 J. Bloino, B. G. Janesko, R. Gomperts, B. Mennucci, H. P. Hratchian, 
 J. V. Ortiz, A. F. Izmaylov, J. L. Sonnenberg, D. Williams-Young, 
 F. Ding, F. Lipparini, F. Egidi, J. Goings, B. Peng, A. Petrone, 
 T. Henderson, D. Ranasinghe, V. G. Zakrzewski, J. Gao, N. Rega, 
 G. Zheng, W. Liang, M. Hada, M. Ehara, K. Toyota, R. Fukuda, 
 J. Hasegawa, M. Ishida, T. Nakajima, Y. Honda, O. Kitao, H. Nakai, 
 T. Vreven, K. Throssell, J. A. Montgomery, Jr., J. E. Peralta, 
 F. Ogliaro, M. J. Bearpark, J. J. Heyd, E. N. Brothers, K. N. Kudin, 
 V. N. Staroverov, T. A. Keith, R. Kobayashi, J. Normand, 
 K. Raghavachari, A. P. Rendell, J. C. Burant, S. S. Iyengar, 
 J. Tomasi, M. Cossi, J. M. Millam, M. Klene, C. Adamo, R. Cammi, 
 J. W. Ochterski, R. L. Martin, K. Morokuma, O. Farkas, 
 J. B. Foresman, and D. J. Fox, Gaussian, Inc., Wallingford CT, 2016.
 
 ******************************************
 Gaussian 16:  ES64L-G16RevA.03 25-Dec-2016
                18-Jul-2024 
 ******************************************
 %nprocshared=7
 Will use up to    7 processors via shared memory.
 %mem=14GB
 %Chk=QJENIOQDYXRGLF-UHFFFAOYSA-N_conf_1_0.chk
 -------------------------------------------------------
 # opt=CalcFc B3LYP/6-31G** SCRF=(Solvent=water) scf=xqc
 -------------------------------------------------------
 1/10=4,18=20,19=15,26=3,38=1/1,3;
 2/9=110,12=2,17=6,18=5,40=1/2;
 3/5=1,6=6,7=101,11=2,25=1,30=1,70=2201,71=2,72=1,74=-5,140=1/1,2,3;
 4//1;
 5/5=2,8=3,13=1,38=5,53=1/2,8;
 8/6=4,10=90,11=11/1;
 11/6=1,8=1,9=11,15=111,16=1/1,2,10;
 10/6=1,13=1/2;
 6/7=2,8=2,9=2,10=2,28=1/1;
 7/10=1,18=20,25=1/1,2,3,16;
 1/10=4,18=20,19=15,26=3/3(2);
 2/9=110/2;
 99//99;
 2/9=110/2;
 3/5=1,6=6,7=101,11=2,25=1,30=1,70=2205,71=1,72=1,74=-5/1,2,3;
 4/5=5,16=3,69=1/1;
 5/5=2,8=3,13=1,38=5,53=1/2,8;
 7//1,2,3,16;
 1/18=20,19=15,26=3/3(-5);
 2/9=110/2;
 6/7=2,8=2,9=2,10=2,19=2,28=1/1;
 99/9=1/99;
 ----------------------------------
 QJENIOQDYXRGLF-UHFFFAOYSA-N_conf_1
 ----------------------------------
 Symbolic Z-matrix:
 Charge =  0 Multiplicity = 1
 N                    -4.69079  -0.86401  -1.18976 
 C                    -3.5933   -0.28437  -0.5246 
 C                    -2.91636  -1.01018   0.47933 
 C                    -3.40075  -2.35845   0.94264 
 C                    -1.76933  -0.46787   1.08379 
 C                    -1.2455    0.76165   0.67305 
 C                    -0.01171   1.33557   1.3321 
 C                     1.24744   0.53115   1.10216 
 C                     1.87998  -0.12412   2.16238 
 C                     3.05367  -0.8714    1.96045 
 C                     3.66343  -1.58285   3.13935 
 C                     3.64189  -0.92759   0.67794 
 C                     2.96825  -0.33079  -0.40936 
 C                     3.46727  -0.43306  -1.83436 
 C                     4.49026   0.64588  -2.15823 
 C                     1.79667   0.41453  -0.17831 
 N                     4.76584  -1.7464    0.45705 
 C                    -1.87912   1.44252  -0.37029 
 C                    -3.02952   0.92203  -0.99354 
 C                    -3.63105   1.71306  -2.13541 
 C                    -4.71684   2.66525  -1.65641 
 H                    -5.30698  -0.1897   -1.62812 
 H                    -5.20872  -1.52555  -0.62243 
 H                    -2.70968  -2.81089   1.66204 
 H                    -4.37447  -2.26091   1.43388 
 H                    -3.48319  -3.04832   0.09625 
 H                    -1.26469  -1.02201   1.87358 
 H                     0.16872   2.36007   0.98039 
 H                    -0.21251   1.43364   2.4074 
 H                     1.4487   -0.06446   3.15984 
 H                     3.03711  -1.49488   4.03341 
 H                     3.77393  -2.65087   2.92592 
 H                     4.64173  -1.15255   3.3754 
 H                     3.88902  -1.4271   -2.02222 
 H                     2.62116  -0.34623  -2.52831 
 H                     4.82365   0.54994  -3.1962 
 H                     5.37072   0.57431  -1.51126 
 H                     4.0631    1.64649  -2.03127 
 H                     1.29523   0.89574  -1.01686 
 H                     5.3107   -1.48333  -0.35605 
 H                     5.35268  -1.86875   1.27477 
 H                    -1.46787   2.38885  -0.71804 
 H                    -4.0272    1.03842  -2.90286 
 H                    -2.84368   2.28791  -2.63962 
 H                    -5.12806   3.22551  -2.50202 
 H                    -5.53994   2.12798  -1.17399 
 H                    -4.31991   3.38615  -0.9336 
 

 GradGradGradGradGradGradGradGradGradGradGradGradGradGradGradGradGradGrad
 Berny optimization.
 Initialization pass.
                           ----------------------------
                           !    Initial Parameters    !
                           ! (Angstroms and Degrees)  !
 --------------------------                            --------------------------
 ! Name  Definition              Value          Derivative Info.                !
 --------------------------------------------------------------------------------
 ! R1    R(1,2)                  1.4082         calculate D2E/DX2 analytically  !
 ! R2    R(1,22)                 1.0132         calculate D2E/DX2 analytically  !
 ! R3    R(1,23)                 1.0138         calculate D2E/DX2 analytically  !
 ! R4    R(2,3)                  1.4117         calculate D2E/DX2 analytically  !
 ! R5    R(2,19)                 1.4118         calculate D2E/DX2 analytically  !
 ! R6    R(3,4)                  1.5057         calculate D2E/DX2 analytically  !
 ! R7    R(3,5)                  1.4054         calculate D2E/DX2 analytically  !
 ! R8    R(4,24)                 1.0954         calculate D2E/DX2 analytically  !
 ! R9    R(4,25)                 1.095          calculate D2E/DX2 analytically  !
 ! R10   R(4,26)                 1.095          calculate D2E/DX2 analytically  !
 ! R11   R(5,6)                  1.3982         calculate D2E/DX2 analytically  !
 ! R12   R(5,27)                 1.0888         calculate D2E/DX2 analytically  !
 ! R13   R(6,7)                  1.5119         calculate D2E/DX2 analytically  !
 ! R14   R(6,18)                 1.3977         calculate D2E/DX2 analytically  !
 ! R15   R(7,8)                  1.5118         calculate D2E/DX2 analytically  !
 ! R16   R(7,28)                 1.0981         calculate D2E/DX2 analytically  !
 ! R17   R(7,29)                 1.0983         calculate D2E/DX2 analytically  !
 ! R18   R(8,9)                  1.3977         calculate D2E/DX2 analytically  !
 ! R19   R(8,16)                 1.3982         calculate D2E/DX2 analytically  !
 ! R20   R(9,10)                 1.406          calculate D2E/DX2 analytically  !
 ! R21   R(9,30)                 1.0883         calculate D2E/DX2 analytically  !
 ! R22   R(10,11)                1.5059         calculate D2E/DX2 analytically  !
 ! R23   R(10,12)                1.4121         calculate D2E/DX2 analytically  !
 ! R24   R(11,31)                1.0952         calculate D2E/DX2 analytically  !
 ! R25   R(11,32)                1.0947         calculate D2E/DX2 analytically  !
 ! R26   R(11,33)                1.0945         calculate D2E/DX2 analytically  !
 ! R27   R(12,13)                1.4115         calculate D2E/DX2 analytically  !
 ! R28   R(12,17)                1.408          calculate D2E/DX2 analytically  !
 ! R29   R(13,14)                1.5133         calculate D2E/DX2 analytically  !
 ! R30   R(13,16)                1.4076         calculate D2E/DX2 analytically  !
 ! R31   R(14,15)                1.5217         calculate D2E/DX2 analytically  !
 ! R32   R(14,34)                1.096          calculate D2E/DX2 analytically  !
 ! R33   R(14,35)                1.0977         calculate D2E/DX2 analytically  !
 ! R34   R(15,36)                1.0944         calculate D2E/DX2 analytically  !
 ! R35   R(15,37)                1.0949         calculate D2E/DX2 analytically  !
 ! R36   R(15,38)                1.0954         calculate D2E/DX2 analytically  !
 ! R37   R(16,39)                1.0891         calculate D2E/DX2 analytically  !
 ! R38   R(17,40)                1.0135         calculate D2E/DX2 analytically  !
 ! R39   R(17,41)                1.0139         calculate D2E/DX2 analytically  !
 ! R40   R(18,19)                1.4081         calculate D2E/DX2 analytically  !
 ! R41   R(18,42)                1.0889         calculate D2E/DX2 analytically  !
 ! R42   R(19,20)                1.5137         calculate D2E/DX2 analytically  !
 ! R43   R(20,21)                1.5215         calculate D2E/DX2 analytically  !
 ! R44   R(20,43)                1.0959         calculate D2E/DX2 analytically  !
 ! R45   R(20,44)                1.0976         calculate D2E/DX2 analytically  !
 ! R46   R(21,45)                1.0945         calculate D2E/DX2 analytically  !
 ! R47   R(21,46)                1.0949         calculate D2E/DX2 analytically  !
 ! R48   R(21,47)                1.0953         calculate D2E/DX2 analytically  !
 ! A1    A(2,1,22)             113.8541         calculate D2E/DX2 analytically  !
 ! A2    A(2,1,23)             113.7317         calculate D2E/DX2 analytically  !
 ! A3    A(22,1,23)            111.4508         calculate D2E/DX2 analytically  !
 ! A4    A(1,2,3)              119.8681         calculate D2E/DX2 analytically  !
 ! A5    A(1,2,19)             120.4034         calculate D2E/DX2 analytically  !
 ! A6    A(3,2,19)             118.9512         calculate D2E/DX2 analytically  !
 ! A7    A(2,3,4)              121.6643         calculate D2E/DX2 analytically  !
 ! A8    A(2,3,5)              119.9226         calculate D2E/DX2 analytically  !
 ! A9    A(4,3,5)              118.4082         calculate D2E/DX2 analytically  !
 ! A10   A(3,4,24)             111.6536         calculate D2E/DX2 analytically  !
 ! A11   A(3,4,25)             110.1428         calculate D2E/DX2 analytically  !
 ! A12   A(3,4,26)             110.5191         calculate D2E/DX2 analytically  !
 ! A13   A(24,4,25)            107.6491         calculate D2E/DX2 analytically  !
 ! A14   A(24,4,26)            107.1525         calculate D2E/DX2 analytically  !
 ! A15   A(25,4,26)            109.6292         calculate D2E/DX2 analytically  !
 ! A16   A(3,5,6)              121.2495         calculate D2E/DX2 analytically  !
 ! A17   A(3,5,27)             119.5949         calculate D2E/DX2 analytically  !
 ! A18   A(6,5,27)             119.1441         calculate D2E/DX2 analytically  !
 ! A19   A(5,6,7)              120.7631         calculate D2E/DX2 analytically  !
 ! A20   A(5,6,18)             118.5435         calculate D2E/DX2 analytically  !
 ! A21   A(7,6,18)             120.69           calculate D2E/DX2 analytically  !
 ! A22   A(6,7,8)              114.2924         calculate D2E/DX2 analytically  !
 ! A23   A(6,7,28)             110.4031         calculate D2E/DX2 analytically  !
 ! A24   A(6,7,29)             108.1485         calculate D2E/DX2 analytically  !
 ! A25   A(8,7,28)             108.1115         calculate D2E/DX2 analytically  !
 ! A26   A(8,7,29)             110.4084         calculate D2E/DX2 analytically  !
 ! A27   A(28,7,29)            105.0883         calculate D2E/DX2 analytically  !
 ! A28   A(7,8,9)              120.7325         calculate D2E/DX2 analytically  !
 ! A29   A(7,8,16)             120.7214         calculate D2E/DX2 analytically  !
 ! A30   A(9,8,16)             118.5426         calculate D2E/DX2 analytically  !
 ! A31   A(8,9,10)             121.2001         calculate D2E/DX2 analytically  !
 ! A32   A(8,9,30)             119.3516         calculate D2E/DX2 analytically  !
 ! A33   A(10,9,30)            119.444          calculate D2E/DX2 analytically  !
 ! A34   A(9,10,11)            118.4689         calculate D2E/DX2 analytically  !
 ! A35   A(9,10,12)            119.9563         calculate D2E/DX2 analytically  !
 ! A36   A(11,10,12)           121.5699         calculate D2E/DX2 analytically  !
 ! A37   A(10,11,31)           111.6901         calculate D2E/DX2 analytically  !
 ! A38   A(10,11,32)           110.4358         calculate D2E/DX2 analytically  !
 ! A39   A(10,11,33)           110.1833         calculate D2E/DX2 analytically  !
 ! A40   A(31,11,32)           107.1722         calculate D2E/DX2 analytically  !
 ! A41   A(31,11,33)           107.6696         calculate D2E/DX2 analytically  !
 ! A42   A(32,11,33)           109.596          calculate D2E/DX2 analytically  !
 ! A43   A(10,12,13)           118.9479         calculate D2E/DX2 analytically  !
 ! A44   A(10,12,17)           119.8775         calculate D2E/DX2 analytically  !
 ! A45   A(13,12,17)           120.3991         calculate D2E/DX2 analytically  !
 ! A46   A(12,13,14)           122.6448         calculate D2E/DX2 analytically  !
 ! A47   A(12,13,16)           119.6475         calculate D2E/DX2 analytically  !
 ! A48   A(14,13,16)           117.6973         calculate D2E/DX2 analytically  !
 ! A49   A(13,14,15)           111.974          calculate D2E/DX2 analytically  !
 ! A50   A(13,14,34)           110.4618         calculate D2E/DX2 analytically  !
 ! A51   A(13,14,35)           109.6183         calculate D2E/DX2 analytically  !
 ! A52   A(15,14,34)           110.3589         calculate D2E/DX2 analytically  !
 ! A53   A(15,14,35)           109.1197         calculate D2E/DX2 analytically  !
 ! A54   A(34,14,35)           105.0692         calculate D2E/DX2 analytically  !
 ! A55   A(14,15,36)           110.1511         calculate D2E/DX2 analytically  !
 ! A56   A(14,15,37)           111.622          calculate D2E/DX2 analytically  !
 ! A57   A(14,15,38)           111.1545         calculate D2E/DX2 analytically  !
 ! A58   A(36,15,37)           108.0414         calculate D2E/DX2 analytically  !
 ! A59   A(36,15,38)           107.9877         calculate D2E/DX2 analytically  !
 ! A60   A(37,15,38)           107.7462         calculate D2E/DX2 analytically  !
 ! A61   A(8,16,13)            121.4285         calculate D2E/DX2 analytically  !
 ! A62   A(8,16,39)            119.1706         calculate D2E/DX2 analytically  !
 ! A63   A(13,16,39)           119.3905         calculate D2E/DX2 analytically  !
 ! A64   A(12,17,40)           113.8317         calculate D2E/DX2 analytically  !
 ! A65   A(12,17,41)           113.9334         calculate D2E/DX2 analytically  !
 ! A66   A(40,17,41)           111.5424         calculate D2E/DX2 analytically  !
 ! A67   A(6,18,19)            121.3786         calculate D2E/DX2 analytically  !
 ! A68   A(6,18,42)            119.377          calculate D2E/DX2 analytically  !
 ! A69   A(19,18,42)           119.2394         calculate D2E/DX2 analytically  !
 ! A70   A(2,19,18)            119.6758         calculate D2E/DX2 analytically  !
 ! A71   A(2,19,20)            122.5754         calculate D2E/DX2 analytically  !
 ! A72   A(18,19,20)           117.7345         calculate D2E/DX2 analytically  !
 ! A73   A(19,20,21)           111.9088         calculate D2E/DX2 analytically  !
 ! A74   A(19,20,43)           110.4996         calculate D2E/DX2 analytically  !
 ! A75   A(19,20,44)           109.5821         calculate D2E/DX2 analytically  !
 ! A76   A(21,20,43)           110.3497         calculate D2E/DX2 analytically  !
 ! A77   A(21,20,44)           109.1949         calculate D2E/DX2 analytically  !
 ! A78   A(43,20,44)           105.0717         calculate D2E/DX2 analytically  !
 ! A79   A(20,21,45)           110.1953         calculate D2E/DX2 analytically  !
 ! A80   A(20,21,46)           111.5969         calculate D2E/DX2 analytically  !
 ! A81   A(20,21,47)           111.164          calculate D2E/DX2 analytically  !
 ! A82   A(45,21,46)           108.0061         calculate D2E/DX2 analytically  !
 ! A83   A(45,21,47)           108.0042         calculate D2E/DX2 analytically  !
 ! A84   A(46,21,47)           107.7353         calculate D2E/DX2 analytically  !
 ! D1    D(22,1,2,3)           158.9328         calculate D2E/DX2 analytically  !
 ! D2    D(22,1,2,19)          -31.2694         calculate D2E/DX2 analytically  !
 ! D3    D(23,1,2,3)            29.7948         calculate D2E/DX2 analytically  !
 ! D4    D(23,1,2,19)         -160.4074         calculate D2E/DX2 analytically  !
 ! D5    D(1,2,3,4)             -4.8853         calculate D2E/DX2 analytically  !
 ! D6    D(1,2,3,5)            175.925          calculate D2E/DX2 analytically  !
 ! D7    D(19,2,3,4)          -174.8309         calculate D2E/DX2 analytically  !
 ! D8    D(19,2,3,5)             5.9794         calculate D2E/DX2 analytically  !
 ! D9    D(1,2,19,18)         -175.8656         calculate D2E/DX2 analytically  !
 ! D10   D(1,2,19,20)            5.5424         calculate D2E/DX2 analytically  !
 ! D11   D(3,2,19,18)           -5.9752         calculate D2E/DX2 analytically  !
 ! D12   D(3,2,19,20)          175.4328         calculate D2E/DX2 analytically  !
 ! D13   D(2,3,4,24)           175.1596         calculate D2E/DX2 analytically  !
 ! D14   D(2,3,4,25)           -65.2972         calculate D2E/DX2 analytically  !
 ! D15   D(2,3,4,26)            55.9905         calculate D2E/DX2 analytically  !
 ! D16   D(5,3,4,24)            -5.6388         calculate D2E/DX2 analytically  !
 ! D17   D(5,3,4,25)           113.9044         calculate D2E/DX2 analytically  !
 ! D18   D(5,3,4,26)          -124.808          calculate D2E/DX2 analytically  !
 ! D19   D(2,3,5,6)             -2.6501         calculate D2E/DX2 analytically  !
 ! D20   D(2,3,5,27)           178.5942         calculate D2E/DX2 analytically  !
 ! D21   D(4,3,5,6)            178.134          calculate D2E/DX2 analytically  !
 ! D22   D(4,3,5,27)            -0.6217         calculate D2E/DX2 analytically  !
 ! D23   D(3,5,6,7)            179.9329         calculate D2E/DX2 analytically  !
 ! D24   D(3,5,6,18)            -0.7387         calculate D2E/DX2 analytically  !
 ! D25   D(27,5,6,7)            -1.306          calculate D2E/DX2 analytically  !
 ! D26   D(27,5,6,18)          178.0225         calculate D2E/DX2 analytically  !
 ! D27   D(5,6,7,8)             65.7552         calculate D2E/DX2 analytically  !
 ! D28   D(5,6,7,28)          -172.1189         calculate D2E/DX2 analytically  !
 ! D29   D(5,6,7,29)           -57.6503         calculate D2E/DX2 analytically  !
 ! D30   D(18,6,7,8)          -113.5588         calculate D2E/DX2 analytically  !
 ! D31   D(18,6,7,28)            8.5671         calculate D2E/DX2 analytically  !
 ! D32   D(18,6,7,29)          123.0357         calculate D2E/DX2 analytically  !
 ! D33   D(5,6,18,19)            0.7284         calculate D2E/DX2 analytically  !
 ! D34   D(5,6,18,42)         -178.452          calculate D2E/DX2 analytically  !
 ! D35   D(7,6,18,19)         -179.9426         calculate D2E/DX2 analytically  !
 ! D36   D(7,6,18,42)            0.877          calculate D2E/DX2 analytically  !
 ! D37   D(6,7,8,9)           -113.4483         calculate D2E/DX2 analytically  !
 ! D38   D(6,7,8,16)            65.8577         calculate D2E/DX2 analytically  !
 ! D39   D(28,7,8,9)           123.181          calculate D2E/DX2 analytically  !
 ! D40   D(28,7,8,16)          -57.513          calculate D2E/DX2 analytically  !
 ! D41   D(29,7,8,9)             8.7302         calculate D2E/DX2 analytically  !
 ! D42   D(29,7,8,16)         -171.9637         calculate D2E/DX2 analytically  !
 ! D43   D(7,8,9,10)          -179.7986         calculate D2E/DX2 analytically  !
 ! D44   D(7,8,9,30)             0.9649         calculate D2E/DX2 analytically  !
 ! D45   D(16,8,9,10)            0.8806         calculate D2E/DX2 analytically  !
 ! D46   D(16,8,9,30)         -178.356          calculate D2E/DX2 analytically  !
 ! D47   D(7,8,16,13)         -179.9903         calculate D2E/DX2 analytically  !
 ! D48   D(7,8,16,39)           -1.1711         calculate D2E/DX2 analytically  !
 ! D49   D(9,8,16,13)           -0.6694         calculate D2E/DX2 analytically  !
 ! D50   D(9,8,16,39)          178.1499         calculate D2E/DX2 analytically  !
 ! D51   D(8,9,10,11)         -178.3788         calculate D2E/DX2 analytically  !
 ! D52   D(8,9,10,12)            2.4146         calculate D2E/DX2 analytically  !
 ! D53   D(30,9,10,11)           0.8571         calculate D2E/DX2 analytically  !
 ! D54   D(30,9,10,12)        -178.3495         calculate D2E/DX2 analytically  !
 ! D55   D(9,10,11,31)           5.1507         calculate D2E/DX2 analytically  !
 ! D56   D(9,10,11,32)         124.3131         calculate D2E/DX2 analytically  !
 ! D57   D(9,10,11,33)        -114.4688         calculate D2E/DX2 analytically  !
 ! D58   D(12,10,11,31)       -175.6561         calculate D2E/DX2 analytically  !
 ! D59   D(12,10,11,32)        -56.4937         calculate D2E/DX2 analytically  !
 ! D60   D(12,10,11,33)         64.7245         calculate D2E/DX2 analytically  !
 ! D61   D(9,10,12,13)          -5.8559         calculate D2E/DX2 analytically  !
 ! D62   D(9,10,12,17)        -175.8123         calculate D2E/DX2 analytically  !
 ! D63   D(11,10,12,13)        174.9627         calculate D2E/DX2 analytically  !
 ! D64   D(11,10,12,17)          5.0063         calculate D2E/DX2 analytically  !
 ! D65   D(10,12,13,14)       -175.1568         calculate D2E/DX2 analytically  !
 ! D66   D(10,12,13,16)          6.0446         calculate D2E/DX2 analytically  !
 ! D67   D(17,12,13,14)         -5.2542         calculate D2E/DX2 analytically  !
 ! D68   D(17,12,13,16)        175.9472         calculate D2E/DX2 analytically  !
 ! D69   D(10,12,17,40)       -159.1007         calculate D2E/DX2 analytically  !
 ! D70   D(10,12,17,41)        -29.664          calculate D2E/DX2 analytically  !
 ! D71   D(13,12,17,40)         31.0905         calculate D2E/DX2 analytically  !
 ! D72   D(13,12,17,41)        160.5272         calculate D2E/DX2 analytically  !
 ! D73   D(12,13,14,15)        -85.671          calculate D2E/DX2 analytically  !
 ! D74   D(12,13,14,34)         37.7626         calculate D2E/DX2 analytically  !
 ! D75   D(12,13,14,35)        153.0776         calculate D2E/DX2 analytically  !
 ! D76   D(16,13,14,15)         93.1497         calculate D2E/DX2 analytically  !
 ! D77   D(16,13,14,34)       -143.4166         calculate D2E/DX2 analytically  !
 ! D78   D(16,13,14,35)        -28.1017         calculate D2E/DX2 analytically  !
 ! D79   D(12,13,16,8)          -2.8301         calculate D2E/DX2 analytically  !
 ! D80   D(12,13,16,39)        178.3531         calculate D2E/DX2 analytically  !
 ! D81   D(14,13,16,8)         178.3124         calculate D2E/DX2 analytically  !
 ! D82   D(14,13,16,39)         -0.5043         calculate D2E/DX2 analytically  !
 ! D83   D(13,14,15,36)       -179.4917         calculate D2E/DX2 analytically  !
 ! D84   D(13,14,15,37)         60.487          calculate D2E/DX2 analytically  !
 ! D85   D(13,14,15,38)        -59.8405         calculate D2E/DX2 analytically  !
 ! D86   D(34,14,15,36)         57.0167         calculate D2E/DX2 analytically  !
 ! D87   D(34,14,15,37)        -63.0046         calculate D2E/DX2 analytically  !
 ! D88   D(34,14,15,38)        176.6678         calculate D2E/DX2 analytically  !
 ! D89   D(35,14,15,36)        -57.9531         calculate D2E/DX2 analytically  !
 ! D90   D(35,14,15,37)       -177.9744         calculate D2E/DX2 analytically  !
 ! D91   D(35,14,15,38)         61.698          calculate D2E/DX2 analytically  !
 ! D92   D(6,18,19,2)            2.6641         calculate D2E/DX2 analytically  !
 ! D93   D(6,18,19,20)        -178.6764         calculate D2E/DX2 analytically  !
 ! D94   D(42,18,19,2)        -178.1543         calculate D2E/DX2 analytically  !
 ! D95   D(42,18,19,20)          0.5051         calculate D2E/DX2 analytically  !
 ! D96   D(2,19,20,21)          85.917          calculate D2E/DX2 analytically  !
 ! D97   D(2,19,20,43)         -37.486          calculate D2E/DX2 analytically  !
 ! D98   D(2,19,20,44)        -152.8045         calculate D2E/DX2 analytically  !
 ! D99   D(18,19,20,21)        -92.7009         calculate D2E/DX2 analytically  !
 ! D100  D(18,19,20,43)        143.8961         calculate D2E/DX2 analytically  !
 ! D101  D(18,19,20,44)         28.5776         calculate D2E/DX2 analytically  !
 ! D102  D(19,20,21,45)        179.7078         calculate D2E/DX2 analytically  !
 ! D103  D(19,20,21,46)        -60.3021         calculate D2E/DX2 analytically  !
 ! D104  D(19,20,21,47)         60.0011         calculate D2E/DX2 analytically  !
 ! D105  D(43,20,21,45)        -56.8046         calculate D2E/DX2 analytically  !
 ! D106  D(43,20,21,46)         63.1854         calculate D2E/DX2 analytically  !
 ! D107  D(43,20,21,47)       -176.5113         calculate D2E/DX2 analytically  !
 ! D108  D(44,20,21,45)         58.2061         calculate D2E/DX2 analytically  !
 ! D109  D(44,20,21,46)        178.1961         calculate D2E/DX2 analytically  !
 ! D110  D(44,20,21,47)        -61.5007         calculate D2E/DX2 analytically  !
 --------------------------------------------------------------------------------
 Trust Radius=3.00D-01 FncErr=1.00D-07 GrdErr=1.00D-06 EigMax=2.50D+02 EigMin=1.00D-04
 Number of steps in this run=    252 maximum allowed number of steps=    282.
 GradGradGradGradGradGradGradGradGradGradGradGradGradGradGradGradGradGrad

                          Input orientation:                          
 ---------------------------------------------------------------------
 Center     Atomic      Atomic             Coordinates (Angstroms)
 Number     Number       Type             X           Y           Z
 ---------------------------------------------------------------------
      1          7           0       -4.690791   -0.864013   -1.189756
      2          6           0       -3.593298   -0.284369   -0.524603
      3          6           0       -2.916359   -1.010183    0.479327
      4          6           0       -3.400748   -2.358449    0.942637
      5          6           0       -1.769332   -0.467868    1.083793
      6          6           0       -1.245499    0.761650    0.673051
      7          6           0       -0.011712    1.335569    1.332095
      8          6           0        1.247437    0.531152    1.102160
      9          6           0        1.879980   -0.124122    2.162380
     10          6           0        3.053671   -0.871404    1.960446
     11          6           0        3.663435   -1.582848    3.139346
     12          6           0        3.641894   -0.927595    0.677942
     13          6           0        2.968246   -0.330793   -0.409364
     14          6           0        3.467272   -0.433063   -1.834360
     15          6           0        4.490256    0.645881   -2.158229
     16          6           0        1.796672    0.414528   -0.178311
     17          7           0        4.765842   -1.746400    0.457055
     18          6           0       -1.879121    1.442524   -0.370286
     19          6           0       -3.029519    0.922033   -0.993543
     20          6           0       -3.631050    1.713057   -2.135408
     21          6           0       -4.716838    2.665255   -1.656410
     22          1           0       -5.306983   -0.189700   -1.628117
     23          1           0       -5.208724   -1.525551   -0.622433
     24          1           0       -2.709680   -2.810891    1.662038
     25          1           0       -4.374469   -2.260907    1.433877
     26          1           0       -3.483193   -3.048325    0.096247
     27          1           0       -1.264691   -1.022009    1.873575
     28          1           0        0.168721    2.360068    0.980394
     29          1           0       -0.212507    1.433643    2.407400
     30          1           0        1.448704   -0.064457    3.159838
     31          1           0        3.037114   -1.494881    4.033413
     32          1           0        3.773929   -2.650875    2.925923
     33          1           0        4.641729   -1.152547    3.375401
     34          1           0        3.889021   -1.427102   -2.022223
     35          1           0        2.621155   -0.346228   -2.528306
     36          1           0        4.823653    0.549937   -3.196198
     37          1           0        5.370720    0.574313   -1.511257
     38          1           0        4.063103    1.646488   -2.031268
     39          1           0        1.295231    0.895736   -1.016862
     40          1           0        5.310702   -1.483334   -0.356049
     41          1           0        5.352683   -1.868752    1.274770
     42          1           0       -1.467868    2.388854   -0.718040
     43          1           0       -4.027195    1.038421   -2.902857
     44          1           0       -2.843676    2.287914   -2.639623
     45          1           0       -5.128056    3.225511   -2.502015
     46          1           0       -5.539944    2.127983   -1.173994
     47          1           0       -4.319915    3.386147   -0.933596
 ---------------------------------------------------------------------
                    Distance matrix (angstroms):
                    1          2          3          4          5
     1  N    0.000000
     2  C    1.408157   0.000000
     3  C    2.440453   1.411711   0.000000
     4  C    2.905968   2.547876   1.505693   0.000000
     5  C    3.723020   2.438742   1.405402   2.501148   0.000000
     6  C    4.240621   2.835611   2.443091   3.801683   1.398150
     7  C    5.752537   4.347331   3.829718   5.028222   2.530468
     8  C    6.516281   5.171475   4.483395   5.475479   3.177936
     9  C    7.413453   6.099371   5.159713   5.862259   3.820862
    10  C    8.360653   7.120553   6.152579   6.701251   4.918609
    11  C    9.436680   8.232299   7.120206   7.438398   5.914679
    12  C    8.539671   7.362599   6.561779   7.191399   5.445864
    13  C    7.717136   6.562721   5.989985   6.819339   4.969201
    14  C    8.194829   7.182564   6.814467   7.654314   5.994902
    15  C    9.354643   8.299274   8.034749   8.994960   7.136777
    16  C    6.689160   5.446113   4.967388   5.996590   3.884316
    17  N    9.639424   8.542623   7.717430   8.203876   6.688493
    18  C    3.727886   2.438110   2.795260   4.299594   2.403330
    19  C    2.447097   1.411792   2.432202   3.827292   2.799147
    20  C    2.942550   2.566287   3.842350   5.109262   4.311112
    21  C    3.560081   3.353149   4.616485   5.807300   5.100290
    22  H    1.013189   2.040447   3.290836   3.866003   4.466186
    23  H    1.013776   2.039535   2.595075   2.532181   3.982376
    24  H    3.980938   3.456226   2.164272   1.095362   2.590054
    25  H    2.989117   2.890082   2.145125   1.094972   3.181868
    26  H    2.807724   2.834966   2.149901   1.095035   3.251358
    27  H    4.598600   3.423125   2.161499   2.686160   1.088803
    28  H    6.222468   4.838476   4.596452   5.916666   3.429863
    29  H    6.186581   4.793533   4.123175   5.166273   2.791305
    30  H    7.566483   6.248620   5.208965   5.804788   3.850774
    31  H    9.348797   8.136536   6.950561   7.193380   5.732097
    32  H    9.580353   8.472456   7.310106   7.449492   6.235920
    33  H   10.393260   9.153111   8.095197   8.488462   6.842657
    34  H    8.638475   7.715816   7.262560   7.924553   6.525674
    35  H    7.451468   6.529784   6.336462   7.236006   5.686689
    36  H    9.825971   8.870093   8.709261   9.655539   7.926014
    37  H   10.168881   9.058943   8.668837   9.568769   7.668166
    38  H    9.145569   8.038578   7.878698   8.977344   6.942003
    39  H    6.241720   5.052988   4.858868   6.039998   3.957742
    40  H   10.055272   8.985942   8.282889   8.851089   7.295972
    41  H   10.390128   9.261673   8.351462   8.773407   7.260995
    42  H    4.603357   3.420671   3.883975   5.388020   3.390921
    43  H    2.644680   2.755746   4.107299   5.169041   4.822887
    44  H    3.930470   3.413486   4.539887   5.893352   4.755247
    45  H    4.317109   4.311021   5.632149   6.784528   6.146552
    46  H    3.110200   3.167109   4.411887   5.402254   5.104269
    47  H    4.273995   3.764032   4.826390   6.112733   5.042694
                    6          7          8          9         10
     6  C    0.000000
     7  C    1.511938   0.000000
     8  C    2.540078   1.511758   0.000000
     9  C    3.573698   2.529539   1.397698   0.000000
    10  C    4.775680   3.829116   2.442601   1.405972   0.000000
    11  C    5.973016   5.028918   3.802127   2.502610   1.505912
    12  C    5.171091   4.347259   2.835723   2.439972   1.412083
    13  C    4.485611   3.832700   2.447211   2.800161   2.432191
    14  C    5.470344   5.025717   3.805330   4.311482   3.842364
    15  C    6.397533   5.738096   4.599910   5.106281   4.618377
    16  C    3.178068   2.529801   1.398166   2.403314   2.794271
    17  N    6.517146   5.752326   4.240587   3.723992   2.440764
    18  C    1.397718   2.529181   3.574082   4.795791   5.926129
    19  C    2.446627   3.832332   4.778819   5.929374   6.996261
    20  C    3.805715   5.026498   5.973139   7.226179   8.254753
    21  C    4.593505   5.730396   6.909174   8.116759   9.272023
    22  H    4.764042   6.255334   7.136839   8.125553   9.123763
    23  H    4.755703   6.246209   6.991871   7.743960   8.681379
    24  H    3.985596   4.957926   5.209750   5.341727   6.088257
    25  H    4.416465   5.654967   6.285814   6.649414   7.575306
    26  H    4.455994   5.726870   6.016925   6.448527   7.137564
    27  H    2.150132   2.724213   3.052569   3.283072   4.321860
    28  H    2.156251   1.098110   2.126825   3.239860   4.441379
    29  H    2.127585   1.098280   2.156288   2.620147   4.022553
    30  H    3.758364   2.726450   2.151580   1.088339   2.160006
    31  H    5.892771   4.960232   3.987480   2.592046   2.164761
    32  H    6.474212   5.723906   4.453601   3.248772   2.148821
    33  H    6.754725   5.658651   4.418562   3.186901   2.145477
    34  H    6.198261   5.839479   4.535912   4.821297   4.107098
    35  H    5.140729   4.966198   3.979596   4.754072   4.540018
    36  H    7.200730   6.671087   5.591561   6.150928   5.634183
    37  H    6.969982   6.134716   4.881934   5.115534   4.417187
    38  H    6.023084   5.292731   4.357789   5.048541   4.826232
    39  H    3.054357   2.723813   2.150689   3.389634   3.883202
    40  H    7.005910   6.254929   4.763890   4.467639   3.291625
    41  H    7.128611   6.248815   4.758401   3.986383   2.598136
    42  H    2.152295   2.726327   3.759929   5.081334   6.184488
    43  H    4.538893   5.843563   6.642231   7.867837   8.799876
    44  H    3.982142   4.970063   5.815871   7.154724   8.119152
    45  H    5.588014   6.667028   7.803625   9.060309  10.180321
    46  H    4.870390   6.121255   7.334800   8.441483   9.626591
    47  H    4.349866   5.281935   6.579567   7.768253   8.992885
                   11         12         13         14         15
    11  C    0.000000
    12  C    2.547220   0.000000
    13  C    3.826783   1.411456   0.000000
    14  C    5.108643   2.566460   1.513308   0.000000
    15  C    5.806476   3.352523   2.515737   1.521679   0.000000
    16  C    4.298972   2.437070   1.407649   2.500363   3.350969
    17  N    2.904606   1.408010   2.446625   2.943080   3.555090
    18  C    7.224286   6.099004   5.161700   5.851945   6.663358
    19  C    8.255352   7.121989   6.155000   6.689660   7.614445
    20  C    9.586216   8.233086   7.120904   7.421768   8.191154
    21  C   10.548678   9.392878   8.342179   8.752765   9.439294
    22  H   10.253681   9.270642   8.365686   8.780053   9.847087
    23  H    9.636880   8.965599   8.266540   8.828092  10.057037
    24  H    6.656359   6.697592   6.533027   7.485560   8.853406
    25  H    8.244773   8.161570   7.812704   8.689953   9.996799
    26  H    7.904579   7.456724   7.018668   7.673057   9.072250
    27  H    5.118900   5.051042   4.858739   6.040457   7.221961
    28  H    5.693916   4.791986   4.124257   5.157990   5.609372
    29  H    4.965671   4.839718   4.600498   5.917592   6.601630
    30  H    2.685324   3.422703   3.888334   5.399306   6.167451
    31  H    1.095158   3.456408   4.593268   5.978566   6.710508
    32  H    1.094732   2.835585   4.141985   5.260515   6.101665
    33  H    1.094505   2.885578   4.219036   5.388749   5.820511
    34  H    5.168843   2.757076   2.156626   1.096028   2.162692
    35  H    5.893882   3.414662   2.147237   1.097731   2.148203
    36  H    6.784835   4.311451   3.461887   2.158856   1.094412
    37  H    5.403358   3.168148   2.793790   2.177686   1.094948
    38  H    6.109304   3.760737   2.781892   2.172170   1.095351
    39  H    5.387563   3.421070   2.161575   2.674279   3.401959
    40  H    3.865382   2.040320   2.611186   2.585866   2.907669
    41  H    2.532181   2.041759   3.299570   3.909305   4.341963
    42  H    7.548782   6.249581   5.212569   5.793531   6.372703
    43  H   10.125466   8.689204   7.551719   7.711938   8.558945
    44  H    9.524798   7.962936   6.753527   6.919555   7.530908
    45  H   11.499373  10.211388   9.087167   9.365393   9.964166
    46  H   10.820229   9.852531   8.889294   9.387491  10.186769
    47  H   10.247616   9.197599   8.198034   8.719979   9.307411
                   16         17         18         19         20
    16  C    0.000000
    17  N    3.726831   0.000000
    18  C    3.821659   7.416823   0.000000
    19  C    4.920801   8.366147   1.408111   0.000000
    20  C    5.914099   9.444390   2.501620   1.513742   0.000000
    21  C    7.048145  10.670082   3.346913   2.515007   1.521530
    22  H    7.275228  10.403512   3.999567   2.612562   2.585842
    23  H    7.282631  10.035240   4.467584   3.298079   3.907266
    24  H    5.839300   7.646473   4.786618   4.592291   5.977929
    25  H    6.916652   9.206746   4.816344   4.222839   5.393038
    26  H    6.320104   8.358934   4.791496   4.142126   5.260504
    27  H    3.955480   6.236874   3.389154   3.887710   5.399277
    28  H    2.788897   6.186314   2.619137   4.024067   4.956320
    29  H    3.429475   6.220971   3.239324   4.445641   5.692242
    30  H    3.390243   4.597540   5.080077   6.186939   7.550039
    31  H    4.787814   3.980213   7.224284   8.241104   9.633776
    32  H    4.789834   2.810209   7.718670   8.626400   9.974702
    33  H    4.814452   2.980740   7.955253   9.068606  10.345027
    34  H    3.342086   2.649072   6.650948   7.378537   8.150147
    35  H    2.604035   3.933515   5.301808   5.991168   6.594323
    36  H    4.276516   4.315410   7.328688   8.164707   8.600007
    37  H    3.817866   3.102554   7.390250   8.423357   9.094953
    38  H    3.176143   4.265828   6.173370   7.204651   7.695147
    39  H    1.089115   4.604177   3.285354   4.324893   5.117364
    40  H    3.997734   1.013516   7.762371   8.703532   9.661158
    41  H    4.468784   1.013909   8.122176   9.121131  10.255054
    42  H    3.853114   7.572339   1.088854   2.160143   2.673011
    43  H    6.459862   9.816402   3.345361   2.157402   1.095921
    44  H    5.576778   9.152588   2.606711   2.147032   1.097566
    45  H    7.826435  11.461466   4.275382   3.461987   2.159385
    46  H    7.599555  11.130157   3.810174   2.790898   2.177235
    47  H    6.842047  10.527484   3.170562   2.782189   2.172122
                   21         22         23         24         25
    21  C    0.000000
    22  H    2.915448   0.000000
    23  H    4.344411   1.674978   0.000000
    24  H    6.710362   4.943860   3.621620   0.000000
    25  H    5.825303   3.812518   2.337764   1.768067   0.000000
    26  H    6.102350   3.804127   2.410975   1.762498   1.789875
    27  H    6.162307   5.412460   4.694572   2.309294   3.376229
    28  H    5.560087   6.579437   6.825247   5.957235   6.496125
    29  H    6.190349   6.698831   6.549726   4.980714   5.649724
    30  H    8.286222   8.281275   7.794980   5.203697   6.458536
    31  H   10.478768  10.167615   9.469514   6.354600   7.891511
    32  H   11.015994  10.452733   9.723437   6.607586   8.293049
    33  H   11.290594  11.177619  10.637351   7.728450   9.289231
    34  H    9.536352   9.287249   9.205329   7.683197   8.995839
    35  H    7.979685   7.980615   8.144333   7.214662   8.264602
    36  H    9.892749  10.277924  10.563167   9.573334  10.674450
    37  H   10.303006  10.705640  10.822387   9.317847  10.567923
    38  H    8.846795   9.556811   9.900173   8.909509   9.923084
    39  H    6.299619   6.718708   6.951233   6.079055   6.936571
    40  H   10.929468  10.771578  10.522883   8.376253   9.879828
    41  H   11.425598  11.174724  10.735943   8.126457   9.736354
    42  H    3.393043   4.713384   5.415322   5.851857   5.890616
    43  H    2.162366   2.184285   3.629090   6.114845   5.460168
    44  H    2.148913   3.637252   4.919860   6.672336   6.295117
    45  H    1.094548   3.529785   5.109983   7.721790   6.794110
    46  H    1.094938   2.373215   3.709748   6.359713   5.236571
    47  H    1.095306   3.774036   5.001158   6.908941   6.123490
                   26         27         28         29         30
    26  H    0.000000
    27  H    3.490932   0.000000
    28  H    6.585507   3.780329   0.000000
    29  H    6.010562   2.724388   1.743543   0.000000
    30  H    6.527838   3.151808   3.502378   2.360103   0.000000
    31  H    7.773601   4.836738   5.692910   4.666927   2.309176
    32  H    7.799414   5.398919   6.472414   5.730953   3.485820
    33  H    8.964440   6.095762   6.171088   5.584713   3.380210
    34  H    7.840015   6.473182   6.099098   6.680416   5.887758
    35  H    7.173052   5.910417   5.064528   5.963118   5.814552
    36  H    9.632828   8.077224   6.510674   7.585786   7.222669
    37  H    9.700482   7.618006   6.038049   6.875081   6.132648
    38  H    9.138610   7.124189   4.974487   6.166678   6.058877
    39  H    6.295075   4.311099   2.720722   3.779973   4.288397
    40  H    8.943510   6.958437   6.557269   6.830172   5.411996
    41  H    8.991830   6.698147   6.696494   6.569627   4.695744
    42  H    5.855554   4.288560   2.358799   3.500963   5.437193
    43  H    5.098241   5.889916   5.867888   6.550335   8.243670
    44  H    6.030706   5.815303   4.710018   5.755456   7.588934
    45  H    6.986956   7.218920   6.397813   7.174662   9.280854
    46  H    5.712959   6.122738   6.106072   6.456786   8.510587
    47  H    6.569864   6.053631   4.986387   5.643167   7.870187
                   31         32         33         34         35
    31  H    0.000000
    32  H    1.762315   0.000000
    33  H    1.767756   1.788880   0.000000
    34  H    6.115641   5.098530   5.456765   0.000000
    35  H    6.674472   6.032320   6.291790   1.741233   0.000000
    36  H    7.722711   6.987666   6.790984   2.482023   2.469856
    37  H    6.361655   5.713155   5.233823   2.542081   3.072766
    38  H    6.906606   6.566939   6.115675   3.078529   2.509419
    39  H    5.852733   5.853882   5.889524   3.624096   2.363262
    40  H    4.943351   3.807383   3.805347   2.190998   3.639419
    41  H    3.621015   2.414639   2.330462   3.634215   4.923688
    42  H    7.612790   8.133497   8.162412   6.705123   5.241932
    43  H   10.219292  10.413602  10.925526   8.337914   6.801331
    44  H    9.665539   9.957893  10.200421   7.714386   6.067576
    45  H   11.474490  11.968281  12.213113  10.157987   8.532777
    46  H   10.668091  11.242554  11.624343  10.112542   8.634779
    47  H   10.130227  10.809802  10.930612   9.578053   8.040658
                   36         37         38         39         40
    36  H    0.000000
    37  H    1.771694   0.000000
    38  H    1.771418   1.769133   0.000000
    39  H    4.161590   4.117930   3.042000   0.000000
    40  H    3.526733   2.360512   3.762798   4.713878   0.000000
    41  H    5.110723   3.705515   4.994979   5.418199   1.676270
    42  H    7.007575   7.119553   5.733003   3.154903   7.814978
    43  H    8.869170   9.511717   8.159801   5.648501  10.002090
    44  H    7.881515   8.466755   6.963126   4.658548   9.269892
    45  H   10.328460  10.873580   9.337683   6.992292  11.651011
    46  H   10.676313  11.025889   9.653252   6.947139  11.465041
    47  H    9.837087  10.106854   8.631703   6.143204  10.807136
                   41         42         43         44         45
    41  H    0.000000
    42  H    8.283624   0.000000
    43  H   10.671754   3.625914   0.000000
    44  H    9.989026   2.365484   1.741047   0.000000
    45  H   12.249960   4.156866   2.481115   2.473139   0.000000
    46  H   11.858316   4.105819   2.542542   3.073029   1.771400
    47  H   11.227199   3.029064   3.078229   2.509168   1.771676
                   46         47
    46  H    0.000000
    47  H    1.768966   0.000000
 Stoichiometry    C19H26N2
 Framework group  C1[X(C19H26N2)]
 Deg. of freedom   135
 Full point group                 C1      NOp   1
 Largest Abelian subgroup         C1      NOp   1
 Largest concise Abelian subgroup C1      NOp   1
                         Standard orientation:                         
 ---------------------------------------------------------------------
 Center     Atomic      Atomic             Coordinates (Angstroms)
 Number     Number       Type             X           Y           Z
 ---------------------------------------------------------------------
      1          7           0       -4.655582   -0.520070   -1.544468
      2          6           0       -3.563999   -0.479319   -0.655822
      3          6           0       -2.621132   -1.529992   -0.651783
      4          6           0       -2.804034   -2.759396   -1.501619
      5          6           0       -1.485932   -1.450059    0.172891
      6          6           0       -1.237241   -0.319541    0.957051
      7          6           0       -0.013200   -0.245870    1.841501
      8          6           0        1.297468   -0.219832    1.088585
      9          6           0        2.195812   -1.286570    1.181365
     10          6           0        3.419250   -1.270805    0.488755
     11          6           0        4.324430   -2.468852    0.603222
     12          6           0        3.781113   -0.141376   -0.277681
     13          6           0        2.847219    0.905183   -0.435046
     14          6           0        3.105091    2.102612   -1.323736
     15          6           0        3.877664    3.194407   -0.598050
     16          6           0        1.631121    0.865522    0.272772
     17          7           0        4.964011   -0.161514   -1.041119
     18          6           0       -2.137721    0.747645    0.894878
     19          6           0       -3.282799    0.694078    0.077135
     20          6           0       -4.185988    1.908527    0.049268
     21          6           0       -5.308343    1.804925    1.071345
     22          1           0       -5.434689    0.063532   -1.263484
     23          1           0       -4.959909   -1.459433   -1.774085
     24          1           0       -1.938470   -3.427595   -1.437370
     25          1           0       -3.682633   -3.321205   -1.167856
     26          1           0       -2.921855   -2.483897   -2.554861
     27          1           0       -0.773950   -2.273656    0.189024
     28          1           0       -0.056729    0.645064    2.481959
     29          1           0       -0.040011   -1.097612    2.534347
     30          1           0        1.937401   -2.150119    1.791274
     31          1           0        3.854180   -3.278658    1.171071
     32          1           0        4.561197   -2.865259   -0.389371
     33          1           0        5.249872   -2.194987    1.119454
     34          1           0        3.637594    1.798069   -2.232015
     35          1           0        2.149751    2.512143   -1.676756
     36          1           0        4.039545    4.047826   -1.263789
     37          1           0        4.856026    2.838784   -0.258564
     38          1           0        3.328476    3.550073    0.280408
     39          1           0        0.925235    1.688408    0.169059
     40          1           0        5.314366    0.759592   -1.277829
     41          1           0        5.693743   -0.749122   -0.653539
     42          1           0       -1.943860    1.644916    1.480477
     43          1           0       -4.597910    2.057505   -0.955306
     44          1           0       -3.595261    2.811022    0.252232
     45          1           0       -5.939915    2.697960    1.030838
     46          1           0       -5.943395    0.932534    0.885516
     47          1           0       -4.910471    1.717489    2.088078
 ---------------------------------------------------------------------
 Rotational constants (GHZ):           0.5136227           0.1447110           0.1292919
 Standard basis: 6-31G(d,p) (6D, 7F)
 There are   445 symmetry adapted cartesian basis functions of A   symmetry.
 There are   445 symmetry adapted basis functions of A   symmetry.
   445 basis functions,   770 primitive gaussians,   445 cartesian basis functions
    77 alpha electrons       77 beta electrons
       nuclear repulsion energy      1606.5789469413 Hartrees.
 NAtoms=   47 NActive=   47 NUniq=   47 SFac= 1.00D+00 NAtFMM=   60 NAOKFM=F Big=F
 Integral buffers will be    131072 words long.
 Raffenetti 2 integral format.
 Two-electron integral symmetry is turned on.
 Force inversion solution in PCM.
 ------------------------------------------------------------------------------
 Polarizable Continuum Model (PCM)
 =================================
 Model                : PCM.
 Atomic radii         : UFF (Universal Force Field).
 Polarization charges : Total charges.
 Charge compensation  : None.
 Solution method      : Matrix inversion.
 Cavity type          : Scaled VdW (van der Waals Surface) (Alpha=1.100).
 Cavity algorithm     : GePol (No added spheres)
                        Default sphere list used, NSphG=   47.
                        Lebedev-Laikov grids with approx.  5.0 points / Ang**2.
                        Smoothing algorithm: York/Karplus (Gamma=1.0000).
                        Polarization charges: spherical gaussians, with
                                              point-specific exponents (IZeta= 3).
                        Self-potential: point-specific (ISelfS= 7).
                        Self-field    : sphere-specific E.n sum rule (ISelfD= 2).
 1st derivatives      : Analytical E(r).r(x)/FMM algorithm (CHGder, D1EAlg=3).
                        Cavity 1st derivative terms included.
 2nd derivatives      : Analytical E(r).r(xy)/FMM algorithm (CHGder, D2EAlg=3).
                        Cavity 2nd derivative terms included.
 Solvent              : Water, Eps=  78.355300 Eps(inf)=   1.777849
 ------------------------------------------------------------------------------
 One-electron integrals computed using PRISM.
 NBasis=   445 RedAO= T EigKep=  3.54D-04  NBF=   445
 NBsUse=   445 1.00D-06 EigRej= -1.00D+00 NBFU=   445
 ExpMin= 1.61D-01 ExpMax= 4.17D+03 ExpMxC= 6.27D+02 IAcc=3 IRadAn=         5 AccDes= 0.00D+00
 Harris functional with IExCor=  402 and IRadAn=       5 diagonalized for initial guess.
 HarFok:  IExCor=  402 AccDes= 0.00D+00 IRadAn=         5 IDoV= 1 UseB2=F ITyADJ=14
 ICtDFT=  3500011 ScaDFX=  1.000000  1.000000  1.000000  1.000000
 FoFCou: FMM=F IPFlag=           0 FMFlag=      100000 FMFlg1=           0
         NFxFlg=           0 DoJE=T BraDBF=F KetDBF=T FulRan=T
         wScrn=  0.000000 ICntrl=       500 IOpCl=  0 I1Cent=   200000004 NGrid=           0
         NMat0=    1 NMatS0=      1 NMatT0=    0 NMatD0=    1 NMtDS0=    0 NMtDT0=    0
 Petite list used in FoFCou.
 Requested convergence on RMS density matrix=1.00D-08 within  32 cycles.
 Requested convergence on MAX density matrix=1.00D-06.
 Requested convergence on             energy=1.00D-06.
 No special actions if energy rises.
 Inv3:  Mode=1 IEnd=    29710827.
 Iteration    1 A*A^-1 deviation from unit magnitude is 2.89D-15 for   2307.
 Iteration    1 A*A^-1 deviation from orthogonality  is 2.50D-15 for   2918   2185.
 Iteration    1 A^-1*A deviation from unit magnitude is 2.89D-15 for   1343.
 Iteration    1 A^-1*A deviation from orthogonality  is 3.96D-10 for   2009   1961.
 Iteration    2 A*A^-1 deviation from unit magnitude is 2.44D-15 for   1089.
 Iteration    2 A*A^-1 deviation from orthogonality  is 4.88D-15 for   2376    380.
 Iteration    2 A^-1*A deviation from unit magnitude is 1.33D-15 for     78.
 Iteration    2 A^-1*A deviation from orthogonality  is 1.14D-15 for   3011   2670.
 Error on total polarization charges =  0.01283
 SCF Done:  E(RB3LYP) =  -849.265881336     A.U. after   12 cycles
            NFock= 12  Conv=0.51D-08     -V/T= 2.0098
 QCSCF skips out because SCF is already converged.
 DoSCS=F DFT=T ScalE2(SS,OS)=  1.000000  1.000000
 Range of M.O.s used for correlation:     1   445
 NBasis=   445 NAE=    77 NBE=    77 NFC=     0 NFV=     0
 NROrb=    445 NOA=    77 NOB=    77 NVA=   368 NVB=   368
 Symmetrizing basis deriv contribution to polar:
 IMax=3 JMax=2 DiffMx= 0.00D+00
 G2DrvN: will do    48 centers at a time, making    1 passes.
 Calling FoFCou, ICntrl=  3107 FMM=F I1Cent=   0 AccDes= 0.00D+00.
 NEqPCM:  Using equilibrium solvation (IEInf=0, Eps=  78.3553, EpsInf=   1.7778)
 G2PCM: DoFxE=T DoFxN=T DoGrad=T DoDP/DQ/DG/TGxP=FFFF NFrqRd=   0 IEInf=0 SqF1=F DoCFld=F IF1Alg=4.
 End of G2Drv F.D. properties file   721 does not exist.
 End of G2Drv F.D. properties file   722 does not exist.
 End of G2Drv F.D. properties file   788 does not exist.
          IDoAtm=11111111111111111111111111111111111111111111111
 NEqPCM:  Using equilibrium solvation (IEInf=0, Eps=  78.3553, EpsInf=   1.7778)
          Differentiating once with respect to nuclear coordinates.
 CalDSu exits because no D1Ps are significant.
          There are   144 degrees of freedom in the 1st order CPHF.  IDoFFX=6 NUNeed=     0.
    138 vectors produced by pass  0 Test12= 2.83D-14 1.00D-09 XBig12= 1.38D-01 1.06D-01.
 AX will form   138 AO Fock derivatives at one time.
    138 vectors produced by pass  1 Test12= 2.83D-14 1.00D-09 XBig12= 1.86D-02 2.40D-02.
    138 vectors produced by pass  2 Test12= 2.83D-14 1.00D-09 XBig12= 1.61D-04 1.29D-03.
    138 vectors produced by pass  3 Test12= 2.83D-14 1.00D-09 XBig12= 5.33D-07 5.36D-05.
    138 vectors produced by pass  4 Test12= 2.83D-14 1.00D-09 XBig12= 5.29D-10 1.66D-06.
     73 vectors produced by pass  5 Test12= 2.83D-14 1.00D-09 XBig12= 3.58D-13 6.07D-08.
      8 vectors produced by pass  6 Test12= 2.83D-14 1.00D-09 XBig12= 3.48D-16 2.18D-09.
 InvSVY:  IOpt=1 It=  1 EMax= 5.55D-16
 Solved reduced A of dimension   771 with   144 vectors.
 End of Minotr F.D. properties file   721 does not exist.
 End of Minotr F.D. properties file   722 does not exist.
 End of Minotr F.D. properties file   788 does not exist.

 **********************************************************************

            Population analysis using the SCF density.

 **********************************************************************

 Orbital symmetries:
       Occupied  (A) (A) (A) (A) (A) (A) (A) (A) (A) (A) (A) (A)
                 (A) (A) (A) (A) (A) (A) (A) (A) (A) (A) (A) (A)
                 (A) (A) (A) (A) (A) (A) (A) (A) (A) (A) (A) (A)
                 (A) (A) (A) (A) (A) (A) (A) (A) (A) (A) (A) (A)
                 (A) (A) (A) (A) (A) (A) (A) (A) (A) (A) (A) (A)
                 (A) (A) (A) (A) (A) (A) (A) (A) (A) (A) (A) (A)
                 (A) (A) (A) (A) (A)
       Virtual   (A) (A) (A) (A) (A) (A) (A) (A) (A) (A) (A) (A)
                 (A) (A) (A) (A) (A) (A) (A) (A) (A) (A) (A) (A)
                 (A) (A) (A) (A) (A) (A) (A) (A) (A) (A) (A) (A)
                 (A) (A) (A) (A) (A) (A) (A) (A) (A) (A) (A) (A)
                 (A) (A) (A) (A) (A) (A) (A) (A) (A) (A) (A) (A)
                 (A) (A) (A) (A) (A) (A) (A) (A) (A) (A) (A) (A)
                 (A) (A) (A) (A) (A) (A) (A) (A) (A) (A) (A) (A)
                 (A) (A) (A) (A) (A) (A) (A) (A) (A) (A) (A) (A)
                 (A) (A) (A) (A) (A) (A) (A) (A) (A) (A) (A) (A)
                 (A) (A) (A) (A) (A) (A) (A) (A) (A) (A) (A) (A)
                 (A) (A) (A) (A) (A) (A) (A) (A) (A) (A) (A) (A)
                 (A) (A) (A) (A) (A) (A) (A) (A) (A) (A) (A) (A)
                 (A) (A) (A) (A) (A) (A) (A) (A) (A) (A) (A) (A)
                 (A) (A) (A) (A) (A) (A) (A) (A) (A) (A) (A) (A)
                 (A) (A) (A) (A) (A) (A) (A) (A) (A) (A) (A) (A)
                 (A) (A) (A) (A) (A) (A) (A) (A) (A) (A) (A) (A)
                 (A) (A) (A) (A) (A) (A) (A) (A) (A) (A) (A) (A)
                 (A) (A) (A) (A) (A) (A) (A) (A) (A) (A) (A) (A)
                 (A) (A) (A) (A) (A) (A) (A) (A) (A) (A) (A) (A)
                 (A) (A) (A) (A) (A) (A) (A) (A) (A) (A) (A) (A)
                 (A) (A) (A) (A) (A) (A) (A) (A) (A) (A) (A) (A)
                 (A) (A) (A) (A) (A) (A) (A) (A) (A) (A) (A) (A)
                 (A) (A) (A) (A) (A) (A) (A) (A) (A) (A) (A) (A)
                 (A) (A) (A) (A) (A) (A) (A) (A) (A) (A) (A) (A)
                 (A) (A) (A) (A) (A) (A) (A) (A) (A) (A) (A) (A)
                 (A) (A) (A) (A) (A) (A) (A) (A) (A) (A) (A) (A)
                 (A) (A) (A) (A) (A) (A) (A) (A) (A) (A) (A) (A)
                 (A) (A) (A) (A) (A) (A) (A) (A) (A) (A) (A) (A)
                 (A) (A) (A) (A) (A) (A) (A) (A) (A) (A) (A) (A)
                 (A) (A) (A) (A) (A) (A) (A) (A) (A) (A) (A) (A)
                 (A) (A) (A) (A) (A) (A) (A) (A)
 The electronic state is 1-A.
 Alpha  occ. eigenvalues --  -14.33435 -14.33420 -10.21788 -10.21783 -10.18629
 Alpha  occ. eigenvalues --  -10.18527 -10.18362 -10.18301 -10.18292 -10.18252
 Alpha  occ. eigenvalues --  -10.18069 -10.17910 -10.17891 -10.17826 -10.17821
 Alpha  occ. eigenvalues --  -10.17525 -10.17510 -10.17500 -10.17486 -10.17449
 Alpha  occ. eigenvalues --  -10.17435  -0.91117  -0.91097  -0.84294  -0.82935
 Alpha  occ. eigenvalues --   -0.78952  -0.78724  -0.77496  -0.74664  -0.72669
 Alpha  occ. eigenvalues --   -0.70750  -0.68054  -0.67462  -0.65680  -0.62855
 Alpha  occ. eigenvalues --   -0.62706  -0.57439  -0.57203  -0.56731  -0.54435
 Alpha  occ. eigenvalues --   -0.51383  -0.50618  -0.50107  -0.50080  -0.45046
 Alpha  occ. eigenvalues --   -0.44622  -0.44293  -0.43748  -0.42951  -0.42689
 Alpha  occ. eigenvalues --   -0.42320  -0.42182  -0.41779  -0.41463  -0.40483
 Alpha  occ. eigenvalues --   -0.40111  -0.38954  -0.38841  -0.38555  -0.37893
 Alpha  occ. eigenvalues --   -0.36972  -0.36635  -0.36411  -0.35154  -0.34616
 Alpha  occ. eigenvalues --   -0.34181  -0.33916  -0.32780  -0.32746  -0.31981
 Alpha  occ. eigenvalues --   -0.31290  -0.29980  -0.28901  -0.22964  -0.22920
 Alpha  occ. eigenvalues --   -0.19871  -0.18952
 Alpha virt. eigenvalues --    0.00399   0.00572   0.01446   0.02777   0.07587
 Alpha virt. eigenvalues --    0.07707   0.10527   0.10953   0.11127   0.12336
 Alpha virt. eigenvalues --    0.13117   0.13479   0.14774   0.15207   0.15362
 Alpha virt. eigenvalues --    0.15501   0.15616   0.15924   0.16180   0.16435
 Alpha virt. eigenvalues --    0.16899   0.17079   0.17804   0.17977   0.18590
 Alpha virt. eigenvalues --    0.18759   0.19211   0.20124   0.20311   0.21129
 Alpha virt. eigenvalues --    0.21545   0.21701   0.24367   0.24841   0.25140
 Alpha virt. eigenvalues --    0.25369   0.26959   0.27076   0.27640   0.28354
 Alpha virt. eigenvalues --    0.29891   0.30217   0.35544   0.35787   0.36317
 Alpha virt. eigenvalues --    0.37443   0.37818   0.38233   0.39293   0.40689
 Alpha virt. eigenvalues --    0.44281   0.47602   0.49138   0.49499   0.50662
 Alpha virt. eigenvalues --    0.51231   0.51551   0.52293   0.53460   0.53796
 Alpha virt. eigenvalues --    0.54880   0.55050   0.55512   0.56078   0.56399
 Alpha virt. eigenvalues --    0.56497   0.56873   0.57477   0.58961   0.59062
 Alpha virt. eigenvalues --    0.60167   0.60744   0.61073   0.61529   0.62851
 Alpha virt. eigenvalues --    0.63088   0.63257   0.64377   0.65730   0.66329
 Alpha virt. eigenvalues --    0.66512   0.67170   0.68250   0.68605   0.69445
 Alpha virt. eigenvalues --    0.69783   0.70454   0.71026   0.72769   0.74948
 Alpha virt. eigenvalues --    0.75224   0.76135   0.76610   0.77019   0.77520
 Alpha virt. eigenvalues --    0.78504   0.78890   0.79334   0.80339   0.81666
 Alpha virt. eigenvalues --    0.81944   0.82361   0.82991   0.83567   0.84448
 Alpha virt. eigenvalues --    0.84993   0.85405   0.86320   0.86682   0.87049
 Alpha virt. eigenvalues --    0.87387   0.87604   0.88596   0.88887   0.90389
 Alpha virt. eigenvalues --    0.90740   0.91116   0.91344   0.92436   0.92732
 Alpha virt. eigenvalues --    0.93206   0.93671   0.94050   0.94177   0.96140
 Alpha virt. eigenvalues --    0.96686   0.97066   0.97571   0.99281   1.00500
 Alpha virt. eigenvalues --    1.01660   1.01962   1.02235   1.02484   1.03290
 Alpha virt. eigenvalues --    1.04225   1.07247   1.07413   1.10339   1.11079
 Alpha virt. eigenvalues --    1.11427   1.13616   1.16396   1.17368   1.17810
 Alpha virt. eigenvalues --    1.19739   1.22029   1.22989   1.25454   1.26918
 Alpha virt. eigenvalues --    1.27849   1.28592   1.29839   1.30414   1.31405
 Alpha virt. eigenvalues --    1.31790   1.34460   1.35330   1.36610   1.37259
 Alpha virt. eigenvalues --    1.38105   1.39312   1.40679   1.42964   1.43466
 Alpha virt. eigenvalues --    1.48630   1.49222   1.50463   1.54876   1.55921
 Alpha virt. eigenvalues --    1.57050   1.57811   1.59624   1.61047   1.62229
 Alpha virt. eigenvalues --    1.62565   1.64633   1.69918   1.70245   1.72684
 Alpha virt. eigenvalues --    1.73014   1.73569   1.75449   1.76062   1.77076
 Alpha virt. eigenvalues --    1.77698   1.78652   1.79460   1.81125   1.81963
 Alpha virt. eigenvalues --    1.84473   1.84615   1.84968   1.85266   1.86181
 Alpha virt. eigenvalues --    1.86252   1.87074   1.88131   1.88750   1.90163
 Alpha virt. eigenvalues --    1.91512   1.91674   1.93782   1.94370   1.94908
 Alpha virt. eigenvalues --    1.95556   1.97322   1.97686   1.99030   2.01959
 Alpha virt. eigenvalues --    2.02179   2.02376   2.04176   2.04370   2.05630
 Alpha virt. eigenvalues --    2.05654   2.06807   2.06918   2.07059   2.08473
 Alpha virt. eigenvalues --    2.08840   2.10269   2.10697   2.11009   2.11871
 Alpha virt. eigenvalues --    2.12015   2.12359   2.14174   2.14290   2.15293
 Alpha virt. eigenvalues --    2.16589   2.17642   2.17783   2.18400   2.19471
 Alpha virt. eigenvalues --    2.19706   2.20827   2.21761   2.22713   2.23471
 Alpha virt. eigenvalues --    2.24208   2.26776   2.27341   2.28182   2.28932
 Alpha virt. eigenvalues --    2.29598   2.30099   2.31787   2.32211   2.32464
 Alpha virt. eigenvalues --    2.34067   2.34265   2.35027   2.35969   2.36487
 Alpha virt. eigenvalues --    2.37046   2.39971   2.41298   2.44153   2.44454
 Alpha virt. eigenvalues --    2.45173   2.45366   2.46735   2.46900   2.48511
 Alpha virt. eigenvalues --    2.50074   2.50610   2.51249   2.52952   2.53234
 Alpha virt. eigenvalues --    2.53886   2.56220   2.57194   2.58208   2.58657
 Alpha virt. eigenvalues --    2.60134   2.62187   2.63102   2.64774   2.65076
 Alpha virt. eigenvalues --    2.65792   2.66658   2.67320   2.67881   2.68141
 Alpha virt. eigenvalues --    2.70914   2.71797   2.72342   2.73564   2.74116
 Alpha virt. eigenvalues --    2.75139   2.76116   2.78046   2.79039   2.81070
 Alpha virt. eigenvalues --    2.81850   2.82907   2.83639   2.85302   2.86157
 Alpha virt. eigenvalues --    2.86852   2.87432   2.87794   2.88260   2.88354
 Alpha virt. eigenvalues --    2.90071   2.91059   2.91564   2.91957   2.98452
 Alpha virt. eigenvalues --    2.99205   3.00258   3.00314   3.06368   3.07355
 Alpha virt. eigenvalues --    3.07618   3.14651   3.20346   3.20553   3.20679
 Alpha virt. eigenvalues --    3.20926   3.21510   3.22357   3.28507   3.29893
 Alpha virt. eigenvalues --    3.31167   3.31640   3.33870   3.35612   3.36123
 Alpha virt. eigenvalues --    3.40910   3.41074   3.41115   3.41376   3.42690
 Alpha virt. eigenvalues --    3.42773   3.46725   3.46795   3.47023   3.47279
 Alpha virt. eigenvalues --    3.49891   3.52473   3.52558   3.56340   3.56381
 Alpha virt. eigenvalues --    3.70487   3.71503   4.10653   4.10739   4.14259
 Alpha virt. eigenvalues --    4.14815   4.17889   4.19209   4.20547   4.23903
 Alpha virt. eigenvalues --    4.35543   4.35978   4.39586   4.39765   4.44202
 Alpha virt. eigenvalues --    4.50540   4.53568   4.54931   4.61691   4.65823
 Alpha virt. eigenvalues --    4.67877   4.84424   4.87455
          Condensed to atoms (all electrons):
               1          2          3          4          5          6
     1  N    6.877055   0.296622  -0.083339  -0.013702   0.005145   0.000261
     2  C    0.296622   4.800645   0.493204  -0.062255  -0.019353  -0.042830
     3  C   -0.083339   0.493204   4.840922   0.344117   0.531035  -0.022716
     4  C   -0.013702  -0.062255   0.344117   5.057949  -0.052755   0.006653
     5  C    0.005145  -0.019353   0.531035  -0.052755   5.015729   0.508006
     6  C    0.000261  -0.042830  -0.022716   0.006653   0.508006   4.781506
     7  C    0.000004   0.001204   0.004945  -0.000229  -0.059840   0.338987
     8  C    0.000000   0.000073   0.000075  -0.000006  -0.000085  -0.055928
     9  C   -0.000000   0.000002   0.000036  -0.000002   0.001525  -0.003864
    10  C    0.000000   0.000000   0.000000   0.000000  -0.000104  -0.000132
    11  C    0.000000   0.000000   0.000000  -0.000000   0.000001  -0.000000
    12  C   -0.000000  -0.000000  -0.000000  -0.000000  -0.000001   0.000069
    13  C    0.000000  -0.000000  -0.000003   0.000000  -0.000086   0.000123
    14  C   -0.000000  -0.000000   0.000000  -0.000000   0.000001  -0.000005
    15  C   -0.000000   0.000000  -0.000000   0.000000  -0.000000   0.000000
    16  C    0.000000  -0.000001  -0.000086   0.000001  -0.000936  -0.000145
    17  N   -0.000000  -0.000000   0.000000  -0.000000   0.000000   0.000000
    18  C    0.005066  -0.024870  -0.048521   0.000824  -0.050211   0.522635
    19  C   -0.081366   0.493832  -0.027720   0.006943  -0.050154  -0.023341
    20  C   -0.012259  -0.056497   0.006207  -0.000156   0.000706   0.005887
    21  C   -0.001639  -0.001095   0.000022   0.000002  -0.000014  -0.000112
    22  H    0.341416  -0.022049   0.006499  -0.000068  -0.000140   0.000006
    23  H    0.340081  -0.021174  -0.017138   0.008195  -0.000146   0.000011
    24  H    0.000278   0.003810  -0.025341   0.375483  -0.005544   0.000134
    25  H    0.000297  -0.002346  -0.032727   0.371152  -0.000565  -0.000179
    26  H    0.005490  -0.006176  -0.030400   0.370345   0.001405  -0.000195
    27  H   -0.000103   0.005102  -0.038776  -0.010852   0.359823  -0.046487
    28  H   -0.000000  -0.000009  -0.000164   0.000002   0.005737  -0.032553
    29  H   -0.000000  -0.000017   0.000090   0.000004  -0.007644  -0.028537
    30  H   -0.000000   0.000000   0.000002  -0.000000  -0.000055   0.000190
    31  H    0.000000   0.000000   0.000000  -0.000000  -0.000000  -0.000000
    32  H   -0.000000   0.000000  -0.000000   0.000000  -0.000000  -0.000000
    33  H   -0.000000  -0.000000   0.000000  -0.000000  -0.000000  -0.000000
    34  H   -0.000000   0.000000   0.000000  -0.000000   0.000000  -0.000000
    35  H    0.000000  -0.000000  -0.000000   0.000000   0.000000  -0.000005
    36  H    0.000000  -0.000000   0.000000  -0.000000   0.000000  -0.000000
    37  H    0.000000  -0.000000   0.000000  -0.000000   0.000000  -0.000000
    38  H    0.000000   0.000000   0.000000  -0.000000   0.000000   0.000000
    39  H    0.000000  -0.000011  -0.000022   0.000000   0.000257   0.003047
    40  H    0.000000  -0.000000   0.000000  -0.000000   0.000000   0.000000
    41  H    0.000000  -0.000000  -0.000000  -0.000000  -0.000000   0.000000
    42  H   -0.000102   0.004827   0.000479   0.000010   0.006165  -0.042764
    43  H    0.006701  -0.010435  -0.000229   0.000001   0.000026  -0.000228
    44  H    0.000182   0.004490  -0.000167   0.000002   0.000007   0.000155
    45  H    0.000003   0.000005   0.000001  -0.000000   0.000000   0.000003
    46  H    0.000514   0.003525  -0.000044   0.000002  -0.000012   0.000030
    47  H    0.000069  -0.000536  -0.000022   0.000000  -0.000005  -0.000111
               7          8          9         10         11         12
     1  N    0.000004   0.000000  -0.000000   0.000000   0.000000  -0.000000
     2  C    0.001204   0.000073   0.000002   0.000000   0.000000  -0.000000
     3  C    0.004945   0.000075   0.000036   0.000000   0.000000  -0.000000
     4  C   -0.000229  -0.000006  -0.000002   0.000000  -0.000000  -0.000000
     5  C   -0.059840  -0.000085   0.001525  -0.000104   0.000001  -0.000001
     6  C    0.338987  -0.055928  -0.003864  -0.000132  -0.000000   0.000069
     7  C    5.143751   0.338220  -0.040350   0.005902  -0.000238   0.001219
     8  C    0.338220   4.782873   0.520728  -0.026224   0.006901  -0.042800
     9  C   -0.040350   0.520728   5.013266   0.517699  -0.051041  -0.019916
    10  C    0.005902  -0.026224   0.517699   4.856618   0.343142   0.498442
    11  C   -0.000238   0.006901  -0.051041   0.343142   5.058683  -0.063166
    12  C    0.001219  -0.042800  -0.019916   0.498442  -0.063166   4.799964
    13  C    0.004770  -0.020407  -0.049793  -0.027813   0.006945   0.488494
    14  C   -0.000208   0.005641   0.000766   0.006216  -0.000155  -0.055667
    15  C    0.000003  -0.000129  -0.000010   0.000018   0.000002  -0.000996
    16  C   -0.060245   0.510179  -0.050467  -0.048760   0.000767  -0.024316
    17  N    0.000004   0.000261   0.005111  -0.083964  -0.013765   0.296704
    18  C   -0.041111  -0.003884  -0.000161   0.000004  -0.000000   0.000002
    19  C    0.005834  -0.000139   0.000004  -0.000000   0.000000   0.000000
    20  C   -0.000214   0.000001  -0.000000   0.000000  -0.000000  -0.000000
    21  C    0.000004  -0.000000   0.000000  -0.000000   0.000000  -0.000000
    22  H    0.000000   0.000000   0.000000  -0.000000  -0.000000  -0.000000
    23  H    0.000000   0.000000   0.000000   0.000000  -0.000000  -0.000000
    24  H   -0.000009  -0.000002  -0.000001  -0.000000  -0.000000  -0.000000
    25  H    0.000004   0.000000  -0.000000   0.000000   0.000000   0.000000
    26  H    0.000003  -0.000001  -0.000000  -0.000000   0.000000   0.000000
    27  H   -0.008516   0.003095   0.002208   0.000084  -0.000004  -0.000010
    28  H    0.357287  -0.028426   0.002309  -0.000226   0.000004  -0.000016
    29  H    0.357405  -0.032751  -0.008837   0.000273  -0.000008  -0.000005
    30  H   -0.010027  -0.043467   0.361854  -0.041149  -0.010994   0.005069
    31  H   -0.000007   0.000126  -0.005591  -0.025266   0.375439   0.003805
    32  H    0.000001  -0.000216   0.001342  -0.030774   0.370441  -0.006135
    33  H    0.000005  -0.000166  -0.000677  -0.032491   0.371061  -0.002396
    34  H    0.000002  -0.000210   0.000020  -0.000238   0.000001  -0.010487
    35  H   -0.000009   0.000161   0.000008  -0.000165   0.000002   0.004486
    36  H   -0.000000   0.000003   0.000000   0.000002  -0.000000   0.000002
    37  H    0.000000   0.000031  -0.000011  -0.000043   0.000002   0.003479
    38  H    0.000001  -0.000096  -0.000006  -0.000022   0.000000  -0.000549
    39  H   -0.008514  -0.045880   0.005991   0.000477   0.000011   0.004875
    40  H    0.000000   0.000009  -0.000136   0.006523  -0.000072  -0.022095
    41  H    0.000000   0.000008  -0.000137  -0.017089   0.008181  -0.021079
    42  H   -0.010108   0.000180  -0.000004  -0.000000  -0.000000   0.000000
    43  H    0.000002  -0.000000  -0.000000  -0.000000   0.000000   0.000000
    44  H   -0.000010  -0.000000   0.000000  -0.000000  -0.000000   0.000000
    45  H   -0.000000  -0.000000  -0.000000   0.000000  -0.000000  -0.000000
    46  H    0.000000   0.000000   0.000000  -0.000000  -0.000000   0.000000
    47  H    0.000002   0.000000   0.000000  -0.000000  -0.000000  -0.000000
              13         14         15         16         17         18
     1  N    0.000000  -0.000000  -0.000000   0.000000  -0.000000   0.005066
     2  C   -0.000000  -0.000000   0.000000  -0.000001  -0.000000  -0.024870
     3  C   -0.000003   0.000000  -0.000000  -0.000086   0.000000  -0.048521
     4  C    0.000000  -0.000000   0.000000   0.000001  -0.000000   0.000824
     5  C   -0.000086   0.000001  -0.000000  -0.000936   0.000000  -0.050211
     6  C    0.000123  -0.000005   0.000000  -0.000145   0.000000   0.522635
     7  C    0.004770  -0.000208   0.000003  -0.060245   0.000004  -0.041111
     8  C   -0.020407   0.005641  -0.000129   0.510179   0.000261  -0.003884
     9  C   -0.049793   0.000766  -0.000010  -0.050467   0.005111  -0.000161
    10  C   -0.027813   0.006216   0.000018  -0.048760  -0.083964   0.000004
    11  C    0.006945  -0.000155   0.000002   0.000767  -0.013765  -0.000000
    12  C    0.488494  -0.055667  -0.000996  -0.024316   0.296704   0.000002
    13  C    4.877208   0.354495  -0.050012   0.517075  -0.080916   0.000041
    14  C    0.354495   5.007270   0.360647  -0.052852  -0.012225  -0.000002
    15  C   -0.050012   0.360647   4.940520  -0.004470  -0.001692  -0.000000
    16  C    0.517075  -0.052852  -0.004470   5.030063   0.005108   0.001535
    17  N   -0.080916  -0.012225  -0.001692   0.005108   6.877297  -0.000000
    18  C    0.000041  -0.000002  -0.000000   0.001535  -0.000000   5.028274
    19  C    0.000001   0.000000   0.000000  -0.000099   0.000000   0.503545
    20  C    0.000000  -0.000000   0.000000   0.000001   0.000000  -0.051680
    21  C    0.000000  -0.000000   0.000000   0.000000  -0.000000  -0.004682
    22  H   -0.000000   0.000000   0.000000  -0.000000   0.000000  -0.000182
    23  H    0.000000  -0.000000  -0.000000   0.000000   0.000000  -0.000158
    24  H    0.000000   0.000000   0.000000  -0.000000   0.000000   0.000010
    25  H   -0.000000   0.000000   0.000000  -0.000000  -0.000000  -0.000000
    26  H    0.000000  -0.000000  -0.000000   0.000000  -0.000000   0.000048
    27  H   -0.000026  -0.000000  -0.000000   0.000270   0.000000   0.005982
    28  H    0.000078   0.000000  -0.000001  -0.007484  -0.000000  -0.008743
    29  H   -0.000162   0.000002  -0.000000   0.005781  -0.000000   0.002388
    30  H    0.000428   0.000009  -0.000000   0.006159  -0.000102  -0.000004
    31  H   -0.000163   0.000002  -0.000000   0.000007   0.000279  -0.000000
    32  H   -0.000319   0.000002   0.000000   0.000055   0.005539  -0.000000
    33  H   -0.000019   0.000000  -0.000001  -0.000003   0.000317   0.000000
    34  H   -0.029804   0.370449  -0.043165   0.003961   0.006683  -0.000000
    35  H   -0.028817   0.377856  -0.036118  -0.007954   0.000177  -0.000000
    36  H    0.005233  -0.029278   0.372317   0.000088   0.000005   0.000000
    37  H   -0.006616  -0.037410   0.387322  -0.000325   0.000496   0.000000
    38  H   -0.004078  -0.034770   0.385702   0.003752   0.000070  -0.000000
    39  H   -0.042499  -0.009346   0.000389   0.361274  -0.000103   0.002205
    40  H   -0.016964   0.006587   0.001925  -0.000189   0.341371   0.000000
    41  H    0.006055   0.000144  -0.000001  -0.000158   0.340270   0.000000
    42  H    0.000003  -0.000000   0.000000  -0.000049  -0.000000   0.363385
    43  H   -0.000000   0.000000   0.000000  -0.000000  -0.000000   0.003923
    44  H   -0.000000  -0.000000  -0.000000  -0.000001   0.000000  -0.007953
    45  H   -0.000000   0.000000  -0.000000   0.000000   0.000000   0.000102
    46  H   -0.000000   0.000000  -0.000000  -0.000000   0.000000  -0.000332
    47  H   -0.000000   0.000000  -0.000000  -0.000000   0.000000   0.003751
              19         20         21         22         23         24
     1  N   -0.081366  -0.012259  -0.001639   0.341416   0.340081   0.000278
     2  C    0.493832  -0.056497  -0.001095  -0.022049  -0.021174   0.003810
     3  C   -0.027720   0.006207   0.000022   0.006499  -0.017138  -0.025341
     4  C    0.006943  -0.000156   0.000002  -0.000068   0.008195   0.375483
     5  C   -0.050154   0.000706  -0.000014  -0.000140  -0.000146  -0.005544
     6  C   -0.023341   0.005887  -0.000112   0.000006   0.000011   0.000134
     7  C    0.005834  -0.000214   0.000004   0.000000   0.000000  -0.000009
     8  C   -0.000139   0.000001  -0.000000   0.000000   0.000000  -0.000002
     9  C    0.000004  -0.000000   0.000000   0.000000   0.000000  -0.000001
    10  C   -0.000000   0.000000  -0.000000  -0.000000   0.000000  -0.000000
    11  C    0.000000  -0.000000   0.000000  -0.000000  -0.000000  -0.000000
    12  C    0.000000  -0.000000  -0.000000  -0.000000  -0.000000  -0.000000
    13  C    0.000001   0.000000   0.000000  -0.000000   0.000000   0.000000
    14  C    0.000000  -0.000000  -0.000000   0.000000  -0.000000   0.000000
    15  C    0.000000   0.000000   0.000000   0.000000  -0.000000   0.000000
    16  C   -0.000099   0.000001   0.000000  -0.000000   0.000000  -0.000000
    17  N    0.000000   0.000000  -0.000000   0.000000   0.000000   0.000000
    18  C    0.503545  -0.051680  -0.004682  -0.000182  -0.000158   0.000010
[...]
   232    C   16  py     Val( 2p)     1.13827
   233    C   16  py     Ryd( 3p)     0.00418
   234    C   16  pz     Val( 2p)     1.05992
   235    C   16  pz     Ryd( 3p)     0.00366
   236    C   16  dxy    Ryd( 3d)     0.00070
   237    C   16  dxz    Ryd( 3d)     0.00046
   238    C   16  dyz    Ryd( 3d)     0.00042
   239    C   16  dx2y2  Ryd( 3d)     0.00051
   240    C   16  dz2    Ryd( 3d)     0.00064

   241    N   17  S      Cor( 1S)     1.99950
   242    N   17  S      Val( 2S)     1.36634
   243    N   17  S      Ryd( 3S)     0.00019
   244    N   17  S      Ryd( 4S)     0.00001
   245    N   17  px     Val( 2p)     1.34476
   246    N   17  px     Ryd( 3p)     0.00214
   247    N   17  py     Val( 2p)     1.47351
   248    N   17  py     Ryd( 3p)     0.00196
   249    N   17  pz     Val( 2p)     1.58939
   250    N   17  pz     Ryd( 3p)     0.00331
   251    N   17  dxy    Ryd( 3d)     0.00052
   252    N   17  dxz    Ryd( 3d)     0.00087
   253    N   17  dyz    Ryd( 3d)     0.00061
   254    N   17  dx2y2  Ryd( 3d)     0.00048
   255    N   17  dz2    Ryd( 3d)     0.00087

   256    C   18  S      Cor( 1S)     1.99898
   257    C   18  S      Val( 2S)     0.93498
   258    C   18  S      Ryd( 3S)     0.00057
   259    C   18  S      Ryd( 4S)     0.00005
   260    C   18  px     Val( 2p)     1.07065
   261    C   18  px     Ryd( 3p)     0.00352
   262    C   18  py     Val( 2p)     1.15096
   263    C   18  py     Ryd( 3p)     0.00435
   264    C   18  pz     Val( 2p)     1.12301
   265    C   18  pz     Ryd( 3p)     0.00398
   266    C   18  dxy    Ryd( 3d)     0.00051
   267    C   18  dxz    Ryd( 3d)     0.00047
   268    C   18  dyz    Ryd( 3d)     0.00058
   269    C   18  dx2y2  Ryd( 3d)     0.00060
   270    C   18  dz2    Ryd( 3d)     0.00043

   271    C   19  S      Cor( 1S)     1.99898
   272    C   19  S      Val( 2S)     0.86967
   273    C   19  S      Ryd( 3S)     0.00097
   274    C   19  S      Ryd( 4S)     0.00005
   275    C   19  px     Val( 2p)     1.07356
   276    C   19  px     Ryd( 3p)     0.00529
   277    C   19  py     Val( 2p)     1.05424
   278    C   19  py     Ryd( 3p)     0.00389
   279    C   19  pz     Val( 2p)     1.06099
   280    C   19  pz     Ryd( 3p)     0.00424
   281    C   19  dxy    Ryd( 3d)     0.00057
   282    C   19  dxz    Ryd( 3d)     0.00050
   283    C   19  dyz    Ryd( 3d)     0.00058
   284    C   19  dx2y2  Ryd( 3d)     0.00070
   285    C   19  dz2    Ryd( 3d)     0.00059

   286    C   20  S      Cor( 1S)     1.99931
   287    C   20  S      Val( 2S)     1.03118
   288    C   20  S      Ryd( 3S)     0.00061
   289    C   20  S      Ryd( 4S)     0.00002
   290    C   20  px     Val( 2p)     1.09579
   291    C   20  px     Ryd( 3p)     0.00263
   292    C   20  py     Val( 2p)     1.15539
   293    C   20  py     Ryd( 3p)     0.00221
   294    C   20  pz     Val( 2p)     1.19317
   295    C   20  pz     Ryd( 3p)     0.00290
   296    C   20  dxy    Ryd( 3d)     0.00089
   297    C   20  dxz    Ryd( 3d)     0.00066
   298    C   20  dyz    Ryd( 3d)     0.00038
   299    C   20  dx2y2  Ryd( 3d)     0.00051
   300    C   20  dz2    Ryd( 3d)     0.00083

   301    C   21  S      Cor( 1S)     1.99945
   302    C   21  S      Val( 2S)     1.10975
   303    C   21  S      Ryd( 3S)     0.00033
   304    C   21  S      Ryd( 4S)     0.00001
   305    C   21  px     Val( 2p)     1.13901
   306    C   21  px     Ryd( 3p)     0.00111
   307    C   21  py     Val( 2p)     1.24060
   308    C   21  py     Ryd( 3p)     0.00135
   309    C   21  pz     Val( 2p)     1.18558
   310    C   21  pz     Ryd( 3p)     0.00101
   311    C   21  dxy    Ryd( 3d)     0.00100
   312    C   21  dxz    Ryd( 3d)     0.00049
   313    C   21  dyz    Ryd( 3d)     0.00020
   314    C   21  dx2y2  Ryd( 3d)     0.00025
   315    C   21  dz2    Ryd( 3d)     0.00089

   316    H   22  S      Val( 1S)     0.57844
   317    H   22  S      Ryd( 2S)     0.00113
   318    H   22  px     Ryd( 2p)     0.00048
   319    H   22  py     Ryd( 2p)     0.00036
   320    H   22  pz     Ryd( 2p)     0.00042

   321    H   23  S      Val( 1S)     0.57593
   322    H   23  S      Ryd( 2S)     0.00097
   323    H   23  px     Ryd( 2p)     0.00028
   324    H   23  py     Ryd( 2p)     0.00057
   325    H   23  pz     Ryd( 2p)     0.00041

   326    H   24  S      Val( 1S)     0.74843
   327    H   24  S      Ryd( 2S)     0.00071
   328    H   24  px     Ryd( 2p)     0.00023
   329    H   24  py     Ryd( 2p)     0.00019
   330    H   24  pz     Ryd( 2p)     0.00008

   331    H   25  S      Val( 1S)     0.76164
   332    H   25  S      Ryd( 2S)     0.00156
   333    H   25  px     Ryd( 2p)     0.00026
   334    H   25  py     Ryd( 2p)     0.00018
   335    H   25  pz     Ryd( 2p)     0.00011

   336    H   26  S      Val( 1S)     0.75615
   337    H   26  S      Ryd( 2S)     0.00162
   338    H   26  px     Ryd( 2p)     0.00009
   339    H   26  py     Ryd( 2p)     0.00012
   340    H   26  pz     Ryd( 2p)     0.00033

   341    H   27  S      Val( 1S)     0.76381
   342    H   27  S      Ryd( 2S)     0.00180
   343    H   27  px     Ryd( 2p)     0.00024
   344    H   27  py     Ryd( 2p)     0.00027
   345    H   27  pz     Ryd( 2p)     0.00011

   346    H   28  S      Val( 1S)     0.74112
   347    H   28  S      Ryd( 2S)     0.00167
   348    H   28  px     Ryd( 2p)     0.00010
   349    H   28  py     Ryd( 2p)     0.00025
   350    H   28  pz     Ryd( 2p)     0.00020

   351    H   29  S      Val( 1S)     0.74141
   352    H   29  S      Ryd( 2S)     0.00159
   353    H   29  px     Ryd( 2p)     0.00010
   354    H   29  py     Ryd( 2p)     0.00024
   355    H   29  pz     Ryd( 2p)     0.00021

   356    H   30  S      Val( 1S)     0.76878
   357    H   30  S      Ryd( 2S)     0.00113
   358    H   30  px     Ryd( 2p)     0.00009
   359    H   30  py     Ryd( 2p)     0.00029
   360    H   30  pz     Ryd( 2p)     0.00025

   361    H   31  S      Val( 1S)     0.74802
   362    H   31  S      Ryd( 2S)     0.00073
   363    H   31  px     Ryd( 2p)     0.00011
   364    H   31  py     Ryd( 2p)     0.00021
   365    H   31  pz     Ryd( 2p)     0.00017

   366    H   32  S      Val( 1S)     0.75417
   367    H   32  S      Ryd( 2S)     0.00149
   368    H   32  px     Ryd( 2p)     0.00010
   369    H   32  py     Ryd( 2p)     0.00014
   370    H   32  pz     Ryd( 2p)     0.00029

   371    H   33  S      Val( 1S)     0.75973
   372    H   33  S      Ryd( 2S)     0.00151
   373    H   33  px     Ryd( 2p)     0.00028
   374    H   33  py     Ryd( 2p)     0.00012
   375    H   33  pz     Ryd( 2p)     0.00015

   376    H   34  S      Val( 1S)     0.76164
   377    H   34  S      Ryd( 2S)     0.00204
   378    H   34  px     Ryd( 2p)     0.00013
   379    H   34  py     Ryd( 2p)     0.00012
   380    H   34  pz     Ryd( 2p)     0.00032

   381    H   35  S      Val( 1S)     0.75178
   382    H   35  S      Ryd( 2S)     0.00187
   383    H   35  px     Ryd( 2p)     0.00028
   384    H   35  py     Ryd( 2p)     0.00014
   385    H   35  pz     Ryd( 2p)     0.00012

   386    H   36  S      Val( 1S)     0.76525
   387    H   36  S      Ryd( 2S)     0.00189
   388    H   36  px     Ryd( 2p)     0.00009
   389    H   36  py     Ryd( 2p)     0.00024
   390    H   36  pz     Ryd( 2p)     0.00019

   391    H   37  S      Val( 1S)     0.77559
   392    H   37  S      Ryd( 2S)     0.00130
   393    H   37  px     Ryd( 2p)     0.00029
   394    H   37  py     Ryd( 2p)     0.00012
   395    H   37  pz     Ryd( 2p)     0.00012

   396    H   38  S      Val( 1S)     0.76478
   397    H   38  S      Ryd( 2S)     0.00118
   398    H   38  px     Ryd( 2p)     0.00014
   399    H   38  py     Ryd( 2p)     0.00012
   400    H   38  pz     Ryd( 2p)     0.00026

   401    H   39  S      Val( 1S)     0.76594
   402    H   39  S      Ryd( 2S)     0.00153
   403    H   39  px     Ryd( 2p)     0.00023
   404    H   39  py     Ryd( 2p)     0.00027
   405    H   39  pz     Ryd( 2p)     0.00013

   406    H   40  S      Val( 1S)     0.57852
   407    H   40  S      Ryd( 2S)     0.00158
   408    H   40  px     Ryd( 2p)     0.00028
   409    H   40  py     Ryd( 2p)     0.00057
   410    H   40  pz     Ryd( 2p)     0.00042

   411    H   41  S      Val( 1S)     0.57566
   412    H   41  S      Ryd( 2S)     0.00094
   413    H   41  px     Ryd( 2p)     0.00044
   414    H   41  py     Ryd( 2p)     0.00037
   415    H   41  pz     Ryd( 2p)     0.00045

   416    H   42  S      Val( 1S)     0.76694
   417    H   42  S      Ryd( 2S)     0.00120
   418    H   42  px     Ryd( 2p)     0.00009
   419    H   42  py     Ryd( 2p)     0.00029
   420    H   42  pz     Ryd( 2p)     0.00024

   421    H   43  S      Val( 1S)     0.75774
   422    H   43  S      Ryd( 2S)     0.00187
   423    H   43  px     Ryd( 2p)     0.00012
   424    H   43  py     Ryd( 2p)     0.00012
   425    H   43  pz     Ryd( 2p)     0.00033

   426    H   44  S      Val( 1S)     0.74917
   427    H   44  S      Ryd( 2S)     0.00187
   428    H   44  px     Ryd( 2p)     0.00015
   429    H   44  py     Ryd( 2p)     0.00028
   430    H   44  pz     Ryd( 2p)     0.00011

   431    H   45  S      Val( 1S)     0.76225
   432    H   45  S      Ryd( 2S)     0.00152
   433    H   45  px     Ryd( 2p)     0.00019
   434    H   45  py     Ryd( 2p)     0.00025
   435    H   45  pz     Ryd( 2p)     0.00008

   436    H   46  S      Val( 1S)     0.77367
   437    H   46  S      Ryd( 2S)     0.00110
   438    H   46  px     Ryd( 2p)     0.00017
   439    H   46  py     Ryd( 2p)     0.00026
   440    H   46  pz     Ryd( 2p)     0.00010

   441    H   47  S      Val( 1S)     0.76333
   442    H   47  S      Ryd( 2S)     0.00110
   443    H   47  px     Ryd( 2p)     0.00011
   444    H   47  py     Ryd( 2p)     0.00009
   445    H   47  pz     Ryd( 2p)     0.00032

 WARNING:  1 low occupancy (<1.9990e) core orbital  found on  C    2
           1 low occupancy (<1.9990e) core orbital  found on  C    3
           1 low occupancy (<1.9990e) core orbital  found on  C    5
           1 low occupancy (<1.9990e) core orbital  found on  C    9
           1 low occupancy (<1.9990e) core orbital  found on  C   10
           1 low occupancy (<1.9990e) core orbital  found on  C   12
           1 low occupancy (<1.9990e) core orbital  found on  C   13
           1 low occupancy (<1.9990e) core orbital  found on  C   16
           1 low occupancy (<1.9990e) core orbital  found on  C   18
           1 low occupancy (<1.9990e) core orbital  found on  C   19


 Summary of Natural Population Analysis:                  
                                                          
                                       Natural Population 
                Natural  -----------------------------------------------
    Atom  No    Charge         Core      Valence    Rydberg      Total
 -----------------------------------------------------------------------
      N    1   -0.79673      1.99950     5.78619    0.01104     7.79673
      C    2    0.18681      1.99884     3.79769    0.01667     5.81319
      C    3   -0.09829      1.99900     4.08372    0.01558     6.09829
      C    4   -0.71190      1.99941     4.70503    0.00746     6.71190
      C    5   -0.25454      1.99898     4.24170    0.01386     6.25454
      C    6   -0.00252      1.99900     3.98627    0.01726     6.00252
      C    7   -0.49002      1.99922     4.47636    0.01445     6.49002
      C    8    0.00710      1.99900     3.97661    0.01729     5.99290
      C    9   -0.30697      1.99899     4.29239    0.01560     6.30697
      C   10   -0.07736      1.99899     4.06259    0.01578     6.07736
      C   11   -0.71386      1.99941     4.70692    0.00753     6.71386
      C   12    0.18835      1.99884     3.79610    0.01672     5.81165
      C   13   -0.11264      1.99899     4.09546    0.01819     6.11264
      C   14   -0.48444      1.99931     4.47325    0.01188     6.48444
      C   15   -0.68146      1.99945     4.67537    0.00664     6.68146
      C   16   -0.26713      1.99898     4.25343    0.01472     6.26713
      N   17   -0.78446      1.99950     5.77400    0.01096     7.78446
      C   18   -0.29363      1.99898     4.27959    0.01506     6.29363
      C   19   -0.07481      1.99898     4.05845    0.01738     6.07481
      C   20   -0.48649      1.99931     4.47553    0.01165     6.48649
      C   21   -0.68104      1.99945     4.67494    0.00664     6.68104
      H   22    0.41918      0.00000     0.57844    0.00239     0.58082
      H   23    0.42184      0.00000     0.57593    0.00223     0.57816
      H   24    0.25036      0.00000     0.74843    0.00121     0.74964
      H   25    0.23625      0.00000     0.76164    0.00211     0.76375
      H   26    0.24170      0.00000     0.75615    0.00215     0.75830
      H   27    0.23378      0.00000     0.76381    0.00241     0.76622
      H   28    0.25666      0.00000     0.74112    0.00222     0.74334
      H   29    0.25644      0.00000     0.74141    0.00215     0.74356
      H   30    0.22947      0.00000     0.76878    0.00176     0.77053
      H   31    0.25076      0.00000     0.74802    0.00123     0.74924
      H   32    0.24380      0.00000     0.75417    0.00203     0.75620
      H   33    0.23821      0.00000     0.75973    0.00206     0.76179
      H   34    0.23574      0.00000     0.76164    0.00261     0.76426
      H   35    0.24582      0.00000     0.75178    0.00240     0.75418
      H   36    0.23234      0.00000     0.76525    0.00241     0.76766
      H   37    0.22257      0.00000     0.77559    0.00183     0.77743
      H   38    0.23352      0.00000     0.76478    0.00170     0.76648
      H   39    0.23190      0.00000     0.76594    0.00215     0.76810
      H   40    0.41865      0.00000     0.57852    0.00283     0.58135
      H   41    0.42214      0.00000     0.57566    0.00220     0.57786
      H   42    0.23124      0.00000     0.76694    0.00182     0.76876
      H   43    0.23982      0.00000     0.75774    0.00243     0.76018
      H   44    0.24841      0.00000     0.74917    0.00241     0.75159
      H   45    0.23572      0.00000     0.76225    0.00203     0.76428
      H   46    0.22470      0.00000     0.77367    0.00163     0.77530
      H   47    0.23505      0.00000     0.76333    0.00162     0.76495
 =======================================================================
   * Total *   -0.00000     41.98215   111.68148    0.33637   154.00000

                                 Natural Population      
 --------------------------------------------------------
   Core                      41.98215 ( 99.9575% of  42)
   Valence                  111.68148 ( 99.7156% of 112)
   Natural Minimal Basis    153.66363 ( 99.7816% of 154)
   Natural Rydberg Basis      0.33637 (  0.2184% of 154)
 --------------------------------------------------------

    Atom  No          Natural Electron Configuration
 ----------------------------------------------------------------------------
      N    1      [core]2S( 1.37)2p( 4.42)3p( 0.01)
      C    2      [core]2S( 0.84)2p( 2.96)3p( 0.01)
      C    3      [core]2S( 0.87)2p( 3.21)3p( 0.01)
      C    4      [core]2S( 1.10)2p( 3.61)
      C    5      [core]2S( 0.94)2p( 3.30)3p( 0.01)
      C    6      [core]2S( 0.88)2p( 3.11)3p( 0.01)
      C    7      [core]2S( 1.02)2p( 3.45)3p( 0.01)
      C    8      [core]2S( 0.88)2p( 3.10)3p( 0.01)
      C    9      [core]2S( 0.93)2p( 3.36)3p( 0.01)
      C   10      [core]2S( 0.87)2p( 3.19)3p( 0.01)
      C   11      [core]2S( 1.10)2p( 3.61)
      C   12      [core]2S( 0.84)2p( 2.96)3p( 0.01)
      C   13      [core]2S( 0.87)2p( 3.23)3p( 0.01)
      C   14      [core]2S( 1.03)2p( 3.44)3p( 0.01)
      C   15      [core]2S( 1.11)2p( 3.56)
      C   16      [core]2S( 0.94)2p( 3.32)3p( 0.01)
      N   17      [core]2S( 1.37)2p( 4.41)3p( 0.01)
      C   18      [core]2S( 0.93)2p( 3.34)3p( 0.01)
      C   19      [core]2S( 0.87)2p( 3.19)3p( 0.01)
      C   20      [core]2S( 1.03)2p( 3.44)3p( 0.01)
      C   21      [core]2S( 1.11)2p( 3.57)
      H   22            1S( 0.58)
      H   23            1S( 0.58)
      H   24            1S( 0.75)
      H   25            1S( 0.76)
      H   26            1S( 0.76)
      H   27            1S( 0.76)
      H   28            1S( 0.74)
      H   29            1S( 0.74)
      H   30            1S( 0.77)
      H   31            1S( 0.75)
      H   32            1S( 0.75)
      H   33            1S( 0.76)
      H   34            1S( 0.76)
      H   35            1S( 0.75)
      H   36            1S( 0.77)
      H   37            1S( 0.78)
      H   38            1S( 0.76)
      H   39            1S( 0.77)
      H   40            1S( 0.58)
      H   41            1S( 0.58)
      H   42            1S( 0.77)
      H   43            1S( 0.76)
      H   44            1S( 0.75)
      H   45            1S( 0.76)
      H   46            1S( 0.77)
      H   47            1S( 0.76)


 NBO analysis skipped by request.
 1\1\GINC-DRG2-W002\SP\RB3LYP TD-FC\6-31G(d,p)\C19H26N2\QDUEZ\18-Jul-20
 24\0\\# TD(NStates=10, Root=1) B3LYP/6-31G** SCRF=(Solvent=water) volu
 me pop=NPA density=current Geom=AllCheck Guess=Read\\QJENIOQDYXRGLF-UH
 FFFAOYSA-N_conf_1\\0,1\N,0,-4.6707791895,-0.8363509706,-1.2514472608\C
 ,0,-3.5635424789,-0.2690903588,-0.6003311056\C,0,-2.9037643967,-1.0014
 120816,0.4168390594\C,0,-3.426205817,-2.3537667959,0.8393576418\C,0,-1
 .76585357,-0.4596239004,1.0149695556\C,0,-1.2460791517,0.7865654208,0.
 6423602394\C,0,-0.0045857138,1.352746436,1.3140644304\C,0,1.2598809841
 ,0.5357663297,1.0967525565\C,0,1.9217802312,-0.079087484,2.1628148774\
 C,0,3.0860749686,-0.8341051428,1.9857003941\C,0,3.7612496063,-1.494521
 301,3.1639524192\C,0,3.6207513587,-0.9765732857,0.6860928331\C,0,2.966
 9257371,-0.3687591264,-0.4127569228\C,0,3.5190539315,-0.490840636,-1.8
 197929487\C,0,4.6467418402,0.5123882099,-2.1316671866\C,0,1.8040139158
 ,0.3694119414,-0.1822161242\N,0,4.751778299,-1.7842371132,0.4859256044
 \C,0,-1.9093679115,1.483795666,-0.3695243906\C,0,-3.055970496,0.985977
 2982,-1.0011150385\C,0,-3.7398418945,1.8047311245,-2.0786988092\C,0,-4
 .934914689,2.6307547559,-1.5639697791\H,0,-5.3064727859,-0.1697054315,
 -1.6674137892\H,0,-5.1862509843,-1.5060496424,-0.6953655253\H,0,-2.783
 0957554,-2.7997987863,1.6017396189\H,0,-4.4386773299,-2.2919028533,1.2
 618312777\H,0,-3.4784988958,-3.0511073529,-0.0061897032\H,0,-1.2658212
 481,-1.0332002178,1.7928853748\H,0,0.1508612531,2.3752337115,0.9475826
 284\H,0,-0.1785413923,1.4400061526,2.393955195\H,0,1.5236502109,0.0292
 747268,3.1699151165\H,0,3.2016432171,-1.3159502491,4.0852879045\H,0,3.
 8461022104,-2.5801179908,3.028050853\H,0,4.7801704058,-1.114777866,3.3
 22569344\H,0,3.879159204,-1.5124835516,-1.9971021042\H,0,2.7027523183,
 -0.3326659707,-2.5328261798\H,0,5.0186742935,0.3778240813,-3.152567503
 6\H,0,5.4960931148,0.3993240233,-1.4491002583\H,0,4.2846525987,1.54069
 31544,-2.0338889465\H,0,1.3045022159,0.8257838773,-1.0349353498\H,0,5.
 2979781703,-1.555915724,-0.3332591571\H,0,5.3557927089,-1.8668446101,1
 .2932495772\H,0,-1.5274182814,2.4533969443,-0.6845598437\H,0,-4.071907
 0106,1.152068546,-2.8964283404\H,0,-3.0062656537,2.4880754752,-2.52013
 80662\H,0,-5.3998133746,3.1958478546,-2.3784075632\H,0,-5.7068699565,1
 .9970521803,-1.1139124187\H,0,-4.609744817,3.3421705329,-0.7982821861\
 \Version=ES64L-G16RevA.03\State=1-A\HF=-849.2712501\RMSD=3.552e-09\Dip
 ole=-0.1330395,-0.328585,-0.0996951\Quadrupole=23.4971119,-12.80709,-1
 0.6900219,-2.5053034,5.0376902,-3.5431639\PG=C01 [X(C19H26N2)]\\@


 Sometimes the fool who rushes in gets the job done.
                                    -- Al Bernstein
 Job cpu time:       0 days  1 hours 58 minutes 13.6 seconds.
 Elapsed time:       0 days  0 hours 39 minutes 31.5 seconds.
 File lengths (MBytes):  RWF=   1542 Int=      0 D2E=      0 Chk=     97 Scr=      1
 Normal termination of Gaussian 16 at Thu Jul 18 20:28:13 2024.
