 Entering Gaussian System, Link 0=g16
 Initial command:
 /opt/sw/arch/manual/gaussian/G16_A03/g16/l1.exe "/scratch/1030841.jesse.materianova.be/Gau-46458.inp" -scrdir="/scratch/1030841.jesse.materianova.be/"
 Entering Link 1 = /opt/sw/arch/manual/gaussian/G16_A03/g16/l1.exe PID=     46459.
  
 Copyright (c) 1988,1990,1992,1993,1995,1998,2003,2009,2016,
            Gaussian, Inc.  All Rights Reserved.
  
 This is part of the Gaussian(R) 16 program.  It is based on
 the Gaussian(R) 09 system (copyright 2009, Gaussian, Inc.),
 the Gaussian(R) 03 system (copyright 2003, Gaussian, Inc.),
 the Gaussian(R) 98 system (copyright 1998, Gaussian, Inc.),
 the Gaussian(R) 94 system (copyright 1995, Gaussian, Inc.),
 the Gaussian 92(TM) system (copyright 1992, Gaussian, Inc.),
 the Gaussian 90(TM) system (copyright 1990, Gaussian, Inc.),
 the Gaussian 88(TM) system (copyright 1988, Gaussian, Inc.),
 the Gaussian 86(TM) system (copyright 1986, Carnegie Mellon
 University), and the Gaussian 82(TM) system (copyright 1983,
 Carnegie Mellon University). Gaussian is a federally registered
 trademark of Gaussian, Inc.
  
 This software contains proprietary and confidential information,
 including trade secrets, belonging to Gaussian, Inc.
  
 This software is provided under written license and may be
 used, copied, transmitted, or stored only in accord with that
 written license.
  
 The following legend is applicable only to US Government
 contracts under FAR:
  
                    RESTRICTED RIGHTS LEGEND
  
 Use, reproduction and disclosure by the US Government is
 subject to restrictions as set forth in subparagraphs (a)
 and (c) of the Commercial Computer Software - Restricted
 Rights clause in FAR 52.227-19.
  
 Gaussian, Inc.
 340 Quinnipiac St., Bldg. 40, Wallingford CT 06492
  
  
 ---------------------------------------------------------------
 Warning -- This program may not be used in any manner that
 competes with the business of Gaussian, Inc. or will provide
 assistance to any competitor of Gaussian, Inc.  The licensee
 of this program is prohibited from giving any competitor of
 Gaussian, Inc. access to this program.  By using this program,
 the user acknowledges that Gaussian, Inc. is engaged in the
 business of creating and licensing software in the field of
 computational chemistry and represents and warrants to the
 licensee that it is not a competitor of Gaussian, Inc. and that
 it will not use this program in any manner prohibited above.
 ---------------------------------------------------------------
  

 Cite this work as:
 Gaussian 16, Revision A.03,
 M. J. Frisch, G. W. Trucks, H. B. Schlegel, G. E. Scuseria, 
 M. A. Robb, J. R. Cheeseman, G. Scalmani, V. Barone, 
 G. A. Petersson, H. Nakatsuji, X. Li, M. Caricato, A. V. Marenich, 
 J. Bloino, B. G. Janesko, R. Gomperts, B. Mennucci, H. P. Hratchian, 
 J. V. Ortiz, A. F. Izmaylov, J. L. Sonnenberg, D. Williams-Young, 
 F. Ding, F. Lipparini, F. Egidi, J. Goings, B. Peng, A. Petrone, 
 T. Henderson, D. Ranasinghe, V. G. Zakrzewski, J. Gao, N. Rega, 
 G. Zheng, W. Liang, M. Hada, M. Ehara, K. Toyota, R. Fukuda, 
 J. Hasegawa, M. Ishida, T. Nakajima, Y. Honda, O. Kitao, H. Nakai, 
 T. Vreven, K. Throssell, J. A. Montgomery, Jr., J. E. Peralta, 
 F. Ogliaro, M. J. Bearpark, J. J. Heyd, E. N. Brothers, K. N. Kudin, 
 V. N. Staroverov, T. A. Keith, R. Kobayashi, J. Normand, 
 K. Raghavachari, A. P. Rendell, J. C. Burant, S. S. Iyengar, 
 J. Tomasi, M. Cossi, J. M. Millam, M. Klene, C. Adamo, R. Cammi, 
 J. W. Ochterski, R. L. Martin, K. Morokuma, O. Farkas, 
 J. B. Foresman, and D. J. Fox, Gaussian, Inc., Wallingford CT, 2016.
 
 ******************************************
 Gaussian 16:  EM64L-G16RevA.03 25-Dec-2016
                 9-Jul-2024 
 ******************************************
 %nprocshared=2
 Will use up to    2 processors via shared memory.
 %mem=4GB
 %Chk=XFNJVJPLKCPIBV-UHFFFAOYSA-N_conf_1_0.chk
 -------------------------------------------------------
 # opt=CalcFc B3LYP/6-31G** SCRF=(Solvent=water) scf=xqc
 -------------------------------------------------------
 1/10=4,18=20,19=15,26=3,38=1/1,3;
 2/9=110,12=2,17=6,18=5,40=1/2;
 3/5=1,6=6,7=101,11=2,25=1,30=1,70=2201,71=2,72=1,74=-5,140=1/1,2,3;
 4//1;
 5/5=2,8=3,13=1,38=5,53=1/2,8;
 8/6=4,10=90,11=11/1;
 11/6=1,8=1,9=11,15=111,16=1/1,2,10;
 10/6=1,13=1/2;
 6/7=2,8=2,9=2,10=2,28=1/1;
 7/10=1,18=20,25=1/1,2,3,16;
 1/10=4,18=20,19=15,26=3/3(2);
 2/9=110/2;
 99//99;
 2/9=110/2;
 3/5=1,6=6,7=101,11=2,25=1,30=1,70=2205,71=1,72=1,74=-5/1,2,3;
 4/5=5,16=3,69=1/1;
 5/5=2,8=3,13=1,38=5,53=1/2,8;
 7//1,2,3,16;
 1/18=20,19=15,26=3/3(-5);
 2/9=110/2;
 6/7=2,8=2,9=2,10=2,19=2,28=1/1;
 99/9=1/99;
 ----------------------------------
 XFNJVJPLKCPIBV-UHFFFAOYSA-N_conf_1
 ----------------------------------
 Symbolic Z-matrix:
 Charge =  0 Multiplicity = 1
 N                    -1.9469   -0.69747  -0.30744 
 C                    -1.32422   0.60969  -0.12537 
 C                     0.14312   0.61244  -0.55566 
 C                     1.01426  -0.29059   0.31702 
 N                     2.41557  -0.18769  -0.08946 
 H                    -1.93479  -0.94526  -1.29662 
 H                    -2.93064  -0.63962  -0.04468 
 H                    -1.87479   1.35009  -0.7162 
 H                    -1.40671   0.90472   0.92633 
 H                     0.51533   1.6435   -0.49736 
 H                     0.22166   0.30941  -1.60791 
 H                     0.92879   0.00588   1.36793 
 H                     0.69586  -1.33526   0.23667 
 H                     2.51151  -0.51764  -1.04911 
 H                     2.97194  -0.82221   0.48253 
 

 GradGradGradGradGradGradGradGradGradGradGradGradGradGradGradGradGradGrad
 Berny optimization.
 Initialization pass.
                           ----------------------------
                           !    Initial Parameters    !
                           ! (Angstroms and Degrees)  !
 --------------------------                            --------------------------
 ! Name  Definition              Value          Derivative Info.                !
 --------------------------------------------------------------------------------
 ! R1    R(1,2)                  1.4593         calculate D2E/DX2 analytically  !
 ! R2    R(1,6)                  1.0198         calculate D2E/DX2 analytically  !
 ! R3    R(1,7)                  1.0199         calculate D2E/DX2 analytically  !
 ! R4    R(2,3)                  1.5291         calculate D2E/DX2 analytically  !
 ! R5    R(2,8)                  1.0956         calculate D2E/DX2 analytically  !
 ! R6    R(2,9)                  1.0954         calculate D2E/DX2 analytically  !
 ! R7    R(3,4)                  1.5284         calculate D2E/DX2 analytically  !
 ! R8    R(3,10)                 1.0977         calculate D2E/DX2 analytically  !
 ! R9    R(3,11)                 1.0978         calculate D2E/DX2 analytically  !
 ! R10   R(4,5)                  1.4627         calculate D2E/DX2 analytically  !
 ! R11   R(4,12)                 1.0953         calculate D2E/DX2 analytically  !
 ! R12   R(4,13)                 1.0951         calculate D2E/DX2 analytically  !
 ! R13   R(5,14)                 1.0193         calculate D2E/DX2 analytically  !
 ! R14   R(5,15)                 1.0195         calculate D2E/DX2 analytically  !
 ! A1    A(2,1,6)              109.4867         calculate D2E/DX2 analytically  !
 ! A2    A(2,1,7)              109.1858         calculate D2E/DX2 analytically  !
 ! A3    A(6,1,7)              105.9698         calculate D2E/DX2 analytically  !
 ! A4    A(1,2,3)              112.084          calculate D2E/DX2 analytically  !
 ! A5    A(1,2,8)              108.882          calculate D2E/DX2 analytically  !
 ! A6    A(1,2,9)              109.2021         calculate D2E/DX2 analytically  !
 ! A7    A(3,2,8)              109.2234         calculate D2E/DX2 analytically  !
 ! A8    A(3,2,9)              109.9953         calculate D2E/DX2 analytically  !
 ! A9    A(8,2,9)              107.331          calculate D2E/DX2 analytically  !
 ! A10   A(2,3,4)              112.6568         calculate D2E/DX2 analytically  !
 ! A11   A(2,3,10)             108.1869         calculate D2E/DX2 analytically  !
 ! A12   A(2,3,11)             109.7467         calculate D2E/DX2 analytically  !
 ! A13   A(4,3,10)             109.3524         calculate D2E/DX2 analytically  !
 ! A14   A(4,3,11)             110.0847         calculate D2E/DX2 analytically  !
 ! A15   A(10,3,11)            106.613          calculate D2E/DX2 analytically  !
 ! A16   A(3,4,5)              110.2317         calculate D2E/DX2 analytically  !
 ! A17   A(3,4,12)             110.0878         calculate D2E/DX2 analytically  !
 ! A18   A(3,4,13)             110.8568         calculate D2E/DX2 analytically  !
 ! A19   A(5,4,12)             108.8054         calculate D2E/DX2 analytically  !
 ! A20   A(5,4,13)             108.982          calculate D2E/DX2 analytically  !
 ! A21   A(12,4,13)            107.8147         calculate D2E/DX2 analytically  !
 ! A22   A(4,5,14)             109.2098         calculate D2E/DX2 analytically  !
 ! A23   A(4,5,15)             108.8527         calculate D2E/DX2 analytically  !
 ! A24   A(14,5,15)            105.9851         calculate D2E/DX2 analytically  !
 ! D1    D(6,1,2,3)            -62.0596         calculate D2E/DX2 analytically  !
 ! D2    D(6,1,2,8)             58.8912         calculate D2E/DX2 analytically  !
 ! D3    D(6,1,2,9)            175.7955         calculate D2E/DX2 analytically  !
 ! D4    D(7,1,2,3)           -177.663          calculate D2E/DX2 analytically  !
 ! D5    D(7,1,2,8)            -56.7123         calculate D2E/DX2 analytically  !
 ! D6    D(7,1,2,9)             60.1921         calculate D2E/DX2 analytically  !
 ! D7    D(1,2,3,4)            -65.1303         calculate D2E/DX2 analytically  !
 ! D8    D(1,2,3,10)           173.8651         calculate D2E/DX2 analytically  !
 ! D9    D(1,2,3,11)            57.9095         calculate D2E/DX2 analytically  !
 ! D10   D(8,2,3,4)            174.1164         calculate D2E/DX2 analytically  !
 ! D11   D(8,2,3,10)            53.1117         calculate D2E/DX2 analytically  !
 ! D12   D(8,2,3,11)           -62.8439         calculate D2E/DX2 analytically  !
 ! D13   D(9,2,3,4)             56.5613         calculate D2E/DX2 analytically  !
 ! D14   D(9,2,3,10)           -64.4433         calculate D2E/DX2 analytically  !
 ! D15   D(9,2,3,11)           179.601          calculate D2E/DX2 analytically  !
 ! D16   D(2,3,4,5)           -176.6712         calculate D2E/DX2 analytically  !
 ! D17   D(2,3,4,12)           -56.6323         calculate D2E/DX2 analytically  !
 ! D18   D(2,3,4,13)            62.5725         calculate D2E/DX2 analytically  !
 ! D19   D(10,3,4,5)           -56.3345         calculate D2E/DX2 analytically  !
 ! D20   D(10,3,4,12)           63.7044         calculate D2E/DX2 analytically  !
 ! D21   D(10,3,4,13)         -177.0908         calculate D2E/DX2 analytically  !
 ! D22   D(11,3,4,5)            60.478          calculate D2E/DX2 analytically  !
 ! D23   D(11,3,4,12)         -179.4831         calculate D2E/DX2 analytically  !
 ! D24   D(11,3,4,13)          -60.2783         calculate D2E/DX2 analytically  !
 ! D25   D(3,4,5,14)           -62.6959         calculate D2E/DX2 analytically  !
 ! D26   D(3,4,5,15)          -177.9814         calculate D2E/DX2 analytically  !
 ! D27   D(12,4,5,14)          176.4942         calculate D2E/DX2 analytically  !
 ! D28   D(12,4,5,15)           61.2087         calculate D2E/DX2 analytically  !
 ! D29   D(13,4,5,14)           59.1772         calculate D2E/DX2 analytically  !
 ! D30   D(13,4,5,15)          -56.1082         calculate D2E/DX2 analytically  !
 --------------------------------------------------------------------------------
 Trust Radius=3.00D-01 FncErr=1.00D-07 GrdErr=1.00D-06 EigMax=2.50D+02 EigMin=1.00D-04
 Number of steps in this run=     78 maximum allowed number of steps=    100.
 GradGradGradGradGradGradGradGradGradGradGradGradGradGradGradGradGradGrad

                          Input orientation:                          
 ---------------------------------------------------------------------
 Center     Atomic      Atomic             Coordinates (Angstroms)
 Number     Number       Type             X           Y           Z
 ---------------------------------------------------------------------
      1          7           0       -1.946899   -0.697472   -0.307437
      2          6           0       -1.324216    0.609690   -0.125372
      3          6           0        0.143121    0.612445   -0.555655
      4          6           0        1.014256   -0.290586    0.317022
      5          7           0        2.415574   -0.187690   -0.089457
      6          1           0       -1.934795   -0.945256   -1.296617
      7          1           0       -2.930637   -0.639624   -0.044677
      8          1           0       -1.874792    1.350093   -0.716203
      9          1           0       -1.406708    0.904718    0.926332
     10          1           0        0.515328    1.643503   -0.497363
     11          1           0        0.221663    0.309408   -1.607906
     12          1           0        0.928793    0.005876    1.367933
     13          1           0        0.695861   -1.335255    0.236668
     14          1           0        2.511511   -0.517643   -1.049112
     15          1           0        2.971941   -0.822207    0.482530
 ---------------------------------------------------------------------
                    Distance matrix (angstroms):
                    1          2          3          4          5
     1  N    0.000000
     2  C    1.459299   0.000000
     3  C    2.479048   1.529127   0.000000
     4  C    3.053513   2.544535   1.528367   0.000000
     5  N    4.397563   3.824020   2.453894   1.462705   0.000000
     6  H    1.019814   2.040214   2.700590   3.424810   4.577864
     7  H    1.019868   2.036637   3.358090   3.976787   5.365466
     8  H    2.089214   1.095633   2.154501   3.479365   4.600525
     9  H    2.093085   1.095413   2.164181   2.767866   4.103050
    10  H    3.402763   2.142677   1.097732   2.157047   2.670316
    11  H    2.721707   2.162826   1.097831   2.166459   2.714044
    12  H    3.401641   2.769585   2.164577   1.095266   2.090926
    13  H    2.772543   2.827471   2.174128   1.095064   2.093007
    14  H    4.523255   4.103288   2.670181   2.039522   1.019319
    15  H    4.983431   4.569117   3.337405   2.035324   1.019473
                    6          7          8          9         10
     6  H    0.000000
     7  H    1.628639   0.000000
     8  H    2.368355   2.350475   0.000000
     9  H    2.939860   2.377017   1.765045   0.000000
    10  H    3.652886   4.158397   2.417985   2.503385   0.000000
    11  H    2.514238   3.644358   2.504653   3.070563   1.760498
    12  H    4.025495   4.160209   3.743078   2.541160   2.516367
    13  H    3.069757   3.703315   3.837619   3.148637   3.073173
    14  H    4.473672   5.535409   4.779009   4.612801   2.993280
    15  H    5.220781   5.928888   5.444876   4.727769   3.615918
                   11         12         13         14         15
    11  H    0.000000
    12  H    3.073724   0.000000
    13  H    2.516393   1.769930   0.000000
    14  H    2.497932   2.936184   2.370297   0.000000
    15  H    3.635176   2.375734   2.346105   1.628092   0.000000
 Stoichiometry    C3H10N2
 Framework group  C1[X(C3H10N2)]
 Deg. of freedom    39
 Full point group                 C1      NOp   1
 Largest Abelian subgroup         C1      NOp   1
 Largest concise Abelian subgroup C1      NOp   1
                         Standard orientation:                         
 ---------------------------------------------------------------------
 Center     Atomic      Atomic             Coordinates (Angstroms)
 Number     Number       Type             X           Y           Z
 ---------------------------------------------------------------------
      1          7           0       -1.972428   -0.739441   -0.150063
      2          6           0       -1.386403    0.532339    0.260676
      3          6           0        0.044988    0.697739   -0.251175
      4          6           0        1.009213   -0.319886    0.357605
      5          7           0        2.372860   -0.064842   -0.105994
      6          1           0       -2.022671   -0.777920   -1.167911
      7          1           0       -2.936104   -0.786705    0.180432
      8          1           0       -2.004847    1.349395   -0.127084
      9          1           0       -1.403534    0.600589    1.353826
     10          1           0        0.382515    1.712375   -0.002971
     11          1           0        0.058434    0.621572   -1.346278
     12          1           0        0.989012   -0.250221    1.450467
     13          1           0        0.724227   -1.340569    0.081642
     14          1           0        2.411308   -0.185445   -1.117422
     15          1           0        2.991848   -0.774245    0.285065
 ---------------------------------------------------------------------
 Rotational constants (GHZ):          12.7721554           2.3374417           2.1831035
 Standard basis: 6-31G(d,p) (6D, 7F)
 There are   125 symmetry adapted cartesian basis functions of A   symmetry.
 There are   125 symmetry adapted basis functions of A   symmetry.
   125 basis functions,   210 primitive gaussians,   125 cartesian basis functions
    21 alpha electrons       21 beta electrons
       nuclear repulsion energy       189.2160561571 Hartrees.
 NAtoms=   15 NActive=   15 NUniq=   15 SFac= 1.00D+00 NAtFMM=   60 NAOKFM=F Big=F
 Integral buffers will be    131072 words long.
 Raffenetti 2 integral format.
 Two-electron integral symmetry is turned on.
 Force inversion solution in PCM.
 ------------------------------------------------------------------------------
 Polarizable Continuum Model (PCM)
 =================================
 Model                : PCM.
 Atomic radii         : UFF (Universal Force Field).
 Polarization charges : Total charges.
 Charge compensation  : None.
 Solution method      : Matrix inversion.
 Cavity type          : Scaled VdW (van der Waals Surface) (Alpha=1.100).
 Cavity algorithm     : GePol (No added spheres)
                        Default sphere list used, NSphG=   15.
                        Lebedev-Laikov grids with approx.  5.0 points / Ang**2.
                        Smoothing algorithm: York/Karplus (Gamma=1.0000).
                        Polarization charges: spherical gaussians, with
                                              point-specific exponents (IZeta= 3).
                        Self-potential: point-specific (ISelfS= 7).
                        Self-field    : sphere-specific E.n sum rule (ISelfD= 2).
 1st derivatives      : Analytical E(r).r(x)/FMM algorithm (CHGder, D1EAlg=3).
                        Cavity 1st derivative terms included.
 2nd derivatives      : Analytical E(r).r(xy)/FMM algorithm (CHGder, D2EAlg=3).
                        Cavity 2nd derivative terms included.
 Solvent              : Water, Eps=  78.355300 Eps(inf)=   1.777849
 ------------------------------------------------------------------------------
 Spheres list:
 ISph  on   Nord     Re0    Alpha      Xe            Ye            Ze
    1   N      1    1.8300  1.100     -1.972428     -0.739441     -0.150063
    2   C      2    1.9255  1.100     -1.386403      0.532339      0.260676
    3   C      3    1.9255  1.100      0.044988      0.697739     -0.251175
    4   C      4    1.9255  1.100      1.009213     -0.319886      0.357605
    5   N      5    1.8300  1.100      2.372860     -0.064842     -0.105994
    6   H      6    1.4430  1.100     -2.022671     -0.777920     -1.167911
    7   H      7    1.4430  1.100     -2.936104     -0.786705      0.180432
    8   H      8    1.4430  1.100     -2.004847      1.349395     -0.127084
    9   H      9    1.4430  1.100     -1.403534      0.600589      1.353826
   10   H     10    1.4430  1.100      0.382515      1.712375     -0.002971
   11   H     11    1.4430  1.100      0.058434      0.621572     -1.346278
   12   H     12    1.4430  1.100      0.989012     -0.250221      1.450467
   13   H     13    1.4430  1.100      0.724227     -1.340569      0.081642
   14   H     14    1.4430  1.100      2.411308     -0.185445     -1.117422
   15   H     15    1.4430  1.100      2.991848     -0.774245      0.285065
 ------------------------------------------------------------------------------
 One-electron integrals computed using PRISM.
 NBasis=   125 RedAO= T EigKep=  3.78D-03  NBF=   125
 NBsUse=   125 1.00D-06 EigRej= -1.00D+00 NBFU=   125
 ExpMin= 1.61D-01 ExpMax= 4.17D+03 ExpMxC= 6.27D+02 IAcc=3 IRadAn=         5 AccDes= 0.00D+00
 Harris functional with IExCor=  402 and IRadAn=       5 diagonalized for initial guess.
 HarFok:  IExCor=  402 AccDes= 0.00D+00 IRadAn=         5 IDoV= 1 UseB2=F ITyADJ=14
 ICtDFT=  3500011 ScaDFX=  1.000000  1.000000  1.000000  1.000000
 FoFCou: FMM=F IPFlag=           0 FMFlag=      100000 FMFlg1=           0
         NFxFlg=           0 DoJE=T BraDBF=F KetDBF=T FulRan=T
         wScrn=  0.000000 ICntrl=       500 IOpCl=  0 I1Cent=   200000004 NGrid=           0
         NMat0=    1 NMatS0=      1 NMatT0=    0 NMatD0=    1 NMtDS0=    0 NMtDT0=    0
 Petite list used in FoFCou.
 Keep R1 ints in memory in canonical form, NReq=32913836.
 Requested convergence on RMS density matrix=1.00D-08 within  32 cycles.
 Requested convergence on MAX density matrix=1.00D-06.
 Requested convergence on             energy=1.00D-06.
 No special actions if energy rises.
 Inv3:  Mode=1 IEnd=     4106700.
 Iteration    1 A*A^-1 deviation from unit magnitude is 5.00D-15 for    600.
 Iteration    1 A*A^-1 deviation from orthogonality  is 4.75D-15 for   1012    703.
 Iteration    1 A^-1*A deviation from unit magnitude is 5.00D-15 for    600.
 Iteration    1 A^-1*A deviation from orthogonality  is 3.05D-15 for   1159    591.
 Error on total polarization charges =  0.00695
 SCF Done:  E(RB3LYP) =  -229.849353878     A.U. after   11 cycles
            NFock= 11  Conv=0.23D-08     -V/T= 2.0095
 QCSCF skips out because SCF is already converged.
 DoSCS=F DFT=T ScalE2(SS,OS)=  1.000000  1.000000
 Range of M.O.s used for correlation:     1   125
 NBasis=   125 NAE=    21 NBE=    21 NFC=     0 NFV=     0
 NROrb=    125 NOA=    21 NOB=    21 NVA=   104 NVB=   104
 Symmetrizing basis deriv contribution to polar:
 IMax=3 JMax=2 DiffMx= 0.00D+00
 G2DrvN: will do    16 centers at a time, making    1 passes.
 Calling FoFCou, ICntrl=  3107 FMM=F I1Cent=   0 AccDes= 0.00D+00.
 NEqPCM:  Using equilibrium solvation (IEInf=0, Eps=  78.3553, EpsInf=   1.7778)
 G2PCM: DoFxE=T DoFxN=T DoGrad=T DoDP/DQ/DG/TGxP=FFFF NFrqRd=   0 IEInf=0 SqF1=F DoCFld=F IF1Alg=4.
 End of G2Drv F.D. properties file   721 does not exist.
 End of G2Drv F.D. properties file   722 does not exist.
 End of G2Drv F.D. properties file   788 does not exist.
          IDoAtm=111111111111111
 NEqPCM:  Using equilibrium solvation (IEInf=0, Eps=  78.3553, EpsInf=   1.7778)
          Differentiating once with respect to nuclear coordinates.
 Keep R1 ints in memory in canonical form, NReq=35554635.
          There are    48 degrees of freedom in the 1st order CPHF.  IDoFFX=6 NUNeed=     0.
     42 vectors produced by pass  0 Test12= 4.55D-15 2.08D-09 XBig12= 6.91D-02 8.26D-02.
 AX will form    42 AO Fock derivatives at one time.
     42 vectors produced by pass  1 Test12= 4.55D-15 2.08D-09 XBig12= 7.03D-03 1.83D-02.
     42 vectors produced by pass  2 Test12= 4.55D-15 2.08D-09 XBig12= 1.05D-04 1.52D-03.
     42 vectors produced by pass  3 Test12= 4.55D-15 2.08D-09 XBig12= 3.42D-07 6.99D-05.
     42 vectors produced by pass  4 Test12= 4.55D-15 2.08D-09 XBig12= 2.68D-10 1.92D-06.
     15 vectors produced by pass  5 Test12= 4.55D-15 2.08D-09 XBig12= 1.60D-13 5.00D-08.
 InvSVY:  IOpt=1 It=  1 EMax= 2.33D-15
 Solved reduced A of dimension   225 with    42 vectors.
 End of Minotr F.D. properties file   721 does not exist.
 End of Minotr F.D. properties file   722 does not exist.
 End of Minotr F.D. properties file   788 does not exist.

 **********************************************************************

            Population analysis using the SCF density.

 **********************************************************************

 Orbital symmetries:
       Occupied  (A) (A) (A) (A) (A) (A) (A) (A) (A) (A) (A) (A)
                 (A) (A) (A) (A) (A) (A) (A) (A) (A)
       Virtual   (A) (A) (A) (A) (A) (A) (A) (A) (A) (A) (A) (A)
                 (A) (A) (A) (A) (A) (A) (A) (A) (A) (A) (A) (A)
                 (A) (A) (A) (A) (A) (A) (A) (A) (A) (A) (A) (A)
                 (A) (A) (A) (A) (A) (A) (A) (A) (A) (A) (A) (A)
                 (A) (A) (A) (A) (A) (A) (A) (A) (A) (A) (A) (A)
                 (A) (A) (A) (A) (A) (A) (A) (A) (A) (A) (A) (A)
                 (A) (A) (A) (A) (A) (A) (A) (A) (A) (A) (A) (A)
                 (A) (A) (A) (A) (A) (A) (A) (A) (A) (A) (A) (A)
                 (A) (A) (A) (A) (A) (A) (A) (A)
 The electronic state is 1-A.
 Alpha  occ. eigenvalues --  -14.30545 -14.30368 -10.19981 -10.19609 -10.17514
 Alpha  occ. eigenvalues --   -0.87951  -0.86710  -0.74041  -0.63702  -0.57688
 Alpha  occ. eigenvalues --   -0.48515  -0.47682  -0.44850  -0.43216  -0.42284
 Alpha  occ. eigenvalues --   -0.37635  -0.34711  -0.33892  -0.33171  -0.23779
 Alpha  occ. eigenvalues --   -0.22060
 Alpha virt. eigenvalues --    0.08653   0.09279   0.12514   0.13732   0.16082
 Alpha virt. eigenvalues --    0.16921   0.17915   0.18887   0.19806   0.20925
 Alpha virt. eigenvalues --    0.23652   0.25693   0.26026   0.28697   0.52969
 Alpha virt. eigenvalues --    0.53584   0.55099   0.56252   0.58635   0.66183
 Alpha virt. eigenvalues --    0.67330   0.69814   0.71900   0.73155   0.73795
 Alpha virt. eigenvalues --    0.78343   0.80491   0.82595   0.86237   0.87510
 Alpha virt. eigenvalues --    0.87794   0.89293   0.92513   0.93170   0.94811
 Alpha virt. eigenvalues --    0.95431   0.95994   0.97763   1.04236   1.10118
 Alpha virt. eigenvalues --    1.22689   1.30239   1.33141   1.34962   1.45132
 Alpha virt. eigenvalues --    1.51629   1.53843   1.64779   1.65031   1.73108
 Alpha virt. eigenvalues --    1.77590   1.81387   1.82129   1.88218   1.89048
 Alpha virt. eigenvalues --    1.94065   1.99968   2.04191   2.06201   2.09882
 Alpha virt. eigenvalues --    2.10882   2.13607   2.13899   2.23355   2.23846
 Alpha virt. eigenvalues --    2.26194   2.28597   2.30938   2.32482   2.35472
 Alpha virt. eigenvalues --    2.40116   2.41196   2.46932   2.47758   2.54493
 Alpha virt. eigenvalues --    2.59328   2.61586   2.65120   2.69794   2.73914
 Alpha virt. eigenvalues --    2.77054   2.81523   2.84218   2.86103   2.90513
 Alpha virt. eigenvalues --    2.94334   2.95783   2.97907   2.98503   3.23043
 Alpha virt. eigenvalues --    3.28537   3.30708   3.31254   3.34807   3.41138
 Alpha virt. eigenvalues --    3.47030   3.50872   3.55570   3.58506   3.97517
 Alpha virt. eigenvalues --    4.02742   4.35285   4.53859   4.69106
          Condensed to atoms (all electrons):
               1          2          3          4          5          6
     1  N    6.811256   0.293044  -0.055713  -0.002664   0.000113   0.340128
     2  C    0.293044   4.799665   0.362013  -0.038759   0.003302  -0.038443
     3  C   -0.055713   0.362013   4.959231   0.373159  -0.053823  -0.005128
     4  C   -0.002664  -0.038759   0.373159   4.792234   0.290673  -0.000477
     5  N    0.000113   0.003302  -0.053823   0.290673   6.825103  -0.000029
     6  H    0.340128  -0.038443  -0.005128  -0.000477  -0.000029   0.481561
     7  H    0.338099  -0.032774   0.005779   0.000149  -0.000000  -0.032200
     8  H   -0.053007   0.386623  -0.043474   0.005832  -0.000093  -0.005467
     9  H   -0.043447   0.387172  -0.032121  -0.009641   0.000015   0.006650
    10  H    0.003965  -0.028306   0.367685  -0.036810   0.005126  -0.000120
    11  H   -0.005441  -0.035027   0.382904  -0.041092  -0.002918   0.005576
    12  H   -0.000080  -0.004002  -0.034636   0.385825  -0.041455   0.000056
    13  H    0.010848  -0.001843  -0.047359   0.389706  -0.053065  -0.000137
    14  H    0.000005  -0.000099  -0.005819  -0.038706   0.340135  -0.000002
    15  H    0.000008  -0.000247   0.005813  -0.034171   0.337445  -0.000000
               7          8          9         10         11         12
     1  N    0.338099  -0.053007  -0.043447   0.003965  -0.005441  -0.000080
     2  C   -0.032774   0.386623   0.387172  -0.028306  -0.035027  -0.004002
     3  C    0.005779  -0.043474  -0.032121   0.367685   0.382904  -0.034636
     4  C    0.000149   0.005832  -0.009641  -0.036810  -0.041092   0.385825
     5  N   -0.000000  -0.000093   0.000015   0.005126  -0.002918  -0.041455
     6  H   -0.032200  -0.005467   0.006650  -0.000120   0.005576   0.000056
     7  H    0.479174  -0.004230  -0.003710  -0.000236  -0.000001  -0.000041
     8  H   -0.004230   0.687025  -0.047554  -0.001670  -0.005357  -0.000013
     9  H   -0.003710  -0.047554   0.633130  -0.002946   0.005857   0.005415
    10  H   -0.000236  -0.001670  -0.002946   0.634514  -0.037821  -0.006833
    11  H   -0.000001  -0.005357   0.005857  -0.037821   0.634627   0.005816
    12  H   -0.000041  -0.000013   0.005415  -0.006833   0.005816   0.637342
    13  H   -0.000152   0.000194  -0.000608   0.006781  -0.007316  -0.047302
    14  H   -0.000000   0.000004   0.000015  -0.000702   0.005333   0.006700
    15  H   -0.000000   0.000004  -0.000003  -0.000049  -0.000042  -0.003592
              13         14         15
     1  N    0.010848   0.000005   0.000008
     2  C   -0.001843  -0.000099  -0.000247
     3  C   -0.047359  -0.005819   0.005813
     4  C    0.389706  -0.038706  -0.034171
     5  N   -0.053065   0.340135   0.337445
     6  H   -0.000137  -0.000002  -0.000000
     7  H   -0.000152  -0.000000  -0.000000
     8  H    0.000194   0.000004   0.000004
     9  H   -0.000608   0.000015  -0.000003
    10  H    0.006781  -0.000702  -0.000049
    11  H   -0.007316   0.005333  -0.000042
    12  H   -0.047302   0.006700  -0.003592
    13  H    0.669751  -0.005301  -0.003400
    14  H   -0.005301   0.483808  -0.032188
    15  H   -0.003400  -0.032188   0.482962
 Mulliken charges:
               1
     1  N   -0.637113
     2  C   -0.052317
     3  C   -0.178512
     4  C   -0.035259
     5  N   -0.650530
     6  H    0.248032
     7  H    0.250144
     8  H    0.081183
     9  H    0.101773
    10  H    0.097422
    11  H    0.094901
    12  H    0.096799
    13  H    0.089203
    14  H    0.246815
    15  H    0.247460
 Sum of Mulliken charges =  -0.00000
 Mulliken charges with hydrogens summed into heavy atoms:
               1
     1  N   -0.138938
     2  C    0.130639
     3  C    0.013812
     4  C    0.150742
     5  N   -0.156255
 APT charges:
               1
     1  N   -1.305684
     2  C   -0.651250
     3  C   -0.646026
     4  C   -0.474836
     5  N   -1.258928
     6  H    0.468768
     7  H    0.723130
     8  H    0.409267
     9  H    0.345101
    10  H    0.356375
    11  H    0.307663
    12  H    0.338648
    13  H    0.287255
    14  H    0.451227
    15  H    0.649290
 Sum of APT charges =  -0.00000
 APT charges with hydrogens summed into heavy atoms:
               1
     1  N   -0.113785
     2  C    0.103118
     3  C    0.018012
     4  C    0.151067
     5  N   -0.158411
 Electronic spatial extent (au):  <R**2>=            598.7329
 Charge=              0.0000 electrons
 Dipole moment (field-independent basis, Debye):
    X=             -1.4338    Y=             -0.4135    Z=             -1.1701  Tot=              1.8963
 Quadrupole moment (field-independent basis, Debye-Ang):
   XX=            -29.2275   YY=            -35.3546   ZZ=            -29.7646
   XY=             -5.2913   XZ=             -0.0964   YZ=              0.7475
 Traceless Quadrupole moment (field-independent basis, Debye-Ang):
   XX=              2.2214   YY=             -3.9057   ZZ=              1.6843
   XY=             -5.2913   XZ=             -0.0964   YZ=              0.7475
 Octapole moment (field-independent basis, Debye-Ang**2):
  XXX=            -19.4576  YYY=              0.4386  ZZZ=             -4.1948  XYY=              2.8564
  XXY=            -16.2476  XXZ=             -4.8770  XZZ=              0.4491  YZZ=             -2.0592
  YYZ=             -0.9565  XYZ=             -1.9910
 Hexadecapole moment (field-independent basis, Debye-Ang**3):
 XXXX=           -501.8771 YYYY=           -124.0789 ZZZZ=            -69.0456 XXXY=            -25.6005
 XXXZ=             -4.8093 YYYX=             -6.1087 YYYZ=              1.8076 ZZZX=             -0.2831
 ZZZY=              2.8056 XXYY=           -115.8719 XXZZ=            -93.5279 YYZZ=            -32.7916
 XXYZ=              0.2108 YYXZ=              2.7075 ZZXY=              1.0892
 N-N= 1.892160561571D+02 E-N=-9.122404615665D+02  KE= 2.276857490638D+02
  Exact polarizability:   0.000   0.000   0.000   0.000   0.000   0.000
 Approx polarizability:  62.814   0.279  57.359  -1.115   0.567  63.785
 D2PCM: PCM CHGder 2nd derivatives, FixD1E=F FixD2E=F DoIter=F DoCFld=F I1PDM=0
 Calling FoFJK, ICntrl=    100147 FMM=F ISym2X=0 I1Cent= 0 IOpClX= 0 NMat=1 NMatS=1 NMatT=0.
 ***** Axes restored to original set *****
 -------------------------------------------------------------------
 Center     Atomic                   Forces (Hartrees/Bohr)
 Number     Number              X              Y              Z
 -------------------------------------------------------------------
      1        7          -0.001981661   -0.013148026    0.005466552
      2        6          -0.004302044    0.003284663   -0.010203136
      3        6          -0.003310702    0.000579613    0.007534642
      4        6           0.004074000   -0.005441919   -0.007918701
      5        7           0.011305124    0.007346657    0.001961599
      6        1          -0.000674499    0.001621677    0.001075654
      7        1           0.001720282   -0.000565927   -0.001433427
      8        1           0.002187979    0.009821909    0.000533408
      9        1           0.000024148   -0.000739459    0.001071563
     10        1           0.001396024   -0.001110266   -0.000039553
     11        1          -0.000041206   -0.000779028   -0.000716043
     12        1          -0.000260607    0.000755155    0.000834418
     13        1          -0.010102226   -0.000584090    0.002761040
     14        1          -0.000189455   -0.001302326    0.001373696
     15        1           0.000154843    0.000261368   -0.002301711
 -------------------------------------------------------------------
 Cartesian Forces:  Max     0.013148026 RMS     0.004570861
 FormGI is forming the generalized inverse of G from B-inverse, IUseBI=4.

 GradGradGradGradGradGradGradGradGradGradGradGradGradGradGradGradGradGrad
 Berny optimization.
 Internal  Forces:  Max     0.010950046 RMS     0.003096592
 Search for a local minimum.
 Step number   1 out of a maximum of   78
 All quantities printed in internal units (Hartrees-Bohrs-Radians)
 Mixed Optimization -- RFO/linear search
 Second derivative matrix not updated -- analytic derivatives used.
 ITU=  0
     Eigenvalues ---    0.00141   0.00212   0.00264   0.00340   0.03273
     Eigenvalues ---    0.03390   0.03497   0.03959   0.04564   0.04634
     Eigenvalues ---    0.05137   0.05276   0.06821   0.08092   0.08468
     Eigenvalues ---    0.10344   0.12176   0.13015   0.15009   0.15151
     Eigenvalues ---    0.16928   0.17309   0.18988   0.23270   0.24590
     Eigenvalues ---    0.28454   0.30744   0.31959   0.32736   0.32847
     Eigenvalues ---    0.33132   0.33390   0.33531   0.37512   0.37912
     Eigenvalues ---    0.43780   0.43885   0.44041   0.44173
 RFO step:  Lambda=-4.06247234D-03 EMin= 1.40990998D-03
 Linear search not attempted -- first point.
 Iteration  1 RMS(Cart)=  0.02379348 RMS(Int)=  0.00069577
 Iteration  2 RMS(Cart)=  0.00065109 RMS(Int)=  0.00027222
 Iteration  3 RMS(Cart)=  0.00000045 RMS(Int)=  0.00027222
 Variable       Old X    -DE/DX   Delta X   Delta X   Delta X     New X
                                 (Linear)    (Quad)   (Total)
    R1        2.75768   0.01059   0.00000   0.02330   0.02330   2.78098
    R2        1.92717  -0.00145   0.00000  -0.00085  -0.00085   1.92632
    R3        1.92727  -0.00206   0.00000  -0.00295  -0.00295   1.92432
    R4        2.88963   0.00192   0.00000   0.00427   0.00427   2.89390
    R5        2.07045   0.00525   0.00000   0.01351   0.01351   2.08396
    R6        2.07003   0.00083   0.00000   0.00413   0.00413   2.07416
    R7        2.88820   0.00036   0.00000   0.00231   0.00231   2.89051
    R8        2.07441  -0.00057   0.00000  -0.00155  -0.00155   2.07286
    R9        2.07460   0.00090   0.00000   0.00497   0.00497   2.07957
   R10        2.76411   0.01095   0.00000   0.01960   0.01960   2.78372
   R11        2.06975   0.00103   0.00000   0.00496   0.00496   2.07471
   R12        2.06937   0.00329   0.00000   0.00926   0.00926   2.07863
   R13        1.92623  -0.00089   0.00000   0.00059   0.00059   1.92682
   R14        1.92653  -0.00137   0.00000  -0.00149  -0.00149   1.92503
    A1        1.91090  -0.00188   0.00000  -0.01546  -0.01554   1.89537
    A2        1.90565   0.00107   0.00000  -0.00291  -0.00299   1.90267
    A3        1.84952  -0.00044   0.00000  -0.01347  -0.01364   1.83588
    A4        1.95623  -0.00208   0.00000  -0.00677  -0.00715   1.94908
    A5        1.90035   0.00758   0.00000   0.06959   0.06972   1.97007
    A6        1.90594  -0.00170   0.00000  -0.02375  -0.02388   1.88205
    A7        1.90631  -0.00312   0.00000  -0.01323  -0.01377   1.89254
    A8        1.91978   0.00057   0.00000  -0.01088  -0.01135   1.90843
    A9        1.87328  -0.00112   0.00000  -0.01444  -0.01439   1.85888
   A10        1.96623   0.00574   0.00000   0.02840   0.02835   1.99458
   A11        1.88822  -0.00022   0.00000   0.01094   0.01088   1.89910
   A12        1.91544  -0.00223   0.00000  -0.01273  -0.01258   1.90286
   A13        1.90856  -0.00266   0.00000  -0.00978  -0.01016   1.89840
   A14        1.92134  -0.00181   0.00000  -0.01301  -0.01297   1.90837
   A15        1.86075   0.00095   0.00000  -0.00522  -0.00530   1.85545
   A16        1.92391   0.00086   0.00000   0.00608   0.00586   1.92976
   A17        1.92139  -0.00039   0.00000  -0.01682  -0.01720   1.90419
   A18        1.93482  -0.00525   0.00000  -0.02906  -0.03013   1.90469
   A19        1.89901  -0.00201   0.00000  -0.01611  -0.01600   1.88301
   A20        1.90209   0.00748   0.00000   0.07553   0.07576   1.97785
   A21        1.88172  -0.00061   0.00000  -0.01914  -0.01979   1.86193
   A22        1.90607  -0.00131   0.00000  -0.01233  -0.01239   1.89368
   A23        1.89984   0.00197   0.00000  -0.00018  -0.00024   1.89960
   A24        1.84979  -0.00124   0.00000  -0.01962  -0.01975   1.83003
    D1       -1.08314  -0.00118   0.00000  -0.05127  -0.05134  -1.13448
    D2        1.02784  -0.00129   0.00000  -0.02503  -0.02463   1.00321
    D3        3.06821   0.00068   0.00000  -0.01638  -0.01656   3.05165
    D4       -3.10080  -0.00021   0.00000  -0.02493  -0.02510  -3.12590
    D5       -0.98982  -0.00033   0.00000   0.00130   0.00161  -0.98821
    D6        1.05055   0.00164   0.00000   0.00996   0.00967   1.06022
    D7       -1.13674   0.00313   0.00000   0.03901   0.03900  -1.09774
    D8        3.03452   0.00298   0.00000   0.02580   0.02556   3.06008
    D9        1.01071   0.00318   0.00000   0.03278   0.03267   1.04338
   D10        3.03890  -0.00294   0.00000  -0.03520  -0.03493   3.00398
   D11        0.92697  -0.00308   0.00000  -0.04841  -0.04837   0.87860
   D12       -1.09683  -0.00289   0.00000  -0.04142  -0.04126  -1.13809
   D13        0.98718  -0.00006   0.00000  -0.00349  -0.00340   0.98378
   D14       -1.12475  -0.00020   0.00000  -0.01670  -0.01685  -1.14160
   D15        3.13463  -0.00001   0.00000  -0.00971  -0.00974   3.12489
   D16       -3.08349   0.00224   0.00000   0.00896   0.00878  -3.07471
   D17       -0.98842   0.00004   0.00000  -0.01787  -0.01809  -1.00651
   D18        1.09210  -0.00429   0.00000  -0.07081  -0.07037   1.02173
   D19       -0.98322   0.00386   0.00000   0.03454   0.03427  -0.94895
   D20        1.11185   0.00166   0.00000   0.00770   0.00739   1.11924
   D21       -3.09082  -0.00266   0.00000  -0.04523  -0.04488  -3.13570
   D22        1.05554   0.00240   0.00000   0.01494   0.01482   1.07036
   D23       -3.13257   0.00020   0.00000  -0.01189  -0.01206   3.13855
   D24       -1.05205  -0.00412   0.00000  -0.06483  -0.06434  -1.11639
   D25       -1.09425  -0.00068   0.00000  -0.04367  -0.04405  -1.13830
   D26       -3.10636   0.00043   0.00000  -0.01355  -0.01401  -3.12037
   D27        3.08040   0.00054   0.00000  -0.01654  -0.01657   3.06383
   D28        1.06829   0.00165   0.00000   0.01359   0.01347   1.08177
   D29        1.03284  -0.00180   0.00000  -0.02692  -0.02640   1.00644
   D30       -0.97927  -0.00069   0.00000   0.00320   0.00365  -0.97562
         Item               Value     Threshold  Converged?
 Maximum Force            0.010950     0.000450     NO 
 RMS     Force            0.003097     0.000300     NO 
 Maximum Displacement     0.098471     0.001800     NO 
 RMS     Displacement     0.023760     0.001200     NO 
 Predicted change in Energy=-2.126357D-03
 GradGradGradGradGradGradGradGradGradGradGradGradGradGradGradGradGradGrad

                          Input orientation:                          
 ---------------------------------------------------------------------
 Center     Atomic      Atomic             Coordinates (Angstroms)
 Number     Number       Type             X           Y           Z
 ---------------------------------------------------------------------
      1          7           0       -1.950991   -0.714101   -0.303920
      2          6           0       -1.338034    0.613810   -0.140737
      3          6           0        0.138562    0.608905   -0.546672
      4          6           0        1.022740   -0.301004    0.307695
      5          7           0        2.434797   -0.174447   -0.092355
      6          1           0       -1.955380   -0.950484   -1.295490
      7          1           0       -2.932516   -0.661412   -0.037867
      8          1           0       -1.855570    1.398643   -0.717212
      9          1           0       -1.423507    0.895864    0.916554
     10          1           0        0.525127    1.633719   -0.487198
     11          1           0        0.219404    0.308904   -1.602361
     12          1           0        0.941575    0.003612    1.359353
     13          1           0        0.643752   -1.331856    0.247420
     14          1           0        2.533994   -0.525333   -1.044557
     15          1           0        2.996049   -0.804820    0.478032
 ---------------------------------------------------------------------
                    Distance matrix (angstroms):
                    1          2          3          4          5
     1  N    0.000000
     2  C    1.471629   0.000000
     3  C    2.485057   1.531386   0.000000
     4  C    3.063951   2.571231   1.529591   0.000000
     5  N    4.423926   3.854600   2.468347   1.473079   0.000000
     6  H    1.019366   2.039997   2.716066   3.444013   4.617729
     7  H    1.018308   2.044296   3.362158   3.986647   5.389633
     8  H    2.154902   1.102783   2.151588   3.496270   4.612191
     9  H    2.088009   1.097599   2.159499   2.790578   4.129161
    10  H    3.417164   2.152119   1.096910   2.150029   2.659362
    11  H    2.728205   2.157528   1.100461   2.160011   2.724282
    12  H    3.412994   2.796288   2.155027   1.097891   2.090185
    13  H    2.723654   2.804239   2.156931   1.099963   2.159371
    14  H    4.549645   4.136078   2.696753   2.040293   1.019632
    15  H    5.009280   4.602137   3.348711   2.043721   1.018683
                    6          7          8          9         10
     6  H    0.000000
     7  H    1.618633   0.000000
     8  H    2.421315   2.421807   0.000000
     9  H    2.930022   2.369206   1.763139   0.000000
    10  H    3.672105   4.174304   2.403307   2.512394   0.000000
    11  H    2.531781   3.650171   2.505301   3.064084   1.758462
    12  H    4.043617   4.171697   3.752633   2.566280   2.498085
    13  H    3.046557   3.649736   3.825278   3.111918   3.057510
    14  H    4.516437   5.560096   4.803864   4.639781   3.001283
    15  H    5.261488   5.952697   5.460958   4.755744   3.603276
                   11         12         13         14         15
    11  H    0.000000
    12  H    3.063737   0.000000
    13  H    2.508755   1.763113   0.000000
    14  H    2.522781   2.931614   2.427488   0.000000
    15  H    3.643923   2.377215   2.421621   1.615513   0.000000
 Stoichiometry    C3H10N2
 Framework group  C1[X(C3H10N2)]
 Deg. of freedom    39
 Full point group                 C1      NOp   1
 Largest Abelian subgroup         C1      NOp   1
 Largest concise Abelian subgroup C1      NOp   1
                         Standard orientation:                         
 ---------------------------------------------------------------------
 Center     Atomic      Atomic             Coordinates (Angstroms)
 Number     Number       Type             X           Y           Z
 ---------------------------------------------------------------------
      1          7           0       -1.979670   -0.747689   -0.145353
      2          6           0       -1.400111    0.546676    0.247615
      3          6           0        0.043210    0.692424   -0.243025
      4          6           0        1.015071   -0.329579    0.349129
      5          7           0        2.390199   -0.059414   -0.104738
      6          1           0       -2.046973   -0.778489   -1.162028
      7          1           0       -2.940950   -0.795454    0.187226
      8          1           0       -1.982603    1.407084   -0.121887
      9          1           0       -1.419198    0.604691    1.343514
     10          1           0        0.399532    1.700790    0.000788
     11          1           0        0.058378    0.616314   -1.340745
     12          1           0        0.999144   -0.248153    1.443880
     13          1           0        0.666441   -1.343338    0.102818
     14          1           0        2.432687   -0.205390   -1.112971
     15          1           0        3.010822   -0.765467    0.287727
 ---------------------------------------------------------------------
 Rotational constants (GHZ):          12.7182169           2.3148697           2.1562757
 Standard basis: 6-31G(d,p) (6D, 7F)
 There are   125 symmetry adapted cartesian basis functions of A   symmetry.
 There are   125 symmetry adapted basis functions of A   symmetry.
   125 basis functions,   210 primitive gaussians,   125 cartesian basis functions
    21 alpha electrons       21 beta electrons
       nuclear repulsion energy       188.4788587723 Hartrees.
 NAtoms=   15 NActive=   15 NUniq=   15 SFac= 1.00D+00 NAtFMM=   60 NAOKFM=F Big=F
 Integral buffers will be    131072 words long.
 Raffenetti 2 integral format.
 Two-electron integral symmetry is turned on.
 ------------------------------------------------------------------------------
 Polarizable Continuum Model (PCM)
 =================================
 Model                : PCM.
 Atomic radii         : UFF (Universal Force Field).
 Polarization charges : Total charges.
 Charge compensation  : None.
 Solution method      : Matrix inversion.
 Cavity type          : Scaled VdW (van der Waals Surface) (Alpha=1.100).
 Cavity algorithm     : GePol (No added spheres)
                        Default sphere list used, NSphG=   15.
                        Lebedev-Laikov grids with approx.  5.0 points / Ang**2.
                        Smoothing algorithm: York/Karplus (Gamma=1.0000).
                        Polarization charges: spherical gaussians, with
                                              point-specific exponents (IZeta= 3).
                        Self-potential: point-specific (ISelfS= 7).
                        Self-field    : sphere-specific E.n sum rule (ISelfD= 2).
 1st derivatives      : Analytical E(r).r(x)/FMM algorithm (CHGder, D1EAlg=3).
                        Cavity 1st derivative terms included.
 Solvent              : Water, Eps=  78.355300 Eps(inf)=   1.777849
 ------------------------------------------------------------------------------
 Spheres list:
 ISph  on   Nord     Re0    Alpha      Xe            Ye            Ze
    1   N      1    1.8300  1.100     -1.979670     -0.747689     -0.145353
    2   C      2    1.9255  1.100     -1.400111      0.546676      0.247615
    3   C      3    1.9255  1.100      0.043210      0.692424     -0.243025
    4   C      4    1.9255  1.100      1.015071     -0.329579      0.349129
    5   N      5    1.8300  1.100      2.390199     -0.059414     -0.104738
    6   H      6    1.4430  1.100     -2.046973     -0.778489     -1.162028
    7   H      7    1.4430  1.100     -2.940950     -0.795454      0.187226
    8   H      8    1.4430  1.100     -1.982603      1.407084     -0.121887
    9   H      9    1.4430  1.100     -1.419198      0.604691      1.343514
   10   H     10    1.4430  1.100      0.399532      1.700790      0.000788
   11   H     11    1.4430  1.100      0.058378      0.616314     -1.340745
   12   H     12    1.4430  1.100      0.999144     -0.248153      1.443880
   13   H     13    1.4430  1.100      0.666441     -1.343338      0.102818
   14   H     14    1.4430  1.100      2.432687     -0.205390     -1.112971
   15   H     15    1.4430  1.100      3.010822     -0.765467      0.287727
 ------------------------------------------------------------------------------
 One-electron integrals computed using PRISM.
 NBasis=   125 RedAO= T EigKep=  3.89D-03  NBF=   125
 NBsUse=   125 1.00D-06 EigRej= -1.00D+00 NBFU=   125
 Initial guess from the checkpoint file:  "XFNJVJPLKCPIBV-UHFFFAOYSA-N_conf_1_0.chk"
 B after Tr=    -0.000000    0.000000    0.000000
         Rot=    0.999998    0.001595    0.000128    0.000694 Ang=   0.20 deg.
 ExpMin= 1.61D-01 ExpMax= 4.17D+03 ExpMxC= 6.27D+02 IAcc=2 IRadAn=         4 AccDes= 0.00D+00
 Harris functional with IExCor=  402 and IRadAn=       4 diagonalized for initial guess.
 HarFok:  IExCor=  402 AccDes= 0.00D+00 IRadAn=         4 IDoV= 1 UseB2=F ITyADJ=14
 ICtDFT=  3500011 ScaDFX=  1.000000  1.000000  1.000000  1.000000
 FoFCou: FMM=F IPFlag=           0 FMFlag=      100000 FMFlg1=           0
         NFxFlg=           0 DoJE=T BraDBF=F KetDBF=T FulRan=T
         wScrn=  0.000000 ICntrl=       500 IOpCl=  0 I1Cent=   200000004 NGrid=           0
         NMat0=    1 NMatS0=      1 NMatT0=    0 NMatD0=    1 NMtDS0=    0 NMtDT0=    0
 Petite list used in FoFCou.
 Keep R1 ints in memory in canonical form, NReq=32913836.
 Requested convergence on RMS density matrix=1.00D-08 within  32 cycles.
 Requested convergence on MAX density matrix=1.00D-06.
 Requested convergence on             energy=1.00D-06.
 No special actions if energy rises.
 Inv3:  Mode=1 IEnd=     4092672.
 Iteration    1 A*A^-1 deviation from unit magnitude is 5.11D-15 for      8.
 Iteration    1 A*A^-1 deviation from orthogonality  is 3.98D-15 for    796    221.
 Iteration    1 A^-1*A deviation from unit magnitude is 5.00D-15 for    244.
 Iteration    1 A^-1*A deviation from orthogonality  is 2.87D-15 for   1107    600.
 Error on total polarization charges =  0.00696
 SCF Done:  E(RB3LYP) =  -229.851515427     A.U. after    9 cycles
            NFock=  9  Conv=0.42D-08     -V/T= 2.0098
 QCSCF skips out because SCF is already converged.
 D1PCM: PCM CHGder 1st derivatives, ID1Alg=3 FixD1E=F DoIter=F DoCFld=F I1PDM=0.
 Calling FoFJK, ICntrl=      2127 FMM=F ISym2X=0 I1Cent= 0 IOpClX= 0 NMat=1 NMatS=1 NMatT=0.
 ***** Axes restored to original set *****
 -------------------------------------------------------------------
 Center     Atomic                   Forces (Hartrees/Bohr)
 Number     Number              X              Y              Z
 -------------------------------------------------------------------
      1        7           0.000132022   -0.000964430    0.000299972
      2        6          -0.000341751    0.000340738   -0.001034422
      3        6           0.000013757    0.000304119    0.000821847
      4        6          -0.000127098   -0.000914979   -0.000654663
      5        7           0.000645889    0.000678713   -0.000092002
      6        1          -0.000184372    0.000046120   -0.000011184
      7        1           0.000002587   -0.000043319    0.000017228
      8        1           0.000227326    0.000580233    0.000276538
      9        1          -0.000025670   -0.000027447    0.000046549
     10        1          -0.000010348    0.000031998   -0.000141916
     11        1           0.000082634    0.000034431   -0.000055628
     12        1           0.000069643    0.000062834    0.000043721
     13        1          -0.000596872    0.000041045    0.000447841
     14        1           0.000068983   -0.000167181    0.000063216
     15        1           0.000043269   -0.000002876   -0.000027097
 -------------------------------------------------------------------
 Cartesian Forces:  Max     0.001034422 RMS     0.000377845

 GradGradGradGradGradGradGradGradGradGradGradGradGradGradGradGradGradGrad
 Berny optimization.
 Using GEDIIS/GDIIS optimizer.
 FormGI is forming the generalized inverse of G from B-inverse, IUseBI=4.
 Internal  Forces:  Max     0.000851820 RMS     0.000213363
 Search for a local minimum.
 Step number   2 out of a maximum of   78
 All quantities printed in internal units (Hartrees-Bohrs-Radians)
 Mixed Optimization -- En-DIIS/RFO-DIIS
 Update second derivatives using D2CorX and points    1    2
 DE= -2.16D-03 DEPred=-2.13D-03 R= 1.02D+00
 TightC=F SS=  1.41D+00  RLast= 2.16D-01 DXNew= 5.0454D-01 6.4924D-01
 Trust test= 1.02D+00 RLast= 2.16D-01 DXMaxT set to 5.05D-01
 ITU=  1  0
 Use linear search instead of GDIIS.
     Eigenvalues ---    0.00141   0.00212   0.00264   0.00340   0.03275
     Eigenvalues ---    0.03392   0.03496   0.03958   0.04570   0.04633
     Eigenvalues ---    0.05128   0.05208   0.06815   0.08101   0.08480
     Eigenvalues ---    0.10342   0.12157   0.13020   0.15001   0.15138
     Eigenvalues ---    0.16872   0.17307   0.18984   0.23220   0.24592
     Eigenvalues ---    0.28450   0.30696   0.31969   0.32735   0.32838
     Eigenvalues ---    0.33125   0.33382   0.33526   0.37296   0.37513
     Eigenvalues ---    0.43787   0.43889   0.44041   0.44173
 RFO step:  Lambda=-5.81401515D-05 EMin= 1.41144928D-03
 Quartic linear search produced a step of  0.08110.
 Iteration  1 RMS(Cart)=  0.03130043 RMS(Int)=  0.00065485
 Iteration  2 RMS(Cart)=  0.00069137 RMS(Int)=  0.00002456
 Iteration  3 RMS(Cart)=  0.00000037 RMS(Int)=  0.00002456
 Variable       Old X    -DE/DX   Delta X   Delta X   Delta X     New X
                                 (Linear)    (Quad)   (Total)
    R1        2.78098   0.00085   0.00189   0.00021   0.00210   2.78308
    R2        1.92632   0.00000  -0.00007   0.00014   0.00007   1.92640
    R3        1.92432   0.00000  -0.00024   0.00038   0.00014   1.92446
    R4        2.89390   0.00008   0.00035   0.00056   0.00090   2.89480
    R5        2.08396   0.00016   0.00110  -0.00084   0.00026   2.08422
    R6        2.07416   0.00004   0.00034  -0.00015   0.00018   2.07435
    R7        2.89051   0.00012   0.00019  -0.00004   0.00015   2.89066
    R8        2.07286   0.00002  -0.00013   0.00009  -0.00004   2.07282
    R9        2.07957   0.00005   0.00040  -0.00001   0.00039   2.07996
   R10        2.78372   0.00078   0.00159   0.00012   0.00171   2.78543
   R11        2.07471   0.00005   0.00040  -0.00013   0.00027   2.07499
   R12        2.07863   0.00014   0.00075  -0.00057   0.00018   2.07881
   R13        1.92682   0.00001   0.00005   0.00007   0.00012   1.92694
   R14        1.92503   0.00001  -0.00012   0.00031   0.00019   1.92522
    A1        1.89537   0.00004  -0.00126   0.00142   0.00016   1.89552
    A2        1.90267   0.00004  -0.00024  -0.00029  -0.00054   1.90212
    A3        1.83588  -0.00008  -0.00111  -0.00017  -0.00129   1.83459
    A4        1.94908  -0.00020  -0.00058   0.00005  -0.00057   1.94852
    A5        1.97007   0.00054   0.00565  -0.00018   0.00548   1.97555
    A6        1.88205  -0.00010  -0.00194  -0.00088  -0.00283   1.87923
    A7        1.89254  -0.00010  -0.00112   0.00218   0.00101   1.89355
    A8        1.90843  -0.00001  -0.00092  -0.00009  -0.00106   1.90737
    A9        1.85888  -0.00014  -0.00117  -0.00118  -0.00234   1.85655
   A10        1.99458   0.00012   0.00230  -0.00249  -0.00020   1.99438
   A11        1.89910   0.00003   0.00088   0.00094   0.00182   1.90092
   A12        1.90286  -0.00007  -0.00102  -0.00029  -0.00130   1.90156
   A13        1.89840   0.00001  -0.00082   0.00356   0.00270   1.90110
   A14        1.90837  -0.00006  -0.00105  -0.00017  -0.00122   1.90715
   A15        1.85545  -0.00004  -0.00043  -0.00149  -0.00192   1.85352
   A16        1.92976  -0.00018   0.00047  -0.00007   0.00038   1.93014
   A17        1.90419  -0.00003  -0.00140  -0.00050  -0.00193   1.90226
   A18        1.90469  -0.00009  -0.00244   0.00151  -0.00104   1.90365
   A19        1.88301  -0.00009  -0.00130  -0.00169  -0.00298   1.88003
   A20        1.97785   0.00052   0.00614   0.00060   0.00676   1.98461
   A21        1.86193  -0.00015  -0.00160   0.00006  -0.00159   1.86034
   A22        1.89368   0.00002  -0.00100   0.00095  -0.00006   1.89362
   A23        1.89960   0.00005  -0.00002  -0.00061  -0.00064   1.89896
   A24        1.83003  -0.00009  -0.00160   0.00021  -0.00140   1.82864
    D1       -1.13448  -0.00020  -0.00416  -0.03612  -0.04029  -1.17477
    D2        1.00321  -0.00008  -0.00200  -0.03335  -0.03531   0.96791
    D3        3.05165   0.00000  -0.00134  -0.03546  -0.03682   3.01482
    D4       -3.12590  -0.00015  -0.00204  -0.03651  -0.03856   3.11872
    D5       -0.98821  -0.00002   0.00013  -0.03374  -0.03358  -1.02179
    D6        1.06022   0.00006   0.00078  -0.03586  -0.03510   1.02512
    D7       -1.09774   0.00029   0.00316  -0.02051  -0.01735  -1.11509
    D8        3.06008   0.00017   0.00207  -0.02411  -0.02206   3.03802
    D9        1.04338   0.00024   0.00265  -0.02270  -0.02006   1.02332
   D10        3.00398  -0.00020  -0.00283  -0.02188  -0.02469   2.97928
   D11        0.87860  -0.00032  -0.00392  -0.02548  -0.02940   0.84920
   D12       -1.13809  -0.00025  -0.00335  -0.02407  -0.02740  -1.16550
   D13        0.98378   0.00003  -0.00028  -0.02163  -0.02190   0.96187
   D14       -1.14160  -0.00009  -0.00137  -0.02523  -0.02661  -1.16821
   D15        3.12489  -0.00002  -0.00079  -0.02382  -0.02461   3.10028
   D16       -3.07471   0.00012   0.00071  -0.04316  -0.04246  -3.11717
   D17       -1.00651  -0.00012  -0.00147  -0.04557  -0.04706  -1.05357
   D18        1.02173  -0.00036  -0.00571  -0.04494  -0.05061   0.97112
   D19       -0.94895   0.00024   0.00278  -0.04099  -0.03824  -0.98719
   D20        1.11924   0.00001   0.00060  -0.04341  -0.04283   1.07641
   D21       -3.13570  -0.00023  -0.00364  -0.04277  -0.04638   3.10110
   D22        1.07036   0.00017   0.00120  -0.04089  -0.03970   1.03065
   D23        3.13855  -0.00007  -0.00098  -0.04331  -0.04430   3.09425
   D24       -1.11639  -0.00031  -0.00522  -0.04267  -0.04785  -1.16424
   D25       -1.13830  -0.00020  -0.00357  -0.03218  -0.03579  -1.17409
   D26       -3.12037  -0.00012  -0.00114  -0.03261  -0.03379   3.12903
   D27        3.06383  -0.00000  -0.00134  -0.03051  -0.03186   3.03198
   D28        1.08177   0.00007   0.00109  -0.03094  -0.02986   1.05191
   D29        1.00644  -0.00007  -0.00214  -0.02983  -0.03192   0.97452
   D30       -0.97562   0.00000   0.00030  -0.03026  -0.02992  -1.00555
         Item               Value     Threshold  Converged?
 Maximum Force            0.000852     0.000450     NO 
 RMS     Force            0.000213     0.000300     YES
 Maximum Displacement     0.126264     0.001800     NO 
 RMS     Displacement     0.031301     0.001200     NO 
 Predicted change in Energy=-3.894378D-05
 GradGradGradGradGradGradGradGradGradGradGradGradGradGradGradGradGradGrad

                          Input orientation:                          
 ---------------------------------------------------------------------
 Center     Atomic      Atomic             Coordinates (Angstroms)
 Number     Number       Type             X           Y           Z
 ---------------------------------------------------------------------
      1          7           0       -1.944192   -0.722361   -0.335001
      2          6           0       -1.339562    0.606543   -0.141608
      3          6           0        0.139459    0.617742   -0.540325
      4          6           0        1.028235   -0.286401    0.315535
      5          7           0        2.434529   -0.188546   -0.115035
      6          1           0       -1.977443   -0.922287   -1.334056
      7          1           0       -2.917809   -0.689709   -0.038182
      8          1           0       -1.858089    1.404856   -0.698619
      9          1           0       -1.430235    0.862299    0.922020
     10          1           0        0.516020    1.646243   -0.480686
     11          1           0        0.227331    0.319313   -1.596113
     12          1           0        0.974863    0.045937    1.360706
     13          1           0        0.628352   -1.310909    0.290913
     14          1           0        2.516064   -0.592149   -1.047897
     15          1           0        3.002477   -0.790572    0.479035
 ---------------------------------------------------------------------
                    Distance matrix (angstroms):
                    1          2          3          4          5
     1  N    0.000000
     2  C    1.472740   0.000000
     3  C    2.485888   1.531864   0.000000
     4  C    3.073854   2.571535   1.529671   0.000000
     5  N    4.416621   3.857024   2.469477   1.473984   0.000000
     6  H    1.019405   2.041114   2.735502   3.487062   4.635718
     7  H    1.018380   2.044952   3.362807   3.982341   5.376299
     8  H    2.159788   1.102921   2.152859   3.495672   4.615849
     9  H    2.086959   1.097696   2.159213   2.780542   4.137168
    10  H    3.418209   2.153866   1.096891   2.152080   2.679706
    11  H    2.718639   2.157137   1.100668   2.159337   2.706148
    12  H    3.462165   2.815633   2.153783   1.098035   2.088880
    13  H    2.712220   2.781435   2.156309   1.100058   2.164895
    14  H    4.518746   4.138125   2.714722   2.041093   1.019693
    15  H    5.013665   4.603306   3.349524   2.044150   1.018783
                    6          7          8          9         10
     6  H    0.000000
     7  H    1.617922   0.000000
     8  H    2.415289   2.438522   0.000000
     9  H    2.928150   2.354484   1.761789   0.000000
    10  H    3.680074   4.176562   2.396280   2.523899   0.000000
    11  H    2.543869   3.652010   2.516520   3.063226   1.757346
    12  H    4.112822   4.201304   3.756740   2.577477   2.482387
    13  H    3.095435   3.615169   3.812734   3.059233   3.058224
    14  H    4.514697   5.527750   4.821124   4.644273   3.054882
    15  H    5.301344   5.943692   5.461855   4.751542   3.611315
                   11         12         13         14         15
    11  H    0.000000
    12  H    3.062078   0.000000
    13  H    2.525730   1.762259   0.000000
    14  H    2.523808   2.929816   2.423321   0.000000
    15  H    3.638615   2.363960   2.437747   1.614772   0.000000
 Stoichiometry    C3H10N2
 Framework group  C1[X(C3H10N2)]
 Deg. of freedom    39
 Full point group                 C1      NOp   1
 Largest Abelian subgroup         C1      NOp   1
 Largest concise Abelian subgroup C1      NOp   1
                         Standard orientation:                         
 ---------------------------------------------------------------------
 Center     Atomic      Atomic             Coordinates (Angstroms)
 Number     Number       Type             X           Y           Z
 ---------------------------------------------------------------------
      1          7           0       -1.976083   -0.754690   -0.143824
      2          6           0       -1.402169    0.546661    0.238373
      3          6           0        0.042364    0.692446   -0.250173
      4          6           0        1.020493   -0.305054    0.372843
      5          7           0        2.387386   -0.071756   -0.126960
      6          1           0       -2.076275   -0.780737   -1.157959
      7          1           0       -2.925763   -0.817193    0.218526
      8          1           0       -1.985832    1.405056   -0.134362
      9          1           0       -1.422554    0.610984    1.333993
     10          1           0        0.388822    1.711057   -0.036707
     11          1           0        0.061913    0.584655   -1.345376
     12          1           0        1.033452   -0.160526    1.461248
     13          1           0        0.653235   -1.326812    0.196033
     14          1           0        2.413068   -0.304508   -1.119402
     15          1           0        3.016687   -0.741178    0.313236
 ---------------------------------------------------------------------
 Rotational constants (GHZ):          12.6169086           2.3125785           2.1580502
 Standard basis: 6-31G(d,p) (6D, 7F)
 There are   125 symmetry adapted cartesian basis functions of A   symmetry.
 There are   125 symmetry adapted basis functions of A   symmetry.
   125 basis functions,   210 primitive gaussians,   125 cartesian basis functions
    21 alpha electrons       21 beta electrons
       nuclear repulsion energy       188.3816173777 Hartrees.
 NAtoms=   15 NActive=   15 NUniq=   15 SFac= 1.00D+00 NAtFMM=   60 NAOKFM=F Big=F
 Integral buffers will be    131072 words long.
 Raffenetti 2 integral format.
 Two-electron integral symmetry is turned on.
 ------------------------------------------------------------------------------
 Polarizable Continuum Model (PCM)
 =================================
 Model                : PCM.
 Atomic radii         : UFF (Universal Force Field).
 Polarization charges : Total charges.
 Charge compensation  : None.
 Solution method      : Matrix inversion.
 Cavity type          : Scaled VdW (van der Waals Surface) (Alpha=1.100).
 Cavity algorithm     : GePol (No added spheres)
                        Default sphere list used, NSphG=   15.
                        Lebedev-Laikov grids with approx.  5.0 points / Ang**2.
                        Smoothing algorithm: York/Karplus (Gamma=1.0000).
                        Polarization charges: spherical gaussians, with
                                              point-specific exponents (IZeta= 3).
                        Self-potential: point-specific (ISelfS= 7).
                        Self-field    : sphere-specific E.n sum rule (ISelfD= 2).
 1st derivatives      : Analytical E(r).r(x)/FMM algorithm (CHGder, D1EAlg=3).
                        Cavity 1st derivative terms included.
 Solvent              : Water, Eps=  78.355300 Eps(inf)=   1.777849
 ------------------------------------------------------------------------------
 Spheres list:
 ISph  on   Nord     Re0    Alpha      Xe            Ye            Ze
    1   N      1    1.8300  1.100     -1.976083     -0.754690     -0.143824
    2   C      2    1.9255  1.100     -1.402169      0.546661      0.238373
    3   C      3    1.9255  1.100      0.042364      0.692446     -0.250173
    4   C      4    1.9255  1.100      1.020493     -0.305054      0.372843
    5   N      5    1.8300  1.100      2.387386     -0.071756     -0.126960
    6   H      6    1.4430  1.100     -2.076275     -0.780737     -1.157959
    7   H      7    1.4430  1.100     -2.925763     -0.817193      0.218526
    8   H      8    1.4430  1.100     -1.985832      1.405056     -0.134362
    9   H      9    1.4430  1.100     -1.422554      0.610984      1.333993
   10   H     10    1.4430  1.100      0.388822      1.711057     -0.036707
   11   H     11    1.4430  1.100      0.061913      0.584655     -1.345376
   12   H     12    1.4430  1.100      1.033452     -0.160526      1.461248
   13   H     13    1.4430  1.100      0.653235     -1.326812      0.196033
   14   H     14    1.4430  1.100      2.413068     -0.304508     -1.119402
   15   H     15    1.4430  1.100      3.016687     -0.741178      0.313236
 ------------------------------------------------------------------------------
 One-electron integrals computed using PRISM.
 NBasis=   125 RedAO= T EigKep=  3.90D-03  NBF=   125
 NBsUse=   125 1.00D-06 EigRej= -1.00D+00 NBFU=   125
 Initial guess from the checkpoint file:  "XFNJVJPLKCPIBV-UHFFFAOYSA-N_conf_1_0.chk"
 B after Tr=    -0.000000   -0.000000   -0.000000
         Rot=    0.999918    0.012749   -0.000830   -0.000281 Ang=   1.46 deg.
 ExpMin= 1.61D-01 ExpMax= 4.17D+03 ExpMxC= 6.27D+02 IAcc=2 IRadAn=         4 AccDes= 0.00D+00
 Harris functional with IExCor=  402 and IRadAn=       4 diagonalized for initial guess.
 HarFok:  IExCor=  402 AccDes= 0.00D+00 IRadAn=         4 IDoV= 1 UseB2=F ITyADJ=14
 ICtDFT=  3500011 ScaDFX=  1.000000  1.000000  1.000000  1.000000
 FoFCou: FMM=F IPFlag=           0 FMFlag=      100000 FMFlg1=           0
         NFxFlg=           0 DoJE=T BraDBF=F KetDBF=T FulRan=T
         wScrn=  0.000000 ICntrl=       500 IOpCl=  0 I1Cent=   200000004 NGrid=           0
         NMat0=    1 NMatS0=      1 NMatT0=    0 NMatD0=    1 NMtDS0=    0 NMtDT0=    0
 Petite list used in FoFCou.
 Keep R1 ints in memory in canonical form, NReq=32913836.
 Requested convergence on RMS density matrix=1.00D-08 within  32 cycles.
 Requested convergence on MAX density matrix=1.00D-06.
 Requested convergence on             energy=1.00D-06.
 No special actions if energy rises.
 Inv3:  Mode=1 IEnd=     4092672.
 Iteration    1 A*A^-1 deviation from unit magnitude is 5.77D-15 for    802.
 Iteration    1 A*A^-1 deviation from orthogonality  is 3.09D-15 for   1132    554.
 Iteration    1 A^-1*A deviation from unit magnitude is 5.55D-15 for    802.
 Iteration    1 A^-1*A deviation from orthogonality  is 2.90D-15 for   1129    507.
 Error on total polarization charges =  0.00695
 SCF Done:  E(RB3LYP) =  -229.851544292     A.U. after    9 cycles
            NFock=  9  Conv=0.36D-08     -V/T= 2.0098
 QCSCF skips out because SCF is already converged.
 D1PCM: PCM CHGder 1st derivatives, ID1Alg=3 FixD1E=F DoIter=F DoCFld=F I1PDM=0.
 Calling FoFJK, ICntrl=      2127 FMM=F ISym2X=0 I1Cent= 0 IOpClX= 0 NMat=1 NMatS=1 NMatT=0.
 ***** Axes restored to original set *****
 -------------------------------------------------------------------
 Center     Atomic                   Forces (Hartrees/Bohr)
 Number     Number              X              Y              Z
 -------------------------------------------------------------------
      1        7          -0.000070650   -0.000036476   -0.000041991
      2        6           0.000021174    0.000061320    0.000003559
      3        6          -0.000027422    0.000052827   -0.000043245
      4        6          -0.000110464    0.000001622    0.000093964
      5        7           0.000069954   -0.000066526   -0.000023610
      6        1           0.000023680   -0.000052518    0.000021977
      7        1           0.000025001    0.000007657   -0.000000499
      8        1          -0.000002807   -0.000006868    0.000036314
      9        1           0.000020311    0.000021825    0.000025364
     10        1           0.000010326   -0.000009952   -0.000014034
     11        1          -0.000018445   -0.000008353   -0.000003245
     12        1          -0.000016632   -0.000005486    0.000005346
     13        1           0.000060312   -0.000029498   -0.000040867
     14        1           0.000028308    0.000060152   -0.000009214
     15        1          -0.000012645    0.000010274   -0.000009819
 -------------------------------------------------------------------
 Cartesian Forces:  Max     0.000110464 RMS     0.000038937

 GradGradGradGradGradGradGradGradGradGradGradGradGradGradGradGradGradGrad
 Berny optimization.
 Using GEDIIS/GDIIS optimizer.
 FormGI is forming the generalized inverse of G from B-inverse, IUseBI=4.
 Internal  Forces:  Max     0.000087041 RMS     0.000026955
 Search for a local minimum.
 Step number   3 out of a maximum of   78
 All quantities printed in internal units (Hartrees-Bohrs-Radians)
 Mixed Optimization -- En-DIIS/RFO-DIIS
 Swapping is turned off.
 Update second derivatives using D2CorX and points    1    2    3
 DE= -2.89D-05 DEPred=-3.89D-05 R= 7.41D-01
 TightC=F SS=  1.41D+00  RLast= 1.94D-01 DXNew= 8.4853D-01 5.8109D-01
 Trust test= 7.41D-01 RLast= 1.94D-01 DXMaxT set to 5.81D-01
 ITU=  1  1  0
     Eigenvalues ---    0.00181   0.00212   0.00263   0.00342   0.03279
     Eigenvalues ---    0.03395   0.03497   0.03951   0.04571   0.04632
     Eigenvalues ---    0.04893   0.05162   0.06809   0.08103   0.08454
     Eigenvalues ---    0.10341   0.12073   0.13011   0.14989   0.15114
     Eigenvalues ---    0.16916   0.17307   0.18983   0.23147   0.24589
     Eigenvalues ---    0.28444   0.30627   0.31944   0.32734   0.32826
     Eigenvalues ---    0.33120   0.33375   0.33517   0.36621   0.37512
     Eigenvalues ---    0.43787   0.43889   0.44040   0.44173
 En-DIIS/RFO-DIIS/Sim-DIIS IScMMF=       -3 using points:     3    2
 RFO step:  Lambda=-5.00157445D-06.
 DidBck=T Rises=F RFO-DIIS coefs:    0.74395    0.25605
 Iteration  1 RMS(Cart)=  0.00914431 RMS(Int)=  0.00004961
 Iteration  2 RMS(Cart)=  0.00005561 RMS(Int)=  0.00000073
 Iteration  3 RMS(Cart)=  0.00000000 RMS(Int)=  0.00000073
 Variable       Old X    -DE/DX   Delta X   Delta X   Delta X     New X
                                 (Linear)    (Quad)   (Total)
    R1        2.78308   0.00008  -0.00054   0.00066   0.00012   2.78320
    R2        1.92640  -0.00001  -0.00002  -0.00001  -0.00003   1.92636
    R3        1.92446  -0.00002  -0.00004  -0.00003  -0.00006   1.92439
    R4        2.89480  -0.00001  -0.00023   0.00002  -0.00021   2.89459
    R5        2.08422  -0.00002  -0.00007   0.00006  -0.00000   2.08421
    R6        2.07435   0.00003  -0.00005   0.00015   0.00010   2.07445
    R7        2.89066   0.00005  -0.00004   0.00024   0.00020   2.89086
    R8        2.07282  -0.00001   0.00001  -0.00003  -0.00002   2.07281
    R9        2.07996   0.00001  -0.00010   0.00012   0.00002   2.07998
   R10        2.78543   0.00009  -0.00044   0.00077   0.00034   2.78576
   R11        2.07499   0.00001  -0.00007   0.00011   0.00004   2.07502
   R12        2.07881   0.00001  -0.00005   0.00006   0.00001   2.07882
   R13        1.92694  -0.00001  -0.00003   0.00000  -0.00003   1.92691
   R14        1.92522  -0.00001  -0.00005   0.00000  -0.00005   1.92518
    A1        1.89552   0.00008  -0.00004   0.00050   0.00046   1.89598
    A2        1.90212  -0.00003   0.00014  -0.00017  -0.00003   1.90209
    A3        1.83459   0.00000   0.00033  -0.00007   0.00027   1.83486
    A4        1.94852   0.00001   0.00015  -0.00007   0.00008   1.94859
    A5        1.97555   0.00001  -0.00140   0.00176   0.00036   1.97591
    A6        1.87923   0.00001   0.00072  -0.00070   0.00002   1.87925
    A7        1.89355   0.00000  -0.00026   0.00026  -0.00000   1.89355
    A8        1.90737  -0.00002   0.00027  -0.00068  -0.00040   1.90697
    A9        1.85655  -0.00001   0.00060  -0.00069  -0.00009   1.85646
   A10        1.99438  -0.00004   0.00005   0.00016   0.00022   1.99460
   A11        1.90092  -0.00000  -0.00047   0.00029  -0.00017   1.90075
   A12        1.90156   0.00002   0.00033  -0.00001   0.00032   1.90189
   A13        1.90110   0.00002  -0.00069   0.00019  -0.00050   1.90060
   A14        1.90715   0.00000   0.00031  -0.00027   0.00004   1.90719
   A15        1.85352  -0.00001   0.00049  -0.00041   0.00008   1.85361
   A16        1.93014   0.00001  -0.00010  -0.00019  -0.00029   1.92985
   A17        1.90226   0.00000   0.00049  -0.00040   0.00009   1.90235
   A18        1.90365   0.00002   0.00027   0.00032   0.00059   1.90424
   A19        1.88003  -0.00001   0.00076  -0.00070   0.00006   1.88010
   A20        1.98461  -0.00003  -0.00173   0.00133  -0.00040   1.98421
   A21        1.86034   0.00001   0.00041  -0.00044  -0.00004   1.86030
   A22        1.89362   0.00007   0.00002   0.00033   0.00035   1.89397
   A23        1.89896  -0.00002   0.00016  -0.00017  -0.00001   1.89895
   A24        1.82864  -0.00000   0.00036  -0.00023   0.00013   1.82877
    D1       -1.17477   0.00002   0.01032  -0.00359   0.00672  -1.16804
    D2        0.96791   0.00003   0.00904  -0.00199   0.00705   0.97496
    D3        3.01482   0.00003   0.00943  -0.00227   0.00716   3.02199
    D4        3.11872  -0.00001   0.00987  -0.00369   0.00619   3.12491
    D5       -1.02179   0.00000   0.00860  -0.00208   0.00651  -1.01528
    D6        1.02512   0.00000   0.00899  -0.00236   0.00663   1.03175
    D7       -1.11509   0.00002   0.00444   0.00246   0.00690  -1.10819
    D8        3.03802   0.00002   0.00565   0.00188   0.00753   3.04555
    D9        1.02332   0.00001   0.00514   0.00221   0.00735   1.03067
   D10        2.97928   0.00000   0.00632   0.00006   0.00639   2.98567
   D11        0.84920   0.00000   0.00753  -0.00051   0.00702   0.85622
   D12       -1.16550  -0.00000   0.00702  -0.00018   0.00684  -1.15866
   D13        0.96187   0.00002   0.00561   0.00110   0.00671   0.96858
   D14       -1.16821   0.00002   0.00681   0.00053   0.00734  -1.16087
   D15        3.10028   0.00001   0.00630   0.00086   0.00716   3.10744
   D16       -3.11717   0.00003   0.01087   0.00252   0.01340  -3.10378
   D17       -1.05357   0.00002   0.01205   0.00131   0.01336  -1.04021
   D18        0.97112   0.00005   0.01296   0.00073   0.01369   0.98481
   D19       -0.98719   0.00001   0.00979   0.00316   0.01295  -0.97424
   D20        1.07641   0.00001   0.01097   0.00195   0.01291   1.08932
   D21        3.10110   0.00004   0.01188   0.00137   0.01324   3.11435
   D22        1.03065   0.00002   0.01017   0.00263   0.01279   1.04345
   D23        3.09425   0.00002   0.01134   0.00141   0.01276   3.10701
   D24       -1.16424   0.00004   0.01225   0.00084   0.01309  -1.15115
   D25       -1.17409   0.00003   0.00916  -0.00197   0.00719  -1.16690
   D26        3.12903  -0.00000   0.00865  -0.00179   0.00686   3.13589
   D27        3.03198   0.00002   0.00816  -0.00095   0.00721   3.03918
   D28        1.05191  -0.00001   0.00764  -0.00077   0.00688   1.05879
   D29        0.97452   0.00003   0.00817  -0.00072   0.00745   0.98197
   D30       -1.00555   0.00000   0.00766  -0.00054   0.00712  -0.99843
         Item               Value     Threshold  Converged?
 Maximum Force            0.000087     0.000450     YES
 RMS     Force            0.000027     0.000300     YES
 Maximum Displacement     0.035374     0.001800     NO 
 RMS     Displacement     0.009146     0.001200     NO 
 Predicted change in Energy=-2.507226D-06
 GradGradGradGradGradGradGradGradGradGradGradGradGradGradGradGradGradGrad

                          Input orientation:                          
 ---------------------------------------------------------------------
 Center     Atomic      Atomic             Coordinates (Angstroms)
 Number     Number       Type             X           Y           Z
 ---------------------------------------------------------------------
      1          7           0       -1.946064   -0.720394   -0.326391
      2          6           0       -1.339270    0.608942   -0.142477
[...]

 **********************************************************************

            Population analysis using the CI density.

 **********************************************************************

 Orbital symmetries:
       Occupied  (A) (A) (A) (A) (A) (A) (A) (A) (A) (A) (A) (A)
                 (A) (A) (A) (A) (A) (A) (A) (A) (A)
       Virtual   (A) (A) (A) (A) (A) (A) (A) (A) (A) (A) (A) (A)
                 (A) (A) (A) (A) (A) (A) (A) (A) (A) (A) (A) (A)
                 (A) (A) (A) (A) (A) (A) (A) (A) (A) (A) (A) (A)
                 (A) (A) (A) (A) (A) (A) (A) (A) (A) (A) (A) (A)
                 (A) (A) (A) (A) (A) (A) (A) (A) (A) (A) (A) (A)
                 (A) (A) (A) (A) (A) (A) (A) (A) (A) (A) (A) (A)
                 (A) (A) (A) (A) (A) (A) (A) (A) (A) (A) (A) (A)
                 (A) (A) (A) (A) (A) (A) (A) (A) (A) (A) (A) (A)
                 (A) (A) (A) (A) (A) (A) (A) (A)
 The electronic state is 1-A.
 Alpha  occ. eigenvalues --  -14.30864 -14.30708 -10.20237 -10.19725 -10.17446
 Alpha  occ. eigenvalues --   -0.87759  -0.86583  -0.74114  -0.63882  -0.57467
 Alpha  occ. eigenvalues --   -0.48402  -0.47608  -0.44927  -0.42740  -0.42399
 Alpha  occ. eigenvalues --   -0.37121  -0.34472  -0.34068  -0.32657  -0.24431
 Alpha  occ. eigenvalues --   -0.22593
 Alpha virt. eigenvalues --    0.08662   0.09352   0.12642   0.13531   0.16207
 Alpha virt. eigenvalues --    0.16690   0.17788   0.18726   0.19731   0.20826
 Alpha virt. eigenvalues --    0.23448   0.25316   0.25690   0.28312   0.52860
 Alpha virt. eigenvalues --    0.53532   0.54767   0.56522   0.58557   0.66139
 Alpha virt. eigenvalues --    0.67374   0.69296   0.71426   0.73202   0.73412
 Alpha virt. eigenvalues --    0.78425   0.80085   0.82487   0.86323   0.87560
 Alpha virt. eigenvalues --    0.87972   0.89119   0.92534   0.92875   0.94390
 Alpha virt. eigenvalues --    0.94777   0.95657   0.97481   1.03782   1.10184
 Alpha virt. eigenvalues --    1.22626   1.30891   1.33045   1.35246   1.44674
 Alpha virt. eigenvalues --    1.52536   1.53732   1.65109   1.65517   1.72332
 Alpha virt. eigenvalues --    1.74015   1.78153   1.81681   1.87785   1.89055
 Alpha virt. eigenvalues --    1.92679   1.98814   2.04584   2.06283   2.08545
 Alpha virt. eigenvalues --    2.11351   2.13432   2.13889   2.23962   2.24636
 Alpha virt. eigenvalues --    2.26461   2.29001   2.30634   2.31999   2.34562
 Alpha virt. eigenvalues --    2.38964   2.40943   2.46278   2.47561   2.54483
 Alpha virt. eigenvalues --    2.58856   2.61293   2.62624   2.70466   2.72111
 Alpha virt. eigenvalues --    2.77935   2.79705   2.83513   2.86718   2.91790
 Alpha virt. eigenvalues --    2.93632   2.95100   2.96706   2.98571   3.22044
 Alpha virt. eigenvalues --    3.27827   3.30581   3.31349   3.34704   3.39199
 Alpha virt. eigenvalues --    3.46646   3.50631   3.55061   3.59230   3.97206
 Alpha virt. eigenvalues --    4.02743   4.34688   4.53632   4.68944
          Condensed to atoms (all electrons):
               1          2          3          4          5          6
     1  N    8.570137   0.316655  -0.053813   0.003271  -0.000103  -0.668468
     2  C    0.316655   5.619970   0.392358  -0.022653   0.002070  -0.036226
     3  C   -0.053813   0.392358   5.342736   0.389407  -0.057733  -0.026768
     4  C    0.003271  -0.022653   0.389407   5.058045   0.279095  -0.007501
     5  N   -0.000103   0.002070  -0.057733   0.279095   6.814544   0.000163
     6  H   -0.668468  -0.036226  -0.026768  -0.007501   0.000163   1.185173
     7  H   -0.688755  -0.092354   0.010335  -0.003187   0.000026   0.352616
     8  H   -0.176962   0.036927  -0.057264   0.002038   0.000064   0.082576
     9  H   -0.139395   0.090530  -0.028450  -0.022935   0.000519   0.038373
    10  H   -0.002363  -0.133063   0.198639  -0.046941   0.007883   0.006590
    11  H   -0.042210  -0.082879   0.166231  -0.056803  -0.002498   0.059725
    12  H   -0.001926  -0.018558  -0.043433   0.302198  -0.034203   0.001479
    13  H   -0.005056  -0.009788  -0.075574   0.246167  -0.035216   0.017089
    14  H   -0.000083  -0.000310  -0.020460  -0.047591   0.302872   0.000288
    15  H   -0.000007  -0.000256   0.003601  -0.041312   0.316182   0.000016
               7          8          9         10         11         12
     1  N   -0.688755  -0.176962  -0.139395  -0.002363  -0.042210  -0.001926
     2  C   -0.092354   0.036927   0.090530  -0.133063  -0.082879  -0.018558
     3  C    0.010335  -0.057264  -0.028450   0.198639   0.166231  -0.043433
     4  C   -0.003187   0.002038  -0.022935  -0.046941  -0.056803   0.302198
     5  N    0.000026   0.000064   0.000519   0.007883  -0.002498  -0.034203
     6  H    0.352616   0.082576   0.038373   0.006590   0.059725   0.001479
     7  H    1.253811   0.085014   0.077406   0.002056   0.007689   0.001128
     8  H    0.085014   0.802092   0.067859   0.037379   0.031258   0.001710
     9  H    0.077406   0.067859   0.767895   0.025984   0.017773   0.019597
    10  H    0.002056   0.037379   0.025984   0.782536   0.033600   0.007430
    11  H    0.007689   0.031258   0.017773   0.033600   0.780491   0.012008
    12  H    0.001128   0.001710   0.019597   0.007430   0.012008   0.661314
    13  H    0.006141   0.002610   0.008630   0.015118   0.014919  -0.017107
    14  H    0.000015   0.000077   0.000132   0.003322   0.015045   0.009399
    15  H    0.000002   0.000008   0.000046   0.000691   0.000748   0.000338
              13         14         15
     1  N   -0.005056  -0.000083  -0.000007
     2  C   -0.009788  -0.000310  -0.000256
     3  C   -0.075574  -0.020460   0.003601
     4  C    0.246167  -0.047591  -0.041312
     5  N   -0.035216   0.302872   0.316182
     6  H    0.017089   0.000288   0.000016
     7  H    0.006141   0.000015   0.000002
     8  H    0.002610   0.000077   0.000008
     9  H    0.008630   0.000132   0.000046
    10  H    0.015118   0.003322   0.000691
    11  H    0.014919   0.015045   0.000748
    12  H   -0.017107   0.009399   0.000338
    13  H    0.754047   0.004224   0.002746
    14  H    0.004224   0.498051  -0.019237
    15  H    0.002746  -0.019237   0.471879
 Mulliken charges:
               1
     1  N   -0.110922
     2  C   -0.062422
     3  C   -0.139812
     4  C   -0.031297
     5  N   -0.593664
     6  H   -0.005126
     7  H   -0.011943
     8  H    0.084615
     9  H    0.076038
    10  H    0.061139
    11  H    0.044902
    12  H    0.098628
    13  H    0.071049
    14  H    0.254258
    15  H    0.264555
 Sum of Mulliken charges =  -0.00000
 Mulliken charges with hydrogens summed into heavy atoms:
               1
     1  N   -0.127990
     2  C    0.098232
     3  C   -0.033770
     4  C    0.138380
     5  N   -0.074851
 Electronic spatial extent (au):  <R**2>=            613.1277
 Charge=             -0.0000 electrons
 Dipole moment (field-independent basis, Debye):
    X=              1.4271    Y=             -1.0916    Z=              0.2374  Tot=              1.8123
 Quadrupole moment (field-independent basis, Debye-Ang):
   XX=            -36.1121   YY=            -35.1539   ZZ=            -34.8455
   XY=             -6.1008   XZ=             -1.5808   YZ=              0.0889
 Traceless Quadrupole moment (field-independent basis, Debye-Ang):
   XX=             -0.7416   YY=              0.2166   ZZ=              0.5250
   XY=             -6.1008   XZ=             -1.5808   YZ=              0.0889
 Octapole moment (field-independent basis, Debye-Ang**2):
  XXX=             31.5034  YYY=             -1.6650  ZZZ=              1.8975  XYY=              3.7781
  XXY=            -10.6291  XXZ=             -1.5247  XZZ=              9.9116  YZZ=             -0.4787
  YYZ=              0.7491  XYZ=             -0.7479
 Hexadecapole moment (field-independent basis, Debye-Ang**3):
 XXXX=           -649.9359 YYYY=           -130.1739 ZZZZ=            -92.5772 XXXY=            -53.8970
 XXXZ=             -5.4925 YYYX=             -8.6635 YYYZ=             -0.2686 ZZZX=             -9.7898
 ZZZY=             -0.3630 XXYY=           -126.4955 XXZZ=           -117.9013 YYZZ=            -38.3658
 XXYZ=             -0.1858 YYXZ=             -0.4922 ZZXY=             -4.3188
 N-N= 1.883869822010D+02 E-N=-9.090423535769D+02  KE= 2.277910353744D+02
 Evaluate density.
 Using the total density.
 Monte-Carlo method of calculating molar volume:
 based on  0.001 e/bohr**3 density envelope.
 Number of points per bohr**3 =   20 CutOff= 1.00D-04
 Using the CI density.
 There are       319 points.  Will hold       319 in memory.
 LenV=   536814011 MDV=   536870912.
 Box volume = 4068.335 fraction occupied=0.194
 Integrated density= 2.4361042030592671D+01 error=-1.7638957969407329D+01
 Molar volume =  790.711 bohr**3/mol ( 70.562 cm**3/mol)
 Recommended a0 for SCRF calculation =  3.84 angstrom (  7.26 bohr)
 ******************************Gaussian NBO Version 3.1******************************
             N A T U R A L   A T O M I C   O R B I T A L   A N D
          N A T U R A L   B O N D   O R B I T A L   A N A L Y S I S
 ******************************Gaussian NBO Version 3.1******************************
       /RESON  / : Allow strongly delocalized NBO set

 Analyzing the CI density

 Job title: XFNJVJPLKCPIBV-UHFFFAOYSA-N_conf_1                              

 Storage needed:     47690 in NPA ( 536869637 available)
 GSVD:  LWork=        8191 too small for GESVD, short by        6146 words or        6146 for optimal perf.


 NATURAL POPULATIONS:  Natural atomic orbital occupancies 
                                                          
   NAO  Atom  No  lang   Type(AO)    Occupancy
 --------------------------------------------
     1    N    1  S      Cor( 1S)     1.99938
     2    N    1  S      Val( 2S)     1.51444
     3    N    1  S      Ryd( 3S)     0.01561
     4    N    1  S      Ryd( 4S)     0.00004
     5    N    1  px     Val( 2p)     1.33715
     6    N    1  px     Ryd( 3p)     0.00385
     7    N    1  py     Val( 2p)     1.20012
     8    N    1  py     Ryd( 3p)     0.00000
     9    N    1  pz     Val( 2p)     1.39148
    10    N    1  pz     Ryd( 3p)     0.00214
    11    N    1  dxy    Ryd( 3d)     0.00010
    12    N    1  dxz    Ryd( 3d)     0.00007
    13    N    1  dyz    Ryd( 3d)     0.00031
    14    N    1  dx2y2  Ryd( 3d)     0.00099
    15    N    1  dz2    Ryd( 3d)     0.00083

    16    C    2  S      Cor( 1S)     1.99932
    17    C    2  S      Val( 2S)     1.05654
    18    C    2  S      Ryd( 3S)     0.00210
    19    C    2  S      Ryd( 4S)     0.00004
    20    C    2  px     Val( 2p)     1.05881
    21    C    2  px     Ryd( 3p)     0.00278
    22    C    2  py     Val( 2p)     0.98832
    23    C    2  py     Ryd( 3p)     0.00609
    24    C    2  pz     Val( 2p)     1.22098
    25    C    2  pz     Ryd( 3p)     0.00312
    26    C    2  dxy    Ryd( 3d)     0.00118
    27    C    2  dxz    Ryd( 3d)     0.00055
    28    C    2  dyz    Ryd( 3d)     0.00059
    29    C    2  dx2y2  Ryd( 3d)     0.00090
    30    C    2  dz2    Ryd( 3d)     0.00123

    31    C    3  S      Cor( 1S)     1.99931
    32    C    3  S      Val( 2S)     1.05413
    33    C    3  S      Ryd( 3S)     0.00120
    34    C    3  S      Ryd( 4S)     0.00003
    35    C    3  px     Val( 2p)     1.02630
    36    C    3  px     Ryd( 3p)     0.00478
    37    C    3  py     Val( 2p)     1.18588
    38    C    3  py     Ryd( 3p)     0.00312
    39    C    3  pz     Val( 2p)     1.21349
    40    C    3  pz     Ryd( 3p)     0.00265
    41    C    3  dxy    Ryd( 3d)     0.00061
    42    C    3  dxz    Ryd( 3d)     0.00038
    43    C    3  dyz    Ryd( 3d)     0.00026
    44    C    3  dx2y2  Ryd( 3d)     0.00073
    45    C    3  dz2    Ryd( 3d)     0.00104

    46    C    4  S      Cor( 1S)     1.99932
    47    C    4  S      Val( 2S)     1.03647
    48    C    4  S      Ryd( 3S)     0.00212
    49    C    4  S      Ryd( 4S)     0.00004
    50    C    4  px     Val( 2p)     0.89330
    51    C    4  px     Ryd( 3p)     0.00378
    52    C    4  py     Val( 2p)     1.14882
    53    C    4  py     Ryd( 3p)     0.00232
    54    C    4  pz     Val( 2p)     1.17655
    55    C    4  pz     Ryd( 3p)     0.00175
    56    C    4  dxy    Ryd( 3d)     0.00127
    57    C    4  dxz    Ryd( 3d)     0.00075
    58    C    4  dyz    Ryd( 3d)     0.00033
    59    C    4  dx2y2  Ryd( 3d)     0.00113
    60    C    4  dz2    Ryd( 3d)     0.00132

    61    N    5  S      Cor( 1S)     1.99963
    62    N    5  S      Val( 2S)     1.44757
    63    N    5  S      Ryd( 3S)     0.00055
    64    N    5  S      Ryd( 4S)     0.00002
    65    N    5  px     Val( 2p)     1.31713
    66    N    5  px     Ryd( 3p)     0.00224
    67    N    5  py     Val( 2p)     1.68250
    68    N    5  py     Ryd( 3p)     0.00450
    69    N    5  pz     Val( 2p)     1.38801
    70    N    5  pz     Ryd( 3p)     0.00204
    71    N    5  dxy    Ryd( 3d)     0.00127
    72    N    5  dxz    Ryd( 3d)     0.00019
    73    N    5  dyz    Ryd( 3d)     0.00099
    74    N    5  dx2y2  Ryd( 3d)     0.00103
    75    N    5  dz2    Ryd( 3d)     0.00091

    76    H    6  S      Val( 1S)     0.72316
    77    H    6  S      Ryd( 2S)     0.08427
    78    H    6  px     Ryd( 2p)     0.00021
    79    H    6  py     Ryd( 2p)     0.00025
    80    H    6  pz     Ryd( 2p)     0.00077

    81    H    7  S      Val( 1S)     0.73750
    82    H    7  S      Ryd( 2S)     0.08137
    83    H    7  px     Ryd( 2p)     0.00070
    84    H    7  py     Ryd( 2p)     0.00023
    85    H    7  pz     Ryd( 2p)     0.00026

    86    H    8  S      Val( 1S)     0.73210
    87    H    8  S      Ryd( 2S)     0.03475
    88    H    8  px     Ryd( 2p)     0.00016
    89    H    8  py     Ryd( 2p)     0.00028
    90    H    8  pz     Ryd( 2p)     0.00012

    91    H    9  S      Val( 1S)     0.76327
    92    H    9  S      Ryd( 2S)     0.02544
    93    H    9  px     Ryd( 2p)     0.00007
    94    H    9  py     Ryd( 2p)     0.00007
    95    H    9  pz     Ryd( 2p)     0.00037

    96    H   10  S      Val( 1S)     0.77626
    97    H   10  S      Ryd( 2S)     0.01479
    98    H   10  px     Ryd( 2p)     0.00013
    99    H   10  py     Ryd( 2p)     0.00031
   100    H   10  pz     Ryd( 2p)     0.00009

   101    H   11  S      Val( 1S)     0.77489
   102    H   11  S      Ryd( 2S)     0.02632
   103    H   11  px     Ryd( 2p)     0.00011
   104    H   11  py     Ryd( 2p)     0.00010
   105    H   11  pz     Ryd( 2p)     0.00035

   106    H   12  S      Val( 1S)     0.76701
   107    H   12  S      Ryd( 2S)     0.00828
   108    H   12  px     Ryd( 2p)     0.00006
   109    H   12  py     Ryd( 2p)     0.00011
   110    H   12  pz     Ryd( 2p)     0.00038

   111    H   13  S      Val( 1S)     0.78643
   112    H   13  S      Ryd( 2S)     0.01331
   113    H   13  px     Ryd( 2p)     0.00012
   114    H   13  py     Ryd( 2p)     0.00037
   115    H   13  pz     Ryd( 2p)     0.00010

   116    H   14  S      Val( 1S)     0.61127
   117    H   14  S      Ryd( 2S)     0.00695
   118    H   14  px     Ryd( 2p)     0.00030
   119    H   14  py     Ryd( 2p)     0.00052
   120    H   14  pz     Ryd( 2p)     0.00058

   121    H   15  S      Val( 1S)     0.59992
   122    H   15  S      Ryd( 2S)     0.00373
   123    H   15  px     Ryd( 2p)     0.00040
   124    H   15  py     Ryd( 2p)     0.00064
   125    H   15  pz     Ryd( 2p)     0.00035


 Summary of Natural Population Analysis:                  
                                                          
                                       Natural Population 
                Natural  -----------------------------------------------
    Atom  No    Charge         Core      Valence    Rydberg      Total
 -----------------------------------------------------------------------
      N    1   -0.46649      1.99938     5.44318    0.02394     7.46649
      C    2   -0.34255      1.99932     4.32466    0.01857     6.34255
      C    3   -0.49391      1.99931     4.47980    0.01480     6.49391
      C    4   -0.26925      1.99932     4.25514    0.01479     6.26925
      N    5   -0.84855      1.99963     5.83520    0.01372     7.84855
      H    6    0.19134      0.00000     0.72316    0.08550     0.80866
      H    7    0.17993      0.00000     0.73750    0.08257     0.82007
      H    8    0.23260      0.00000     0.73210    0.03530     0.76740
      H    9    0.21078      0.00000     0.76327    0.02595     0.78922
      H   10    0.20843      0.00000     0.77626    0.01531     0.79157
      H   11    0.19823      0.00000     0.77489    0.02688     0.80177
      H   12    0.22417      0.00000     0.76701    0.00883     0.77583
      H   13    0.19967      0.00000     0.78643    0.01390     0.80033
      H   14    0.38039      0.00000     0.61127    0.00834     0.61961
      H   15    0.39496      0.00000     0.59992    0.00512     0.60504
 =======================================================================
   * Total *   -0.00028      9.99696    31.60978    0.39353    42.00028

                                 Natural Population      
 --------------------------------------------------------
   Core                       9.99696 ( 99.9696% of  10)
   Valence                   31.60978 ( 98.7806% of  32)
   Natural Minimal Basis     41.60674 ( 99.0637% of  42)
   Natural Rydberg Basis      0.39353 (  0.9370% of  42)
 --------------------------------------------------------

    Atom  No          Natural Electron Configuration
 ----------------------------------------------------------------------------
      N    1      [core]2S( 1.51)2p( 3.93)3S( 0.02)3p( 0.01)
      C    2      [core]2S( 1.06)2p( 3.27)3p( 0.01)
      C    3      [core]2S( 1.05)2p( 3.43)3p( 0.01)
      C    4      [core]2S( 1.04)2p( 3.22)3p( 0.01)
      N    5      [core]2S( 1.45)2p( 4.39)3p( 0.01)
      H    6            1S( 0.72)2S( 0.08)
      H    7            1S( 0.74)2S( 0.08)
      H    8            1S( 0.73)2S( 0.03)
      H    9            1S( 0.76)2S( 0.03)
      H   10            1S( 0.78)2S( 0.01)
      H   11            1S( 0.77)2S( 0.03)
      H   12            1S( 0.77)2S( 0.01)
      H   13            1S( 0.79)2S( 0.01)
      H   14            1S( 0.61)2S( 0.01)
      H   15            1S( 0.60)


 NBO analysis skipped by request.
 1\1\GINC-CN36\SP\RB3LYP TD-FC\6-31G(d,p)\C3H10N2\QDUEZ\09-Jul-2024\0\\
 # TD(NStates=10, Root=1) B3LYP/6-31G** SCRF=(Solvent=water) volume pop
 =NPA density=current Geom=AllCheck Guess=Read\\XFNJVJPLKCPIBV-UHFFFAOY
 SA-N_conf_1\\0,1\N,0,-1.9460637349,-0.7203937935,-0.3263909803\C,0,-1.
 3392698958,0.6089424287,-0.1424770783\C,0,0.1392955044,0.6153872056,-0
 .542558747\C,0,1.0263003861,-0.2915409012,0.3123798249\N,0,2.435102333
 3,-0.18385728,-0.1081375597\H,0,-1.974853825,-0.9301232038,-1.32355489
 74\H,0,-2.9209374455,-0.6827738748,-0.0344416994\H,0,-1.8570738978,1.4
 045826957,-0.7039624634\H,0,-1.4281689006,0.8718058522,0.9196230493\H,
 0,0.5192036773,1.6426304994,-0.4826373294\H,0,0.2255338754,0.317118988
 1,-1.5985374516\H,0,0.9644279794,0.0323644092,1.3597497724\H,0,0.63180
 65656,-1.3178340265,0.2772194954\H,0,2.5237026243,-0.5734298599,-1.046
 2877849\H,0,3.0009947537,-0.7928791393,0.4806989564\\Version=EM64L-G16
 RevA.03\State=1-A\HF=-229.8515478\RMSD=1.608e-09\Dipole=0.5341322,-0.4
 226651,0.2108467\Quadrupole=-0.8001864,0.4936451,0.3065413,-4.6370975,
 -0.3965507,-0.2257899\PG=C01 [X(C3H10N2)]\\@


 THE ONLY EXISTING THINGS ARE ATOMS AND EMPTY SPACE;
 ALL ELSE IS MERE OPINION. -- DEMOCRITUS OF ABDERA D. 370 B.C.
 EXPERIMENTS ARE THE ONLY MEANS OF KNOWLEDGE AT OUR DISPOSAL
 THE REST IS POETRY, IMAGINATION. -- MAX PLANCK
 Job cpu time:       0 days  0 hours 17 minutes 31.7 seconds.
 Elapsed time:       0 days  0 hours 10 minutes 17.4 seconds.
 File lengths (MBytes):  RWF=    193 Int=      0 D2E=      0 Chk=     12 Scr=      1
 Normal termination of Gaussian 16 at Tue Jul  9 19:07:23 2024.
