 Entering Gaussian System, Link 0=g16
 Initial command:
 /opt/sw/arch/manual/gaussian/G16_A03/g16/l1.exe "/scratch/1030840.jesse.materianova.be/Gau-53351.inp" -scrdir="/scratch/1030840.jesse.materianova.be/"
 Entering Link 1 = /opt/sw/arch/manual/gaussian/G16_A03/g16/l1.exe PID=     53356.
  
 Copyright (c) 1988,1990,1992,1993,1995,1998,2003,2009,2016,
            Gaussian, Inc.  All Rights Reserved.
  
 This is part of the Gaussian(R) 16 program.  It is based on
 the Gaussian(R) 09 system (copyright 2009, Gaussian, Inc.),
 the Gaussian(R) 03 system (copyright 2003, Gaussian, Inc.),
 the Gaussian(R) 98 system (copyright 1998, Gaussian, Inc.),
 the Gaussian(R) 94 system (copyright 1995, Gaussian, Inc.),
 the Gaussian 92(TM) system (copyright 1992, Gaussian, Inc.),
 the Gaussian 90(TM) system (copyright 1990, Gaussian, Inc.),
 the Gaussian 88(TM) system (copyright 1988, Gaussian, Inc.),
 the Gaussian 86(TM) system (copyright 1986, Carnegie Mellon
 University), and the Gaussian 82(TM) system (copyright 1983,
 Carnegie Mellon University). Gaussian is a federally registered
 trademark of Gaussian, Inc.
  
 This software contains proprietary and confidential information,
 including trade secrets, belonging to Gaussian, Inc.
  
 This software is provided under written license and may be
 used, copied, transmitted, or stored only in accord with that
 written license.
  
 The following legend is applicable only to US Government
 contracts under FAR:
  
                    RESTRICTED RIGHTS LEGEND
  
 Use, reproduction and disclosure by the US Government is
 subject to restrictions as set forth in subparagraphs (a)
 and (c) of the Commercial Computer Software - Restricted
 Rights clause in FAR 52.227-19.
  
 Gaussian, Inc.
 340 Quinnipiac St., Bldg. 40, Wallingford CT 06492
  
  
 ---------------------------------------------------------------
 Warning -- This program may not be used in any manner that
 competes with the business of Gaussian, Inc. or will provide
 assistance to any competitor of Gaussian, Inc.  The licensee
 of this program is prohibited from giving any competitor of
 Gaussian, Inc. access to this program.  By using this program,
 the user acknowledges that Gaussian, Inc. is engaged in the
 business of creating and licensing software in the field of
 computational chemistry and represents and warrants to the
 licensee that it is not a competitor of Gaussian, Inc. and that
 it will not use this program in any manner prohibited above.
 ---------------------------------------------------------------
  

 Cite this work as:
 Gaussian 16, Revision A.03,
 M. J. Frisch, G. W. Trucks, H. B. Schlegel, G. E. Scuseria, 
 M. A. Robb, J. R. Cheeseman, G. Scalmani, V. Barone, 
 G. A. Petersson, H. Nakatsuji, X. Li, M. Caricato, A. V. Marenich, 
 J. Bloino, B. G. Janesko, R. Gomperts, B. Mennucci, H. P. Hratchian, 
 J. V. Ortiz, A. F. Izmaylov, J. L. Sonnenberg, D. Williams-Young, 
 F. Ding, F. Lipparini, F. Egidi, J. Goings, B. Peng, A. Petrone, 
 T. Henderson, D. Ranasinghe, V. G. Zakrzewski, J. Gao, N. Rega, 
 G. Zheng, W. Liang, M. Hada, M. Ehara, K. Toyota, R. Fukuda, 
 J. Hasegawa, M. Ishida, T. Nakajima, Y. Honda, O. Kitao, H. Nakai, 
 T. Vreven, K. Throssell, J. A. Montgomery, Jr., J. E. Peralta, 
 F. Ogliaro, M. J. Bearpark, J. J. Heyd, E. N. Brothers, K. N. Kudin, 
 V. N. Staroverov, T. A. Keith, R. Kobayashi, J. Normand, 
 K. Raghavachari, A. P. Rendell, J. C. Burant, S. S. Iyengar, 
 J. Tomasi, M. Cossi, J. M. Millam, M. Klene, C. Adamo, R. Cammi, 
 J. W. Ochterski, R. L. Martin, K. Morokuma, O. Farkas, 
 J. B. Foresman, and D. J. Fox, Gaussian, Inc., Wallingford CT, 2016.
 
 ******************************************
 Gaussian 16:  EM64L-G16RevA.03 25-Dec-2016
                 9-Jul-2024 
 ******************************************
 %nprocshared=2
 Will use up to    2 processors via shared memory.
 %mem=4GB
 %Chk=XFNJVJPLKCPIBV-UHFFFAOYSA-N_conf_0_0.chk
 -------------------------------------------------------
 # opt=CalcFc B3LYP/6-31G** SCRF=(Solvent=water) scf=xqc
 -------------------------------------------------------
 1/10=4,18=20,19=15,26=3,38=1/1,3;
 2/9=110,12=2,17=6,18=5,40=1/2;
 3/5=1,6=6,7=101,11=2,25=1,30=1,70=2201,71=2,72=1,74=-5,140=1/1,2,3;
 4//1;
 5/5=2,8=3,13=1,38=5,53=1/2,8;
 8/6=4,10=90,11=11/1;
 11/6=1,8=1,9=11,15=111,16=1/1,2,10;
 10/6=1,13=1/2;
 6/7=2,8=2,9=2,10=2,28=1/1;
 7/10=1,18=20,25=1/1,2,3,16;
 1/10=4,18=20,19=15,26=3/3(2);
 2/9=110/2;
 99//99;
 2/9=110/2;
 3/5=1,6=6,7=101,11=2,25=1,30=1,70=2205,71=1,72=1,74=-5/1,2,3;
 4/5=5,16=3,69=1/1;
 5/5=2,8=3,13=1,38=5,53=1/2,8;
 7//1,2,3,16;
 1/18=20,19=15,26=3/3(-5);
 2/9=110/2;
 6/7=2,8=2,9=2,10=2,19=2,28=1/1;
 99/9=1/99;
 ----------------------------------
 XFNJVJPLKCPIBV-UHFFFAOYSA-N_conf_0
 ----------------------------------
 Symbolic Z-matrix:
 Charge =  0 Multiplicity = 1
 N                    -2.3544   -0.05795  -0.20185 
 C                    -1.22326  -0.32407   0.68004 
 C                     0.0839    0.10499   0.0148 
 C                     1.27701  -0.18075   0.92644 
 N                     2.53261   0.22341   0.30104 
 H                    -2.42155   0.94248  -0.38583 
 H                    -3.22005  -0.31874   0.26945 
 H                    -1.19508  -1.39489   0.90864 
 H                    -1.36439   0.2149    1.62336 
 H                     0.04622   1.17669  -0.22023 
 H                     0.20803  -0.42975  -0.93591 
 H                     1.16605   0.35681   1.87444 
 H                     1.32744  -1.24936   1.16202 
 H                     2.64763  -0.27561  -0.58124 
 H                     2.48984   1.21184   0.05457 
 

 GradGradGradGradGradGradGradGradGradGradGradGradGradGradGradGradGradGrad
 Berny optimization.
 Initialization pass.
                           ----------------------------
                           !    Initial Parameters    !
                           ! (Angstroms and Degrees)  !
 --------------------------                            --------------------------
 ! Name  Definition              Value          Derivative Info.                !
 --------------------------------------------------------------------------------
 ! R1    R(1,2)                  1.4588         calculate D2E/DX2 analytically  !
 ! R2    R(1,6)                  1.0194         calculate D2E/DX2 analytically  !
 ! R3    R(1,7)                  1.0196         calculate D2E/DX2 analytically  !
 ! R4    R(2,3)                  1.5282         calculate D2E/DX2 analytically  !
 ! R5    R(2,8)                  1.0953         calculate D2E/DX2 analytically  !
 ! R6    R(2,9)                  1.0956         calculate D2E/DX2 analytically  !
 ! R7    R(3,4)                  1.5285         calculate D2E/DX2 analytically  !
 ! R8    R(3,10)                 1.0978         calculate D2E/DX2 analytically  !
 ! R9    R(3,11)                 1.0978         calculate D2E/DX2 analytically  !
 ! R10   R(4,5)                  1.4598         calculate D2E/DX2 analytically  !
 ! R11   R(4,12)                 1.0954         calculate D2E/DX2 analytically  !
 ! R12   R(4,13)                 1.0954         calculate D2E/DX2 analytically  !
 ! R13   R(5,14)                 1.0201         calculate D2E/DX2 analytically  !
 ! R14   R(5,15)                 1.0196         calculate D2E/DX2 analytically  !
 ! A1    A(2,1,6)              109.8287         calculate D2E/DX2 analytically  !
 ! A2    A(2,1,7)              109.4042         calculate D2E/DX2 analytically  !
 ! A3    A(6,1,7)              106.1719         calculate D2E/DX2 analytically  !
 ! A4    A(1,2,3)              110.4184         calculate D2E/DX2 analytically  !
 ! A5    A(1,2,8)              108.9335         calculate D2E/DX2 analytically  !
 ! A6    A(1,2,9)              109.323          calculate D2E/DX2 analytically  !
 ! A7    A(3,2,8)              110.0808         calculate D2E/DX2 analytically  !
 ! A8    A(3,2,9)              110.297          calculate D2E/DX2 analytically  !
 ! A9    A(8,2,9)              107.732          calculate D2E/DX2 analytically  !
 ! A10   A(2,3,4)              110.828          calculate D2E/DX2 analytically  !
 ! A11   A(2,3,10)             109.7508         calculate D2E/DX2 analytically  !
 ! A12   A(2,3,11)             109.69           calculate D2E/DX2 analytically  !
 ! A13   A(4,3,10)             109.6931         calculate D2E/DX2 analytically  !
 ! A14   A(4,3,11)             109.7062         calculate D2E/DX2 analytically  !
 ! A15   A(10,3,11)            107.0969         calculate D2E/DX2 analytically  !
 ! A16   A(3,4,5)              111.353          calculate D2E/DX2 analytically  !
 ! A17   A(3,4,12)             110.2036         calculate D2E/DX2 analytically  !
 ! A18   A(3,4,13)             110.2778         calculate D2E/DX2 analytically  !
 ! A19   A(5,4,12)             108.7846         calculate D2E/DX2 analytically  !
 ! A20   A(5,4,13)             108.8211         calculate D2E/DX2 analytically  !
 ! A21   A(12,4,13)            107.2938         calculate D2E/DX2 analytically  !
 ! A22   A(4,5,14)             109.3946         calculate D2E/DX2 analytically  !
 ! A23   A(4,5,15)             109.6256         calculate D2E/DX2 analytically  !
 ! A24   A(14,5,15)            105.6575         calculate D2E/DX2 analytically  !
 ! D1    D(6,1,2,3)            -61.8373         calculate D2E/DX2 analytically  !
 ! D2    D(6,1,2,8)            177.1641         calculate D2E/DX2 analytically  !
 ! D3    D(6,1,2,9)             59.6809         calculate D2E/DX2 analytically  !
 ! D4    D(7,1,2,3)           -177.9999         calculate D2E/DX2 analytically  !
 ! D5    D(7,1,2,8)             61.0016         calculate D2E/DX2 analytically  !
 ! D6    D(7,1,2,9)            -56.4816         calculate D2E/DX2 analytically  !
 ! D7    D(1,2,3,4)           -179.5187         calculate D2E/DX2 analytically  !
 ! D8    D(1,2,3,10)            59.171          calculate D2E/DX2 analytically  !
 ! D9    D(1,2,3,11)           -58.2324         calculate D2E/DX2 analytically  !
 ! D10   D(8,2,3,4)            -59.2059         calculate D2E/DX2 analytically  !
 ! D11   D(8,2,3,10)           179.4839         calculate D2E/DX2 analytically  !
 ! D12   D(8,2,3,11)            62.0805         calculate D2E/DX2 analytically  !
 ! D13   D(9,2,3,4)             59.5417         calculate D2E/DX2 analytically  !
 ! D14   D(9,2,3,10)           -61.7685         calculate D2E/DX2 analytically  !
 ! D15   D(9,2,3,11)          -179.1719         calculate D2E/DX2 analytically  !
 ! D16   D(2,3,4,5)            179.9263         calculate D2E/DX2 analytically  !
 ! D17   D(2,3,4,12)           -59.2577         calculate D2E/DX2 analytically  !
 ! D18   D(2,3,4,13)            59.0141         calculate D2E/DX2 analytically  !
 ! D19   D(10,3,4,5)           -58.7295         calculate D2E/DX2 analytically  !
 ! D20   D(10,3,4,12)           62.0865         calculate D2E/DX2 analytically  !
 ! D21   D(10,3,4,13)         -179.6417         calculate D2E/DX2 analytically  !
 ! D22   D(11,3,4,5)            58.6495         calculate D2E/DX2 analytically  !
 ! D23   D(11,3,4,12)          179.4654         calculate D2E/DX2 analytically  !
 ! D24   D(11,3,4,13)          -62.2627         calculate D2E/DX2 analytically  !
 ! D25   D(3,4,5,14)           -58.6315         calculate D2E/DX2 analytically  !
 ! D26   D(3,4,5,15)            56.792          calculate D2E/DX2 analytically  !
 ! D27   D(12,4,5,14)          179.724          calculate D2E/DX2 analytically  !
 ! D28   D(12,4,5,15)          -64.8525         calculate D2E/DX2 analytically  !
 ! D29   D(13,4,5,14)           63.1302         calculate D2E/DX2 analytically  !
 ! D30   D(13,4,5,15)          178.5537         calculate D2E/DX2 analytically  !
 --------------------------------------------------------------------------------
 Trust Radius=3.00D-01 FncErr=1.00D-07 GrdErr=1.00D-06 EigMax=2.50D+02 EigMin=1.00D-04
 Number of steps in this run=     78 maximum allowed number of steps=    100.
 GradGradGradGradGradGradGradGradGradGradGradGradGradGradGradGradGradGrad

                          Input orientation:                          
 ---------------------------------------------------------------------
 Center     Atomic      Atomic             Coordinates (Angstroms)
 Number     Number       Type             X           Y           Z
 ---------------------------------------------------------------------
      1          7           0       -2.354396   -0.057949   -0.201854
      2          6           0       -1.223259   -0.324072    0.680037
      3          6           0        0.083902    0.104993    0.014801
      4          6           0        1.277006   -0.180751    0.926444
      5          7           0        2.532614    0.223407    0.301038
      6          1           0       -2.421548    0.942482   -0.385827
      7          1           0       -3.220050   -0.318741    0.269453
      8          1           0       -1.195084   -1.394893    0.908642
      9          1           0       -1.364394    0.214902    1.623355
     10          1           0        0.046224    1.176690   -0.220230
     11          1           0        0.208027   -0.429755   -0.935914
     12          1           0        1.166052    0.356813    1.874437
     13          1           0        1.327436   -1.249361    1.162020
     14          1           0        2.647632   -0.275609   -0.581238
     15          1           0        2.489840    1.211843    0.054573
 ---------------------------------------------------------------------
                    Distance matrix (angstroms):
                    1          2          3          4          5
     1  N    0.000000
     2  C    1.458775   0.000000
     3  C    2.453322   1.528172   0.000000
     4  C    3.804631   2.516463   1.528476   0.000000
     5  N    4.920867   3.814441   2.468227   1.459804   0.000000
     6  H    1.019420   2.043556   2.671923   4.082035   5.052977
     7  H    1.019558   2.038574   3.340734   4.546888   5.778241
     8  H    2.089168   1.095313   2.164351   2.754213   4.108991
     9  H    2.094264   1.095565   2.167277   2.760294   4.115249
    10  H    2.699564   2.162026   1.097813   2.161558   2.713413
    11  H    2.691300   2.161260   1.097825   2.161734   2.713001
    12  H    4.108110   2.756630   2.166266   1.095435   2.088270
    13  H    4.103110   2.755815   2.167202   1.095430   2.088729
    14  H    5.021115   4.071482   2.659479   2.039784   1.020126
    15  H    5.014454   4.066614   2.648629   2.042167   1.019598
                    6          7          8          9         10
     6  H    0.000000
     7  H    1.630240   0.000000
     8  H    2.939929   2.380578   0.000000
     9  H    2.384064   2.358238   1.769441   0.000000
    10  H    2.484385   3.625555   3.070544   2.512705   0.000000
    11  H    3.016669   3.635512   2.510497   3.072124   1.766083
    12  H    4.280500   4.719136   3.094544   2.546830   2.512737
    13  H    4.610303   4.726771   2.539388   3.098847   3.072108
    14  H    5.217136   5.929184   4.270715   4.604040   3.001137
    15  H    4.938445   5.915379   4.593819   4.279030   2.459271
                   11         12         13         14         15
    11  H    0.000000
    12  H    3.071575   0.000000
    13  H    2.515186   1.764477   0.000000
    14  H    2.470066   2.936899   2.393754   0.000000
    15  H    2.980365   2.407363   2.938562   1.625320   0.000000
 Stoichiometry    C3H10N2
 Framework group  C1[X(C3H10N2)]
 Deg. of freedom    39
 Full point group                 C1      NOp   1
 Largest Abelian subgroup         C1      NOp   1
 Largest concise Abelian subgroup C1      NOp   1
                         Standard orientation:                         
 ---------------------------------------------------------------------
 Center     Atomic      Atomic             Coordinates (Angstroms)
 Number     Number       Type             X           Y           Z
 ---------------------------------------------------------------------
      1          7           0        2.426834   -0.367856   -0.098048
      2          6           0        1.251842    0.490388    0.006042
      3          6           0       -0.025871   -0.346208   -0.047471
      4          6           0       -1.263655    0.545327    0.048942
      5          7           0       -2.491515   -0.242522   -0.002836
      6          1           0        2.453924   -1.014090    0.689901
      7          1           0        3.269581    0.201602   -0.027371
      8          1           0        1.264138    1.211299   -0.818486
      9          1           0        1.297337    1.055120    0.943736
     10          1           0       -0.028293   -1.072809    0.775474
     11          1           0       -0.054122   -0.918840   -0.983694
     12          1           0       -1.248480    1.113738    0.985241
     13          1           0       -1.274137    1.270438   -0.772076
     14          1           0       -2.517416   -0.772579   -0.874056
     15          1           0       -2.483659   -0.938280    0.742442
 ---------------------------------------------------------------------
 Rotational constants (GHZ):          18.4796032           2.0210122           1.9140942
 Standard basis: 6-31G(d,p) (6D, 7F)
 There are   125 symmetry adapted cartesian basis functions of A   symmetry.
 There are   125 symmetry adapted basis functions of A   symmetry.
   125 basis functions,   210 primitive gaussians,   125 cartesian basis functions
    21 alpha electrons       21 beta electrons
       nuclear repulsion energy       187.3106075500 Hartrees.
 NAtoms=   15 NActive=   15 NUniq=   15 SFac= 1.00D+00 NAtFMM=   60 NAOKFM=F Big=F
 Integral buffers will be    131072 words long.
 Raffenetti 2 integral format.
 Two-electron integral symmetry is turned on.
 Force inversion solution in PCM.
 ------------------------------------------------------------------------------
 Polarizable Continuum Model (PCM)
 =================================
 Model                : PCM.
 Atomic radii         : UFF (Universal Force Field).
 Polarization charges : Total charges.
 Charge compensation  : None.
 Solution method      : Matrix inversion.
 Cavity type          : Scaled VdW (van der Waals Surface) (Alpha=1.100).
 Cavity algorithm     : GePol (No added spheres)
                        Default sphere list used, NSphG=   15.
                        Lebedev-Laikov grids with approx.  5.0 points / Ang**2.
                        Smoothing algorithm: York/Karplus (Gamma=1.0000).
                        Polarization charges: spherical gaussians, with
                                              point-specific exponents (IZeta= 3).
                        Self-potential: point-specific (ISelfS= 7).
                        Self-field    : sphere-specific E.n sum rule (ISelfD= 2).
 1st derivatives      : Analytical E(r).r(x)/FMM algorithm (CHGder, D1EAlg=3).
                        Cavity 1st derivative terms included.
 2nd derivatives      : Analytical E(r).r(xy)/FMM algorithm (CHGder, D2EAlg=3).
                        Cavity 2nd derivative terms included.
 Solvent              : Water, Eps=  78.355300 Eps(inf)=   1.777849
 ------------------------------------------------------------------------------
 Spheres list:
 ISph  on   Nord     Re0    Alpha      Xe            Ye            Ze
    1   N      1    1.8300  1.100      2.426834     -0.367856     -0.098048
    2   C      2    1.9255  1.100      1.251842      0.490388      0.006042
    3   C      3    1.9255  1.100     -0.025871     -0.346208     -0.047471
    4   C      4    1.9255  1.100     -1.263655      0.545327      0.048942
    5   N      5    1.8300  1.100     -2.491515     -0.242522     -0.002836
    6   H      6    1.4430  1.100      2.453924     -1.014090      0.689901
    7   H      7    1.4430  1.100      3.269581      0.201602     -0.027371
    8   H      8    1.4430  1.100      1.264138      1.211299     -0.818486
    9   H      9    1.4430  1.100      1.297337      1.055120      0.943736
   10   H     10    1.4430  1.100     -0.028293     -1.072809      0.775474
   11   H     11    1.4430  1.100     -0.054122     -0.918840     -0.983694
   12   H     12    1.4430  1.100     -1.248480      1.113738      0.985241
   13   H     13    1.4430  1.100     -1.274137      1.270438     -0.772076
   14   H     14    1.4430  1.100     -2.517416     -0.772579     -0.874056
   15   H     15    1.4430  1.100     -2.483659     -0.938280      0.742442
 ------------------------------------------------------------------------------
 One-electron integrals computed using PRISM.
 NBasis=   125 RedAO= T EigKep=  3.25D-03  NBF=   125
 NBsUse=   125 1.00D-06 EigRej= -1.00D+00 NBFU=   125
 ExpMin= 1.61D-01 ExpMax= 4.17D+03 ExpMxC= 6.27D+02 IAcc=3 IRadAn=         5 AccDes= 0.00D+00
 Harris functional with IExCor=  402 and IRadAn=       5 diagonalized for initial guess.
 HarFok:  IExCor=  402 AccDes= 0.00D+00 IRadAn=         5 IDoV= 1 UseB2=F ITyADJ=14
 ICtDFT=  3500011 ScaDFX=  1.000000  1.000000  1.000000  1.000000
 FoFCou: FMM=F IPFlag=           0 FMFlag=      100000 FMFlg1=           0
         NFxFlg=           0 DoJE=T BraDBF=F KetDBF=T FulRan=T
         wScrn=  0.000000 ICntrl=       500 IOpCl=  0 I1Cent=   200000004 NGrid=           0
         NMat0=    1 NMatS0=      1 NMatT0=    0 NMatD0=    1 NMtDS0=    0 NMtDT0=    0
 Petite list used in FoFCou.
 Keep R1 ints in memory in canonical form, NReq=32913836.
 Requested convergence on RMS density matrix=1.00D-08 within  32 cycles.
 Requested convergence on MAX density matrix=1.00D-06.
 Requested convergence on             energy=1.00D-06.
 No special actions if energy rises.
 Inv3:  Mode=1 IEnd=     4009008.
 Iteration    1 A*A^-1 deviation from unit magnitude is 5.11D-15 for   1100.
 Iteration    1 A*A^-1 deviation from orthogonality  is 3.17D-15 for    801     82.
 Iteration    1 A^-1*A deviation from unit magnitude is 5.11D-15 for    570.
 Iteration    1 A^-1*A deviation from orthogonality  is 1.92D-15 for   1041     60.
 Error on total polarization charges =  0.00699
 SCF Done:  E(RB3LYP) =  -229.850435445     A.U. after   10 cycles
            NFock= 10  Conv=0.10D-07     -V/T= 2.0094
 QCSCF skips out because SCF is already converged.
 DoSCS=F DFT=T ScalE2(SS,OS)=  1.000000  1.000000
 Range of M.O.s used for correlation:     1   125
 NBasis=   125 NAE=    21 NBE=    21 NFC=     0 NFV=     0
 NROrb=    125 NOA=    21 NOB=    21 NVA=   104 NVB=   104
 Symmetrizing basis deriv contribution to polar:
 IMax=3 JMax=2 DiffMx= 0.00D+00
 G2DrvN: will do    16 centers at a time, making    1 passes.
 Calling FoFCou, ICntrl=  3107 FMM=F I1Cent=   0 AccDes= 0.00D+00.
 NEqPCM:  Using equilibrium solvation (IEInf=0, Eps=  78.3553, EpsInf=   1.7778)
 G2PCM: DoFxE=T DoFxN=T DoGrad=T DoDP/DQ/DG/TGxP=FFFF NFrqRd=   0 IEInf=0 SqF1=F DoCFld=F IF1Alg=4.
 End of G2Drv F.D. properties file   721 does not exist.
 End of G2Drv F.D. properties file   722 does not exist.
 End of G2Drv F.D. properties file   788 does not exist.
          IDoAtm=111111111111111
 NEqPCM:  Using equilibrium solvation (IEInf=0, Eps=  78.3553, EpsInf=   1.7778)
          Differentiating once with respect to nuclear coordinates.
 Keep R1 ints in memory in canonical form, NReq=35484620.
          There are    48 degrees of freedom in the 1st order CPHF.  IDoFFX=6 NUNeed=     0.
     42 vectors produced by pass  0 Test12= 4.55D-15 2.08D-09 XBig12= 6.87D-02 6.94D-02.
 AX will form    42 AO Fock derivatives at one time.
     42 vectors produced by pass  1 Test12= 4.55D-15 2.08D-09 XBig12= 3.99D-03 1.29D-02.
     42 vectors produced by pass  2 Test12= 4.55D-15 2.08D-09 XBig12= 5.64D-05 1.21D-03.
     42 vectors produced by pass  3 Test12= 4.55D-15 2.08D-09 XBig12= 2.37D-07 5.27D-05.
     42 vectors produced by pass  4 Test12= 4.55D-15 2.08D-09 XBig12= 2.05D-10 1.81D-06.
     15 vectors produced by pass  5 Test12= 4.55D-15 2.08D-09 XBig12= 1.14D-13 4.49D-08.
 InvSVY:  IOpt=1 It=  1 EMax= 2.00D-15
 Solved reduced A of dimension   225 with    42 vectors.
 End of Minotr F.D. properties file   721 does not exist.
 End of Minotr F.D. properties file   722 does not exist.
 End of Minotr F.D. properties file   788 does not exist.

 **********************************************************************

            Population analysis using the SCF density.

 **********************************************************************

 Orbital symmetries:
       Occupied  (A) (A) (A) (A) (A) (A) (A) (A) (A) (A) (A) (A)
                 (A) (A) (A) (A) (A) (A) (A) (A) (A)
       Virtual   (A) (A) (A) (A) (A) (A) (A) (A) (A) (A) (A) (A)
                 (A) (A) (A) (A) (A) (A) (A) (A) (A) (A) (A) (A)
                 (A) (A) (A) (A) (A) (A) (A) (A) (A) (A) (A) (A)
                 (A) (A) (A) (A) (A) (A) (A) (A) (A) (A) (A) (A)
                 (A) (A) (A) (A) (A) (A) (A) (A) (A) (A) (A) (A)
                 (A) (A) (A) (A) (A) (A) (A) (A) (A) (A) (A) (A)
                 (A) (A) (A) (A) (A) (A) (A) (A) (A) (A) (A) (A)
                 (A) (A) (A) (A) (A) (A) (A) (A) (A) (A) (A) (A)
                 (A) (A) (A) (A) (A) (A) (A) (A)
 The electronic state is 1-A.
 Alpha  occ. eigenvalues --  -14.30599 -14.30447 -10.20044 -10.19837 -10.17191
 Alpha  occ. eigenvalues --   -0.88025  -0.86906  -0.74006  -0.63316  -0.58561
 Alpha  occ. eigenvalues --   -0.49681  -0.47448  -0.45209  -0.43169  -0.40091
 Alpha  occ. eigenvalues --   -0.37308  -0.36845  -0.34332  -0.33002  -0.23411
 Alpha  occ. eigenvalues --   -0.22491
 Alpha virt. eigenvalues --    0.08744   0.09152   0.12080   0.12863   0.14624
 Alpha virt. eigenvalues --    0.17211   0.19219   0.19436   0.20039   0.21130
 Alpha virt. eigenvalues --    0.23085   0.24680   0.27578   0.31047   0.51164
 Alpha virt. eigenvalues --    0.55579   0.56553   0.56770   0.60872   0.62594
 Alpha virt. eigenvalues --    0.67277   0.69482   0.70631   0.73318   0.73517
 Alpha virt. eigenvalues --    0.78700   0.79427   0.82576   0.85613   0.85760
 Alpha virt. eigenvalues --    0.88289   0.89758   0.91038   0.92048   0.93253
 Alpha virt. eigenvalues --    0.94348   0.95779   0.97168   1.06600   1.10480
 Alpha virt. eigenvalues --    1.27499   1.30357   1.33314   1.40756   1.43446
 Alpha virt. eigenvalues --    1.43985   1.59922   1.61550   1.69075   1.72191
 Alpha virt. eigenvalues --    1.73496   1.79093   1.83677   1.87801   1.90671
 Alpha virt. eigenvalues --    1.95023   1.97846   2.06069   2.06642   2.09182
 Alpha virt. eigenvalues --    2.10647   2.12682   2.22542   2.23009   2.24581
 Alpha virt. eigenvalues --    2.25218   2.27255   2.29784   2.32369   2.35156
 Alpha virt. eigenvalues --    2.37196   2.41099   2.43077   2.49299   2.54279
 Alpha virt. eigenvalues --    2.60629   2.63555   2.67867   2.71278   2.72063
 Alpha virt. eigenvalues --    2.75596   2.82831   2.83653   2.87473   2.91764
 Alpha virt. eigenvalues --    2.93230   2.95429   2.98001   2.99733   3.23825
 Alpha virt. eigenvalues --    3.27424   3.29427   3.30909   3.32858   3.37870
 Alpha virt. eigenvalues --    3.44276   3.52843   3.57645   3.59512   3.96813
 Alpha virt. eigenvalues --    4.04132   4.34649   4.50800   4.69789
          Condensed to atoms (all electrons):
               1          2          3          4          5          6
     1  N    6.828586   0.283494  -0.048024   0.002975  -0.000084   0.341514
     2  C    0.283494   4.821544   0.335891  -0.033979   0.005609  -0.038354
     3  C   -0.048024   0.335891   5.021593   0.368132  -0.069308  -0.005970
     4  C    0.002975  -0.033979   0.368132   4.796573   0.318042  -0.000127
     5  N   -0.000084   0.005609  -0.069308   0.318042   6.765981  -0.000003
     6  H    0.341514  -0.038354  -0.005970  -0.000127  -0.000003   0.481616
     7  H    0.335427  -0.031682   0.005373  -0.000211   0.000002  -0.032427
     8  H   -0.041882   0.387839  -0.032449  -0.005132   0.000007   0.006607
     9  H   -0.053718   0.388830  -0.049471  -0.000247   0.000003  -0.005417
    10  H   -0.003629  -0.034479   0.380997  -0.037276  -0.001134   0.005472
    11  H    0.004870  -0.033267   0.370686  -0.034549  -0.001018  -0.000732
    12  H   -0.000078  -0.001887  -0.045972   0.386921  -0.036817  -0.000002
    13  H   -0.000054  -0.002426  -0.045254   0.388153  -0.036394   0.000012
    14  H   -0.000002   0.000044  -0.002587  -0.046120   0.347688   0.000001
    15  H   -0.000000   0.000061  -0.003159  -0.045937   0.348128  -0.000001
               7          8          9         10         11         12
     1  N    0.335427  -0.041882  -0.053718  -0.003629   0.004870  -0.000078
     2  C   -0.031682   0.387839   0.388830  -0.034479  -0.033267  -0.001887
     3  C    0.005373  -0.032449  -0.049471   0.380997   0.370686  -0.045972
     4  C   -0.000211  -0.005132  -0.000247  -0.037276  -0.034549   0.386921
     5  N    0.000002   0.000007   0.000003  -0.001134  -0.001018  -0.036817
     6  H   -0.032427   0.006607  -0.005417   0.005472  -0.000732  -0.000002
     7  H    0.483329  -0.003430  -0.003825   0.000027  -0.000055   0.000006
     8  H   -0.003430   0.634073  -0.049748   0.005830  -0.007427  -0.000584
     9  H   -0.003825  -0.049748   0.686035  -0.007503   0.006843   0.005241
    10  H    0.000027   0.005830  -0.007503   0.633643  -0.041372  -0.005985
    11  H   -0.000055  -0.007427   0.006843  -0.041372   0.635464   0.005861
    12  H    0.000006  -0.000584   0.005241  -0.005985   0.005861   0.626031
    13  H    0.000008   0.004969  -0.000610   0.005774  -0.006045  -0.038121
    14  H    0.000000   0.000010   0.000011  -0.000431   0.005599   0.006573
    15  H    0.000000   0.000014   0.000012   0.005781  -0.000409  -0.005314
              13         14         15
     1  N   -0.000054  -0.000002  -0.000000
     2  C   -0.002426   0.000044   0.000061
     3  C   -0.045254  -0.002587  -0.003159
     4  C    0.388153  -0.046120  -0.045937
     5  N   -0.036394   0.347688   0.348128
     6  H    0.000012   0.000001  -0.000001
     7  H    0.000008   0.000000   0.000000
     8  H    0.004969   0.000010   0.000014
     9  H   -0.000610   0.000011   0.000012
    10  H    0.005774  -0.000431   0.005781
    11  H   -0.006045   0.005599  -0.000409
    12  H   -0.038121   0.006573  -0.005314
    13  H    0.624314  -0.005763   0.006517
    14  H   -0.005763   0.481525  -0.034532
    15  H    0.006517  -0.034532   0.480816
 Mulliken charges:
               1
     1  N   -0.649395
     2  C   -0.047237
     3  C   -0.180477
     4  C   -0.057219
     5  N   -0.640700
     6  H    0.247811
     7  H    0.247457
     8  H    0.101302
     9  H    0.083565
    10  H    0.094286
    11  H    0.095550
    12  H    0.104128
    13  H    0.104921
    14  H    0.247986
    15  H    0.248022
 Sum of Mulliken charges =  -0.00000
 Mulliken charges with hydrogens summed into heavy atoms:
               1
     1  N   -0.154127
     2  C    0.137630
     3  C    0.009358
     4  C    0.151830
     5  N   -0.144692
 APT charges:
               1
     1  N   -1.323062
     2  C   -0.534810
     3  C   -0.563778
     4  C   -0.636131
     5  N   -0.961024
     6  H    0.459693
     7  H    0.706264
     8  H    0.344631
     9  H    0.329980
    10  H    0.300301
    11  H    0.299514
    12  H    0.339531
    13  H    0.345091
    14  H    0.450389
    15  H    0.443412
 Sum of APT charges =  -0.00000
 APT charges with hydrogens summed into heavy atoms:
               1
     1  N   -0.157105
     2  C    0.139801
     3  C    0.036038
     4  C    0.048491
     5  N   -0.067224
 Electronic spatial extent (au):  <R**2>=            650.8842
 Charge=             -0.0000 electrons
 Dipole moment (field-independent basis, Debye):
    X=              1.3909    Y=             -0.3437    Z=              1.3052  Tot=              1.9381
 Quadrupole moment (field-independent basis, Debye-Ang):
   XX=            -37.9642   YY=            -31.6271   ZZ=            -31.5069
   XY=              5.4298   XZ=              4.2519   YZ=             -1.9256
 Traceless Quadrupole moment (field-independent basis, Debye-Ang):
   XX=             -4.2648   YY=              2.0723   ZZ=              2.1925
   XY=              5.4298   XZ=              4.2519   YZ=             -1.9256
 Octapole moment (field-independent basis, Debye-Ang**2):
  XXX=             40.4709  YYY=             -3.0709  ZZZ=              1.1151  XYY=             -2.8035
  XXY=             -4.4888  XXZ=              8.1314  XZZ=             -4.6205  YZZ=             -1.5294
  YYZ=              1.5917  XYZ=             -4.1191
 Hexadecapole moment (field-independent basis, Debye-Ang**3):
 XXXX=           -710.6336 YYYY=           -102.4959 ZZZZ=            -58.4525 XXXY=             45.9679
 XXXZ=             30.2072 YYYX=              4.8636 YYYZ=             -3.7450 ZZZX=              5.1057
 ZZZY=             -1.5511 XXYY=           -119.1340 XXZZ=           -115.3790 YYZZ=            -23.9611
 XXYZ=            -10.8479 YYXZ=              3.7463 ZZXY=              4.0695
 N-N= 1.873106075500D+02 E-N=-9.082435929001D+02  KE= 2.277017756920D+02
  Exact polarizability:   0.000   0.000   0.000   0.000   0.000   0.000
 Approx polarizability:  61.770   2.352  61.639   0.574  -2.352  61.136
 D2PCM: PCM CHGder 2nd derivatives, FixD1E=F FixD2E=F DoIter=F DoCFld=F I1PDM=0
 Calling FoFJK, ICntrl=    100147 FMM=F ISym2X=0 I1Cent= 0 IOpClX= 0 NMat=1 NMatS=1 NMatT=0.
 ***** Axes restored to original set *****
 -------------------------------------------------------------------
 Center     Atomic                   Forces (Hartrees/Bohr)
 Number     Number              X              Y              Z
 -------------------------------------------------------------------
      1        7          -0.009596242   -0.005643716   -0.010370470
      2        6          -0.004598874    0.008510785   -0.004464474
      3        6          -0.007711828   -0.007633125    0.010874683
      4        6           0.000807159    0.006685342   -0.011624335
      5        7           0.015322472   -0.000858717    0.003227081
      6        1           0.000009947   -0.001024854    0.002268752
      7        1           0.000617111    0.001928116   -0.001161139
      8        1          -0.000137597   -0.000883233    0.000009876
      9        1           0.007100039   -0.000732217    0.007681231
     10        1           0.000384728    0.000635933    0.000385402
     11        1          -0.000585065   -0.000088990    0.000410697
     12        1           0.000168681   -0.000042258    0.001032952
     13        1           0.000171868   -0.000665338    0.000458979
     14        1          -0.001019446    0.001336109    0.001241505
     15        1          -0.000932954   -0.001523837    0.000029261
 -------------------------------------------------------------------
 Cartesian Forces:  Max     0.015322472 RMS     0.005033989
 FormGI is forming the generalized inverse of G from B-inverse, IUseBI=4.

 GradGradGradGradGradGradGradGradGradGradGradGradGradGradGradGradGradGrad
 Berny optimization.
 Internal  Forces:  Max     0.018718073 RMS     0.004133335
 Search for a local minimum.
 Step number   1 out of a maximum of   78
 All quantities printed in internal units (Hartrees-Bohrs-Radians)
 Mixed Optimization -- RFO/linear search
 Second derivative matrix not updated -- analytic derivatives used.
 ITU=  0
     Eigenvalues ---    0.00210   0.00271   0.00276   0.00345   0.03237
     Eigenvalues ---    0.03319   0.03559   0.04009   0.04615   0.04665
     Eigenvalues ---    0.05035   0.05345   0.06539   0.08135   0.08307
     Eigenvalues ---    0.10026   0.12382   0.13632   0.14661   0.15049
     Eigenvalues ---    0.16271   0.17602   0.18706   0.23038   0.24990
     Eigenvalues ---    0.27838   0.30803   0.32161   0.32680   0.33128
     Eigenvalues ---    0.33210   0.33408   0.33768   0.37474   0.39005
     Eigenvalues ---    0.43838   0.43871   0.44045   0.44139
 RFO step:  Lambda=-4.69824687D-03 EMin= 2.09755965D-03
 Linear search not attempted -- first point.
 Iteration  1 RMS(Cart)=  0.03423281 RMS(Int)=  0.00054085
 Iteration  2 RMS(Cart)=  0.00064216 RMS(Int)=  0.00022505
 Iteration  3 RMS(Cart)=  0.00000041 RMS(Int)=  0.00022505
 Variable       Old X    -DE/DX   Delta X   Delta X   Delta X     New X
                                 (Linear)    (Quad)   (Total)
    R1        2.75668   0.01169   0.00000   0.02307   0.02307   2.77976
    R2        1.92642  -0.00142   0.00000  -0.00020  -0.00020   1.92623
    R3        1.92669  -0.00155   0.00000  -0.00199  -0.00199   1.92470
    R4        2.88783   0.00242   0.00000   0.00254   0.00254   2.89036
    R5        2.06984   0.00086   0.00000   0.00411   0.00411   2.07395
    R6        2.07032   0.00534   0.00000   0.01549   0.01549   2.08581
    R7        2.88840   0.00705   0.00000   0.01193   0.01193   2.90033
    R8        2.07457   0.00052   0.00000   0.00402   0.00402   2.07858
    R9        2.07459  -0.00038   0.00000   0.00050   0.00050   2.07509
   R10        2.75863   0.00928   0.00000   0.01803   0.01803   2.77666
   R11        2.07007   0.00086   0.00000   0.00388   0.00388   2.07395
   R12        2.07006   0.00076   0.00000   0.00398   0.00398   2.07404
   R13        1.92776  -0.00184   0.00000  -0.00146  -0.00146   1.92630
   R14        1.92676  -0.00145   0.00000  -0.00036  -0.00036   1.92641
    A1        1.91687  -0.00260   0.00000  -0.02130  -0.02148   1.89539
    A2        1.90946   0.00185   0.00000  -0.00626  -0.00643   1.90303
    A3        1.85305  -0.00079   0.00000  -0.01889  -0.01928   1.83377
    A4        1.92716   0.00287   0.00000   0.00859   0.00834   1.93550
    A5        1.90125  -0.00284   0.00000  -0.01824  -0.01807   1.88318
    A6        1.90805   0.00621   0.00000   0.06550   0.06565   1.97370
    A7        1.92127  -0.00054   0.00000  -0.01200  -0.01226   1.90901
    A8        1.92505  -0.00525   0.00000  -0.02293  -0.02389   1.90116
    A9        1.88028  -0.00047   0.00000  -0.02104  -0.02133   1.85895
   A10        1.93431   0.01091   0.00000   0.04076   0.04073   1.97504
   A11        1.91551  -0.00294   0.00000  -0.00818  -0.00816   1.90736
   A12        1.91445  -0.00371   0.00000  -0.01141  -0.01160   1.90285
   A13        1.91451  -0.00379   0.00000  -0.01379  -0.01380   1.90070
   A14        1.91474  -0.00276   0.00000  -0.00306  -0.00312   1.91162
   A15        1.86919   0.00192   0.00000  -0.00609  -0.00626   1.86294
   A16        1.94348   0.01872   0.00000   0.06858   0.06846   2.01194
   A17        1.92342  -0.00464   0.00000  -0.01169  -0.01190   1.91152
   A18        1.92471  -0.00501   0.00000  -0.01491  -0.01503   1.90968
   A19        1.89865  -0.00595   0.00000  -0.01598  -0.01627   1.88238
   A20        1.89929  -0.00597   0.00000  -0.01661  -0.01676   1.88252
   A21        1.87263   0.00219   0.00000  -0.01253  -0.01298   1.85965
   A22        1.90930  -0.00079   0.00000  -0.01201  -0.01215   1.89715
   A23        1.91333  -0.00145   0.00000  -0.01539  -0.01553   1.89780
   A24        1.84407   0.00018   0.00000  -0.01189  -0.01221   1.83186
    D1       -1.07927  -0.00082   0.00000  -0.05003  -0.05030  -1.12957
    D2        3.09210  -0.00013   0.00000  -0.02887  -0.02887   3.06323
    D3        1.04163  -0.00146   0.00000  -0.03037  -0.02976   1.01187
    D4       -3.10668   0.00055   0.00000  -0.01152  -0.01201  -3.11870
    D5        1.06468   0.00125   0.00000   0.00964   0.00942   1.07409
    D6       -0.98579  -0.00009   0.00000   0.00814   0.00853  -0.97727
    D7       -3.13319   0.00247   0.00000   0.02456   0.02445  -3.10874
    D8        1.03273   0.00206   0.00000   0.02071   0.02058   1.05331
    D9       -1.01635   0.00365   0.00000   0.03966   0.03948  -0.97687
   D10       -1.03334   0.00042   0.00000  -0.00038  -0.00052  -1.03386
   D11        3.13258   0.00002   0.00000  -0.00424  -0.00439   3.12819
   D12        1.08351   0.00161   0.00000   0.01472   0.01450   1.09801
   D13        1.03920  -0.00374   0.00000  -0.04801  -0.04768   0.99152
   D14       -1.07806  -0.00415   0.00000  -0.05187  -0.05155  -1.12961
   D15       -3.12714  -0.00256   0.00000  -0.03292  -0.03265   3.12339
   D16        3.14031  -0.00016   0.00000   0.00339   0.00343  -3.13945
   D17       -1.03424   0.00159   0.00000   0.02072   0.02078  -1.01346
   D18        1.02999  -0.00167   0.00000  -0.01113  -0.01101   1.01898
   D19       -1.02502   0.00074   0.00000   0.01052   0.01045  -1.01458
   D20        1.08361   0.00249   0.00000   0.02785   0.02780   1.11141
   D21       -3.13534  -0.00077   0.00000  -0.00399  -0.00399  -3.13933
   D22        1.02363  -0.00078   0.00000  -0.00679  -0.00686   1.01677
   D23        3.13226   0.00097   0.00000   0.01054   0.01050  -3.14042
   D24       -1.08669  -0.00230   0.00000  -0.02131  -0.02129  -1.10798
   D25       -1.02331   0.00073   0.00000   0.02433   0.02424  -0.99907
   D26        0.99121  -0.00032   0.00000  -0.00529  -0.00520   0.98601
   D27        3.13678  -0.00148   0.00000   0.00572   0.00573  -3.14068
   D28       -1.13189  -0.00252   0.00000  -0.02391  -0.02371  -1.15560
   D29        1.10183   0.00249   0.00000   0.03862   0.03842   1.14025
   D30        3.11635   0.00144   0.00000   0.00899   0.00898   3.12533
         Item               Value     Threshold  Converged?
 Maximum Force            0.018718     0.000450     NO 
 RMS     Force            0.004133     0.000300     NO 
 Maximum Displacement     0.118039     0.001800     NO 
 RMS     Displacement     0.033883     0.001200     NO 
 Predicted change in Energy=-2.430584D-03
 GradGradGradGradGradGradGradGradGradGradGradGradGradGradGradGradGradGrad

                          Input orientation:                          
 ---------------------------------------------------------------------
 Center     Atomic      Atomic             Coordinates (Angstroms)
 Number     Number       Type             X           Y           Z
 ---------------------------------------------------------------------
      1          7           0       -2.386690   -0.070022   -0.221256
      2          6           0       -1.250434   -0.310504    0.681454
      3          6           0        0.066566    0.103366    0.022943
      4          6           0        1.293578   -0.168494    0.903916
      5          7           0        2.584822    0.214704    0.316700
      6          1           0       -2.468672    0.933439   -0.380478
      7          1           0       -3.248850   -0.334273    0.252246
      8          1           0       -1.222083   -1.383663    0.909499
      9          1           0       -1.347415    0.213154    1.648238
     10          1           0        0.031123    1.176135   -0.217425
     11          1           0        0.173535   -0.430969   -0.930391
     12          1           0        1.186017    0.364626    1.857170
     13          1           0        1.338450   -1.237814    1.147073
     14          1           0        2.697750   -0.273255   -0.571119
     15          1           0        2.552304    1.203568    0.071167
 ---------------------------------------------------------------------
                    Distance matrix (angstroms):
                    1          2          3          4          5
     1  N    0.000000
     2  C    1.470984   0.000000
     3  C    2.471470   1.529515   0.000000
     4  C    3.849686   2.557666   1.534790   0.000000
     5  N    5.008633   3.888198   2.537775   1.469345   0.000000
     6  H    1.019317   2.039411   2.698000   4.125343   5.151742
     7  H    1.018505   2.044126   3.352028   4.591929   5.859801
     8  H    2.088198   1.097487   2.158206   2.793782   4.171176
     9  H    2.157612   1.103763   2.157077   2.770291   4.151565
    10  H    2.720063   2.158811   1.099939   2.158524   2.780471
    11  H    2.681028   2.154123   1.098090   2.165196   2.790419
    12  H    4.156081   2.788261   2.164675   1.097488   2.086189
    13  H    4.136754   2.789091   2.163359   1.097535   2.086329
    14  H    5.100514   4.142281   2.723579   2.039216   1.019353
    15  H    5.108934   4.138319   2.718761   2.039710   1.019410
                    6          7          8          9         10
     6  H    0.000000
     7  H    1.617440   0.000000
     8  H    2.930356   2.375076   0.000000
     9  H    2.427286   2.421554   1.763878   0.000000
    10  H    2.516836   3.641448   3.064807   2.511652   0.000000
    11  H    3.024115   3.622251   2.498113   3.062272   1.763912
    12  H    4.322889   4.767838   3.123065   2.546541   2.509237
    13  H    4.641328   4.760296   2.575663   3.093597   3.065633
    14  H    5.308896   6.003641   4.334781   4.639558   3.055607
    15  H    5.048480   6.004260   4.652156   4.321560   2.537793
                   11         12         13         14         15
    11  H    0.000000
    12  H    3.070601   0.000000
    13  H    2.514733   1.759343   0.000000
    14  H    2.554528   2.930669   2.393795   0.000000
    15  H    3.055057   2.400077   2.931102   1.617002   0.000000
 Stoichiometry    C3H10N2
 Framework group  C1[X(C3H10N2)]
 Deg. of freedom    39
 Full point group                 C1      NOp   1
 Largest Abelian subgroup         C1      NOp   1
 Largest concise Abelian subgroup C1      NOp   1
                         Standard orientation:                         
 ---------------------------------------------------------------------
 Center     Atomic      Atomic             Coordinates (Angstroms)
 Number     Number       Type             X           Y           Z
 ---------------------------------------------------------------------
      1          7           0        2.461378   -0.372119   -0.105036
      2          6           0        1.276344    0.490868    0.016375
      3          6           0       -0.008912   -0.336556   -0.037492
      4          6           0       -1.281074    0.518650    0.038730
      5          7           0       -2.544281   -0.230514   -0.006402
      6          1           0        2.501504   -0.985532    0.708057
      7          1           0        3.299293    0.203656   -0.043924
      8          1           0        1.288277    1.200005   -0.821158
      9          1           0        1.274282    1.095824    0.939586
     10          1           0       -0.012859   -1.056060    0.794471
     11          1           0       -0.017218   -0.925009   -0.964560
     12          1           0       -1.272107    1.107634    0.964741
     13          1           0       -1.286904    1.238596   -0.789658
     14          1           0       -2.565783   -0.783639   -0.862363
     15          1           0       -2.546314   -0.914817    0.749192
 ---------------------------------------------------------------------
 Rotational constants (GHZ):          18.8908153           1.9550186           1.8588025
 Standard basis: 6-31G(d,p) (6D, 7F)
 There are   125 symmetry adapted cartesian basis functions of A   symmetry.
 There are   125 symmetry adapted basis functions of A   symmetry.
   125 basis functions,   210 primitive gaussians,   125 cartesian basis functions
    21 alpha electrons       21 beta electrons
       nuclear repulsion energy       185.8866402399 Hartrees.
 NAtoms=   15 NActive=   15 NUniq=   15 SFac= 1.00D+00 NAtFMM=   60 NAOKFM=F Big=F
 Integral buffers will be    131072 words long.
 Raffenetti 2 integral format.
 Two-electron integral symmetry is turned on.
 ------------------------------------------------------------------------------
 Polarizable Continuum Model (PCM)
 =================================
 Model                : PCM.
 Atomic radii         : UFF (Universal Force Field).
 Polarization charges : Total charges.
 Charge compensation  : None.
 Solution method      : Matrix inversion.
 Cavity type          : Scaled VdW (van der Waals Surface) (Alpha=1.100).
 Cavity algorithm     : GePol (No added spheres)
                        Default sphere list used, NSphG=   15.
                        Lebedev-Laikov grids with approx.  5.0 points / Ang**2.
                        Smoothing algorithm: York/Karplus (Gamma=1.0000).
                        Polarization charges: spherical gaussians, with
                                              point-specific exponents (IZeta= 3).
                        Self-potential: point-specific (ISelfS= 7).
                        Self-field    : sphere-specific E.n sum rule (ISelfD= 2).
 1st derivatives      : Analytical E(r).r(x)/FMM algorithm (CHGder, D1EAlg=3).
                        Cavity 1st derivative terms included.
 Solvent              : Water, Eps=  78.355300 Eps(inf)=   1.777849
 ------------------------------------------------------------------------------
 Spheres list:
 ISph  on   Nord     Re0    Alpha      Xe            Ye            Ze
    1   N      1    1.8300  1.100      2.461378     -0.372119     -0.105036
    2   C      2    1.9255  1.100      1.276344      0.490868      0.016375
    3   C      3    1.9255  1.100     -0.008912     -0.336556     -0.037492
    4   C      4    1.9255  1.100     -1.281074      0.518650      0.038730
    5   N      5    1.8300  1.100     -2.544281     -0.230514     -0.006402
    6   H      6    1.4430  1.100      2.501504     -0.985532      0.708057
    7   H      7    1.4430  1.100      3.299293      0.203656     -0.043924
    8   H      8    1.4430  1.100      1.288277      1.200005     -0.821158
    9   H      9    1.4430  1.100      1.274282      1.095824      0.939586
   10   H     10    1.4430  1.100     -0.012859     -1.056060      0.794471
   11   H     11    1.4430  1.100     -0.017218     -0.925009     -0.964560
   12   H     12    1.4430  1.100     -1.272107      1.107634      0.964741
   13   H     13    1.4430  1.100     -1.286904      1.238596     -0.789658
   14   H     14    1.4430  1.100     -2.565783     -0.783639     -0.862363
   15   H     15    1.4430  1.100     -2.546314     -0.914817      0.749192
 ------------------------------------------------------------------------------
 One-electron integrals computed using PRISM.
 NBasis=   125 RedAO= T EigKep=  3.49D-03  NBF=   125
 NBsUse=   125 1.00D-06 EigRej= -1.00D+00 NBFU=   125
 Initial guess from the checkpoint file:  "XFNJVJPLKCPIBV-UHFFFAOYSA-N_conf_0_0.chk"
 B after Tr=     0.000000    0.000000    0.000000
         Rot=    0.999983    0.005806    0.000547   -0.000348 Ang=   0.67 deg.
 ExpMin= 1.61D-01 ExpMax= 4.17D+03 ExpMxC= 6.27D+02 IAcc=2 IRadAn=         4 AccDes= 0.00D+00
 Harris functional with IExCor=  402 and IRadAn=       4 diagonalized for initial guess.
 HarFok:  IExCor=  402 AccDes= 0.00D+00 IRadAn=         4 IDoV= 1 UseB2=F ITyADJ=14
 ICtDFT=  3500011 ScaDFX=  1.000000  1.000000  1.000000  1.000000
 FoFCou: FMM=F IPFlag=           0 FMFlag=      100000 FMFlg1=           0
         NFxFlg=           0 DoJE=T BraDBF=F KetDBF=T FulRan=T
         wScrn=  0.000000 ICntrl=       500 IOpCl=  0 I1Cent=   200000004 NGrid=           0
         NMat0=    1 NMatS0=      1 NMatT0=    0 NMatD0=    1 NMtDS0=    0 NMtDT0=    0
 Petite list used in FoFCou.
 Keep R1 ints in memory in canonical form, NReq=32913836.
 Requested convergence on RMS density matrix=1.00D-08 within  32 cycles.
 Requested convergence on MAX density matrix=1.00D-06.
 Requested convergence on             energy=1.00D-06.
 No special actions if energy rises.
 Inv3:  Mode=1 IEnd=     4148928.
 Iteration    1 A*A^-1 deviation from unit magnitude is 5.22D-15 for    437.
 Iteration    1 A*A^-1 deviation from orthogonality  is 2.18D-15 for   1080    267.
 Iteration    1 A^-1*A deviation from unit magnitude is 4.88D-15 for    430.
 Iteration    1 A^-1*A deviation from orthogonality  is 2.18D-15 for    804     48.
 Error on total polarization charges =  0.00702
 SCF Done:  E(RB3LYP) =  -229.852939343     A.U. after    9 cycles
            NFock=  9  Conv=0.47D-08     -V/T= 2.0098
 QCSCF skips out because SCF is already converged.
 D1PCM: PCM CHGder 1st derivatives, ID1Alg=3 FixD1E=F DoIter=F DoCFld=F I1PDM=0.
 Calling FoFJK, ICntrl=      2127 FMM=F ISym2X=0 I1Cent= 0 IOpClX= 0 NMat=1 NMatS=1 NMatT=0.
 ***** Axes restored to original set *****
 -------------------------------------------------------------------
 Center     Atomic                   Forces (Hartrees/Bohr)
 Number     Number              X              Y              Z
 -------------------------------------------------------------------
      1        7          -0.000328968   -0.000302885   -0.000919464
      2        6          -0.000262344    0.001000975    0.000196673
      3        6          -0.000595208   -0.000859933    0.000655481
      4        6          -0.000159215    0.000673255   -0.001182921
      5        7           0.001262512   -0.000146458    0.000384976
      6        1          -0.000184156    0.000009936    0.000175022
      7        1          -0.000055503    0.000010203   -0.000019555
      8        1          -0.000056259   -0.000039863    0.000034096
      9        1           0.000384596   -0.000329744    0.000466038
     10        1          -0.000017818   -0.000021627   -0.000176309
     11        1          -0.000055582    0.000139741   -0.000053349
     12        1          -0.000012807   -0.000285053    0.000194055
     13        1           0.000018227    0.000047731    0.000329497
     14        1           0.000012686    0.000144511   -0.000056312
     15        1           0.000049839   -0.000040790   -0.000027929
 -------------------------------------------------------------------
 Cartesian Forces:  Max     0.001262512 RMS     0.000426470

 GradGradGradGradGradGradGradGradGradGradGradGradGradGradGradGradGradGrad
 Berny optimization.
 Using GEDIIS/GDIIS optimizer.
 FormGI is forming the generalized inverse of G from B-inverse, IUseBI=4.
 Internal  Forces:  Max     0.001676242 RMS     0.000337272
 Search for a local minimum.
 Step number   2 out of a maximum of   78
 All quantities printed in internal units (Hartrees-Bohrs-Radians)
 Mixed Optimization -- En-DIIS/RFO-DIIS
 Update second derivatives using D2CorX and points    1    2
 DE= -2.50D-03 DEPred=-2.43D-03 R= 1.03D+00
 TightC=F SS=  1.41D+00  RLast= 1.86D-01 DXNew= 5.0454D-01 5.5867D-01
 Trust test= 1.03D+00 RLast= 1.86D-01 DXMaxT set to 5.05D-01
 ITU=  1  0
 Use linear search instead of GDIIS.
     Eigenvalues ---    0.00210   0.00271   0.00276   0.00345   0.03241
     Eigenvalues ---    0.03329   0.03558   0.04005   0.04616   0.04648
     Eigenvalues ---    0.05027   0.05324   0.06537   0.08121   0.08325
     Eigenvalues ---    0.10019   0.12379   0.13637   0.14655   0.15039
     Eigenvalues ---    0.16343   0.17579   0.18703   0.22700   0.24915
     Eigenvalues ---    0.27763   0.30719   0.32161   0.32680   0.33129
     Eigenvalues ---    0.33211   0.33400   0.33660   0.37487   0.37897
     Eigenvalues ---    0.43846   0.43871   0.44043   0.44135
 RFO step:  Lambda=-3.07882537D-05 EMin= 2.09781486D-03
 Quartic linear search produced a step of  0.09245.
 Iteration  1 RMS(Cart)=  0.01197326 RMS(Int)=  0.00015418
 Iteration  2 RMS(Cart)=  0.00015319 RMS(Int)=  0.00002321
 Iteration  3 RMS(Cart)=  0.00000002 RMS(Int)=  0.00002321
 Variable       Old X    -DE/DX   Delta X   Delta X   Delta X     New X
                                 (Linear)    (Quad)   (Total)
    R1        2.77976   0.00086   0.00213  -0.00010   0.00203   2.78179
    R2        1.92623  -0.00000  -0.00002   0.00023   0.00021   1.92644
    R3        1.92470   0.00004  -0.00018   0.00049   0.00031   1.92500
    R4        2.89036   0.00031   0.00023   0.00050   0.00073   2.89110
    R5        2.07395   0.00004   0.00038  -0.00019   0.00019   2.07414
    R6        2.08581   0.00022   0.00143  -0.00082   0.00061   2.08642
    R7        2.90033   0.00066   0.00110  -0.00023   0.00088   2.90121
    R8        2.07858   0.00002   0.00037  -0.00005   0.00033   2.07891
    R9        2.07509  -0.00003   0.00005  -0.00006  -0.00001   2.07508
   R10        2.77666   0.00103   0.00167   0.00024   0.00190   2.77856
   R11        2.07395   0.00003   0.00036  -0.00008   0.00028   2.07423
   R12        2.07404   0.00003   0.00037   0.00015   0.00052   2.07456
   R13        1.92630  -0.00002  -0.00014   0.00033   0.00020   1.92650
   R14        1.92641  -0.00003  -0.00003   0.00018   0.00014   1.92655
    A1        1.89539   0.00003  -0.00199   0.00194  -0.00006   1.89533
    A2        1.90303   0.00004  -0.00059  -0.00086  -0.00147   1.90156
    A3        1.83377  -0.00011  -0.00178  -0.00048  -0.00230   1.83147
    A4        1.93550   0.00002   0.00077  -0.00063   0.00011   1.93561
    A5        1.88318  -0.00016  -0.00167  -0.00127  -0.00292   1.88026
    A6        1.97370   0.00043   0.00607  -0.00027   0.00581   1.97951
    A7        1.90901  -0.00007  -0.00113  -0.00040  -0.00156   1.90746
    A8        1.90116  -0.00009  -0.00221   0.00359   0.00128   1.90244
    A9        1.85895  -0.00015  -0.00197  -0.00113  -0.00312   1.85582
   A10        1.97504   0.00050   0.00377  -0.00191   0.00185   1.97690
   A11        1.90736  -0.00016  -0.00075   0.00050  -0.00025   1.90711
   A12        1.90285  -0.00015  -0.00107   0.00036  -0.00073   1.90212
   A13        1.90070  -0.00013  -0.00128   0.00155   0.00028   1.90098
   A14        1.91162  -0.00008  -0.00029   0.00179   0.00150   1.91312
   A15        1.86294  -0.00001  -0.00058  -0.00235  -0.00295   1.85999
   A16        2.01194   0.00168   0.00633   0.00177   0.00807   2.02001
   A17        1.91152  -0.00038  -0.00110   0.00044  -0.00069   1.91083
   A18        1.90968  -0.00039  -0.00139   0.00058  -0.00082   1.90885
   A19        1.88238  -0.00050  -0.00150   0.00028  -0.00126   1.88112
   A20        1.88252  -0.00052  -0.00155   0.00049  -0.00108   1.88144
   A21        1.85965   0.00000  -0.00120  -0.00406  -0.00531   1.85434
   A22        1.89715   0.00011  -0.00112   0.00130   0.00016   1.89731
   A23        1.89780   0.00007  -0.00144   0.00110  -0.00035   1.89745
   A24        1.83186  -0.00011  -0.00113  -0.00049  -0.00165   1.83021
    D1       -1.12957  -0.00025  -0.00465  -0.03395  -0.03863  -1.16820
    D2        3.06323  -0.00008  -0.00267  -0.03230  -0.03497   3.02825
    D3        1.01187  -0.00004  -0.00275  -0.02992  -0.03261   0.97926
    D4       -3.11870  -0.00015  -0.00111  -0.03397  -0.03513   3.12936
    D5        1.07409   0.00002   0.00087  -0.03232  -0.03147   1.04262
    D6       -0.97727   0.00005   0.00079  -0.02994  -0.02911  -1.00637
    D7       -3.10874   0.00020   0.00226  -0.00871  -0.00646  -3.11520
    D8        1.05331   0.00014   0.00190  -0.00977  -0.00788   1.04543
    D9       -0.97687   0.00033   0.00365  -0.00744  -0.00381  -0.98068
   D10       -1.03386  -0.00003  -0.00005  -0.01091  -0.01097  -1.04483
   D11        3.12819  -0.00009  -0.00041  -0.01197  -0.01239   3.11580
   D12        1.09801   0.00010   0.00134  -0.00964  -0.00832   1.08969
   D13        0.99152  -0.00029  -0.00441  -0.01048  -0.01485   0.97667
   D14       -1.12961  -0.00035  -0.00477  -0.01154  -0.01627  -1.14589
   D15        3.12339  -0.00016  -0.00302  -0.00921  -0.01220   3.11119
   D16       -3.13945   0.00002   0.00032   0.00413   0.00445  -3.13500
   D17       -1.01346   0.00026   0.00192   0.00609   0.00802  -1.00544
   D18        1.01898  -0.00018  -0.00102   0.00179   0.00078   1.01976
   D19       -1.01458   0.00006   0.00097   0.00461   0.00557  -1.00900
   D20        1.11141   0.00030   0.00257   0.00657   0.00914   1.12055
   D21       -3.13933  -0.00014  -0.00037   0.00227   0.00190  -3.13743
   D22        1.01677  -0.00007  -0.00063   0.00367   0.00303   1.01980
   D23       -3.14042   0.00017   0.00097   0.00563   0.00660  -3.13382
   D24       -1.10798  -0.00027  -0.00197   0.00133  -0.00064  -1.10862
   D25       -0.99907   0.00006   0.00224   0.01186   0.01409  -0.98498
   D26        0.98601   0.00003  -0.00048   0.01252   0.01205   0.99806
   D27       -3.14068  -0.00021   0.00053   0.00986   0.01039  -3.13029
   D28       -1.15560  -0.00025  -0.00219   0.01053   0.00836  -1.14724
   D29        1.14025   0.00030   0.00355   0.01420   0.01773   1.15799
   D30        3.12533   0.00027   0.00083   0.01487   0.01570   3.14103
         Item               Value     Threshold  Converged?
 Maximum Force            0.001676     0.000450     NO 
 RMS     Force            0.000337     0.000300     NO 
 Maximum Displacement     0.047677     0.001800     NO 
 RMS     Displacement     0.011950     0.001200     NO 
 Predicted change in Energy=-2.914933D-05
 GradGradGradGradGradGradGradGradGradGradGradGradGradGradGradGradGradGrad

                          Input orientation:                          
 ---------------------------------------------------------------------
 Center     Atomic      Atomic             Coordinates (Angstroms)
 Number     Number       Type             X           Y           Z
 ---------------------------------------------------------------------
      1          7           0       -2.389057   -0.062094   -0.222607
      2          6           0       -1.251969   -0.305704    0.679972
      3          6           0        0.066599    0.099768    0.018477
      4          6           0        1.294636   -0.166329    0.900589
      5          7           0        2.591640    0.211809    0.320306
      6          1           0       -2.489113    0.943703   -0.355249
      7          1           0       -3.248048   -0.352426    0.241640
      8          1           0       -1.228924   -1.379457    0.906297
      9          1           0       -1.342378    0.214124    1.649823
     10          1           0        0.032807    1.170386   -0.232280
     11          1           0        0.170875   -0.441196   -0.931403
     12          1           0        1.184502    0.368927    1.852519
     13          1           0        1.337946   -1.234116    1.151866
     14          1           0        2.703921   -0.269869   -0.571139
     15          1           0        2.566563    1.202474    0.080925
 ---------------------------------------------------------------------
                    Distance matrix (angstroms):
                    1          2          3          4          5
     1  N    0.000000
     2  C    1.472060   0.000000
     3  C    2.472765   1.529904   0.000000
     4  C    3.852535   2.559941   1.535253   0.000000
     5  N    5.017680   3.894934   2.545483   1.470352   0.000000
     6  H    1.019427   2.040398   2.717271   4.138364   5.177460
     7  H    1.018668   2.044174   3.352785   4.593998   5.867410
     8  H    2.087050   1.097589   2.157478   2.800012   4.179979
     9  H    2.162828   1.104086   2.158607   2.767660   4.152604
    10  H    2.717448   2.159096   1.100111   2.159261   2.787803
    11  H    2.683162   2.153920   1.098084   2.166699   2.802373
    12  H    4.154786   2.786824   2.164685   1.097633   2.086240
    13  H    4.141662   2.791468   2.163363   1.097810   2.086609
    14  H    5.109116   4.149172   2.727590   2.040291   1.019458
    15  H    5.123420   4.149054   2.733071   2.040409   1.019485
                    6          7          8          9         10
     6  H    0.000000
     7  H    1.616232   0.000000
     8  H    2.928591   2.360810   0.000000
     9  H    2.422312   2.436295   1.762159   0.000000
    10  H    2.535072   3.647954   3.064315   2.519501   0.000000
    11  H    3.053758   3.615653   2.493374   3.063022   1.762111
    12  H    4.324356   4.771035   3.126789   2.539719   2.512991
    13  H    4.654103   4.757860   2.582683   3.086989   3.066085
    14  H    5.337318   6.007775   4.345259   4.641062   3.053524
    15  H    5.081050   6.021067   4.664047   4.326442   2.553242
                   11         12         13         14         15
    11  H    0.000000
    12  H    3.071475   0.000000
    13  H    2.516105   1.756190   0.000000
    14  H    2.564267   2.931009   2.400918   0.000000
    15  H    3.076651   2.396547   2.931448   1.616122   0.000000
 Stoichiometry    C3H10N2
 Framework group  C1[X(C3H10N2)]
 Deg. of freedom    39
 Full point group                 C1      NOp   1
 Largest Abelian subgroup         C1      NOp   1
 Largest concise Abelian subgroup C1      NOp   1
                         Standard orientation:                         
 ---------------------------------------------------------------------
 Center     Atomic      Atomic             Coordinates (Angstroms)
 Number     Number       Type             X           Y           Z
 ---------------------------------------------------------------------
      1          7           0        2.464255   -0.373664   -0.100473
      2          6           0        1.277867    0.489830    0.017092
      3          6           0       -0.007568   -0.337641   -0.042510
      4          6           0       -1.281863    0.514787    0.038365
      5          7           0       -2.550393   -0.227404   -0.005460
      6          1           0        2.521631   -0.962066    0.730023
      7          1           0        3.300561    0.207101   -0.069054
      8          1           0        1.293801    1.195952   -0.823050
      9          1           0        1.269521    1.101239    0.936394
     10          1           0       -0.010835   -1.063347    0.784281
     11          1           0       -0.013410   -0.922038   -0.972152
     12          1           0       -1.270043    1.103926    0.964418
     13          1           0       -1.288260    1.239226   -0.786458
     14          1           0       -2.571583   -0.788735   -0.856197
     15          1           0       -2.559041   -0.905635    0.755642
 ---------------------------------------------------------------------
 Rotational constants (GHZ):          18.9529937           1.9480280           1.8533023
 Standard basis: 6-31G(d,p) (6D, 7F)
 There are   125 symmetry adapted cartesian basis functions of A   symmetry.
 There are   125 symmetry adapted basis functions of A   symmetry.
   125 basis functions,   210 primitive gaussians,   125 cartesian basis functions
    21 alpha electrons       21 beta electrons
       nuclear repulsion energy       185.7334809884 Hartrees.
 NAtoms=   15 NActive=   15 NUniq=   15 SFac= 1.00D+00 NAtFMM=   60 NAOKFM=F Big=F
 Integral buffers will be    131072 words long.
 Raffenetti 2 integral format.
 Two-electron integral symmetry is turned on.
 ------------------------------------------------------------------------------
 Polarizable Continuum Model (PCM)
 =================================
 Model                : PCM.
 Atomic radii         : UFF (Universal Force Field).
 Polarization charges : Total charges.
 Charge compensation  : None.
 Solution method      : Matrix inversion.
 Cavity type          : Scaled VdW (van der Waals Surface) (Alpha=1.100).
 Cavity algorithm     : GePol (No added spheres)
                        Default sphere list used, NSphG=   15.
                        Lebedev-Laikov grids with approx.  5.0 points / Ang**2.
                        Smoothing algorithm: York/Karplus (Gamma=1.0000).
                        Polarization charges: spherical gaussians, with
                                              point-specific exponents (IZeta= 3).
                        Self-potential: point-specific (ISelfS= 7).
                        Self-field    : sphere-specific E.n sum rule (ISelfD= 2).
 1st derivatives      : Analytical E(r).r(x)/FMM algorithm (CHGder, D1EAlg=3).
                        Cavity 1st derivative terms included.
 Solvent              : Water, Eps=  78.355300 Eps(inf)=   1.777849
 ------------------------------------------------------------------------------
 Spheres list:
 ISph  on   Nord     Re0    Alpha      Xe            Ye            Ze
    1   N      1    1.8300  1.100      2.464255     -0.373664     -0.100473
    2   C      2    1.9255  1.100      1.277867      0.489830      0.017092
    3   C      3    1.9255  1.100     -0.007568     -0.337641     -0.042510
    4   C      4    1.9255  1.100     -1.281863      0.514787      0.038365
    5   N      5    1.8300  1.100     -2.550393     -0.227404     -0.005460
    6   H      6    1.4430  1.100      2.521631     -0.962066      0.730023
    7   H      7    1.4430  1.100      3.300561      0.207101     -0.069054
    8   H      8    1.4430  1.100      1.293801      1.195952     -0.823050
    9   H      9    1.4430  1.100      1.269521      1.101239      0.936394
   10   H     10    1.4430  1.100     -0.010835     -1.063347      0.784281
   11   H     11    1.4430  1.100     -0.013410     -0.922038     -0.972152
   12   H     12    1.4430  1.100     -1.270043      1.103926      0.964418
   13   H     13    1.4430  1.100     -1.288260      1.239226     -0.786458
   14   H     14    1.4430  1.100     -2.571583     -0.788735     -0.856197
   15   H     15    1.4430  1.100     -2.559041     -0.905635      0.755642
 ------------------------------------------------------------------------------
 One-electron integrals computed using PRISM.
 NBasis=   125 RedAO= T EigKep=  3.51D-03  NBF=   125
 NBsUse=   125 1.00D-06 EigRej= -1.00D+00 NBFU=   125
 Initial guess from the checkpoint file:  "XFNJVJPLKCPIBV-UHFFFAOYSA-N_conf_0_0.chk"
 B after Tr=     0.000000    0.000000    0.000000
         Rot=    0.999999    0.001114    0.000003   -0.000033 Ang=   0.13 deg.
 ExpMin= 1.61D-01 ExpMax= 4.17D+03 ExpMxC= 6.27D+02 IAcc=2 IRadAn=         4 AccDes= 0.00D+00
 Harris functional with IExCor=  402 and IRadAn=       4 diagonalized for initial guess.
 HarFok:  IExCor=  402 AccDes= 0.00D+00 IRadAn=         4 IDoV= 1 UseB2=F ITyADJ=14
 ICtDFT=  3500011 ScaDFX=  1.000000  1.000000  1.000000  1.000000
 FoFCou: FMM=F IPFlag=           0 FMFlag=      100000 FMFlg1=           0
         NFxFlg=           0 DoJE=T BraDBF=F KetDBF=T FulRan=T
         wScrn=  0.000000 ICntrl=       500 IOpCl=  0 I1Cent=   200000004 NGrid=           0
         NMat0=    1 NMatS0=      1 NMatT0=    0 NMatD0=    1 NMtDS0=    0 NMtDT0=    0
 Petite list used in FoFCou.
 Keep R1 ints in memory in canonical form, NReq=32913836.
 Requested convergence on RMS density matrix=1.00D-08 within  32 cycles.
 Requested convergence on MAX density matrix=1.00D-06.
 Requested convergence on             energy=1.00D-06.
 No special actions if energy rises.
 Inv3:  Mode=1 IEnd=     4120752.
 Iteration    1 A*A^-1 deviation from unit magnitude is 5.00D-15 for    602.
 Iteration    1 A*A^-1 deviation from orthogonality  is 4.26D-15 for   1073     45.
 Iteration    1 A^-1*A deviation from unit magnitude is 4.77D-15 for    602.
 Iteration    1 A^-1*A deviation from orthogonality  is 2.56D-15 for   1117    585.
 Error on total polarization charges =  0.00702
 SCF Done:  E(RB3LYP) =  -229.852969951     A.U. after    8 cycles
            NFock=  8  Conv=0.45D-08     -V/T= 2.0098
 QCSCF skips out because SCF is already converged.
 D1PCM: PCM CHGder 1st derivatives, ID1Alg=3 FixD1E=F DoIter=F DoCFld=F I1PDM=0.
 Calling FoFJK, ICntrl=      2127 FMM=F ISym2X=0 I1Cent= 0 IOpClX= 0 NMat=1 NMatS=1 NMatT=0.
 ***** Axes restored to original set *****
 -------------------------------------------------------------------
 Center     Atomic                   Forces (Hartrees/Bohr)
 Number     Number              X              Y              Z
 -------------------------------------------------------------------
      1        7          -0.000094644    0.000110015    0.000075316
      2        6           0.000052700   -0.000057771    0.000051608
      3        6          -0.000046087    0.000003679   -0.000029416
      4        6          -0.000053608   -0.000004244   -0.000038102
      5        7           0.000093103    0.000035447   -0.000010325
      6        1           0.000002673   -0.000021451   -0.000066721
      7        1           0.000023637   -0.000017019   -0.000013298
      8        1           0.000030806   -0.000011526   -0.000002549
      9        1          -0.000047209   -0.000002972   -0.000033092
     10        1          -0.000008230   -0.000001919    0.000017205
     11        1           0.000004126   -0.000000936    0.000017085
     12        1           0.000005189   -0.000008055    0.000011360
     13        1           0.000000672    0.000006095   -0.000003658
     14        1           0.000032028   -0.000019429    0.000015846
     15        1           0.000004845   -0.000009914    0.000008741
 -------------------------------------------------------------------
 Cartesian Forces:  Max     0.000110015 RMS     0.000038313

 GradGradGradGradGradGradGradGradGradGradGradGradGradGradGradGradGradGrad
 Berny optimization.
 Using GEDIIS/GDIIS optimizer.
 FormGI is forming the generalized inverse of G from B-inverse, IUseBI=4.
 Internal  Forces:  Max     0.000155377 RMS     0.000034073
 Search for a local minimum.
 Step number   3 out of a maximum of   78
 All quantities printed in internal units (Hartrees-Bohrs-Radians)
 Mixed Optimization -- En-DIIS/RFO-DIIS
 Swapping is turned off.
 Update second derivatives using D2CorX and points    1    2    3
 DE= -3.06D-05 DEPred=-2.91D-05 R= 1.05D+00
 TightC=F SS=  1.41D+00  RLast= 9.73D-02 DXNew= 8.4853D-01 2.9200D-01
 Trust test= 1.05D+00 RLast= 9.73D-02 DXMaxT set to 5.05D-01
 ITU=  1  1  0
     Eigenvalues ---    0.00210   0.00272   0.00281   0.00345   0.03253
     Eigenvalues ---    0.03333   0.03558   0.04010   0.04557   0.04632
     Eigenvalues ---    0.05015   0.05306   0.06536   0.08113   0.08323
     Eigenvalues ---    0.10016   0.12390   0.13647   0.14633   0.15026
     Eigenvalues ---    0.16404   0.17601   0.18700   0.22229   0.24809
     Eigenvalues ---    0.27713   0.30641   0.32162   0.32680   0.33128
     Eigenvalues ---    0.33206   0.33379   0.33530   0.37039   0.37548
     Eigenvalues ---    0.43843   0.43875   0.44041   0.44136
 En-DIIS/RFO-DIIS/Sim-DIIS IScMMF=       -3 using points:     3    2
 RFO step:  Lambda=-8.28518754D-07.
 DidBck=F Rises=F RFO-DIIS coefs:    0.89217    0.10783
 Iteration  1 RMS(Cart)=  0.00137028 RMS(Int)=  0.00000204
 Iteration  2 RMS(Cart)=  0.00000210 RMS(Int)=  0.00000036
 Iteration  3 RMS(Cart)=  0.00000000 RMS(Int)=  0.00000036
 Variable       Old X    -DE/DX   Delta X   Delta X   Delta X     New X
                                 (Linear)    (Quad)   (Total)
    R1        2.78179   0.00007  -0.00022   0.00034   0.00012   2.78191
    R2        1.92644  -0.00001  -0.00002  -0.00007  -0.00009   1.92634
    R3        1.92500  -0.00002  -0.00003  -0.00007  -0.00011   1.92489
    R4        2.89110   0.00003  -0.00008   0.00018   0.00010   2.89120
    R5        2.07414   0.00001  -0.00002   0.00007   0.00005   2.07419
    R6        2.08642  -0.00003  -0.00007  -0.00001  -0.00007   2.08635
    R7        2.90121   0.00005  -0.00009   0.00025   0.00016   2.90136
    R8        2.07891  -0.00001  -0.00004   0.00002  -0.00002   2.07889
    R9        2.07508  -0.00001   0.00000  -0.00005  -0.00005   2.07503
   R10        2.77856   0.00011  -0.00021   0.00039   0.00019   2.77875
   R11        2.07423   0.00001  -0.00003   0.00008   0.00005   2.07427
   R12        2.07456  -0.00001  -0.00006   0.00002  -0.00004   2.07452
   R13        1.92650   0.00000  -0.00002  -0.00001  -0.00003   1.92647
   R14        1.92655  -0.00001  -0.00002  -0.00003  -0.00004   1.92650
    A1        1.89533   0.00008   0.00001   0.00061   0.00062   1.89595
    A2        1.90156  -0.00001   0.00016   0.00003   0.00018   1.90175
    A3        1.83147   0.00001   0.00025   0.00036   0.00060   1.83208
    A4        1.93561   0.00004  -0.00001   0.00014   0.00013   1.93574
    A5        1.88026   0.00002   0.00032  -0.00015   0.00016   1.88042
    A6        1.97951  -0.00005  -0.00063   0.00029  -0.00033   1.97917
    A7        1.90746  -0.00003   0.00017  -0.00037  -0.00020   1.90725
    A8        1.90244   0.00002  -0.00014   0.00027   0.00013   1.90258
    A9        1.85582   0.00001   0.00034  -0.00023   0.00010   1.85593
   A10        1.97690  -0.00002  -0.00020  -0.00009  -0.00029   1.97661
   A11        1.90711  -0.00000   0.00003  -0.00009  -0.00006   1.90705
   A12        1.90212   0.00001   0.00008   0.00001   0.00009   1.90222
   A13        1.90098   0.00001  -0.00003   0.00010   0.00007   1.90105
   A14        1.91312  -0.00000  -0.00016   0.00018   0.00002   1.91314
   A15        1.85999   0.00000   0.00032  -0.00012   0.00020   1.86019
   A16        2.02001   0.00016  -0.00087   0.00160   0.00073   2.02074
   A17        1.91083  -0.00004   0.00007  -0.00026  -0.00018   1.91065
   A18        1.90885  -0.00004   0.00009  -0.00022  -0.00013   1.90872
   A19        1.88112  -0.00005   0.00014  -0.00024  -0.00010   1.88102
   A20        1.88144  -0.00005   0.00012  -0.00037  -0.00026   1.88118
   A21        1.85434   0.00002   0.00057  -0.00070  -0.00013   1.85421
   A22        1.89731   0.00004  -0.00002   0.00033   0.00031   1.89762
   A23        1.89745   0.00001   0.00004   0.00016   0.00020   1.89765
   A24        1.83021   0.00000   0.00018   0.00012   0.00030   1.83051
    D1       -1.16820   0.00002   0.00417  -0.00013   0.00404  -1.16416
    D2        3.02825   0.00003   0.00377   0.00034   0.00411   3.03236
    D3        0.97926   0.00004   0.00352   0.00055   0.00407   0.98333
    D4        3.12936  -0.00002   0.00379  -0.00088   0.00291   3.13227
    D5        1.04262  -0.00001   0.00339  -0.00042   0.00298   1.04560
    D6       -1.00637  -0.00000   0.00314  -0.00020   0.00294  -1.00343
    D7       -3.11520  -0.00001   0.00070  -0.00005   0.00064  -3.11455
    D8        1.04543  -0.00001   0.00085  -0.00006   0.00079   1.04622
    D9       -0.98068  -0.00002   0.00041   0.00013   0.00054  -0.98014
   D10       -1.04483   0.00001   0.00118  -0.00039   0.00080  -1.04403
   D11        3.11580   0.00001   0.00134  -0.00039   0.00094   3.11674
   D12        1.08969   0.00000   0.00090  -0.00021   0.00069   1.09038
   D13        0.97667   0.00001   0.00160  -0.00072   0.00088   0.97756
   D14       -1.14589   0.00002   0.00175  -0.00073   0.00103  -1.14486
   D15        3.11119   0.00001   0.00132  -0.00054   0.00078   3.11197
   D16       -3.13500   0.00000  -0.00048   0.00071   0.00023  -3.13477
   D17       -1.00544   0.00002  -0.00087   0.00134   0.00048  -1.00496
   D18        1.01976  -0.00001  -0.00008   0.00023   0.00015   1.01991
   D19       -1.00900  -0.00001  -0.00060   0.00061   0.00001  -1.00899
   D20        1.12055   0.00001  -0.00099   0.00125   0.00026   1.12081
   D21       -3.13743  -0.00002  -0.00020   0.00014  -0.00007  -3.13750
   D22        1.01980   0.00000  -0.00033   0.00062   0.00030   1.02010
   D23       -3.13382   0.00002  -0.00071   0.00126   0.00054  -3.13328
   D24       -1.10862  -0.00001   0.00007   0.00015   0.00021  -1.10841
   D25       -0.98498  -0.00002  -0.00152  -0.00190  -0.00342  -0.98840
   D26        0.99806   0.00000  -0.00130  -0.00150  -0.00280   0.99526
   D27       -3.13029  -0.00004  -0.00112  -0.00249  -0.00361  -3.13389
   D28       -1.14724  -0.00001  -0.00090  -0.00209  -0.00299  -1.15023
   D29        1.15799  -0.00000  -0.00191  -0.00137  -0.00328   1.15471
   D30        3.14103   0.00002  -0.00169  -0.00097  -0.00266   3.13837
         Item               Value     Threshold  Converged?
 Maximum Force            0.000155     0.000450     YES
 RMS     Force            0.000034     0.000300     YES
 Maximum Displacement     0.004958     0.001800     NO 
 RMS     Displacement     0.001371     0.001200     NO 
 Predicted change in Energy=-4.142826D-07
 GradGradGradGradGradGradGradGradGradGradGradGradGradGradGradGradGradGrad

                          Input orientation:                          
 ---------------------------------------------------------------------
 Center     Atomic      Atomic             Coordinates (Angstroms)
 Number     Number       Type             X           Y           Z
 ---------------------------------------------------------------------
      1          7           0       -2.389669   -0.062791   -0.221922
      2          6           0       -1.252037   -0.305890    0.680215
[...]

 **********************************************************************

            Population analysis using the CI density.

 **********************************************************************

 Orbital symmetries:
       Occupied  (A) (A) (A) (A) (A) (A) (A) (A) (A) (A) (A) (A)
                 (A) (A) (A) (A) (A) (A) (A) (A) (A)
       Virtual   (A) (A) (A) (A) (A) (A) (A) (A) (A) (A) (A) (A)
                 (A) (A) (A) (A) (A) (A) (A) (A) (A) (A) (A) (A)
                 (A) (A) (A) (A) (A) (A) (A) (A) (A) (A) (A) (A)
                 (A) (A) (A) (A) (A) (A) (A) (A) (A) (A) (A) (A)
                 (A) (A) (A) (A) (A) (A) (A) (A) (A) (A) (A) (A)
                 (A) (A) (A) (A) (A) (A) (A) (A) (A) (A) (A) (A)
                 (A) (A) (A) (A) (A) (A) (A) (A) (A) (A) (A) (A)
                 (A) (A) (A) (A) (A) (A) (A) (A) (A) (A) (A) (A)
                 (A) (A) (A) (A) (A) (A) (A) (A)
 The electronic state is 1-A.
 Alpha  occ. eigenvalues --  -14.30983 -14.30904 -10.20228 -10.20225 -10.17358
 Alpha  occ. eigenvalues --   -0.87851  -0.86886  -0.74214  -0.63566  -0.58360
 Alpha  occ. eigenvalues --   -0.49453  -0.47413  -0.45384  -0.42853  -0.40006
 Alpha  occ. eigenvalues --   -0.37555  -0.36518  -0.34021  -0.32601  -0.24129
 Alpha  occ. eigenvalues --   -0.23190
 Alpha virt. eigenvalues --    0.08753   0.09156   0.12137   0.12729   0.14610
 Alpha virt. eigenvalues --    0.17179   0.18880   0.19307   0.19697   0.20749
 Alpha virt. eigenvalues --    0.22506   0.24887   0.26702   0.30279   0.51705
 Alpha virt. eigenvalues --    0.54879   0.55831   0.56732   0.60650   0.62650
 Alpha virt. eigenvalues --    0.67658   0.69008   0.69920   0.73117   0.73661
 Alpha virt. eigenvalues --    0.78094   0.79173   0.82348   0.85819   0.86173
 Alpha virt. eigenvalues --    0.88202   0.89592   0.90889   0.91721   0.92851
 Alpha virt. eigenvalues --    0.94077   0.95233   0.96840   1.06273   1.08426
 Alpha virt. eigenvalues --    1.27082   1.30492   1.33308   1.39006   1.43026
 Alpha virt. eigenvalues --    1.43217   1.58805   1.61824   1.69692   1.70714
 Alpha virt. eigenvalues --    1.73809   1.76390   1.83823   1.87676   1.88112
 Alpha virt. eigenvalues --    1.93457   1.96948   2.04080   2.07530   2.09086
 Alpha virt. eigenvalues --    2.10739   2.12408   2.21723   2.23330   2.25131
 Alpha virt. eigenvalues --    2.25604   2.26658   2.29451   2.31441   2.36068
 Alpha virt. eigenvalues --    2.36301   2.40215   2.42488   2.48493   2.53848
 Alpha virt. eigenvalues --    2.58985   2.63025   2.68929   2.69584   2.69943
 Alpha virt. eigenvalues --    2.76505   2.81081   2.83862   2.86081   2.91940
 Alpha virt. eigenvalues --    2.93223   2.94172   2.97095   2.99796   3.22525
 Alpha virt. eigenvalues --    3.27040   3.29694   3.30932   3.32195   3.37567
 Alpha virt. eigenvalues --    3.42768   3.52355   3.57609   3.59910   3.95727
 Alpha virt. eigenvalues --    4.03044   4.33691   4.50390   4.68873
          Condensed to atoms (all electrons):
               1          2          3          4          5          6
     1  N    7.492092   0.290946  -0.018788   0.002949  -0.000006  -0.084246
     2  C    0.290946   5.193839   0.276762  -0.001382   0.002245  -0.026489
     3  C   -0.018788   0.276762   5.628768   0.287479   0.033071  -0.036882
     4  C    0.002949  -0.001382   0.287479   5.323521   0.221841  -0.000190
     5  N   -0.000006   0.002245   0.033071   0.221841   8.031618  -0.000062
     6  H   -0.084246  -0.026489  -0.036882  -0.000190  -0.000062   0.777598
     7  H   -0.039951  -0.050020   0.002855  -0.000339  -0.000003   0.117827
     8  H   -0.080917   0.252460  -0.035751  -0.019096  -0.000617   0.020472
     9  H   -0.104018   0.223979  -0.053596  -0.021177  -0.000587   0.033090
    10  H   -0.027303  -0.037334   0.070975  -0.051019  -0.056010   0.037626
    11  H   -0.009334  -0.030759   0.147316  -0.049408  -0.045324   0.009169
    12  H   -0.000516  -0.020318  -0.044017   0.188300  -0.107745   0.000543
    13  H   -0.000213  -0.014962  -0.038139   0.218183  -0.100377   0.000178
    14  H   -0.000018   0.000459  -0.042325  -0.009240  -0.346369   0.000037
    15  H   -0.000031   0.000498  -0.046918  -0.012000  -0.364916   0.000085
               7          8          9         10         11         12
     1  N   -0.039951  -0.080917  -0.104018  -0.027303  -0.009334  -0.000516
     2  C   -0.050020   0.252460   0.223979  -0.037334  -0.030759  -0.020318
     3  C    0.002855  -0.035751  -0.053596   0.070975   0.147316  -0.044017
     4  C   -0.000339  -0.019096  -0.021177  -0.051019  -0.049408   0.188300
     5  N   -0.000003  -0.000617  -0.000587  -0.056010  -0.045324  -0.107745
     6  H    0.117827   0.020472   0.033090   0.037626   0.009169   0.000543
     7  H    0.729493   0.027984   0.032748   0.003945   0.002880   0.000146
     8  H    0.027984   0.689046   0.005227   0.014113   0.008827   0.004261
     9  H    0.032748   0.005227   0.739271   0.017689   0.013089   0.020237
    10  H    0.003945   0.014113   0.017689   0.841053   0.038311   0.023901
    11  H    0.002880   0.008827   0.013089   0.038311   0.756961   0.015639
    12  H    0.000146   0.004261   0.020237   0.023901   0.015639   0.737947
    13  H    0.000105   0.013546   0.003994   0.015917   0.015652   0.017808
    14  H    0.000003   0.000464   0.000261   0.020028   0.044656   0.028636
    15  H    0.000003   0.000228   0.000582   0.053132   0.017222   0.048339
              13         14         15
     1  N   -0.000213  -0.000018  -0.000031
     2  C   -0.014962   0.000459   0.000498
     3  C   -0.038139  -0.042325  -0.046918
     4  C    0.218183  -0.009240  -0.012000
     5  N   -0.100377  -0.346369  -0.364916
     6  H    0.000178   0.000037   0.000085
     7  H    0.000105   0.000003   0.000003
     8  H    0.013546   0.000464   0.000228
     9  H    0.003994   0.000261   0.000582
    10  H    0.015917   0.020028   0.053132
    11  H    0.015652   0.044656   0.017222
    12  H    0.017808   0.028636   0.048339
    13  H    0.702881   0.041961   0.026956
    14  H    0.041961   0.954322   0.222245
    15  H    0.026956   0.222245   0.978853
 Mulliken charges:
               1
     1  N   -0.420648
     2  C   -0.059925
     3  C   -0.130812
     4  C   -0.078420
     5  N   -0.266758
     6  H    0.151246
     7  H    0.172324
     8  H    0.099754
     9  H    0.089211
    10  H    0.034975
    11  H    0.065103
    12  H    0.086838
    13  H    0.096511
    14  H    0.084880
    15  H    0.075721
 Sum of Mulliken charges =  -0.00000
 Mulliken charges with hydrogens summed into heavy atoms:
               1
     1  N   -0.097078
     2  C    0.129040
     3  C   -0.030734
     4  C    0.104929
     5  N   -0.106157
 Electronic spatial extent (au):  <R**2>=            672.5923
 Charge=             -0.0000 electrons
 Dipole moment (field-independent basis, Debye):
    X=              0.9809    Y=              1.0201    Z=              0.5393  Tot=              1.5145
 Quadrupole moment (field-independent basis, Debye-Ang):
   XX=            -35.5319   YY=            -34.8214   ZZ=            -36.2953
   XY=              1.7994   XZ=              2.0311   YZ=             -0.5852
 Traceless Quadrupole moment (field-independent basis, Debye-Ang):
   XX=              0.0176   YY=              0.7281   ZZ=             -0.7457
   XY=              1.7994   XZ=              2.0311   YZ=             -0.5852
 Octapole moment (field-independent basis, Debye-Ang**2):
  XXX=             20.3775  YYY=              2.6154  ZZZ=             -0.5121  XYY=              0.3492
  XXY=              1.6659  XXZ=              4.2051  XZZ=              0.9470  YZZ=              1.4979
  YYZ=              0.0016  XYZ=             -2.1597
 Hexadecapole moment (field-independent basis, Debye-Ang**3):
 XXXX=           -737.2858 YYYY=           -114.5163 ZZZZ=            -78.3562 XXXY=             12.6640
 XXXZ=             13.0436 YYYX=             -3.4739 YYYZ=             -0.2195 ZZZX=              0.0756
 ZZZY=              0.3642 XXYY=           -142.5496 XXZZ=           -141.4568 YYZZ=            -31.0021
 XXYZ=             -4.6152 YYXZ=              1.4924 ZZXY=             -1.2879
 N-N= 1.857231911307D+02 E-N=-9.035972822932D+02  KE= 2.277780148895D+02
 Evaluate density.
 Using the total density.
 Monte-Carlo method of calculating molar volume:
 based on  0.001 e/bohr**3 density envelope.
 Number of points per bohr**3 =   20 CutOff= 1.00D-04
 Using the CI density.
 There are       315 points.  Will hold       315 in memory.
 LenV=   536814527 MDV=   536870912.
 Box volume = 3943.272 fraction occupied=0.251
 Integrated density= 3.0637385890672302D+01 error=-1.1362614109327698D+01
 Molar volume =  988.948 bohr**3/mol ( 88.253 cm**3/mol)
 Recommended a0 for SCRF calculation =  4.10 angstrom (  7.75 bohr)
 ******************************Gaussian NBO Version 3.1******************************
             N A T U R A L   A T O M I C   O R B I T A L   A N D
          N A T U R A L   B O N D   O R B I T A L   A N A L Y S I S
 ******************************Gaussian NBO Version 3.1******************************
       /RESON  / : Allow strongly delocalized NBO set

 Analyzing the CI density

 Job title: XFNJVJPLKCPIBV-UHFFFAOYSA-N_conf_0                              

 Storage needed:     47690 in NPA ( 536869637 available)
 GSVD:  LWork=        8191 too small for GESVD, short by        6146 words or        6146 for optimal perf.


 NATURAL POPULATIONS:  Natural atomic orbital occupancies 
                                                          
   NAO  Atom  No  lang   Type(AO)    Occupancy
 --------------------------------------------
     1    N    1  S      Cor( 1S)     1.99952
     2    N    1  S      Val( 2S)     1.46326
     3    N    1  S      Ryd( 3S)     0.00465
     4    N    1  S      Ryd( 4S)     0.00005
     5    N    1  px     Val( 2p)     1.30994
     6    N    1  px     Ryd( 3p)     0.00136
     7    N    1  py     Val( 2p)     1.40660
     8    N    1  py     Ryd( 3p)     0.00185
     9    N    1  pz     Val( 2p)     1.50705
    10    N    1  pz     Ryd( 3p)     0.00346
    11    N    1  dxy    Ryd( 3d)     0.00090
    12    N    1  dxz    Ryd( 3d)     0.00043
    13    N    1  dyz    Ryd( 3d)     0.00093
    14    N    1  dx2y2  Ryd( 3d)     0.00030
    15    N    1  dz2    Ryd( 3d)     0.00105

    16    C    2  S      Cor( 1S)     1.99931
    17    C    2  S      Val( 2S)     1.03543
    18    C    2  S      Ryd( 3S)     0.00210
    19    C    2  S      Ryd( 4S)     0.00004
    20    C    2  px     Val( 2p)     0.91432
    21    C    2  px     Ryd( 3p)     0.00542
    22    C    2  py     Val( 2p)     1.09537
    23    C    2  py     Ryd( 3p)     0.00413
    24    C    2  pz     Val( 2p)     1.23741
    25    C    2  pz     Ryd( 3p)     0.00281
    26    C    2  dxy    Ryd( 3d)     0.00119
    27    C    2  dxz    Ryd( 3d)     0.00057
    28    C    2  dyz    Ryd( 3d)     0.00129
    29    C    2  dx2y2  Ryd( 3d)     0.00081
    30    C    2  dz2    Ryd( 3d)     0.00076

    31    C    3  S      Cor( 1S)     1.99927
    32    C    3  S      Val( 2S)     1.06564
    33    C    3  S      Ryd( 3S)     0.00118
    34    C    3  S      Ryd( 4S)     0.00004
    35    C    3  px     Val( 2p)     0.99020
    36    C    3  px     Ryd( 3p)     0.00658
    37    C    3  py     Val( 2p)     1.16572
    38    C    3  py     Ryd( 3p)     0.00441
    39    C    3  pz     Val( 2p)     1.25674
    40    C    3  pz     Ryd( 3p)     0.00288
    41    C    3  dxy    Ryd( 3d)     0.00072
    42    C    3  dxz    Ryd( 3d)     0.00025
    43    C    3  dyz    Ryd( 3d)     0.00108
    44    C    3  dx2y2  Ryd( 3d)     0.00042
    45    C    3  dz2    Ryd( 3d)     0.00058

    46    C    4  S      Cor( 1S)     1.99936
    47    C    4  S      Val( 2S)     1.03952
    48    C    4  S      Ryd( 3S)     0.00172
    49    C    4  S      Ryd( 4S)     0.00004
    50    C    4  px     Val( 2p)     0.89197
    51    C    4  px     Ryd( 3p)     0.00639
    52    C    4  py     Val( 2p)     1.12038
    53    C    4  py     Ryd( 3p)     0.00697
    54    C    4  pz     Val( 2p)     1.26049
    55    C    4  pz     Ryd( 3p)     0.00247
    56    C    4  dxy    Ryd( 3d)     0.00113
    57    C    4  dxz    Ryd( 3d)     0.00043
    58    C    4  dyz    Ryd( 3d)     0.00119
    59    C    4  dx2y2  Ryd( 3d)     0.00100
    60    C    4  dz2    Ryd( 3d)     0.00088

    61    N    5  S      Cor( 1S)     1.99948
    62    N    5  S      Val( 2S)     1.47403
    63    N    5  S      Ryd( 3S)     0.01047
    64    N    5  S      Ryd( 4S)     0.00002
    65    N    5  px     Val( 2p)     1.28472
    66    N    5  px     Ryd( 3p)     0.00160
    67    N    5  py     Val( 2p)     1.38261
    68    N    5  py     Ryd( 3p)     0.00577
    69    N    5  pz     Val( 2p)     1.40900
    70    N    5  pz     Ryd( 3p)     0.00081
    71    N    5  dxy    Ryd( 3d)     0.00032
    72    N    5  dxz    Ryd( 3d)     0.00036
    73    N    5  dyz    Ryd( 3d)     0.00111
    74    N    5  dx2y2  Ryd( 3d)     0.00093
    75    N    5  dz2    Ryd( 3d)     0.00019

    76    H    6  S      Val( 1S)     0.65303
    77    H    6  S      Ryd( 2S)     0.04474
    78    H    6  px     Ryd( 2p)     0.00027
    79    H    6  py     Ryd( 2p)     0.00038
    80    H    6  pz     Ryd( 2p)     0.00065

    81    H    7  S      Val( 1S)     0.63895
    82    H    7  S      Ryd( 2S)     0.03931
    83    H    7  px     Ryd( 2p)     0.00048
    84    H    7  py     Ryd( 2p)     0.00045
    85    H    7  pz     Ryd( 2p)     0.00038

    86    H    8  S      Val( 1S)     0.76438
    87    H    8  S      Ryd( 2S)     0.01248
    88    H    8  px     Ryd( 2p)     0.00008
    89    H    8  py     Ryd( 2p)     0.00022
    90    H    8  pz     Ryd( 2p)     0.00027

    91    H    9  S      Val( 1S)     0.76700
    92    H    9  S      Ryd( 2S)     0.01776
    93    H    9  px     Ryd( 2p)     0.00009
    94    H    9  py     Ryd( 2p)     0.00019
    95    H    9  pz     Ryd( 2p)     0.00030

    96    H   10  S      Val( 1S)     0.77715
    97    H   10  S      Ryd( 2S)     0.03325
    98    H   10  px     Ryd( 2p)     0.00009
    99    H   10  py     Ryd( 2p)     0.00021
   100    H   10  pz     Ryd( 2p)     0.00023

   101    H   11  S      Val( 1S)     0.76305
   102    H   11  S      Ryd( 2S)     0.02182
   103    H   11  px     Ryd( 2p)     0.00009
   104    H   11  py     Ryd( 2p)     0.00017
   105    H   11  pz     Ryd( 2p)     0.00027

   106    H   12  S      Val( 1S)     0.76495
   107    H   12  S      Ryd( 2S)     0.01866
   108    H   12  px     Ryd( 2p)     0.00007
   109    H   12  py     Ryd( 2p)     0.00019
   110    H   12  pz     Ryd( 2p)     0.00028

   111    H   13  S      Val( 1S)     0.76044
   112    H   13  S      Ryd( 2S)     0.01535
   113    H   13  px     Ryd( 2p)     0.00007
   114    H   13  py     Ryd( 2p)     0.00023
   115    H   13  pz     Ryd( 2p)     0.00024

   116    H   14  S      Val( 1S)     0.68137
   117    H   14  S      Ryd( 2S)     0.06269
   118    H   14  px     Ryd( 2p)     0.00028
   119    H   14  py     Ryd( 2p)     0.00044
   120    H   14  pz     Ryd( 2p)     0.00059

   121    H   15  S      Val( 1S)     0.68685
   122    H   15  S      Ryd( 2S)     0.06485
   123    H   15  px     Ryd( 2p)     0.00028
   124    H   15  py     Ryd( 2p)     0.00051
   125    H   15  pz     Ryd( 2p)     0.00052


 Summary of Natural Population Analysis:                  
                                                          
                                       Natural Population 
                Natural  -----------------------------------------------
    Atom  No    Charge         Core      Valence    Rydberg      Total
 -----------------------------------------------------------------------
      N    1   -0.70135      1.99952     5.68685    0.01499     7.70135
      C    2   -0.30098      1.99931     4.28254    0.01912     6.30098
      C    3   -0.49572      1.99927     4.47830    0.01814     6.49572
      C    4   -0.33396      1.99936     4.31236    0.02224     6.33396
      N    5   -0.57140      1.99948     5.55035    0.02157     7.57140
      H    6    0.30094      0.00000     0.65303    0.04603     0.69906
      H    7    0.32044      0.00000     0.63895    0.04061     0.67956
      H    8    0.22256      0.00000     0.76438    0.01306     0.77744
      H    9    0.21466      0.00000     0.76700    0.01834     0.78534
      H   10    0.18907      0.00000     0.77715    0.03378     0.81093
      H   11    0.21460      0.00000     0.76305    0.02235     0.78540
      H   12    0.21585      0.00000     0.76495    0.01920     0.78415
      H   13    0.22367      0.00000     0.76044    0.01589     0.77633
      H   14    0.25463      0.00000     0.68137    0.06400     0.74537
      H   15    0.24699      0.00000     0.68685    0.06615     0.75301
 =======================================================================
   * Total *   -0.00000      9.99694    31.56758    0.43548    42.00000

                                 Natural Population      
 --------------------------------------------------------
   Core                       9.99694 ( 99.9694% of  10)
   Valence                   31.56758 ( 98.6487% of  32)
   Natural Minimal Basis     41.56452 ( 98.9632% of  42)
   Natural Rydberg Basis      0.43548 (  1.0368% of  42)
 --------------------------------------------------------

    Atom  No          Natural Electron Configuration
 ----------------------------------------------------------------------------
      N    1      [core]2S( 1.46)2p( 4.22)3p( 0.01)
      C    2      [core]2S( 1.04)2p( 3.25)3p( 0.01)
      C    3      [core]2S( 1.07)2p( 3.41)3p( 0.01)
      C    4      [core]2S( 1.04)2p( 3.27)3p( 0.02)
      N    5      [core]2S( 1.47)2p( 4.08)3S( 0.01)3p( 0.01)
      H    6            1S( 0.65)2S( 0.04)
      H    7            1S( 0.64)2S( 0.04)
      H    8            1S( 0.76)2S( 0.01)
      H    9            1S( 0.77)2S( 0.02)
      H   10            1S( 0.78)2S( 0.03)
      H   11            1S( 0.76)2S( 0.02)
      H   12            1S( 0.76)2S( 0.02)
      H   13            1S( 0.76)2S( 0.02)
      H   14            1S( 0.68)2S( 0.06)
      H   15            1S( 0.69)2S( 0.06)


 NBO analysis skipped by request.
 1\1\GINC-CN33\SP\RB3LYP TD-FC\6-31G(d,p)\C3H10N2\QDUEZ\09-Jul-2024\0\\
 # TD(NStates=10, Root=1) B3LYP/6-31G** SCRF=(Solvent=water) volume pop
 =NPA density=current Geom=AllCheck Guess=Read\\XFNJVJPLKCPIBV-UHFFFAOY
 SA-N_conf_0\\0,1\N,0,-2.3896686001,-0.0627911827,-0.2219220977\C,0,-1.
 2520365429,-0.3058899907,0.6802148853\C,0,0.0661948089,0.1003076022,0.
 0183681506\C,0,1.2944915081,-0.1662920361,0.900108807\N,0,2.5919082701
 ,0.2123273511,0.3208144671\H,0,-2.4884044542,0.9426434821,-0.357872351
 \H,0,-3.2486606492,-0.350983218,0.2435292579\H,0,-1.2281389424,-1.3796
 62703,0.9064812221\H,0,-1.3426677438,0.2138962962,1.6500231311\H,0,0.0
 320637319,1.1711121538,-0.2315027635\H,0,0.1702896818,-0.4400305429,-0
 .9318570158\H,0,1.1840849552,0.3679893849,1.85258282\H,0,1.3379150464,
 -1.2342770844,1.1504403643\H,0,2.7063333759,-0.2709130932,-0.569493263
 1\H,0,2.5662955543,1.2025635807,0.0798210381\\Version=EM64L-G16RevA.03
 \State=1-A\HF=-229.8529704\RMSD=1.599e-09\Dipole=-0.4176442,-0.0234804
 ,0.4243288\Quadrupole=0.357171,-0.017051,-0.34012,-0.6333392,-1.823702
 ,-0.8431638\PG=C01 [X(C3H10N2)]\\@


 A CHEMICAL PHYSICIST MAKES PRECISE MEASUREMENTS ON IMPURE COMPOUNDS.
 A THEORETICAL PHYSICAL CHEMIST MAKES IMPRECISE
     MEASUREMENTS ON PURE COMPOUNDS.
 AN EXPERIMENTAL PHYSICAL CHEMIST MAKES IMPRECISE
     MEASUREMENTS ON IMPURE COMPOUNDS.
 Job cpu time:       0 days  0 hours 19 minutes 30.5 seconds.
 Elapsed time:       0 days  0 hours 14 minutes  7.0 seconds.
 File lengths (MBytes):  RWF=    193 Int=      0 D2E=      0 Chk=     12 Scr=      1
 Normal termination of Gaussian 16 at Tue Jul  9 19:19:39 2024.
