 Entering Gaussian System, Link 0=g16
 Initial command:
 /opt/sw/arch/manual/gaussian/G16_A03/g16/l1.exe "/scratch/1030842.jesse.materianova.be/Gau-55466.inp" -scrdir="/scratch/1030842.jesse.materianova.be/"
 Entering Link 1 = /opt/sw/arch/manual/gaussian/G16_A03/g16/l1.exe PID=     55467.
  
 Copyright (c) 1988,1990,1992,1993,1995,1998,2003,2009,2016,
            Gaussian, Inc.  All Rights Reserved.
  
 This is part of the Gaussian(R) 16 program.  It is based on
 the Gaussian(R) 09 system (copyright 2009, Gaussian, Inc.),
 the Gaussian(R) 03 system (copyright 2003, Gaussian, Inc.),
 the Gaussian(R) 98 system (copyright 1998, Gaussian, Inc.),
 the Gaussian(R) 94 system (copyright 1995, Gaussian, Inc.),
 the Gaussian 92(TM) system (copyright 1992, Gaussian, Inc.),
 the Gaussian 90(TM) system (copyright 1990, Gaussian, Inc.),
 the Gaussian 88(TM) system (copyright 1988, Gaussian, Inc.),
 the Gaussian 86(TM) system (copyright 1986, Carnegie Mellon
 University), and the Gaussian 82(TM) system (copyright 1983,
 Carnegie Mellon University). Gaussian is a federally registered
 trademark of Gaussian, Inc.
  
 This software contains proprietary and confidential information,
 including trade secrets, belonging to Gaussian, Inc.
  
 This software is provided under written license and may be
 used, copied, transmitted, or stored only in accord with that
 written license.
  
 The following legend is applicable only to US Government
 contracts under FAR:
  
                    RESTRICTED RIGHTS LEGEND
  
 Use, reproduction and disclosure by the US Government is
 subject to restrictions as set forth in subparagraphs (a)
 and (c) of the Commercial Computer Software - Restricted
 Rights clause in FAR 52.227-19.
  
 Gaussian, Inc.
 340 Quinnipiac St., Bldg. 40, Wallingford CT 06492
  
  
 ---------------------------------------------------------------
 Warning -- This program may not be used in any manner that
 competes with the business of Gaussian, Inc. or will provide
 assistance to any competitor of Gaussian, Inc.  The licensee
 of this program is prohibited from giving any competitor of
 Gaussian, Inc. access to this program.  By using this program,
 the user acknowledges that Gaussian, Inc. is engaged in the
 business of creating and licensing software in the field of
 computational chemistry and represents and warrants to the
 licensee that it is not a competitor of Gaussian, Inc. and that
 it will not use this program in any manner prohibited above.
 ---------------------------------------------------------------
  

 Cite this work as:
 Gaussian 16, Revision A.03,
 M. J. Frisch, G. W. Trucks, H. B. Schlegel, G. E. Scuseria, 
 M. A. Robb, J. R. Cheeseman, G. Scalmani, V. Barone, 
 G. A. Petersson, H. Nakatsuji, X. Li, M. Caricato, A. V. Marenich, 
 J. Bloino, B. G. Janesko, R. Gomperts, B. Mennucci, H. P. Hratchian, 
 J. V. Ortiz, A. F. Izmaylov, J. L. Sonnenberg, D. Williams-Young, 
 F. Ding, F. Lipparini, F. Egidi, J. Goings, B. Peng, A. Petrone, 
 T. Henderson, D. Ranasinghe, V. G. Zakrzewski, J. Gao, N. Rega, 
 G. Zheng, W. Liang, M. Hada, M. Ehara, K. Toyota, R. Fukuda, 
 J. Hasegawa, M. Ishida, T. Nakajima, Y. Honda, O. Kitao, H. Nakai, 
 T. Vreven, K. Throssell, J. A. Montgomery, Jr., J. E. Peralta, 
 F. Ogliaro, M. J. Bearpark, J. J. Heyd, E. N. Brothers, K. N. Kudin, 
 V. N. Staroverov, T. A. Keith, R. Kobayashi, J. Normand, 
 K. Raghavachari, A. P. Rendell, J. C. Burant, S. S. Iyengar, 
 J. Tomasi, M. Cossi, J. M. Millam, M. Klene, C. Adamo, R. Cammi, 
 J. W. Ochterski, R. L. Martin, K. Morokuma, O. Farkas, 
 J. B. Foresman, and D. J. Fox, Gaussian, Inc., Wallingford CT, 2016.
 
 ******************************************
 Gaussian 16:  EM64L-G16RevA.03 25-Dec-2016
                 9-Jul-2024 
 ******************************************
 %nprocshared=2
 Will use up to    2 processors via shared memory.
 %mem=4GB
 %Chk=XFNJVJPLKCPIBV-UHFFFAOYSA-N_conf_2_0.chk
 -------------------------------------------------------
 # opt=CalcFc B3LYP/6-31G** SCRF=(Solvent=water) scf=xqc
 -------------------------------------------------------
 1/10=4,18=20,19=15,26=3,38=1/1,3;
 2/9=110,12=2,17=6,18=5,40=1/2;
 3/5=1,6=6,7=101,11=2,25=1,30=1,70=2201,71=2,72=1,74=-5,140=1/1,2,3;
 4//1;
 5/5=2,8=3,13=1,38=5,53=1/2,8;
 8/6=4,10=90,11=11/1;
 11/6=1,8=1,9=11,15=111,16=1/1,2,10;
 10/6=1,13=1/2;
 6/7=2,8=2,9=2,10=2,28=1/1;
 7/10=1,18=20,25=1/1,2,3,16;
 1/10=4,18=20,19=15,26=3/3(2);
 2/9=110/2;
 99//99;
 2/9=110/2;
 3/5=1,6=6,7=101,11=2,25=1,30=1,70=2205,71=1,72=1,74=-5/1,2,3;
 4/5=5,16=3,69=1/1;
 5/5=2,8=3,13=1,38=5,53=1/2,8;
 7//1,2,3,16;
 1/18=20,19=15,26=3/3(-5);
 2/9=110/2;
 6/7=2,8=2,9=2,10=2,19=2,28=1/1;
 99/9=1/99;
 ----------------------------------
 XFNJVJPLKCPIBV-UHFFFAOYSA-N_conf_2
 ----------------------------------
 Symbolic Z-matrix:
 Charge =  0 Multiplicity = 1
 N                     1.82865   0.40909   0.43701 
 C                     0.73914   0.81788  -0.44069 
 C                    -0.17321  -0.35118  -0.81686 
 C                    -0.89656  -1.02415   0.35401 
 N                    -1.82595  -0.13856   1.0501 
 H                     2.4038   -0.29198  -0.02912 
 H                     2.44079   1.20539   0.61268 
 H                     0.16318   1.61276   0.04412 
 H                     1.16504   1.24497  -1.35567 
 H                    -0.91718   0.00738  -1.53995 
 H                     0.41767  -1.11286  -1.3421 
 H                    -0.17785  -1.43098   1.07326 
 H                    -1.46737  -1.87589  -0.03256 
 H                    -2.40936   0.35343   0.37645 
 H                    -1.29078   0.57473   1.54572 
 

 GradGradGradGradGradGradGradGradGradGradGradGradGradGradGradGradGradGrad
 Berny optimization.
 Initialization pass.
                           ----------------------------
                           !    Initial Parameters    !
                           ! (Angstroms and Degrees)  !
 --------------------------                            --------------------------
 ! Name  Definition              Value          Derivative Info.                !
 --------------------------------------------------------------------------------
 ! R1    R(1,2)                  1.4576         calculate D2E/DX2 analytically  !
 ! R2    R(1,6)                  1.0196         calculate D2E/DX2 analytically  !
 ! R3    R(1,7)                  1.0196         calculate D2E/DX2 analytically  !
 ! R4    R(2,3)                  1.5299         calculate D2E/DX2 analytically  !
 ! R5    R(2,8)                  1.0948         calculate D2E/DX2 analytically  !
 ! R6    R(2,9)                  1.0959         calculate D2E/DX2 analytically  !
 ! R7    R(3,4)                  1.532          calculate D2E/DX2 analytically  !
 ! R8    R(3,10)                 1.0977         calculate D2E/DX2 analytically  !
 ! R9    R(3,11)                 1.0978         calculate D2E/DX2 analytically  !
 ! R10   R(4,5)                  1.4603         calculate D2E/DX2 analytically  !
 ! R11   R(4,12)                 1.0951         calculate D2E/DX2 analytically  !
 ! R12   R(4,13)                 1.0958         calculate D2E/DX2 analytically  !
 ! R13   R(5,14)                 1.018          calculate D2E/DX2 analytically  !
 ! R14   R(5,15)                 1.0202         calculate D2E/DX2 analytically  !
 ! A1    A(2,1,6)              109.8278         calculate D2E/DX2 analytically  !
 ! A2    A(2,1,7)              109.4792         calculate D2E/DX2 analytically  !
 ! A3    A(6,1,7)              106.0876         calculate D2E/DX2 analytically  !
 ! A4    A(1,2,3)              112.3032         calculate D2E/DX2 analytically  !
 ! A5    A(1,2,8)              109.2813         calculate D2E/DX2 analytically  !
 ! A6    A(1,2,9)              108.7576         calculate D2E/DX2 analytically  !
 ! A7    A(3,2,8)              110.4847         calculate D2E/DX2 analytically  !
 ! A8    A(3,2,9)              108.9219         calculate D2E/DX2 analytically  !
 ! A9    A(8,2,9)              106.9309         calculate D2E/DX2 analytically  !
 ! A10   A(2,3,4)              115.4244         calculate D2E/DX2 analytically  !
 ! A11   A(2,3,10)             108.4539         calculate D2E/DX2 analytically  !
 ! A12   A(2,3,11)             109.0774         calculate D2E/DX2 analytically  !
 ! A13   A(4,3,10)             109.0824         calculate D2E/DX2 analytically  !
 ! A14   A(4,3,11)             108.3621         calculate D2E/DX2 analytically  !
 ! A15   A(10,3,11)            106.0372         calculate D2E/DX2 analytically  !
 ! A16   A(3,4,5)              113.4783         calculate D2E/DX2 analytically  !
 ! A17   A(3,4,12)             110.8091         calculate D2E/DX2 analytically  !
 ! A18   A(3,4,13)             108.5285         calculate D2E/DX2 analytically  !
 ! A19   A(5,4,12)             109.2621         calculate D2E/DX2 analytically  !
 ! A20   A(5,4,13)             107.9394         calculate D2E/DX2 analytically  !
 ! A21   A(12,4,13)            106.5471         calculate D2E/DX2 analytically  !
 ! A22   A(4,5,14)             110.0234         calculate D2E/DX2 analytically  !
 ! A23   A(4,5,15)             108.7665         calculate D2E/DX2 analytically  !
 ! A24   A(14,5,15)            106.5127         calculate D2E/DX2 analytically  !
 ! D1    D(6,1,2,3)             60.3796         calculate D2E/DX2 analytically  !
 ! D2    D(6,1,2,8)           -176.6483         calculate D2E/DX2 analytically  !
 ! D3    D(6,1,2,9)            -60.2485         calculate D2E/DX2 analytically  !
 ! D4    D(7,1,2,3)            176.4829         calculate D2E/DX2 analytically  !
 ! D5    D(7,1,2,8)            -60.5449         calculate D2E/DX2 analytically  !
 ! D6    D(7,1,2,9)             55.8548         calculate D2E/DX2 analytically  !
 ! D7    D(1,2,3,4)             61.912          calculate D2E/DX2 analytically  !
 ! D8    D(1,2,3,10)          -175.3884         calculate D2E/DX2 analytically  !
 ! D9    D(1,2,3,11)           -60.3282         calculate D2E/DX2 analytically  !
 ! D10   D(8,2,3,4)            -60.3804         calculate D2E/DX2 analytically  !
 ! D11   D(8,2,3,10)            62.3192         calculate D2E/DX2 analytically  !
 ! D12   D(8,2,3,11)           177.3794         calculate D2E/DX2 analytically  !
 ! D13   D(9,2,3,4)           -177.5548         calculate D2E/DX2 analytically  !
 ! D14   D(9,2,3,10)           -54.8552         calculate D2E/DX2 analytically  !
 ! D15   D(9,2,3,11)            60.205          calculate D2E/DX2 analytically  !
 ! D16   D(2,3,4,5)             63.3071         calculate D2E/DX2 analytically  !
 ! D17   D(2,3,4,12)           -60.0491         calculate D2E/DX2 analytically  !
 ! D18   D(2,3,4,13)          -176.7097         calculate D2E/DX2 analytically  !
 ! D19   D(10,3,4,5)           -59.0577         calculate D2E/DX2 analytically  !
 ! D20   D(10,3,4,12)          177.5861         calculate D2E/DX2 analytically  !
 ! D21   D(10,3,4,13)           60.9255         calculate D2E/DX2 analytically  !
 ! D22   D(11,3,4,5)          -174.0712         calculate D2E/DX2 analytically  !
 ! D23   D(11,3,4,12)           62.5726         calculate D2E/DX2 analytically  !
 ! D24   D(11,3,4,13)          -54.088          calculate D2E/DX2 analytically  !
 ! D25   D(3,4,5,14)            47.3484         calculate D2E/DX2 analytically  !
 ! D26   D(3,4,5,15)           -68.9678         calculate D2E/DX2 analytically  !
 ! D27   D(12,4,5,14)          171.548          calculate D2E/DX2 analytically  !
 ! D28   D(12,4,5,15)           55.2317         calculate D2E/DX2 analytically  !
 ! D29   D(13,4,5,14)          -72.9689         calculate D2E/DX2 analytically  !
 ! D30   D(13,4,5,15)          170.7148         calculate D2E/DX2 analytically  !
 --------------------------------------------------------------------------------
 Trust Radius=3.00D-01 FncErr=1.00D-07 GrdErr=1.00D-06 EigMax=2.50D+02 EigMin=1.00D-04
 Number of steps in this run=     78 maximum allowed number of steps=    100.
 GradGradGradGradGradGradGradGradGradGradGradGradGradGradGradGradGradGrad

                          Input orientation:                          
 ---------------------------------------------------------------------
 Center     Atomic      Atomic             Coordinates (Angstroms)
 Number     Number       Type             X           Y           Z
 ---------------------------------------------------------------------
      1          7           0        1.828654    0.409088    0.437013
      2          6           0        0.739139    0.817875   -0.440694
      3          6           0       -0.173206   -0.351185   -0.816859
      4          6           0       -0.896559   -1.024153    0.354015
      5          7           0       -1.825948   -0.138557    1.050099
      6          1           0        2.403796   -0.291981   -0.029119
      7          1           0        2.440786    1.205389    0.612682
      8          1           0        0.163181    1.612756    0.044116
      9          1           0        1.165036    1.244968   -1.355665
     10          1           0       -0.917182    0.007375   -1.539946
     11          1           0        0.417670   -1.112864   -1.342102
     12          1           0       -0.177854   -1.430977    1.073255
     13          1           0       -1.467366   -1.875888   -0.032555
     14          1           0       -2.409365    0.353428    0.376447
     15          1           0       -1.290784    0.574726    1.545722
 ---------------------------------------------------------------------
                    Distance matrix (angstroms):
                    1          2          3          4          5
     1  N    0.000000
     2  C    1.457573   0.000000
     3  C    2.481461   1.529894   0.000000
     4  C    3.080236   2.588463   1.532015   0.000000
     5  N    3.745919   3.117195   2.502459   1.460335   0.000000
     6  H    1.019591   2.042611   2.695362   3.402236   4.367951
     7  H    1.019637   2.038472   3.361466   4.021894   4.494724
     8  H    2.092125   1.094808   2.170598   2.858736   2.834737
     9  H    2.086332   1.095887   2.151490   3.510284   4.080176
    10  H    3.407250   2.146780   1.097689   2.156748   2.748725
    11  H    2.733581   2.154909   1.097803   2.147529   3.421363
    12  H    2.795839   2.861862   2.176810   1.095148   2.094541
    13  H    4.037989   3.505938   2.148185   1.095768   2.078230
    14  H    4.238817   3.285805   2.630754   2.046170   1.017954
    15  H    3.314749   2.850537   2.772739   2.032731   1.020204
                    6          7          8          9         10
     6  H    0.000000
     7  H    1.629538   0.000000
     8  H    2.941725   2.382582   0.000000
     9  H    2.378332   2.345952   1.760219   0.000000
    10  H    3.660752   4.164731   2.500736   2.429244   0.000000
    11  H    2.518426   3.645336   3.068447   2.473482   1.753827
    12  H    3.029432   3.744306   3.231058   3.855346   3.073155
    13  H    4.182663   5.018390   3.851648   4.291841   2.474189
    14  H    4.873147   4.930071   2.883460   4.070799   2.453350
    15  H    4.108677   3.897808   2.333739   3.859835   3.159559
                   11         12         13         14         15
    11  H    0.000000
    12  H    2.507946   0.000000
    13  H    2.418776   1.756019   0.000000
    14  H    3.618778   2.940966   2.454484   0.000000
    15  H    3.755836   2.341940   2.920214   1.633218   0.000000
 Stoichiometry    C3H10N2
 Framework group  C1[X(C3H10N2)]
 Deg. of freedom    39
 Full point group                 C1      NOp   1
 Largest Abelian subgroup         C1      NOp   1
 Largest concise Abelian subgroup C1      NOp   1
                         Standard orientation:                         
 ---------------------------------------------------------------------
 Center     Atomic      Atomic             Coordinates (Angstroms)
 Number     Number       Type             X           Y           Z
 ---------------------------------------------------------------------
      1          7           0        1.804400   -0.568213   -0.459810
      2          6           0        1.098111    0.085047    0.635145
      3          6           0       -0.045008    0.973479    0.140630
      4          6           0       -1.161633    0.247799   -0.616738
      5          7           0       -1.879626   -0.727411    0.199368
      6          1           0        2.207069    0.134206   -1.079514
      7          1           0        2.590359   -1.100679   -0.087777
      8          1           0        0.720816   -0.675283    1.326629
      9          1           0        1.810063    0.701238    1.195859
     10          1           0       -0.477529    1.495761    1.003803
     11          1           0        0.364686    1.754911   -0.512582
     12          1           0       -0.767127   -0.248802   -1.509544
     13          1           0       -1.885121    0.992191   -0.967671
     14          1           0       -2.130648   -0.314689    1.095403
     15          1           0       -1.254813   -1.507437    0.404269
 ---------------------------------------------------------------------
 Rotational constants (GHZ):           8.6334617           2.8830720           2.7007821
 Standard basis: 6-31G(d,p) (6D, 7F)
 There are   125 symmetry adapted cartesian basis functions of A   symmetry.
 There are   125 symmetry adapted basis functions of A   symmetry.
   125 basis functions,   210 primitive gaussians,   125 cartesian basis functions
    21 alpha electrons       21 beta electrons
       nuclear repulsion energy       192.5375029405 Hartrees.
 NAtoms=   15 NActive=   15 NUniq=   15 SFac= 1.00D+00 NAtFMM=   60 NAOKFM=F Big=F
 Integral buffers will be    131072 words long.
 Raffenetti 2 integral format.
 Two-electron integral symmetry is turned on.
 Force inversion solution in PCM.
 ------------------------------------------------------------------------------
 Polarizable Continuum Model (PCM)
 =================================
 Model                : PCM.
 Atomic radii         : UFF (Universal Force Field).
 Polarization charges : Total charges.
 Charge compensation  : None.
 Solution method      : Matrix inversion.
 Cavity type          : Scaled VdW (van der Waals Surface) (Alpha=1.100).
 Cavity algorithm     : GePol (No added spheres)
                        Default sphere list used, NSphG=   15.
                        Lebedev-Laikov grids with approx.  5.0 points / Ang**2.
                        Smoothing algorithm: York/Karplus (Gamma=1.0000).
                        Polarization charges: spherical gaussians, with
                                              point-specific exponents (IZeta= 3).
                        Self-potential: point-specific (ISelfS= 7).
                        Self-field    : sphere-specific E.n sum rule (ISelfD= 2).
 1st derivatives      : Analytical E(r).r(x)/FMM algorithm (CHGder, D1EAlg=3).
                        Cavity 1st derivative terms included.
 2nd derivatives      : Analytical E(r).r(xy)/FMM algorithm (CHGder, D2EAlg=3).
                        Cavity 2nd derivative terms included.
 Solvent              : Water, Eps=  78.355300 Eps(inf)=   1.777849
 ------------------------------------------------------------------------------
 Spheres list:
 ISph  on   Nord     Re0    Alpha      Xe            Ye            Ze
    1   N      1    1.8300  1.100      1.804400     -0.568213     -0.459810
    2   C      2    1.9255  1.100      1.098111      0.085047      0.635145
    3   C      3    1.9255  1.100     -0.045008      0.973479      0.140630
    4   C      4    1.9255  1.100     -1.161633      0.247799     -0.616738
    5   N      5    1.8300  1.100     -1.879626     -0.727411      0.199368
    6   H      6    1.4430  1.100      2.207069      0.134206     -1.079514
    7   H      7    1.4430  1.100      2.590359     -1.100679     -0.087777
    8   H      8    1.4430  1.100      0.720816     -0.675283      1.326629
    9   H      9    1.4430  1.100      1.810063      0.701238      1.195859
   10   H     10    1.4430  1.100     -0.477529      1.495761      1.003803
   11   H     11    1.4430  1.100      0.364686      1.754911     -0.512582
   12   H     12    1.4430  1.100     -0.767127     -0.248802     -1.509544
   13   H     13    1.4430  1.100     -1.885121      0.992191     -0.967671
   14   H     14    1.4430  1.100     -2.130648     -0.314689      1.095403
   15   H     15    1.4430  1.100     -1.254813     -1.507437      0.404269
 ------------------------------------------------------------------------------
 One-electron integrals computed using PRISM.
 NBasis=   125 RedAO= T EigKep=  4.87D-03  NBF=   125
 NBsUse=   125 1.00D-06 EigRej= -1.00D+00 NBFU=   125
 ExpMin= 1.61D-01 ExpMax= 4.17D+03 ExpMxC= 6.27D+02 IAcc=3 IRadAn=         5 AccDes= 0.00D+00
 Harris functional with IExCor=  402 and IRadAn=       5 diagonalized for initial guess.
 HarFok:  IExCor=  402 AccDes= 0.00D+00 IRadAn=         5 IDoV= 1 UseB2=F ITyADJ=14
 ICtDFT=  3500011 ScaDFX=  1.000000  1.000000  1.000000  1.000000
 FoFCou: FMM=F IPFlag=           0 FMFlag=      100000 FMFlg1=           0
         NFxFlg=           0 DoJE=T BraDBF=F KetDBF=T FulRan=T
         wScrn=  0.000000 ICntrl=       500 IOpCl=  0 I1Cent=   200000004 NGrid=           0
         NMat0=    1 NMatS0=      1 NMatT0=    0 NMatD0=    1 NMtDS0=    0 NMtDT0=    0
 Petite list used in FoFCou.
 Keep R1 ints in memory in canonical form, NReq=32913836.
 Requested convergence on RMS density matrix=1.00D-08 within  32 cycles.
 Requested convergence on MAX density matrix=1.00D-06.
 Requested convergence on             energy=1.00D-06.
 No special actions if energy rises.
 Inv3:  Mode=1 IEnd=     3885132.
 Iteration    1 A*A^-1 deviation from unit magnitude is 4.66D-15 for    369.
 Iteration    1 A*A^-1 deviation from orthogonality  is 4.18D-15 for   1011    757.
 Iteration    1 A^-1*A deviation from unit magnitude is 4.88D-15 for    904.
 Iteration    1 A^-1*A deviation from orthogonality  is 3.54D-15 for   1094    496.
 Error on total polarization charges =  0.00703
 SCF Done:  E(RB3LYP) =  -229.850753456     A.U. after   10 cycles
            NFock= 10  Conv=0.85D-08     -V/T= 2.0096
 QCSCF skips out because SCF is already converged.
 DoSCS=F DFT=T ScalE2(SS,OS)=  1.000000  1.000000
 Range of M.O.s used for correlation:     1   125
 NBasis=   125 NAE=    21 NBE=    21 NFC=     0 NFV=     0
 NROrb=    125 NOA=    21 NOB=    21 NVA=   104 NVB=   104
 Symmetrizing basis deriv contribution to polar:
 IMax=3 JMax=2 DiffMx= 0.00D+00
 G2DrvN: will do    16 centers at a time, making    1 passes.
 Calling FoFCou, ICntrl=  3107 FMM=F I1Cent=   0 AccDes= 0.00D+00.
 NEqPCM:  Using equilibrium solvation (IEInf=0, Eps=  78.3553, EpsInf=   1.7778)
 G2PCM: DoFxE=T DoFxN=T DoGrad=T DoDP/DQ/DG/TGxP=FFFF NFrqRd=   0 IEInf=0 SqF1=F DoCFld=F IF1Alg=4.
 End of G2Drv F.D. properties file   721 does not exist.
 End of G2Drv F.D. properties file   722 does not exist.
 End of G2Drv F.D. properties file   788 does not exist.
          IDoAtm=111111111111111
 NEqPCM:  Using equilibrium solvation (IEInf=0, Eps=  78.3553, EpsInf=   1.7778)
          Differentiating once with respect to nuclear coordinates.
 Keep R1 ints in memory in canonical form, NReq=35398709.
          There are    48 degrees of freedom in the 1st order CPHF.  IDoFFX=6 NUNeed=     0.
     42 vectors produced by pass  0 Test12= 4.55D-15 2.08D-09 XBig12= 7.14D-02 5.76D-02.
 AX will form    42 AO Fock derivatives at one time.
     42 vectors produced by pass  1 Test12= 4.55D-15 2.08D-09 XBig12= 9.17D-03 2.05D-02.
     42 vectors produced by pass  2 Test12= 4.55D-15 2.08D-09 XBig12= 1.25D-04 1.66D-03.
     42 vectors produced by pass  3 Test12= 4.55D-15 2.08D-09 XBig12= 3.64D-07 9.19D-05.
     42 vectors produced by pass  4 Test12= 4.55D-15 2.08D-09 XBig12= 2.77D-10 1.82D-06.
     15 vectors produced by pass  5 Test12= 4.55D-15 2.08D-09 XBig12= 1.55D-13 5.48D-08.
      1 vectors produced by pass  6 Test12= 4.55D-15 2.08D-09 XBig12= 1.24D-16 2.49D-09.
 InvSVY:  IOpt=1 It=  1 EMax= 1.78D-15
 Solved reduced A of dimension   226 with    42 vectors.
 End of Minotr F.D. properties file   721 does not exist.
 End of Minotr F.D. properties file   722 does not exist.
 End of Minotr F.D. properties file   788 does not exist.

 **********************************************************************

            Population analysis using the SCF density.

 **********************************************************************

 Orbital symmetries:
       Occupied  (A) (A) (A) (A) (A) (A) (A) (A) (A) (A) (A) (A)
                 (A) (A) (A) (A) (A) (A) (A) (A) (A)
       Virtual   (A) (A) (A) (A) (A) (A) (A) (A) (A) (A) (A) (A)
                 (A) (A) (A) (A) (A) (A) (A) (A) (A) (A) (A) (A)
                 (A) (A) (A) (A) (A) (A) (A) (A) (A) (A) (A) (A)
                 (A) (A) (A) (A) (A) (A) (A) (A) (A) (A) (A) (A)
                 (A) (A) (A) (A) (A) (A) (A) (A) (A) (A) (A) (A)
                 (A) (A) (A) (A) (A) (A) (A) (A) (A) (A) (A) (A)
                 (A) (A) (A) (A) (A) (A) (A) (A) (A) (A) (A) (A)
                 (A) (A) (A) (A) (A) (A) (A) (A) (A) (A) (A) (A)
                 (A) (A) (A) (A) (A) (A) (A) (A)
 The electronic state is 1-A.
 Alpha  occ. eigenvalues --  -14.30643 -14.30604 -10.19931 -10.19759 -10.17308
 Alpha  occ. eigenvalues --   -0.88222  -0.86623  -0.73633  -0.64734  -0.57187
 Alpha  occ. eigenvalues --   -0.49457  -0.47363  -0.44998  -0.43664  -0.40274
 Alpha  occ. eigenvalues --   -0.38119  -0.36427  -0.33962  -0.32409  -0.23403
 Alpha  occ. eigenvalues --   -0.22648
 Alpha virt. eigenvalues --    0.07479   0.10849   0.12726   0.14074   0.15549
 Alpha virt. eigenvalues --    0.16349   0.17461   0.19119   0.20060   0.21523
 Alpha virt. eigenvalues --    0.24389   0.25140   0.25366   0.30187   0.53648
 Alpha virt. eigenvalues --    0.54428   0.54966   0.57116   0.59456   0.61879
 Alpha virt. eigenvalues --    0.64876   0.69610   0.72207   0.72696   0.74761
 Alpha virt. eigenvalues --    0.78929   0.81121   0.82749   0.85741   0.87304
 Alpha virt. eigenvalues --    0.87645   0.88727   0.90501   0.93012   0.94484
 Alpha virt. eigenvalues --    0.95687   0.97634   0.98225   1.02984   1.08014
 Alpha virt. eigenvalues --    1.19944   1.31047   1.32171   1.40995   1.46288
 Alpha virt. eigenvalues --    1.50053   1.50645   1.58886   1.62874   1.74361
 Alpha virt. eigenvalues --    1.79179   1.80784   1.84610   1.88574   1.93023
 Alpha virt. eigenvalues --    1.94496   1.97734   2.01861   2.07062   2.08987
 Alpha virt. eigenvalues --    2.12523   2.14101   2.17574   2.22779   2.25183
 Alpha virt. eigenvalues --    2.27073   2.28157   2.29955   2.31152   2.32123
 Alpha virt. eigenvalues --    2.39128   2.41733   2.43186   2.46736   2.53158
 Alpha virt. eigenvalues --    2.57036   2.61679   2.67154   2.68221   2.69084
 Alpha virt. eigenvalues --    2.76857   2.80980   2.83732   2.87508   2.91166
 Alpha virt. eigenvalues --    2.93441   2.95013   2.97635   2.99181   3.24547
 Alpha virt. eigenvalues --    3.28319   3.31090   3.31842   3.34740   3.40065
 Alpha virt. eigenvalues --    3.46401   3.49236   3.57447   3.59187   3.96700
 Alpha virt. eigenvalues --    3.99902   4.39511   4.57052   4.66870
          Condensed to atoms (all electrons):
               1          2          3          4          5          6
     1  N    6.807962   0.296199  -0.057266  -0.000548  -0.000985   0.340815
     2  C    0.296199   4.802903   0.371433  -0.042568  -0.005035  -0.038849
     3  C   -0.057266   0.371433   5.039691   0.359568  -0.072184  -0.004767
     4  C   -0.000548  -0.042568   0.359568   4.791934   0.329432  -0.000598
     5  N   -0.000985  -0.005035  -0.072184   0.329432   6.758305   0.000043
     6  H    0.340815  -0.038849  -0.004767  -0.000598   0.000043   0.480500
     7  H    0.340417  -0.033207   0.005926   0.000064  -0.000006  -0.032522
     8  H   -0.045455   0.377684  -0.034898  -0.010637   0.009772   0.006742
     9  H   -0.054161   0.389737  -0.043338   0.006191   0.000077  -0.005141
    10  H    0.004134  -0.035519   0.374337  -0.035020  -0.004967  -0.000124
    11  H   -0.005788  -0.033999   0.350713  -0.032281   0.006068   0.005610
    12  H    0.011777  -0.009056  -0.043694   0.388267  -0.035413  -0.000216
    13  H    0.000086   0.005236  -0.047820   0.386263  -0.043422  -0.000053
    14  H    0.000006  -0.001195  -0.002728  -0.046731   0.347737   0.000002
    15  H    0.001604   0.003026  -0.004825  -0.043504   0.348605  -0.000040
               7          8          9         10         11         12
     1  N    0.340417  -0.045455  -0.054161   0.004134  -0.005788   0.011777
     2  C   -0.033207   0.377684   0.389737  -0.035519  -0.033999  -0.009056
     3  C    0.005926  -0.034898  -0.043338   0.374337   0.350713  -0.043694
     4  C    0.000064  -0.010637   0.006191  -0.035020  -0.032281   0.388267
     5  N   -0.000006   0.009772   0.000077  -0.004967   0.006068  -0.035413
     6  H   -0.032522   0.006742  -0.005141  -0.000124   0.005610  -0.000216
     7  H    0.475947  -0.003386  -0.004132  -0.000250   0.000004  -0.000265
     8  H   -0.003386   0.645970  -0.048570  -0.002884   0.006825  -0.000152
     9  H   -0.004132  -0.048570   0.683756  -0.000897  -0.006254   0.000293
    10  H   -0.000250  -0.002884  -0.000897   0.632521  -0.032989   0.005672
    11  H    0.000004   0.006825  -0.006254  -0.032989   0.656205  -0.001691
    12  H   -0.000265  -0.000152   0.000293   0.005672  -0.001691   0.616295
    13  H    0.000002   0.000127  -0.000124  -0.004560  -0.000869  -0.037606
    14  H    0.000000   0.001318  -0.000054   0.005830   0.000110   0.006254
    15  H   -0.000036   0.002374   0.000035  -0.000208  -0.000054  -0.006942
              13         14         15
     1  N    0.000086   0.000006   0.001604
     2  C    0.005236  -0.001195   0.003026
     3  C   -0.047820  -0.002728  -0.004825
     4  C    0.386263  -0.046731  -0.043504
     5  N   -0.043422   0.347737   0.348605
     6  H   -0.000053   0.000002  -0.000040
     7  H    0.000002   0.000000  -0.000036
     8  H    0.000127   0.001318   0.002374
     9  H   -0.000124  -0.000054   0.000035
    10  H   -0.004560   0.005830  -0.000208
    11  H   -0.000869   0.000110  -0.000054
    12  H   -0.037606   0.006254  -0.006942
    13  H    0.643969  -0.003495   0.006737
    14  H   -0.003495   0.479470  -0.034678
    15  H    0.006737  -0.034678   0.475587
 Mulliken charges:
               1
     1  N   -0.638796
     2  C   -0.046791
     3  C   -0.190146
     4  C   -0.049831
     5  N   -0.638028
     6  H    0.248599
     7  H    0.251446
     8  H    0.095171
     9  H    0.082581
    10  H    0.094926
    11  H    0.088388
    12  H    0.106477
    13  H    0.095529
    14  H    0.248156
    15  H    0.252318
 Sum of Mulliken charges =  -0.00000
 Mulliken charges with hydrogens summed into heavy atoms:
               1
     1  N   -0.138751
     2  C    0.130961
     3  C   -0.006832
     4  C    0.152175
     5  N   -0.137554
 APT charges:
               1
     1  N   -1.304992
     2  C   -0.608375
     3  C   -0.673808
     4  C   -0.710739
     5  N   -0.839351
     6  H    0.520764
     7  H    0.674322
     8  H    0.290940
     9  H    0.413649
    10  H    0.359705
    11  H    0.343905
    12  H    0.296740
    13  H    0.443035
    14  H    0.472044
    15  H    0.322161
 Sum of APT charges =  -0.00000
 APT charges with hydrogens summed into heavy atoms:
               1
     1  N   -0.109906
     2  C    0.096214
     3  C    0.029802
     4  C    0.029037
     5  N   -0.045147
 Electronic spatial extent (au):  <R**2>=            532.2905
 Charge=             -0.0000 electrons
 Dipole moment (field-independent basis, Debye):
    X=              2.5222    Y=              1.3349    Z=              1.5861  Tot=              3.2648
 Quadrupole moment (field-independent basis, Debye-Ang):
   XX=            -33.2090   YY=            -33.2033   ZZ=            -31.7237
   XY=             -2.3907   XZ=             -2.2485   YZ=             -2.6113
 Traceless Quadrupole moment (field-independent basis, Debye-Ang):
   XX=             -0.4970   YY=             -0.4913   ZZ=              0.9883
   XY=             -2.3907   XZ=             -2.2485   YZ=             -2.6113
 Octapole moment (field-independent basis, Debye-Ang**2):
  XXX=             33.5551  YYY=             -3.6915  ZZZ=              1.2742  XYY=              2.8306
  XXY=              5.3345  XXZ=              3.5963  XZZ=             -1.7515  YZZ=              0.1965
  YYZ=              2.5567  XYZ=             -1.4470
 Hexadecapole moment (field-independent basis, Debye-Ang**3):
 XXXX=           -432.4904 YYYY=           -137.3862 ZZZZ=           -107.9191 XXXY=            -35.2335
 XXXZ=            -22.2440 YYYX=             -2.3583 YYYZ=             -5.2512 ZZZX=             -9.9418
 ZZZY=             -2.6467 XXYY=            -97.8087 XXZZ=            -82.4927 YYZZ=            -41.4033
 XXYZ=             -7.3391 YYXZ=             -1.0381 ZZXY=              2.8319
 N-N= 1.925375029405D+02 E-N=-9.187409075209D+02  KE= 2.276746979433D+02
  Exact polarizability:   0.000   0.000   0.000   0.000   0.000   0.000
 Approx polarizability:  61.617  -2.369  62.197  -3.491  -2.628  62.570
 D2PCM: PCM CHGder 2nd derivatives, FixD1E=F FixD2E=F DoIter=F DoCFld=F I1PDM=0
 Calling FoFJK, ICntrl=    100147 FMM=F ISym2X=0 I1Cent= 0 IOpClX= 0 NMat=1 NMatS=1 NMatT=0.
 ***** Axes restored to original set *****
 -------------------------------------------------------------------
 Center     Atomic                   Forces (Hartrees/Bohr)
 Number     Number              X              Y              Z
 -------------------------------------------------------------------
      1        7           0.003331896   -0.004302805    0.014485303
      2        6           0.005819715   -0.000016971   -0.008520482
      3        6           0.004841251   -0.003626091   -0.001794876
      4        6          -0.002944982    0.002303668   -0.005712436
      5        7          -0.001323088    0.000595368    0.012666513
      6        1          -0.000818279    0.001938868   -0.000706936
      7        1          -0.000817148   -0.002101996   -0.000615467
      8        1          -0.000493632    0.000078617    0.001681153
      9        1          -0.006655318    0.003923983   -0.007204758
     10        1          -0.000561254    0.000100268    0.000080637
     11        1           0.001942560    0.000026139   -0.001784283
     12        1          -0.000148996    0.002117093    0.000427220
     13        1           0.000001789   -0.001561312   -0.000666114
     14        1           0.000859011    0.000430466   -0.000460430
     15        1          -0.003033526    0.000094703   -0.001875045
 -------------------------------------------------------------------
 Cartesian Forces:  Max     0.014485303 RMS     0.004078839
 FormGI is forming the generalized inverse of G from B-inverse, IUseBI=4.

 GradGradGradGradGradGradGradGradGradGradGradGradGradGradGradGradGradGrad
 Berny optimization.
 Internal  Forces:  Max     0.012004883 RMS     0.003180960
 Search for a local minimum.
 Step number   1 out of a maximum of   78
 All quantities printed in internal units (Hartrees-Bohrs-Radians)
 Mixed Optimization -- RFO/linear search
 Second derivative matrix not updated -- analytic derivatives used.
 ITU=  0
     Eigenvalues ---    0.00147   0.00251   0.00297   0.00373   0.03162
     Eigenvalues ---    0.03213   0.03478   0.03885   0.04522   0.04557
     Eigenvalues ---    0.04896   0.05009   0.07405   0.08389   0.08406
     Eigenvalues ---    0.10712   0.12211   0.12396   0.14715   0.14917
     Eigenvalues ---    0.17054   0.18481   0.20892   0.23142   0.24925
     Eigenvalues ---    0.28579   0.30532   0.31950   0.32747   0.32964
     Eigenvalues ---    0.33332   0.33383   0.33815   0.37593   0.37864
     Eigenvalues ---    0.43868   0.43912   0.44116   0.44517
 RFO step:  Lambda=-3.63085094D-03 EMin= 1.47037284D-03
 Linear search not attempted -- first point.
 Iteration  1 RMS(Cart)=  0.03964971 RMS(Int)=  0.00096045
 Iteration  2 RMS(Cart)=  0.00123468 RMS(Int)=  0.00022627
 Iteration  3 RMS(Cart)=  0.00000135 RMS(Int)=  0.00022626
 Iteration  4 RMS(Cart)=  0.00000000 RMS(Int)=  0.00022626
 Variable       Old X    -DE/DX   Delta X   Delta X   Delta X     New X
                                 (Linear)    (Quad)   (Total)
    R1        2.75441   0.01045   0.00000   0.02373   0.02373   2.77815
    R2        1.92675  -0.00147   0.00000  -0.00076  -0.00076   1.92599
    R3        1.92683  -0.00224   0.00000  -0.00292  -0.00292   1.92392
    R4        2.89108  -0.00036   0.00000   0.00371   0.00371   2.89479
    R5        2.06889   0.00106   0.00000   0.00453   0.00453   2.07342
    R6        2.07093   0.00496   0.00000   0.01266   0.01266   2.08359
    R7        2.89509   0.00471   0.00000   0.01155   0.01155   2.90664
    R8        2.07433   0.00036   0.00000   0.00202   0.00202   2.07635
    R9        2.07455   0.00188   0.00000   0.00378   0.00378   2.07833
   R10        2.75963   0.00783   0.00000   0.01789   0.01789   2.77753
   R11        2.06953  -0.00060   0.00000  -0.00109  -0.00109   2.06844
   R12        2.07070   0.00145   0.00000   0.00278   0.00278   2.07349
   R13        1.92365   0.00002   0.00000   0.00292   0.00292   1.92657
   R14        1.92791  -0.00244   0.00000  -0.00385  -0.00385   1.92406
    A1        1.91686  -0.00226   0.00000  -0.01856  -0.01867   1.89818
    A2        1.91077   0.00068   0.00000  -0.00487  -0.00499   1.90579
    A3        1.85158  -0.00009   0.00000  -0.01302  -0.01327   1.83831
    A4        1.96006  -0.00471   0.00000  -0.01629  -0.01692   1.94314
    A5        1.90732  -0.00114   0.00000  -0.02501  -0.02561   1.88171
    A6        1.89818   0.00917   0.00000   0.07739   0.07752   1.97569
    A7        1.92832   0.00118   0.00000  -0.01770  -0.01853   1.90979
    A8        1.90105  -0.00289   0.00000  -0.00542  -0.00582   1.89523
    A9        1.86630  -0.00131   0.00000  -0.01091  -0.01078   1.85552
   A10        2.01454  -0.00222   0.00000  -0.01190  -0.01190   2.00263
   A11        1.89288   0.00096   0.00000  -0.00041  -0.00042   1.89246
   A12        1.90376  -0.00055   0.00000   0.00082   0.00084   1.90460
   A13        1.90385   0.00012   0.00000   0.00301   0.00297   1.90682
   A14        1.89128   0.00217   0.00000   0.00720   0.00719   1.89847
   A15        1.85070  -0.00035   0.00000   0.00240   0.00238   1.85308
   A16        1.98057   0.01200   0.00000   0.04666   0.04656   2.02713
   A17        1.93398  -0.00395   0.00000  -0.02664  -0.02627   1.90771
   A18        1.89418  -0.00290   0.00000   0.00142   0.00089   1.89507
   A19        1.90698  -0.00515   0.00000  -0.02867  -0.02829   1.87869
   A20        1.88390  -0.00246   0.00000   0.00038  -0.00021   1.88369
   A21        1.85960   0.00195   0.00000   0.00558   0.00550   1.86510
   A22        1.92027  -0.00169   0.00000  -0.01343  -0.01346   1.90681
   A23        1.89833   0.00316   0.00000   0.00590   0.00587   1.90421
   A24        1.85900  -0.00139   0.00000  -0.01957  -0.01964   1.83936
    D1        1.05382   0.00141   0.00000   0.07136   0.07126   1.12508
    D2       -3.08309  -0.00112   0.00000   0.01969   0.01995  -3.06315
    D3       -1.05153   0.00182   0.00000   0.03609   0.03572  -1.01581
    D4        3.08021   0.00039   0.00000   0.04226   0.04231   3.12251
    D5       -1.05671  -0.00213   0.00000  -0.00940  -0.00901  -1.06571
    D6        0.97485   0.00080   0.00000   0.00700   0.00677   0.98162
    D7        1.08057  -0.00306   0.00000  -0.04628  -0.04608   1.03449
    D8       -3.06111  -0.00372   0.00000  -0.05100  -0.05080  -3.11190
    D9       -1.05293  -0.00390   0.00000  -0.04795  -0.04776  -1.10068
   D10       -1.05384   0.00085   0.00000   0.01014   0.01005  -1.04378
   D11        1.08767   0.00020   0.00000   0.00541   0.00534   1.09301
   D12        3.09585   0.00001   0.00000   0.00847   0.00838   3.10423
   D13       -3.09892   0.00348   0.00000   0.03683   0.03671  -3.06220
   D14       -0.95740   0.00283   0.00000   0.03210   0.03200  -0.92541
   D15        1.05078   0.00264   0.00000   0.03516   0.03504   1.08581
   D16        1.10492  -0.00107   0.00000  -0.03100  -0.03116   1.07376
   D17       -1.04805  -0.00014   0.00000  -0.00726  -0.00718  -1.05523
   D18       -3.08417   0.00146   0.00000   0.00022   0.00032  -3.08385
   D19       -1.03075  -0.00085   0.00000  -0.02435  -0.02451  -1.05526
   D20        3.09946   0.00008   0.00000  -0.00061  -0.00052   3.09894
   D21        1.06335   0.00168   0.00000   0.00687   0.00697   1.07032
   D22       -3.03812  -0.00166   0.00000  -0.03264  -0.03283  -3.07094
   D23        1.09210  -0.00073   0.00000  -0.00890  -0.00885   1.08325
   D24       -0.94401   0.00087   0.00000  -0.00143  -0.00135  -0.94536
   D25        0.82639   0.00072   0.00000   0.04172   0.04193   0.86831
   D26       -1.20372   0.00153   0.00000   0.06937   0.06954  -1.13418
   D27        2.99408   0.00026   0.00000   0.01857   0.01849   3.01257
   D28        0.96398   0.00107   0.00000   0.04622   0.04610   1.01007
   D29       -1.27355  -0.00147   0.00000   0.01032   0.01026  -1.26329
   D30        2.97954  -0.00067   0.00000   0.03797   0.03787   3.01740
         Item               Value     Threshold  Converged?
 Maximum Force            0.012005     0.000450     NO 
 RMS     Force            0.003181     0.000300     NO 
 Maximum Displacement     0.131672     0.001800     NO 
 RMS     Displacement     0.039725     0.001200     NO 
 Predicted change in Energy=-1.900099D-03
 GradGradGradGradGradGradGradGradGradGradGradGradGradGradGradGradGradGrad

                          Input orientation:                          
 ---------------------------------------------------------------------
 Center     Atomic      Atomic             Coordinates (Angstroms)
 Number     Number       Type             X           Y           Z
 ---------------------------------------------------------------------
      1          7           0        1.798537    0.390752    0.468272
      2          6           0        0.752399    0.812566   -0.474574
      3          6           0       -0.165111   -0.355825   -0.848228
      4          6           0       -0.893204   -1.007910    0.339420
      5          7           0       -1.806238   -0.139035    1.095559
      6          1           0        2.402575   -0.287411    0.005690
      7          1           0        2.398695    1.185471    0.679802
      8          1           0        0.161542    1.599985    0.009904
      9          1           0        1.155159    1.253502   -1.401427
     10          1           0       -0.906832    0.003578   -1.574827
     11          1           0        0.424625   -1.125280   -1.367576
     12          1           0       -0.154558   -1.405012    1.042841
     13          1           0       -1.471197   -1.863473   -0.031897
     14          1           0       -2.428777    0.340610    0.446125
     15          1           0       -1.267615    0.597483    1.547325
 ---------------------------------------------------------------------
                    Distance matrix (angstroms):
                    1          2          3          4          5
     1  N    0.000000
     2  C    1.470133   0.000000
     3  C    2.479206   1.531855   0.000000
     4  C    3.036170   2.585485   1.538129   0.000000
     5  N    3.697102   3.149204   2.553155   1.469803   0.000000
     6  H    1.019191   2.040511   2.706818   3.390082   4.350165
     7  H    1.018092   2.044978   3.359102   3.970313   4.428164
     8  H    2.086169   1.097205   2.160622   2.832347   2.841654
     9  H    2.157324   1.102586   2.153851   3.512880   4.116305
    10  H    3.412210   2.148968   1.098758   2.165095   2.821388
    11  H    2.748877   2.158735   1.099805   2.159695   3.466477
    12  H    2.714678   2.835978   2.162648   1.094573   2.081712
    13  H    4.002856   3.507353   2.155286   1.097242   2.087365
    14  H    4.227669   3.345192   2.698992   2.046431   1.019499
    15  H    3.257051   2.866146   2.804101   2.043650   1.018168
                    6          7          8          9         10
     6  H    0.000000
     7  H    1.619822   0.000000
     8  H    2.929934   2.371802   0.000000
     9  H    2.431139   2.425392   1.760449   0.000000
    10  H    3.678978   4.172138   2.490243   2.417475   0.000000
    11  H    2.549543   3.664462   3.064920   2.488660   1.757854
    12  H    2.977187   3.655338   3.193256   3.841549   3.066306
    13  H    4.182283   4.977815   3.829246   4.299870   2.486970
    14  H    4.891866   4.906413   2.913085   4.134177   2.552285
    15  H    4.077986   3.813156   2.326191   3.872381   3.198550
                   11         12         13         14         15
    11  H    0.000000
    12  H    2.494757   0.000000
    13  H    2.433743   1.760338   0.000000
    14  H    3.685139   2.928368   2.450193   0.000000
    15  H    3.785265   2.345929   2.931158   1.620778   0.000000
 Stoichiometry    C3H10N2
 Framework group  C1[X(C3H10N2)]
 Deg. of freedom    39
 Full point group                 C1      NOp   1
 Largest Abelian subgroup         C1      NOp   1
 Largest concise Abelian subgroup C1      NOp   1
                         Standard orientation:                         
 ---------------------------------------------------------------------
 Center     Atomic      Atomic             Coordinates (Angstroms)
 Number     Number       Type             X           Y           Z
 ---------------------------------------------------------------------
      1          7           0        1.755720   -0.639209   -0.434511
      2          6           0        1.117585    0.147217    0.631139
      3          6           0       -0.020525    1.011981    0.080259
      4          6           0       -1.148829    0.227366   -0.610502
      5          7           0       -1.879953   -0.731181    0.230311
      6          1           0        2.199040    0.000066   -1.092951
      7          1           0        2.516648   -1.186340   -0.036832
      8          1           0        0.716196   -0.555262    1.372266
      9          1           0        1.823590    0.798590    1.172404
     10          1           0       -0.441814    1.599797    0.907457
     11          1           0        0.392791    1.739706   -0.633294
     12          1           0       -0.737365   -0.324388   -1.461591
     13          1           0       -1.874804    0.943138   -1.016174
     14          1           0       -2.169320   -0.269895    1.092205
     15          1           0       -1.244717   -1.472068    0.520531
 ---------------------------------------------------------------------
 Rotational constants (GHZ):           8.3249486           2.9316857           2.7022823
 Standard basis: 6-31G(d,p) (6D, 7F)
 There are   125 symmetry adapted cartesian basis functions of A   symmetry.
 There are   125 symmetry adapted basis functions of A   symmetry.
   125 basis functions,   210 primitive gaussians,   125 cartesian basis functions
    21 alpha electrons       21 beta electrons
       nuclear repulsion energy       192.0752751186 Hartrees.
 NAtoms=   15 NActive=   15 NUniq=   15 SFac= 1.00D+00 NAtFMM=   60 NAOKFM=F Big=F
 Integral buffers will be    131072 words long.
 Raffenetti 2 integral format.
 Two-electron integral symmetry is turned on.
 ------------------------------------------------------------------------------
 Polarizable Continuum Model (PCM)
 =================================
 Model                : PCM.
 Atomic radii         : UFF (Universal Force Field).
 Polarization charges : Total charges.
 Charge compensation  : None.
 Solution method      : Matrix inversion.
 Cavity type          : Scaled VdW (van der Waals Surface) (Alpha=1.100).
 Cavity algorithm     : GePol (No added spheres)
                        Default sphere list used, NSphG=   15.
                        Lebedev-Laikov grids with approx.  5.0 points / Ang**2.
                        Smoothing algorithm: York/Karplus (Gamma=1.0000).
                        Polarization charges: spherical gaussians, with
                                              point-specific exponents (IZeta= 3).
                        Self-potential: point-specific (ISelfS= 7).
                        Self-field    : sphere-specific E.n sum rule (ISelfD= 2).
 1st derivatives      : Analytical E(r).r(x)/FMM algorithm (CHGder, D1EAlg=3).
                        Cavity 1st derivative terms included.
 Solvent              : Water, Eps=  78.355300 Eps(inf)=   1.777849
 ------------------------------------------------------------------------------
 Spheres list:
 ISph  on   Nord     Re0    Alpha      Xe            Ye            Ze
    1   N      1    1.8300  1.100      1.755720     -0.639209     -0.434511
    2   C      2    1.9255  1.100      1.117585      0.147217      0.631139
    3   C      3    1.9255  1.100     -0.020525      1.011981      0.080259
    4   C      4    1.9255  1.100     -1.148829      0.227366     -0.610502
    5   N      5    1.8300  1.100     -1.879953     -0.731181      0.230311
    6   H      6    1.4430  1.100      2.199040      0.000066     -1.092951
    7   H      7    1.4430  1.100      2.516648     -1.186340     -0.036832
    8   H      8    1.4430  1.100      0.716196     -0.555262      1.372266
    9   H      9    1.4430  1.100      1.823590      0.798590      1.172404
   10   H     10    1.4430  1.100     -0.441814      1.599797      0.907457
   11   H     11    1.4430  1.100      0.392791      1.739706     -0.633294
   12   H     12    1.4430  1.100     -0.737365     -0.324388     -1.461591
   13   H     13    1.4430  1.100     -1.874804      0.943138     -1.016174
   14   H     14    1.4430  1.100     -2.169320     -0.269895      1.092205
   15   H     15    1.4430  1.100     -1.244717     -1.472068      0.520531
 ------------------------------------------------------------------------------
 One-electron integrals computed using PRISM.
 NBasis=   125 RedAO= T EigKep=  4.89D-03  NBF=   125
 NBsUse=   125 1.00D-06 EigRej= -1.00D+00 NBFU=   125
 Initial guess from the checkpoint file:  "XFNJVJPLKCPIBV-UHFFFAOYSA-N_conf_2_0.chk"
 B after Tr=    -0.000000   -0.000000   -0.000000
         Rot=    0.999453    0.032618   -0.001378    0.005225 Ang=   3.79 deg.
 ExpMin= 1.61D-01 ExpMax= 4.17D+03 ExpMxC= 6.27D+02 IAcc=2 IRadAn=         4 AccDes= 0.00D+00
 Harris functional with IExCor=  402 and IRadAn=       4 diagonalized for initial guess.
 HarFok:  IExCor=  402 AccDes= 0.00D+00 IRadAn=         4 IDoV= 1 UseB2=F ITyADJ=14
 ICtDFT=  3500011 ScaDFX=  1.000000  1.000000  1.000000  1.000000
 FoFCou: FMM=F IPFlag=           0 FMFlag=      100000 FMFlg1=           0
         NFxFlg=           0 DoJE=T BraDBF=F KetDBF=T FulRan=T
         wScrn=  0.000000 ICntrl=       500 IOpCl=  0 I1Cent=   200000004 NGrid=           0
         NMat0=    1 NMatS0=      1 NMatT0=    0 NMatD0=    1 NMtDS0=    0 NMtDT0=    0
 Petite list used in FoFCou.
 Keep R1 ints in memory in canonical form, NReq=32913836.
 Requested convergence on RMS density matrix=1.00D-08 within  32 cycles.
 Requested convergence on MAX density matrix=1.00D-06.
 Requested convergence on             energy=1.00D-06.
 No special actions if energy rises.
 Inv3:  Mode=1 IEnd=     3933075.
 Iteration    1 A*A^-1 deviation from unit magnitude is 4.66D-15 for     78.
 Iteration    1 A*A^-1 deviation from orthogonality  is 4.91D-15 for   1098    521.
 Iteration    1 A^-1*A deviation from unit magnitude is 4.88D-15 for     78.
 Iteration    1 A^-1*A deviation from orthogonality  is 2.36D-15 for   1097    490.
 Error on total polarization charges =  0.00706
 SCF Done:  E(RB3LYP) =  -229.852695358     A.U. after    9 cycles
            NFock=  9  Conv=0.62D-08     -V/T= 2.0098
 QCSCF skips out because SCF is already converged.
 D1PCM: PCM CHGder 1st derivatives, ID1Alg=3 FixD1E=F DoIter=F DoCFld=F I1PDM=0.
 Calling FoFJK, ICntrl=      2127 FMM=F ISym2X=0 I1Cent= 0 IOpClX= 0 NMat=1 NMatS=1 NMatT=0.
 ***** Axes restored to original set *****
 -------------------------------------------------------------------
 Center     Atomic                   Forces (Hartrees/Bohr)
 Number     Number              X              Y              Z
 -------------------------------------------------------------------
      1        7           0.000246321   -0.000470808    0.000989472
      2        6           0.000447671    0.000021420   -0.000799664
      3        6           0.000228245   -0.000042860    0.000009474
      4        6          -0.000504441    0.000055203   -0.000683759
      5        7           0.000052074    0.000064089    0.000957584
      6        1           0.000164360    0.000130547   -0.000015100
      7        1          -0.000031405   -0.000001672    0.000063666
      8        1          -0.000010741    0.000073250   -0.000011580
      9        1          -0.000559271    0.000231679   -0.000292267
     10        1           0.000048997   -0.000043358   -0.000017550
     11        1           0.000113282    0.000009435   -0.000002869
     12        1          -0.000065505   -0.000042123   -0.000041514
     13        1           0.000045313   -0.000096304    0.000003664
     14        1          -0.000094038   -0.000098717    0.000042781
     15        1          -0.000080861    0.000210222   -0.000202338
 -------------------------------------------------------------------
 Cartesian Forces:  Max     0.000989472 RMS     0.000314824

 GradGradGradGradGradGradGradGradGradGradGradGradGradGradGradGradGradGrad
 Berny optimization.
 Using GEDIIS/GDIIS optimizer.
 FormGI is forming the generalized inverse of G from B-inverse, IUseBI=4.
 Internal  Forces:  Max     0.001016428 RMS     0.000228088
 Search for a local minimum.
 Step number   2 out of a maximum of   78
 All quantities printed in internal units (Hartrees-Bohrs-Radians)
 Mixed Optimization -- En-DIIS/RFO-DIIS
 Update second derivatives using D2CorX and points    1    2
 DE= -1.94D-03 DEPred=-1.90D-03 R= 1.02D+00
 TightC=F SS=  1.41D+00  RLast= 2.16D-01 DXNew= 5.0454D-01 6.4793D-01
 Trust test= 1.02D+00 RLast= 2.16D-01 DXMaxT set to 5.05D-01
 ITU=  1  0
 Use linear search instead of GDIIS.
     Eigenvalues ---    0.00147   0.00252   0.00298   0.00373   0.03163
     Eigenvalues ---    0.03216   0.03483   0.03886   0.04519   0.04566
     Eigenvalues ---    0.04851   0.05001   0.07404   0.08382   0.08394
     Eigenvalues ---    0.10725   0.12209   0.12353   0.14711   0.14881
     Eigenvalues ---    0.17083   0.18488   0.20918   0.23060   0.24832
     Eigenvalues ---    0.28449   0.30545   0.31969   0.32750   0.32922
     Eigenvalues ---    0.33304   0.33382   0.33772   0.36977   0.37753
     Eigenvalues ---    0.43878   0.43927   0.44116   0.44517
 RFO step:  Lambda=-6.29742196D-05 EMin= 1.47048020D-03
 Quartic linear search produced a step of  0.08901.
 Iteration  1 RMS(Cart)=  0.02023070 RMS(Int)=  0.00030683
 Iteration  2 RMS(Cart)=  0.00033773 RMS(Int)=  0.00002248
 Iteration  3 RMS(Cart)=  0.00000015 RMS(Int)=  0.00002248
 Variable       Old X    -DE/DX   Delta X   Delta X   Delta X     New X
                                 (Linear)    (Quad)   (Total)
    R1        2.77815   0.00102   0.00211   0.00011   0.00222   2.78037
    R2        1.92599   0.00002  -0.00007   0.00015   0.00008   1.92607
    R3        1.92392  -0.00000  -0.00026   0.00040   0.00014   1.92406
    R4        2.89479   0.00013   0.00033   0.00039   0.00072   2.89551
    R5        2.07342   0.00005   0.00040  -0.00029   0.00011   2.07353
    R6        2.08359   0.00014   0.00113  -0.00081   0.00032   2.08391
    R7        2.90664   0.00034   0.00103   0.00002   0.00104   2.90769
    R8        2.07635  -0.00004   0.00018  -0.00018  -0.00000   2.07635
    R9        2.07833   0.00006   0.00034  -0.00021   0.00013   2.07846
   R10        2.77753   0.00059   0.00159  -0.00070   0.00089   2.77842
   R11        2.06844  -0.00005  -0.00010   0.00030   0.00020   2.06865
   R12        2.07349   0.00005   0.00025  -0.00054  -0.00029   2.07319
   R13        1.92657  -0.00002   0.00026  -0.00005   0.00021   1.92679
   R14        1.92406   0.00002  -0.00034   0.00060   0.00026   1.92431
    A1        1.89818   0.00009  -0.00166   0.00257   0.00090   1.89908
    A2        1.90579  -0.00001  -0.00044  -0.00062  -0.00107   1.90472
    A3        1.83831  -0.00007  -0.00118   0.00022  -0.00099   1.83732
    A4        1.94314  -0.00000  -0.00151   0.00269   0.00112   1.94426
    A5        1.88171  -0.00014  -0.00228  -0.00032  -0.00265   1.87906
    A6        1.97569   0.00052   0.00690  -0.00078   0.00613   1.98182
    A7        1.90979  -0.00006  -0.00165   0.00046  -0.00126   1.90853
    A8        1.89523  -0.00023  -0.00052  -0.00039  -0.00095   1.89427
    A9        1.85552  -0.00011  -0.00096  -0.00183  -0.00277   1.85275
   A10        2.00263   0.00003  -0.00106   0.00179   0.00073   2.00336
   A11        1.89246  -0.00004  -0.00004  -0.00117  -0.00121   1.89124
   A12        1.90460  -0.00003   0.00008  -0.00013  -0.00005   1.90455
   A13        1.90682   0.00002   0.00026   0.00177   0.00203   1.90885
   A14        1.89847   0.00001   0.00064  -0.00243  -0.00179   1.89668
   A15        1.85308   0.00000   0.00021   0.00007   0.00028   1.85336
   A16        2.02713   0.00075   0.00414   0.00091   0.00505   2.03218
   A17        1.90771  -0.00033  -0.00234  -0.00068  -0.00298   1.90473
   A18        1.89507  -0.00008   0.00008   0.00110   0.00113   1.89620
   A19        1.87869  -0.00030  -0.00252   0.00058  -0.00190   1.87679
   A20        1.88369  -0.00013  -0.00002  -0.00079  -0.00088   1.88281
   A21        1.86510   0.00004   0.00049  -0.00133  -0.00085   1.86425
   A22        1.90681   0.00002  -0.00120   0.00011  -0.00109   1.90573
   A23        1.90421   0.00009   0.00052  -0.00133  -0.00081   1.90340
   A24        1.83936  -0.00009  -0.00175   0.00058  -0.00118   1.83818
    D1        1.12508   0.00019   0.00634   0.02846   0.03480   1.15988
    D2       -3.06315   0.00002   0.00178   0.03043   0.03223  -3.03092
    D3       -1.01581   0.00010   0.00318   0.02751   0.03065  -0.98516
    D4        3.12251   0.00014   0.00377   0.02977   0.03355  -3.12713
    D5       -1.06571  -0.00002  -0.00080   0.03174   0.03097  -1.03474
    D6        0.98162   0.00006   0.00060   0.02882   0.02939   1.01101
    D7        1.03449  -0.00025  -0.00410  -0.00869  -0.01277   1.02172
    D8       -3.11190  -0.00023  -0.00452  -0.00605  -0.01056  -3.12246
    D9       -1.10068  -0.00026  -0.00425  -0.00667  -0.01091  -1.11159
   D10       -1.04378  -0.00004   0.00089  -0.01025  -0.00936  -1.05314
   D11        1.09301  -0.00002   0.00048  -0.00762  -0.00715   1.08587
   D12        3.10423  -0.00005   0.00075  -0.00824  -0.00750   3.09673
   D13       -3.06220   0.00026   0.00327  -0.00811  -0.00486  -3.06706
   D14       -0.92541   0.00027   0.00285  -0.00548  -0.00264  -0.92805
   D15        1.08581   0.00024   0.00312  -0.00610  -0.00299   1.08282
   D16        1.07376  -0.00019  -0.00277  -0.01981  -0.02260   1.05115
   D17       -1.05523  -0.00007  -0.00064  -0.02070  -0.02133  -1.07656
   D18       -3.08385   0.00010   0.00003  -0.01935  -0.01931  -3.10316
   D19       -1.05526  -0.00018  -0.00218  -0.02088  -0.02308  -1.07833
   D20        3.09894  -0.00006  -0.00005  -0.02176  -0.02180   3.07714
   D21        1.07032   0.00011   0.00062  -0.02042  -0.01978   1.05054
   D22       -3.07094  -0.00020  -0.00292  -0.02058  -0.02353  -3.09447
   D23        1.08325  -0.00008  -0.00079  -0.02147  -0.02225   1.06100
   D24       -0.94536   0.00009  -0.00012  -0.02012  -0.02023  -0.96559
   D25        0.86831   0.00026   0.00373   0.04251   0.04626   0.91457
   D26       -1.13418   0.00031   0.00619   0.04248   0.04869  -1.08549
   D27        3.01257   0.00012   0.00165   0.04271   0.04435   3.05691
   D28        1.01007   0.00016   0.00410   0.04268   0.04678   1.05685
   D29       -1.26329  -0.00005   0.00091   0.04105   0.04196  -1.22132
   D30        3.01740  -0.00001   0.00337   0.04103   0.04439   3.06180
         Item               Value     Threshold  Converged?
 Maximum Force            0.001016     0.000450     NO 
 RMS     Force            0.000228     0.000300     YES
 Maximum Displacement     0.061210     0.001800     NO 
 RMS     Displacement     0.020235     0.001200     NO 
 Predicted change in Energy=-4.106338D-05
 GradGradGradGradGradGradGradGradGradGradGradGradGradGradGradGradGradGrad

                          Input orientation:                          
 ---------------------------------------------------------------------
 Center     Atomic      Atomic             Coordinates (Angstroms)
 Number     Number       Type             X           Y           Z
 ---------------------------------------------------------------------
      1          7           0        1.790270    0.390663    0.475823
      2          6           0        0.754242    0.808225   -0.481797
      3          6           0       -0.166016   -0.358958   -0.854031
      4          6           0       -0.896383   -1.008792    0.334170
      5          7           0       -1.787430   -0.135276    1.111804
      6          1           0        2.415897   -0.269608    0.015963
      7          1           0        2.371855    1.193125    0.709236
      8          1           0        0.162275    1.600901   -0.007212
      9          1           0        1.161510    1.243198   -1.409697
     10          1           0       -0.904927    0.001721   -1.582857
     11          1           0        0.422546   -1.131265   -1.370614
     12          1           0       -0.156894   -1.425106    1.025664
     13          1           0       -1.491969   -1.851378   -0.038557
     14          1           0       -2.437354    0.329649    0.478516
     15          1           0       -1.237622    0.612900    1.529997
 ---------------------------------------------------------------------
                    Distance matrix (angstroms):
                    1          2          3          4          5
     1  N    0.000000
     2  C    1.471308   0.000000
     3  C    2.481431   1.532237   0.000000
     4  C    3.032597   2.586873   1.538682   0.000000
     5  N    3.671651   3.144814   2.558031   1.470276   0.000000
     6  H    1.019234   2.042201   2.726014   3.408643   4.345903
     7  H    1.018168   2.045331   3.360588   3.958597   4.384787
     8  H    2.085275   1.097265   2.160075   2.836864   2.840398
     9  H    2.162717   1.102755   2.153601   3.513895   4.117573
    10  H    3.413727   2.148401   1.098757   2.167072   2.838799
    11  H    2.756132   2.159083   1.099873   2.158903   3.469638
    12  H    2.718600   2.844358   2.161020   1.094681   2.080800
    13  H    4.008045   3.509332   2.156493   1.097086   2.087015
    14  H    4.228065   3.367123   2.721918   2.046180   1.019613
    15  H    3.213845   2.837778   2.788626   2.043607   1.018303
                    6          7          8          9         10
     6  H    0.000000
     7  H    1.619306   0.000000
     8  H    2.928849   2.358352   0.000000
     9  H    2.427875   2.440762   1.758803   0.000000
    10  H    3.695635   4.172581   2.485750   2.416902   0.000000
    11  H    2.576528   3.678093   3.064529   2.487101   1.758093
    12  H    2.995651   3.653741   3.213319   3.845650   3.065905
    13  H    4.216205   4.975673   3.828281   4.300858   2.482631
    14  H    4.911935   4.891555   2.934294   4.165543   2.589426
    15  H    4.052076   3.746816   2.301927   3.846415   3.189684
                   11         12         13         14         15
    11  H    0.000000
    12  H    2.482789   0.000000
    13  H    2.440964   1.759744   0.000000
    14  H    3.705749   2.928999   2.432693   0.000000
    15  H    3.769855   2.361311   2.932186   1.620247   0.000000
 Stoichiometry    C3H10N2
 Framework group  C1[X(C3H10N2)]
 Deg. of freedom    39
 Full point group                 C1      NOp   1
 Largest Abelian subgroup         C1      NOp   1
 Largest concise Abelian subgroup C1      NOp   1
                         Standard orientation:                         
 ---------------------------------------------------------------------
 Center     Atomic      Atomic             Coordinates (Angstroms)
 Number     Number       Type             X           Y           Z
 ---------------------------------------------------------------------
      1          7           0        1.743952   -0.647775   -0.434862
      2          6           0        1.120620    0.158321    0.626465
      3          6           0       -0.020823    1.020004    0.076593
      4          6           0       -1.153229    0.232056   -0.604830
      5          7           0       -1.865468   -0.745477    0.231146
      6          1           0        2.210953   -0.022860   -1.090780
      7          1           0        2.486214   -1.215362   -0.030440
      8          1           0        0.723513   -0.533327    1.380070
      9          1           0        1.831192    0.814397    1.156297
     10          1           0       -0.435806    1.613177    0.903153
     11          1           0        0.388466    1.742843   -0.644314
     12          1           0       -0.747410   -0.305576   -1.467725
     13          1           0       -1.891650    0.944372   -0.993337
     14          1           0       -2.185402   -0.287181    1.083916
     15          1           0       -1.208865   -1.460003    0.539799
 ---------------------------------------------------------------------
 Rotational constants (GHZ):           8.2422350           2.9544679           2.7072425
 Standard basis: 6-31G(d,p) (6D, 7F)
 There are   125 symmetry adapted cartesian basis functions of A   symmetry.
 There are   125 symmetry adapted basis functions of A   symmetry.
   125 basis functions,   210 primitive gaussians,   125 cartesian basis functions
    21 alpha electrons       21 beta electrons
       nuclear repulsion energy       192.0732099266 Hartrees.
 NAtoms=   15 NActive=   15 NUniq=   15 SFac= 1.00D+00 NAtFMM=   60 NAOKFM=F Big=F
 Integral buffers will be    131072 words long.
 Raffenetti 2 integral format.
 Two-electron integral symmetry is turned on.
 ------------------------------------------------------------------------------
 Polarizable Continuum Model (PCM)
 =================================
 Model                : PCM.
 Atomic radii         : UFF (Universal Force Field).
 Polarization charges : Total charges.
 Charge compensation  : None.
 Solution method      : Matrix inversion.
 Cavity type          : Scaled VdW (van der Waals Surface) (Alpha=1.100).
 Cavity algorithm     : GePol (No added spheres)
                        Default sphere list used, NSphG=   15.
                        Lebedev-Laikov grids with approx.  5.0 points / Ang**2.
                        Smoothing algorithm: York/Karplus (Gamma=1.0000).
                        Polarization charges: spherical gaussians, with
                                              point-specific exponents (IZeta= 3).
                        Self-potential: point-specific (ISelfS= 7).
                        Self-field    : sphere-specific E.n sum rule (ISelfD= 2).
 1st derivatives      : Analytical E(r).r(x)/FMM algorithm (CHGder, D1EAlg=3).
                        Cavity 1st derivative terms included.
 Solvent              : Water, Eps=  78.355300 Eps(inf)=   1.777849
 ------------------------------------------------------------------------------
 Spheres list:
 ISph  on   Nord     Re0    Alpha      Xe            Ye            Ze
    1   N      1    1.8300  1.100      1.743952     -0.647775     -0.434862
    2   C      2    1.9255  1.100      1.120620      0.158321      0.626465
    3   C      3    1.9255  1.100     -0.020823      1.020004      0.076593
    4   C      4    1.9255  1.100     -1.153229      0.232056     -0.604830
    5   N      5    1.8300  1.100     -1.865468     -0.745477      0.231146
    6   H      6    1.4430  1.100      2.210953     -0.022860     -1.090780
    7   H      7    1.4430  1.100      2.486214     -1.215362     -0.030440
    8   H      8    1.4430  1.100      0.723513     -0.533327      1.380070
    9   H      9    1.4430  1.100      1.831192      0.814397      1.156297
   10   H     10    1.4430  1.100     -0.435806      1.613177      0.903153
   11   H     11    1.4430  1.100      0.388466      1.742843     -0.644314
   12   H     12    1.4430  1.100     -0.747410     -0.305576     -1.467725
   13   H     13    1.4430  1.100     -1.891650      0.944372     -0.993337
   14   H     14    1.4430  1.100     -2.185402     -0.287181      1.083916
   15   H     15    1.4430  1.100     -1.208865     -1.460003      0.539799
 ------------------------------------------------------------------------------
 One-electron integrals computed using PRISM.
 NBasis=   125 RedAO= T EigKep=  4.86D-03  NBF=   125
 NBsUse=   125 1.00D-06 EigRej= -1.00D+00 NBFU=   125
 Initial guess from the checkpoint file:  "XFNJVJPLKCPIBV-UHFFFAOYSA-N_conf_2_0.chk"
 B after Tr=    -0.000000    0.000000    0.000000
         Rot=    0.999997    0.001822   -0.001300   -0.000422 Ang=   0.26 deg.
 ExpMin= 1.61D-01 ExpMax= 4.17D+03 ExpMxC= 6.27D+02 IAcc=2 IRadAn=         4 AccDes= 0.00D+00
 Harris functional with IExCor=  402 and IRadAn=       4 diagonalized for initial guess.
 HarFok:  IExCor=  402 AccDes= 0.00D+00 IRadAn=         4 IDoV= 1 UseB2=F ITyADJ=14
 ICtDFT=  3500011 ScaDFX=  1.000000  1.000000  1.000000  1.000000
 FoFCou: FMM=F IPFlag=           0 FMFlag=      100000 FMFlg1=           0
         NFxFlg=           0 DoJE=T BraDBF=F KetDBF=T FulRan=T
         wScrn=  0.000000 ICntrl=       500 IOpCl=  0 I1Cent=   200000004 NGrid=           0
         NMat0=    1 NMatS0=      1 NMatT0=    0 NMatD0=    1 NMtDS0=    0 NMtDT0=    0
 Petite list used in FoFCou.
 Keep R1 ints in memory in canonical form, NReq=32913836.
 Requested convergence on RMS density matrix=1.00D-08 within  32 cycles.
 Requested convergence on MAX density matrix=1.00D-06.
 Requested convergence on             energy=1.00D-06.
 No special actions if energy rises.
 Inv3:  Mode=1 IEnd=     3933075.
 Iteration    1 A*A^-1 deviation from unit magnitude is 5.33D-15 for    730.
 Iteration    1 A*A^-1 deviation from orthogonality  is 2.94D-15 for    873    411.
 Iteration    1 A^-1*A deviation from unit magnitude is 5.33D-15 for     79.
 Iteration    1 A^-1*A deviation from orthogonality  is 2.76D-15 for    755    272.
 Error on total polarization charges =  0.00705
 SCF Done:  E(RB3LYP) =  -229.852734501     A.U. after    8 cycles
            NFock=  8  Conv=0.63D-08     -V/T= 2.0098
 QCSCF skips out because SCF is already converged.
 D1PCM: PCM CHGder 1st derivatives, ID1Alg=3 FixD1E=F DoIter=F DoCFld=F I1PDM=0.
 Calling FoFJK, ICntrl=      2127 FMM=F ISym2X=0 I1Cent= 0 IOpClX= 0 NMat=1 NMatS=1 NMatT=0.
 ***** Axes restored to original set *****
 -------------------------------------------------------------------
 Center     Atomic                   Forces (Hartrees/Bohr)
 Number     Number              X              Y              Z
 -------------------------------------------------------------------
      1        7           0.000140611    0.000010328    0.000024025
      2        6          -0.000062543    0.000012805   -0.000043913
      3        6           0.000003655    0.000006973   -0.000055097
      4        6          -0.000029131   -0.000055357   -0.000036833
      5        7          -0.000044020    0.000113340   -0.000001475
      6        1          -0.000000110   -0.000026884    0.000049187
      7        1          -0.000005544   -0.000026250   -0.000025292
      8        1          -0.000029169    0.000006801    0.000008142
      9        1           0.000009260    0.000011075    0.000026183
     10        1           0.000025648   -0.000011046   -0.000013813
     11        1          -0.000006425    0.000001704    0.000013219
     12        1          -0.000001710   -0.000003895   -0.000038592
     13        1           0.000023023   -0.000044029    0.000004450
     14        1           0.000028957    0.000013242    0.000026679
     15        1          -0.000052502   -0.000008806    0.000063128
 -------------------------------------------------------------------
 Cartesian Forces:  Max     0.000140611 RMS     0.000039356

 GradGradGradGradGradGradGradGradGradGradGradGradGradGradGradGradGradGrad
 Berny optimization.
 Using GEDIIS/GDIIS optimizer.
 FormGI is forming the generalized inverse of G from B-inverse, IUseBI=4.
 Internal  Forces:  Max     0.000153846 RMS     0.000038295
 Search for a local minimum.
 Step number   3 out of a maximum of   78
 All quantities printed in internal units (Hartrees-Bohrs-Radians)
 Mixed Optimization -- En-DIIS/RFO-DIIS
 Swapping is turned off.
 Update second derivatives using D2CorX and points    1    2    3
 DE= -3.91D-05 DEPred=-4.11D-05 R= 9.53D-01
 TightC=F SS=  1.41D+00  RLast= 1.53D-01 DXNew= 8.4853D-01 4.5968D-01
 Trust test= 9.53D-01 RLast= 1.53D-01 DXMaxT set to 5.05D-01
 ITU=  1  1  0
     Eigenvalues ---    0.00147   0.00258   0.00321   0.00371   0.03162
     Eigenvalues ---    0.03220   0.03484   0.03887   0.04514   0.04556
     Eigenvalues ---    0.04781   0.04987   0.07405   0.08380   0.08386
     Eigenvalues ---    0.10735   0.12208   0.12329   0.14698   0.14849
     Eigenvalues ---    0.17139   0.18486   0.20951   0.23031   0.24767
     Eigenvalues ---    0.28392   0.30545   0.31952   0.32747   0.32862
     Eigenvalues ---    0.33255   0.33388   0.33712   0.36288   0.37764
     Eigenvalues ---    0.43878   0.43926   0.44115   0.44516
 En-DIIS/RFO-DIIS/Sim-DIIS IScMMF=       -3 using points:     3    2
 RFO step:  Lambda=-1.85083243D-06.
 DidBck=F Rises=F RFO-DIIS coefs:    0.88362    0.11638
 Iteration  1 RMS(Cart)=  0.00246737 RMS(Int)=  0.00000679
 Iteration  2 RMS(Cart)=  0.00000689 RMS(Int)=  0.00000035
 Iteration  3 RMS(Cart)=  0.00000000 RMS(Int)=  0.00000035
 Variable       Old X    -DE/DX   Delta X   Delta X   Delta X     New X
                                 (Linear)    (Quad)   (Total)
    R1        2.78037   0.00012  -0.00026   0.00063   0.00037   2.78074
    R2        1.92607  -0.00001  -0.00001  -0.00000  -0.00001   1.92606
    R3        1.92406  -0.00003  -0.00002  -0.00005  -0.00007   1.92399
    R4        2.89551   0.00003  -0.00008   0.00002  -0.00006   2.89545
    R5        2.07353   0.00003  -0.00001   0.00011   0.00010   2.07363
    R6        2.08391  -0.00001  -0.00004   0.00000  -0.00003   2.08387
    R7        2.90769   0.00006  -0.00012   0.00028   0.00016   2.90785
    R8        2.07635  -0.00001   0.00000  -0.00004  -0.00004   2.07631
    R9        2.07846  -0.00001  -0.00001  -0.00000  -0.00002   2.07844
   R10        2.77842   0.00015  -0.00010   0.00036   0.00026   2.77868
   R11        2.06865  -0.00002  -0.00002  -0.00001  -0.00004   2.06861
   R12        2.07319   0.00002   0.00003   0.00006   0.00009   2.07328
   R13        1.92679  -0.00003  -0.00002  -0.00009  -0.00011   1.92668
   R14        1.92431  -0.00001  -0.00003  -0.00006  -0.00009   1.92422
    A1        1.89908   0.00007  -0.00010   0.00032   0.00021   1.89929
    A2        1.90472  -0.00003   0.00012  -0.00032  -0.00019   1.90452
    A3        1.83732  -0.00001   0.00011  -0.00012  -0.00001   1.83731
    A4        1.94426   0.00008  -0.00013   0.00037   0.00024   1.94450
    A5        1.87906  -0.00000   0.00031  -0.00018   0.00012   1.87918
    A6        1.98182  -0.00005  -0.00071   0.00055  -0.00016   1.98166
    A7        1.90853  -0.00003   0.00015  -0.00043  -0.00028   1.90825
    A8        1.89427  -0.00002   0.00011  -0.00011   0.00000   1.89428
    A9        1.85275   0.00001   0.00032  -0.00027   0.00005   1.85280
   A10        2.00336   0.00006  -0.00008   0.00027   0.00018   2.00354
   A11        1.89124  -0.00002   0.00014  -0.00016  -0.00001   1.89123
   A12        1.90455  -0.00002   0.00001   0.00004   0.00005   1.90460
   A13        1.90885  -0.00001  -0.00024   0.00032   0.00008   1.90893
   A14        1.89668  -0.00002   0.00021  -0.00039  -0.00018   1.89650
   A15        1.85336   0.00000  -0.00003  -0.00011  -0.00014   1.85322
   A16        2.03218   0.00006  -0.00059   0.00084   0.00025   2.03243
   A17        1.90473  -0.00003   0.00035  -0.00057  -0.00022   1.90451
   A18        1.89620  -0.00003  -0.00013   0.00002  -0.00011   1.89609
   A19        1.87679  -0.00001   0.00022  -0.00025  -0.00003   1.87676
   A20        1.88281   0.00000   0.00010   0.00034   0.00044   1.88325
   A21        1.86425  -0.00001   0.00010  -0.00048  -0.00038   1.86387
   A22        1.90573   0.00002   0.00013   0.00030   0.00043   1.90616
   A23        1.90340   0.00011   0.00009   0.00064   0.00073   1.90413
   A24        1.83818  -0.00003   0.00014   0.00010   0.00023   1.83842
    D1        1.15988  -0.00002  -0.00405  -0.00108  -0.00513   1.15475
    D2       -3.03092  -0.00001  -0.00375  -0.00150  -0.00525  -3.03616
    D3       -0.98516  -0.00003  -0.00357  -0.00163  -0.00520  -0.99036
    D4       -3.12713  -0.00001  -0.00390  -0.00122  -0.00513  -3.13225
    D5       -1.03474  -0.00000  -0.00360  -0.00164  -0.00525  -1.03999
    D6        1.01101  -0.00002  -0.00342  -0.00178  -0.00520   1.00582
    D7        1.02172   0.00002   0.00149   0.00075   0.00223   1.02395
    D8       -3.12246   0.00003   0.00123   0.00122   0.00245  -3.12001
    D9       -1.11159   0.00002   0.00127   0.00103   0.00230  -1.10928
   D10       -1.05314  -0.00001   0.00109   0.00102   0.00211  -1.05104
   D11        1.08587   0.00000   0.00083   0.00149   0.00233   1.08819
   D12        3.09673  -0.00001   0.00087   0.00131   0.00218   3.09891
   D13       -3.06706   0.00001   0.00057   0.00163   0.00219  -3.06486
   D14       -0.92805   0.00002   0.00031   0.00211   0.00241  -0.92563
   D15        1.08282   0.00000   0.00035   0.00192   0.00227   1.08509
   D16        1.05115  -0.00001   0.00263  -0.00324  -0.00061   1.05054
   D17       -1.07656  -0.00002   0.00248  -0.00306  -0.00058  -1.07713
   D18       -3.10316   0.00002   0.00225  -0.00219   0.00006  -3.10310
   D19       -1.07833  -0.00002   0.00269  -0.00347  -0.00078  -1.07912
   D20        3.07714  -0.00003   0.00254  -0.00328  -0.00075   3.07639
   D21        1.05054   0.00001   0.00230  -0.00242  -0.00012   1.05043
   D22       -3.09447  -0.00000   0.00274  -0.00330  -0.00056  -3.09503
   D23        1.06100  -0.00001   0.00259  -0.00311  -0.00052   1.06048
   D24       -0.96559   0.00003   0.00235  -0.00225   0.00011  -0.96549
   D25        0.91457  -0.00000  -0.00538  -0.00011  -0.00549   0.90908
   D26       -1.08549  -0.00004  -0.00567  -0.00073  -0.00640  -1.09189
   D27        3.05691  -0.00000  -0.00516  -0.00047  -0.00563   3.05128
   D28        1.05685  -0.00004  -0.00544  -0.00109  -0.00654   1.05031
   D29       -1.22132  -0.00001  -0.00488  -0.00098  -0.00587  -1.22719
   D30        3.06180  -0.00005  -0.00517  -0.00161  -0.00677   3.05502
         Item               Value     Threshold  Converged?
 Maximum Force            0.000154     0.000450     YES
 RMS     Force            0.000038     0.000300     YES
 Maximum Displacement     0.008788     0.001800     NO 
 RMS     Displacement     0.002468     0.001200     NO 
 Predicted change in Energy=-9.255067D-07
 GradGradGradGradGradGradGradGradGradGradGradGradGradGradGradGradGradGrad

                          Input orientation:                          
 ---------------------------------------------------------------------
 Center     Atomic      Atomic             Coordinates (Angstroms)
 Number     Number       Type             X           Y           Z
 ---------------------------------------------------------------------
[...]
 End of Minotr F.D. properties file   788 does not exist.

 **********************************************************************

            Population analysis using the CI density.

 **********************************************************************

 Orbital symmetries:
       Occupied  (A) (A) (A) (A) (A) (A) (A) (A) (A) (A) (A) (A)
                 (A) (A) (A) (A) (A) (A) (A) (A) (A)
       Virtual   (A) (A) (A) (A) (A) (A) (A) (A) (A) (A) (A) (A)
                 (A) (A) (A) (A) (A) (A) (A) (A) (A) (A) (A) (A)
                 (A) (A) (A) (A) (A) (A) (A) (A) (A) (A) (A) (A)
                 (A) (A) (A) (A) (A) (A) (A) (A) (A) (A) (A) (A)
                 (A) (A) (A) (A) (A) (A) (A) (A) (A) (A) (A) (A)
                 (A) (A) (A) (A) (A) (A) (A) (A) (A) (A) (A) (A)
                 (A) (A) (A) (A) (A) (A) (A) (A) (A) (A) (A) (A)
                 (A) (A) (A) (A) (A) (A) (A) (A) (A) (A) (A) (A)
                 (A) (A) (A) (A) (A) (A) (A) (A)
 The electronic state is 1-A.
 Alpha  occ. eigenvalues --  -14.30912 -14.30805 -10.20146 -10.19771 -10.17376
 Alpha  occ. eigenvalues --   -0.88002  -0.86427  -0.73734  -0.64733  -0.57006
 Alpha  occ. eigenvalues --   -0.49203  -0.47444  -0.44971  -0.43303  -0.40069
 Alpha  occ. eigenvalues --   -0.38141  -0.36036  -0.33516  -0.32379  -0.23985
 Alpha  occ. eigenvalues --   -0.23060
 Alpha virt. eigenvalues --    0.07446   0.11008   0.12667   0.14251   0.15182
 Alpha virt. eigenvalues --    0.16550   0.17463   0.19051   0.20184   0.21610
 Alpha virt. eigenvalues --    0.23744   0.24373   0.24932   0.30031   0.53725
 Alpha virt. eigenvalues --    0.54290   0.55416   0.56898   0.59393   0.61730
 Alpha virt. eigenvalues --    0.64913   0.69937   0.72427   0.72718   0.73773
 Alpha virt. eigenvalues --    0.78668   0.80550   0.82358   0.85786   0.87256
 Alpha virt. eigenvalues --    0.87704   0.88666   0.90794   0.92692   0.94370
 Alpha virt. eigenvalues --    0.95427   0.97816   0.98286   1.01801   1.08012
 Alpha virt. eigenvalues --    1.21393   1.31567   1.31985   1.40677   1.45708
 Alpha virt. eigenvalues --    1.49501   1.50629   1.59171   1.62601   1.73539
 Alpha virt. eigenvalues --    1.76759   1.80491   1.83593   1.87771   1.92610
 Alpha virt. eigenvalues --    1.94337   1.96653   2.02011   2.06867   2.08267
 Alpha virt. eigenvalues --    2.12502   2.14052   2.16742   2.23410   2.25620
 Alpha virt. eigenvalues --    2.27483   2.28025   2.29846   2.31018   2.31557
 Alpha virt. eigenvalues --    2.38477   2.40954   2.43798   2.47642   2.52223
 Alpha virt. eigenvalues --    2.55921   2.60340   2.65084   2.68704   2.69708
 Alpha virt. eigenvalues --    2.75732   2.80729   2.82627   2.87955   2.91542
 Alpha virt. eigenvalues --    2.92991   2.94335   2.97012   2.98913   3.23704
 Alpha virt. eigenvalues --    3.27847   3.31091   3.31667   3.34800   3.38780
 Alpha virt. eigenvalues --    3.46107   3.48450   3.57390   3.59627   3.95909
 Alpha virt. eigenvalues --    4.00593   4.39161   4.56329   4.66658
          Condensed to atoms (all electrons):
               1          2          3          4          5          6
     1  N    7.686254   0.329069  -0.069592   0.003815   0.001511  -0.175806
     2  C    0.329069   5.575642   0.424168  -0.048322   0.043169  -0.035762
     3  C   -0.069592   0.424168   5.229637   0.373445  -0.063313  -0.007528
     4  C    0.003815  -0.048322   0.373445   5.046853   0.284237  -0.010953
     5  N    0.001511   0.043169  -0.063313   0.284237   7.627408  -0.001276
     6  H   -0.175806  -0.035762  -0.007528  -0.010953  -0.001276   0.801507
     7  H   -0.187074  -0.089122   0.009238  -0.001638  -0.001544   0.161583
     8  H   -0.123342  -0.005614  -0.041192  -0.004158  -0.055146   0.032456
     9  H   -0.120368   0.116792  -0.063102   0.002978  -0.001979   0.044898
    10  H   -0.000308  -0.126485   0.229810  -0.044651  -0.035878   0.004140
    11  H   -0.023419  -0.063797   0.257114  -0.065263  -0.001503   0.030787
    12  H   -0.002318  -0.016867  -0.047512   0.270299  -0.088510   0.013152
    13  H   -0.000146   0.001381  -0.061310   0.305733  -0.074866   0.000792
    14  H    0.000028  -0.021336  -0.010351  -0.016383  -0.065694   0.000247
    15  H   -0.002433  -0.052009   0.004655  -0.032142  -0.184030   0.002972
               7          8          9         10         11         12
     1  N   -0.187074  -0.123342  -0.120368  -0.000308  -0.023419  -0.002318
     2  C   -0.089122  -0.005614   0.116792  -0.126485  -0.063797  -0.016867
     3  C    0.009238  -0.041192  -0.063102   0.229810   0.257114  -0.047512
     4  C   -0.001638  -0.004158   0.002978  -0.044651  -0.065263   0.270299
     5  N   -0.001544  -0.055146  -0.001979  -0.035878  -0.001503  -0.088510
     6  H    0.161583   0.032456   0.044898   0.004140   0.030787   0.013152
     7  H    0.852733   0.063865   0.048961   0.001332   0.003740   0.003765
     8  H    0.063865   0.881821   0.067279   0.032916   0.016325   0.008720
     9  H    0.048961   0.067279   0.757662   0.029177   0.020569   0.002024
    10  H    0.001332   0.032916   0.029177   0.755616   0.017669   0.013252
    11  H    0.003740   0.016325   0.020569   0.017669   0.689847   0.013597
    12  H    0.003765   0.008720   0.002024   0.013252   0.013597   0.686135
    13  H    0.000118   0.002074   0.000430   0.012286   0.011064  -0.002588
    14  H    0.000274   0.023665   0.001394   0.033241   0.002731   0.019275
    15  H    0.006229   0.079480   0.003656   0.012625   0.003107   0.034016
              13         14         15
     1  N   -0.000146   0.000028  -0.002433
     2  C    0.001381  -0.021336  -0.052009
     3  C   -0.061310  -0.010351   0.004655
     4  C    0.305733  -0.016383  -0.032142
     5  N   -0.074866  -0.065694  -0.184030
     6  H    0.000792   0.000247   0.002972
     7  H    0.000118   0.000274   0.006229
     8  H    0.002074   0.023665   0.079480
     9  H    0.000430   0.001394   0.003656
    10  H    0.012286   0.033241   0.012625
    11  H    0.011064   0.002731   0.003107
    12  H   -0.002588   0.019275   0.034016
    13  H    0.661539   0.019926   0.019844
    14  H    0.019926   0.737085   0.131710
    15  H    0.019844   0.131710   0.885910
 Mulliken charges:
               1
     1  N   -0.315873
     2  C   -0.030905
     3  C   -0.164170
     4  C   -0.063850
     5  N   -0.382585
     6  H    0.138792
     7  H    0.127540
     8  H    0.020850
     9  H    0.089629
    10  H    0.065258
    11  H    0.087433
    12  H    0.093560
    13  H    0.103721
    14  H    0.144188
    15  H    0.086411
 Sum of Mulliken charges =  -0.00000
 Mulliken charges with hydrogens summed into heavy atoms:
               1
     1  N   -0.049540
     2  C    0.079575
     3  C   -0.011479
     4  C    0.133431
     5  N   -0.151986
 Electronic spatial extent (au):  <R**2>=            536.5108
 Charge=             -0.0000 electrons
 Dipole moment (field-independent basis, Debye):
    X=              1.6925    Y=              1.3567    Z=              0.0619  Tot=              2.1700
 Quadrupole moment (field-independent basis, Debye-Ang):
   XX=            -35.2417   YY=            -36.3145   ZZ=            -34.0888
   XY=             -1.9021   XZ=             -0.7286   YZ=             -0.4009
 Traceless Quadrupole moment (field-independent basis, Debye-Ang):
   XX=             -0.0267   YY=             -1.0995   ZZ=              1.1262
   XY=             -1.9021   XZ=             -0.7286   YZ=             -0.4009
 Octapole moment (field-independent basis, Debye-Ang**2):
  XXX=             13.3507  YYY=              1.1983  ZZZ=             -2.1347  XYY=              1.1977
  XXY=              3.1871  XXZ=              0.2738  XZZ=             -0.9811  YZZ=              0.6976
  YYZ=             -0.5851  XYZ=              1.3807
 Hexadecapole moment (field-independent basis, Debye-Ang**3):
 XXXX=           -474.4861 YYYY=           -166.2072 ZZZZ=           -120.5788 XXXY=            -17.5277
 XXXZ=             -9.9054 YYYX=             -2.0125 YYYZ=             -0.0744 ZZZX=             -2.1324
 ZZZY=              1.9548 XXYY=           -108.7252 XXZZ=            -91.8987 YYZZ=            -47.4957
 XXYZ=             -1.7402 YYXZ=              0.1693 ZZXY=              1.2614
 N-N= 1.920512810755D+02 E-N=-9.164149119377D+02  KE= 2.277788136171D+02
 Evaluate density.
 Using the total density.
 Monte-Carlo method of calculating molar volume:
 based on  0.001 e/bohr**3 density envelope.
 Number of points per bohr**3 =   20 CutOff= 1.00D-04
 Using the CI density.
 There are       322 points.  Will hold       322 in memory.
 LenV=   536813624 MDV=   536870912.
 Box volume = 4187.611 fraction occupied=0.217
 Integrated density= 3.4788490022879735D+01 error=-7.2115099771202651D+00
 Molar volume =  910.350 bohr**3/mol ( 81.239 cm**3/mol)
 Recommended a0 for SCRF calculation =  4.00 angstrom (  7.56 bohr)
 ******************************Gaussian NBO Version 3.1******************************
             N A T U R A L   A T O M I C   O R B I T A L   A N D
          N A T U R A L   B O N D   O R B I T A L   A N A L Y S I S
 ******************************Gaussian NBO Version 3.1******************************
       /RESON  / : Allow strongly delocalized NBO set

 Analyzing the CI density

 Job title: XFNJVJPLKCPIBV-UHFFFAOYSA-N_conf_2                              

 Storage needed:     47690 in NPA ( 536869637 available)
 GSVD:  LWork=        7945 too small for GESVD, short by        6875 words or        6875 for optimal perf.


 NATURAL POPULATIONS:  Natural atomic orbital occupancies 
                                                          
   NAO  Atom  No  lang   Type(AO)    Occupancy
 --------------------------------------------
     1    N    1  S      Cor( 1S)     1.99948
     2    N    1  S      Val( 2S)     1.48192
     3    N    1  S      Ryd( 3S)     0.00589
     4    N    1  S      Ryd( 4S)     0.00011
     5    N    1  px     Val( 2p)     1.38833
     6    N    1  px     Ryd( 3p)     0.00434
     7    N    1  py     Val( 2p)     1.37760
     8    N    1  py     Ryd( 3p)     0.00145
     9    N    1  pz     Val( 2p)     1.34270
    10    N    1  pz     Ryd( 3p)     0.00133
    11    N    1  dxy    Ryd( 3d)     0.00081
    12    N    1  dxz    Ryd( 3d)     0.00077
    13    N    1  dyz    Ryd( 3d)     0.00083
    14    N    1  dx2y2  Ryd( 3d)     0.00047
    15    N    1  dz2    Ryd( 3d)     0.00042

    16    C    2  S      Cor( 1S)     1.99932
    17    C    2  S      Val( 2S)     1.05105
    18    C    2  S      Ryd( 3S)     0.00202
    19    C    2  S      Ryd( 4S)     0.00005
    20    C    2  px     Val( 2p)     1.08477
    21    C    2  px     Ryd( 3p)     0.00405
    22    C    2  py     Val( 2p)     1.10110
    23    C    2  py     Ryd( 3p)     0.00374
    24    C    2  pz     Val( 2p)     1.07296
    25    C    2  pz     Ryd( 3p)     0.00635
    26    C    2  dxy    Ryd( 3d)     0.00107
    27    C    2  dxz    Ryd( 3d)     0.00099
    28    C    2  dyz    Ryd( 3d)     0.00144
    29    C    2  dx2y2  Ryd( 3d)     0.00056
    30    C    2  dz2    Ryd( 3d)     0.00052

    31    C    3  S      Cor( 1S)     1.99930
    32    C    3  S      Val( 2S)     1.05921
    33    C    3  S      Ryd( 3S)     0.00112
    34    C    3  S      Ryd( 4S)     0.00002
    35    C    3  px     Val( 2p)     1.04514
    36    C    3  px     Ryd( 3p)     0.00236
    37    C    3  py     Val( 2p)     1.16619
    38    C    3  py     Ryd( 3p)     0.00245
    39    C    3  pz     Val( 2p)     1.20118
    40    C    3  pz     Ryd( 3p)     0.00315
    41    C    3  dxy    Ryd( 3d)     0.00069
    42    C    3  dxz    Ryd( 3d)     0.00074
    43    C    3  dyz    Ryd( 3d)     0.00098
    44    C    3  dx2y2  Ryd( 3d)     0.00035
    45    C    3  dz2    Ryd( 3d)     0.00035

    46    C    4  S      Cor( 1S)     1.99935
    47    C    4  S      Val( 2S)     1.03522
    48    C    4  S      Ryd( 3S)     0.00152
    49    C    4  S      Ryd( 4S)     0.00004
    50    C    4  px     Val( 2p)     1.08311
    51    C    4  px     Ryd( 3p)     0.00485
    52    C    4  py     Val( 2p)     1.07073
    53    C    4  py     Ryd( 3p)     0.00434
    54    C    4  pz     Val( 2p)     1.09832
    55    C    4  pz     Ryd( 3p)     0.00426
    56    C    4  dxy    Ryd( 3d)     0.00139
    57    C    4  dxz    Ryd( 3d)     0.00089
    58    C    4  dyz    Ryd( 3d)     0.00120
    59    C    4  dx2y2  Ryd( 3d)     0.00050
    60    C    4  dz2    Ryd( 3d)     0.00069

    61    N    5  S      Cor( 1S)     1.99955
    62    N    5  S      Val( 2S)     1.46220
    63    N    5  S      Ryd( 3S)     0.00600
    64    N    5  S      Ryd( 4S)     0.00004
    65    N    5  px     Val( 2p)     1.47319
    66    N    5  px     Ryd( 3p)     0.00348
    67    N    5  py     Val( 2p)     1.36755
    68    N    5  py     Ryd( 3p)     0.00168
    69    N    5  pz     Val( 2p)     1.39117
    70    N    5  pz     Ryd( 3p)     0.00309
    71    N    5  dxy    Ryd( 3d)     0.00094
    72    N    5  dxz    Ryd( 3d)     0.00062
    73    N    5  dyz    Ryd( 3d)     0.00073
    74    N    5  dx2y2  Ryd( 3d)     0.00041
    75    N    5  dz2    Ryd( 3d)     0.00065

    76    H    6  S      Val( 1S)     0.65185
    77    H    6  S      Ryd( 2S)     0.05023
    78    H    6  px     Ryd( 2p)     0.00040
    79    H    6  py     Ryd( 2p)     0.00051
    80    H    6  pz     Ryd( 2p)     0.00036

    81    H    7  S      Val( 1S)     0.66510
    82    H    7  S      Ryd( 2S)     0.05263
    83    H    7  px     Ryd( 2p)     0.00053
    84    H    7  py     Ryd( 2p)     0.00035
    85    H    7  pz     Ryd( 2p)     0.00037

    86    H    8  S      Val( 1S)     0.79029
    87    H    8  S      Ryd( 2S)     0.04145
    88    H    8  px     Ryd( 2p)     0.00013
    89    H    8  py     Ryd( 2p)     0.00021
    90    H    8  pz     Ryd( 2p)     0.00024

    91    H    9  S      Val( 1S)     0.74467
    92    H    9  S      Ryd( 2S)     0.02347
    93    H    9  px     Ryd( 2p)     0.00022
    94    H    9  py     Ryd( 2p)     0.00020
    95    H    9  pz     Ryd( 2p)     0.00018

    96    H   10  S      Val( 1S)     0.77176
    97    H   10  S      Ryd( 2S)     0.01825
    98    H   10  px     Ryd( 2p)     0.00015
    99    H   10  py     Ryd( 2p)     0.00017
   100    H   10  pz     Ryd( 2p)     0.00023

   101    H   11  S      Val( 1S)     0.75550
   102    H   11  S      Ryd( 2S)     0.01376
   103    H   11  px     Ryd( 2p)     0.00017
   104    H   11  py     Ryd( 2p)     0.00022
   105    H   11  pz     Ryd( 2p)     0.00019

   106    H   12  S      Val( 1S)     0.76390
   107    H   12  S      Ryd( 2S)     0.01301
   108    H   12  px     Ryd( 2p)     0.00013
   109    H   12  py     Ryd( 2p)     0.00014
   110    H   12  pz     Ryd( 2p)     0.00029

   111    H   13  S      Val( 1S)     0.75722
   112    H   13  S      Ryd( 2S)     0.00874
   113    H   13  px     Ryd( 2p)     0.00023
   114    H   13  py     Ryd( 2p)     0.00021
   115    H   13  pz     Ryd( 2p)     0.00013

   116    H   14  S      Val( 1S)     0.65035
   117    H   14  S      Ryd( 2S)     0.04080
   118    H   14  px     Ryd( 2p)     0.00035
   119    H   14  py     Ryd( 2p)     0.00039
   120    H   14  pz     Ryd( 2p)     0.00056

   121    H   15  S      Val( 1S)     0.68654
   122    H   15  S      Ryd( 2S)     0.05455
   123    H   15  px     Ryd( 2p)     0.00053
   124    H   15  py     Ryd( 2p)     0.00040
   125    H   15  pz     Ryd( 2p)     0.00032


 Summary of Natural Population Analysis:                  
                                                          
                                       Natural Population 
                Natural  -----------------------------------------------
    Atom  No    Charge         Core      Valence    Rydberg      Total
 -----------------------------------------------------------------------
      N    1   -0.60646      1.99948     5.59055    0.01643     7.60646
      C    2   -0.33000      1.99932     4.30989    0.02079     6.33000
      C    3   -0.48325      1.99930     4.47173    0.01223     6.48325
      C    4   -0.30642      1.99935     4.28738    0.01969     6.30642
      N    5   -0.71128      1.99955     5.69411    0.01762     7.71128
      H    6    0.29665      0.00000     0.65185    0.05150     0.70335
      H    7    0.28103      0.00000     0.66510    0.05388     0.71897
      H    8    0.16768      0.00000     0.79029    0.04203     0.83232
      H    9    0.23126      0.00000     0.74467    0.02407     0.76874
      H   10    0.20943      0.00000     0.77176    0.01881     0.79057
      H   11    0.23017      0.00000     0.75550    0.01433     0.76983
      H   12    0.22253      0.00000     0.76390    0.01357     0.77747
      H   13    0.23347      0.00000     0.75722    0.00931     0.76653
      H   14    0.30755      0.00000     0.65035    0.04209     0.69245
      H   15    0.25766      0.00000     0.68654    0.05581     0.74234
 =======================================================================
   * Total *   -0.00000      9.99699    31.59084    0.41217    42.00000

                                 Natural Population      
 --------------------------------------------------------
   Core                       9.99699 ( 99.9699% of  10)
   Valence                   31.59084 ( 98.7214% of  32)
   Natural Minimal Basis     41.58783 ( 99.0186% of  42)
   Natural Rydberg Basis      0.41217 (  0.9814% of  42)
 --------------------------------------------------------

    Atom  No          Natural Electron Configuration
 ----------------------------------------------------------------------------
      N    1      [core]2S( 1.48)2p( 4.11)3S( 0.01)3p( 0.01)
      C    2      [core]2S( 1.05)2p( 3.26)3p( 0.01)
      C    3      [core]2S( 1.06)2p( 3.41)3p( 0.01)
      C    4      [core]2S( 1.04)2p( 3.25)3p( 0.01)
      N    5      [core]2S( 1.46)2p( 4.23)3S( 0.01)3p( 0.01)
      H    6            1S( 0.65)2S( 0.05)
      H    7            1S( 0.67)2S( 0.05)
      H    8            1S( 0.79)2S( 0.04)
      H    9            1S( 0.74)2S( 0.02)
      H   10            1S( 0.77)2S( 0.02)
      H   11            1S( 0.76)2S( 0.01)
      H   12            1S( 0.76)2S( 0.01)
      H   13            1S( 0.76)2S( 0.01)
      H   14            1S( 0.65)2S( 0.04)
      H   15            1S( 0.69)2S( 0.05)


 NBO analysis skipped by request.
 1\1\GINC-CN33\SP\RB3LYP TD-FC\6-31G(d,p)\C3H10N2\QDUEZ\09-Jul-2024\0\\
 # TD(NStates=10, Root=1) B3LYP/6-31G** SCRF=(Solvent=water) volume pop
 =NPA density=current Geom=AllCheck Guess=Read\\XFNJVJPLKCPIBV-UHFFFAOY
 SA-N_conf_2\\0,1\N,0,1.7910764392,0.3918716922,0.4754809108\C,0,0.7537
 680912,0.8086577017,-0.4813923\C,0,-0.1654424537,-0.359246753,-0.85381
 73774\C,0,-0.8969516511,-1.008845475,0.3339189637\N,0,-1.7889854323,-0
 .1353836178,1.1107418833\H,0,2.4144694701,-0.2711483795,0.016560054\H,
 0,2.3746910905,1.1939283736,0.7050351671\H,0,0.1609323793,1.6003213644
 ,-0.0060803491\H,0,1.1600489746,1.244626395,-1.4092374803\H,0,-0.90357
 09075,0.0004807391,-1.5838726765\H,0,0.4240661625,-1.131662777,-1.3691
 374746\H,0,-0.1579359739,-1.4247967522,1.0261069175\H,0,-1.4915590825,
 -1.8520166186,-0.0391858579\H,0,-2.435161119,0.3335113479,0.4766410368
 \H,0,-1.2394459874,0.6097027592,1.5346470129\\Version=EM64L-G16RevA.03
 \State=1-A\HF=-229.8527355\RMSD=9.342e-10\Dipole=0.5642016,0.0276326,-
 0.6401539\Quadrupole=0.6572338,0.7520827,-1.4093165,-0.1582154,1.23836
 68,0.1285414\PG=C01 [X(C3H10N2)]\\@


 ACHIEVEMENT--  THE MAN WHO ROWS THE BOAT GENERALLY 
                DOESN'T HAVE TIME TO ROCK IT.

                   -- FROM THE BACK OF A SUGAR PACKET
 Job cpu time:       0 days  0 hours 20 minutes 24.7 seconds.
 Elapsed time:       0 days  0 hours 14 minutes 57.5 seconds.
 File lengths (MBytes):  RWF=    192 Int=      0 D2E=      0 Chk=     12 Scr=      1
 Normal termination of Gaussian 16 at Tue Jul  9 19:24:59 2024.
