 Entering Gaussian System, Link 0=g16
 Initial command:
 /opt/sw/arch/manual/gaussian/G16_A03/g16/l1.exe "/scratch/1380800/Gau-12596.inp" -scrdir="/scratch/1380800/"
 Entering Link 1 = /opt/sw/arch/manual/gaussian/G16_A03/g16/l1.exe PID=     12597.
  
 Copyright (c) 1988,1990,1992,1993,1995,1998,2003,2009,2016,
            Gaussian, Inc.  All Rights Reserved.
  
 This is part of the Gaussian(R) 16 program.  It is based on
 the Gaussian(R) 09 system (copyright 2009, Gaussian, Inc.),
 the Gaussian(R) 03 system (copyright 2003, Gaussian, Inc.),
 the Gaussian(R) 98 system (copyright 1998, Gaussian, Inc.),
 the Gaussian(R) 94 system (copyright 1995, Gaussian, Inc.),
 the Gaussian 92(TM) system (copyright 1992, Gaussian, Inc.),
 the Gaussian 90(TM) system (copyright 1990, Gaussian, Inc.),
 the Gaussian 88(TM) system (copyright 1988, Gaussian, Inc.),
 the Gaussian 86(TM) system (copyright 1986, Carnegie Mellon
 University), and the Gaussian 82(TM) system (copyright 1983,
 Carnegie Mellon University). Gaussian is a federally registered
 trademark of Gaussian, Inc.
  
 This software contains proprietary and confidential information,
 including trade secrets, belonging to Gaussian, Inc.
  
 This software is provided under written license and may be
 used, copied, transmitted, or stored only in accord with that
 written license.
  
 The following legend is applicable only to US Government
 contracts under FAR:
  
                    RESTRICTED RIGHTS LEGEND
  
 Use, reproduction and disclosure by the US Government is
 subject to restrictions as set forth in subparagraphs (a)
 and (c) of the Commercial Computer Software - Restricted
 Rights clause in FAR 52.227-19.
  
 Gaussian, Inc.
 340 Quinnipiac St., Bldg. 40, Wallingford CT 06492
  
  
 ---------------------------------------------------------------
 Warning -- This program may not be used in any manner that
 competes with the business of Gaussian, Inc. or will provide
 assistance to any competitor of Gaussian, Inc.  The licensee
 of this program is prohibited from giving any competitor of
 Gaussian, Inc. access to this program.  By using this program,
 the user acknowledges that Gaussian, Inc. is engaged in the
 business of creating and licensing software in the field of
 computational chemistry and represents and warrants to the
 licensee that it is not a competitor of Gaussian, Inc. and that
 it will not use this program in any manner prohibited above.
 ---------------------------------------------------------------
  

 Cite this work as:
 Gaussian 16, Revision A.03,
 M. J. Frisch, G. W. Trucks, H. B. Schlegel, G. E. Scuseria, 
 M. A. Robb, J. R. Cheeseman, G. Scalmani, V. Barone, 
 G. A. Petersson, H. Nakatsuji, X. Li, M. Caricato, A. V. Marenich, 
 J. Bloino, B. G. Janesko, R. Gomperts, B. Mennucci, H. P. Hratchian, 
 J. V. Ortiz, A. F. Izmaylov, J. L. Sonnenberg, D. Williams-Young, 
 F. Ding, F. Lipparini, F. Egidi, J. Goings, B. Peng, A. Petrone, 
 T. Henderson, D. Ranasinghe, V. G. Zakrzewski, J. Gao, N. Rega, 
 G. Zheng, W. Liang, M. Hada, M. Ehara, K. Toyota, R. Fukuda, 
 J. Hasegawa, M. Ishida, T. Nakajima, Y. Honda, O. Kitao, H. Nakai, 
 T. Vreven, K. Throssell, J. A. Montgomery, Jr., J. E. Peralta, 
 F. Ogliaro, M. J. Bearpark, J. J. Heyd, E. N. Brothers, K. N. Kudin, 
 V. N. Staroverov, T. A. Keith, R. Kobayashi, J. Normand, 
 K. Raghavachari, A. P. Rendell, J. C. Burant, S. S. Iyengar, 
 J. Tomasi, M. Cossi, J. M. Millam, M. Klene, C. Adamo, R. Cammi, 
 J. W. Ochterski, R. L. Martin, K. Morokuma, O. Farkas, 
 J. B. Foresman, and D. J. Fox, Gaussian, Inc., Wallingford CT, 2016.
 
 ******************************************
 Gaussian 16:  ES64L-G16RevA.03 25-Dec-2016
                17-Jul-2024 
 ******************************************
 %nprocshared=3
 Will use up to    3 processors via shared memory.
 %mem=6GB
 %Chk=DDHUNHGZUHZNKB-UHFFFAOYSA-N_conf_1_0.chk
 -------------------------------------------------------
 # opt=CalcFc B3LYP/6-31G** SCRF=(Solvent=water) scf=xqc
 -------------------------------------------------------
 1/10=4,18=20,19=15,26=3,38=1/1,3;
 2/9=110,12=2,17=6,18=5,40=1/2;
 3/5=1,6=6,7=101,11=2,25=1,30=1,70=2201,71=2,72=1,74=-5,140=1/1,2,3;
 4//1;
 5/5=2,8=3,13=1,38=5,53=1/2,8;
 8/6=4,10=90,11=11/1;
 11/6=1,8=1,9=11,15=111,16=1/1,2,10;
 10/6=1,13=1/2;
 6/7=2,8=2,9=2,10=2,28=1/1;
 7/10=1,18=20,25=1/1,2,3,16;
 1/10=4,18=20,19=15,26=3/3(2);
 2/9=110/2;
 99//99;
 2/9=110/2;
 3/5=1,6=6,7=101,11=2,25=1,30=1,70=2205,71=1,72=1,74=-5/1,2,3;
 4/5=5,16=3,69=1/1;
 5/5=2,8=3,13=1,38=5,53=1/2,8;
 7//1,2,3,16;
 1/18=20,19=15,26=3/3(-5);
 2/9=110/2;
 6/7=2,8=2,9=2,10=2,19=2,28=1/1;
 99/9=1/99;
 ----------------------------------
 DDHUNHGZUHZNKB-UHFFFAOYSA-N_conf_1
 ----------------------------------
 Symbolic Z-matrix:
 Charge =  0 Multiplicity = 1
 N                     2.42356  -0.00014  -0.27062 
 C                     1.22887   0.3823    0.48681 
 C                    -0.08496  -0.25851  -0.03792 
 C                     0.02698  -1.79844  -0.00922 
 C                    -0.37354   0.18095  -1.48754 
 C                    -1.26434   0.14133   0.89318 
 N                    -1.51773   1.57966   0.95876 
 H                     3.23527   0.45407   0.14703 
 H                     2.35546   0.37106  -1.21705 
 H                     1.38602   0.08987   1.53203 
 H                     1.15399   1.47581   0.47034 
 H                     0.25914  -2.15834   0.99947 
 H                    -0.91347  -2.26701  -0.3215 
 H                     0.81029  -2.1624   -0.68291 
 H                    -0.34976   1.27097  -1.59131 
 H                     0.36106  -0.23104  -2.18813 
 H                    -1.36078  -0.16611  -1.81332 
 H                    -1.0627   -0.21392   1.91114 
 H                    -2.18545  -0.35557   0.56438 
 H                    -1.84076   1.91218   0.05074 
 H                    -2.28715   1.75328   1.60563 
 

 GradGradGradGradGradGradGradGradGradGradGradGradGradGradGradGradGradGrad
 Berny optimization.
 Initialization pass.
                           ----------------------------
                           !    Initial Parameters    !
                           ! (Angstroms and Degrees)  !
 --------------------------                            --------------------------
 ! Name  Definition              Value          Derivative Info.                !
 --------------------------------------------------------------------------------
 ! R1    R(1,2)                  1.4653         calculate D2E/DX2 analytically  !
 ! R2    R(1,8)                  1.0196         calculate D2E/DX2 analytically  !
 ! R3    R(1,9)                  1.0189         calculate D2E/DX2 analytically  !
 ! R4    R(2,3)                  1.5531         calculate D2E/DX2 analytically  !
 ! R5    R(2,10)                 1.0967         calculate D2E/DX2 analytically  !
 ! R6    R(2,11)                 1.0962         calculate D2E/DX2 analytically  !
 ! R7    R(3,4)                  1.5443         calculate D2E/DX2 analytically  !
 ! R8    R(3,5)                  1.542          calculate D2E/DX2 analytically  !
 ! R9    R(3,6)                  1.5549         calculate D2E/DX2 analytically  !
 ! R10   R(4,12)                 1.0958         calculate D2E/DX2 analytically  !
 ! R11   R(4,13)                 1.0961         calculate D2E/DX2 analytically  !
 ! R12   R(4,14)                 1.0954         calculate D2E/DX2 analytically  !
 ! R13   R(5,15)                 1.0952         calculate D2E/DX2 analytically  !
 ! R14   R(5,16)                 1.0955         calculate D2E/DX2 analytically  !
 ! R15   R(5,17)                 1.096          calculate D2E/DX2 analytically  !
 ! R16   R(6,7)                  1.462          calculate D2E/DX2 analytically  !
 ! R17   R(6,18)                 1.0969         calculate D2E/DX2 analytically  !
 ! R18   R(6,19)                 1.097          calculate D2E/DX2 analytically  !
 ! R19   R(7,20)                 1.0195         calculate D2E/DX2 analytically  !
 ! R20   R(7,21)                 1.0201         calculate D2E/DX2 analytically  !
 ! A1    A(2,1,8)              108.727          calculate D2E/DX2 analytically  !
 ! A2    A(2,1,9)              109.3026         calculate D2E/DX2 analytically  !
 ! A3    A(8,1,9)              105.7478         calculate D2E/DX2 analytically  !
 ! A4    A(1,2,3)              114.0397         calculate D2E/DX2 analytically  !
 ! A5    A(1,2,10)             107.8316         calculate D2E/DX2 analytically  !
 ! A6    A(1,2,11)             107.9553         calculate D2E/DX2 analytically  !
 ! A7    A(3,2,10)             109.4639         calculate D2E/DX2 analytically  !
 ! A8    A(3,2,11)             110.4095         calculate D2E/DX2 analytically  !
 ! A9    A(10,2,11)            106.8639         calculate D2E/DX2 analytically  !
 ! A10   A(2,3,4)              110.1112         calculate D2E/DX2 analytically  !
 ! A11   A(2,3,5)              110.9988         calculate D2E/DX2 analytically  !
 ! A12   A(2,3,6)              109.4647         calculate D2E/DX2 analytically  !
 ! A13   A(4,3,5)              108.3747         calculate D2E/DX2 analytically  !
 ! A14   A(4,3,6)              107.4738         calculate D2E/DX2 analytically  !
 ! A15   A(5,3,6)              110.3466         calculate D2E/DX2 analytically  !
 ! A16   A(3,4,12)             111.0983         calculate D2E/DX2 analytically  !
 ! A17   A(3,4,13)             111.0261         calculate D2E/DX2 analytically  !
 ! A18   A(3,4,14)             111.8228         calculate D2E/DX2 analytically  !
 ! A19   A(12,4,13)            107.6741         calculate D2E/DX2 analytically  !
 ! A20   A(12,4,14)            107.7877         calculate D2E/DX2 analytically  !
 ! A21   A(13,4,14)            107.2333         calculate D2E/DX2 analytically  !
 ! A22   A(3,5,15)             111.6323         calculate D2E/DX2 analytically  !
 ! A23   A(3,5,16)             111.6241         calculate D2E/DX2 analytically  !
 ! A24   A(3,5,17)             110.963          calculate D2E/DX2 analytically  !
 ! A25   A(15,5,16)            107.405          calculate D2E/DX2 analytically  !
 ! A26   A(15,5,17)            107.852          calculate D2E/DX2 analytically  !
 ! A27   A(16,5,17)            107.1472         calculate D2E/DX2 analytically  !
 ! A28   A(3,6,7)              114.2875         calculate D2E/DX2 analytically  !
 ! A29   A(3,6,18)             109.4524         calculate D2E/DX2 analytically  !
 ! A30   A(3,6,19)             109.9326         calculate D2E/DX2 analytically  !
 ! A31   A(7,6,18)             107.9911         calculate D2E/DX2 analytically  !
 ! A32   A(7,6,19)             108.273          calculate D2E/DX2 analytically  !
 ! A33   A(18,6,19)            106.6075         calculate D2E/DX2 analytically  !
 ! A34   A(6,7,20)             109.6242         calculate D2E/DX2 analytically  !
 ! A35   A(6,7,21)             109.0646         calculate D2E/DX2 analytically  !
 ! A36   A(20,7,21)            105.6812         calculate D2E/DX2 analytically  !
 ! D1    D(8,1,2,3)           -179.3165         calculate D2E/DX2 analytically  !
 ! D2    D(8,1,2,10)           -57.5299         calculate D2E/DX2 analytically  !
 ! D3    D(8,1,2,11)            57.5942         calculate D2E/DX2 analytically  !
 ! D4    D(9,1,2,3)             65.6985         calculate D2E/DX2 analytically  !
 ! D5    D(9,1,2,10)          -172.5149         calculate D2E/DX2 analytically  !
 ! D6    D(9,1,2,11)           -57.3908         calculate D2E/DX2 analytically  !
 ! D7    D(1,2,3,4)             58.3642         calculate D2E/DX2 analytically  !
 ! D8    D(1,2,3,5)            -61.6444         calculate D2E/DX2 analytically  !
 ! D9    D(1,2,3,6)            176.3052         calculate D2E/DX2 analytically  !
 ! D10   D(10,2,3,4)           -62.5177         calculate D2E/DX2 analytically  !
 ! D11   D(10,2,3,5)           177.4738         calculate D2E/DX2 analytically  !
 ! D12   D(10,2,3,6)            55.4234         calculate D2E/DX2 analytically  !
 ! D13   D(11,2,3,4)          -179.8912         calculate D2E/DX2 analytically  !
 ! D14   D(11,2,3,5)            60.1002         calculate D2E/DX2 analytically  !
 ! D15   D(11,2,3,6)           -61.9502         calculate D2E/DX2 analytically  !
 ! D16   D(2,3,4,12)            56.8971         calculate D2E/DX2 analytically  !
 ! D17   D(2,3,4,13)           176.6948         calculate D2E/DX2 analytically  !
 ! D18   D(2,3,4,14)           -63.5815         calculate D2E/DX2 analytically  !
 ! D19   D(5,3,4,12)           178.481          calculate D2E/DX2 analytically  !
 ! D20   D(5,3,4,13)           -61.7213         calculate D2E/DX2 analytically  !
 ! D21   D(5,3,4,14)            58.0024         calculate D2E/DX2 analytically  !
 ! D22   D(6,3,4,12)           -62.266          calculate D2E/DX2 analytically  !
 ! D23   D(6,3,4,13)            57.5316         calculate D2E/DX2 analytically  !
 ! D24   D(6,3,4,14)           177.2553         calculate D2E/DX2 analytically  !
 ! D25   D(2,3,5,15)           -52.4331         calculate D2E/DX2 analytically  !
 ! D26   D(2,3,5,16)            67.7894         calculate D2E/DX2 analytically  !
 ! D27   D(2,3,5,17)          -172.7712         calculate D2E/DX2 analytically  !
 ! D28   D(4,3,5,15)          -173.4699         calculate D2E/DX2 analytically  !
 ! D29   D(4,3,5,16)           -53.2473         calculate D2E/DX2 analytically  !
 ! D30   D(4,3,5,17)            66.1921         calculate D2E/DX2 analytically  !
 ! D31   D(6,3,5,15)            69.1021         calculate D2E/DX2 analytically  !
 ! D32   D(6,3,5,16)          -170.6754         calculate D2E/DX2 analytically  !
 ! D33   D(6,3,5,17)           -51.236          calculate D2E/DX2 analytically  !
 ! D34   D(2,3,6,7)             61.3897         calculate D2E/DX2 analytically  !
 ! D35   D(2,3,6,18)           -59.8587         calculate D2E/DX2 analytically  !
 ! D36   D(2,3,6,19)          -176.6351         calculate D2E/DX2 analytically  !
 ! D37   D(4,3,6,7)           -179.0339         calculate D2E/DX2 analytically  !
 ! D38   D(4,3,6,18)            59.7177         calculate D2E/DX2 analytically  !
 ! D39   D(4,3,6,19)           -57.0586         calculate D2E/DX2 analytically  !
 ! D40   D(5,3,6,7)            -61.0509         calculate D2E/DX2 analytically  !
 ! D41   D(5,3,6,18)           177.7007         calculate D2E/DX2 analytically  !
 ! D42   D(5,3,6,19)            60.9244         calculate D2E/DX2 analytically  !
 ! D43   D(3,6,7,20)            66.1411         calculate D2E/DX2 analytically  !
 ! D44   D(3,6,7,21)          -178.5925         calculate D2E/DX2 analytically  !
 ! D45   D(18,6,7,20)         -171.807          calculate D2E/DX2 analytically  !
 ! D46   D(18,6,7,21)          -56.5406         calculate D2E/DX2 analytically  !
 ! D47   D(19,6,7,20)          -56.7389         calculate D2E/DX2 analytically  !
 ! D48   D(19,6,7,21)           58.5274         calculate D2E/DX2 analytically  !
 --------------------------------------------------------------------------------
 Trust Radius=3.00D-01 FncErr=1.00D-07 GrdErr=1.00D-06 EigMax=2.50D+02 EigMin=1.00D-04
 Number of steps in this run=    114 maximum allowed number of steps=    126.
 GradGradGradGradGradGradGradGradGradGradGradGradGradGradGradGradGradGrad

                          Input orientation:                          
 ---------------------------------------------------------------------
 Center     Atomic      Atomic             Coordinates (Angstroms)
 Number     Number       Type             X           Y           Z
 ---------------------------------------------------------------------
      1          7           0        2.423557   -0.000140   -0.270622
      2          6           0        1.228871    0.382298    0.486807
      3          6           0       -0.084955   -0.258506   -0.037921
      4          6           0        0.026980   -1.798436   -0.009218
      5          6           0       -0.373544    0.180952   -1.487538
      6          6           0       -1.264336    0.141326    0.893177
      7          7           0       -1.517733    1.579656    0.958760
      8          1           0        3.235272    0.454071    0.147034
      9          1           0        2.355456    0.371056   -1.217051
     10          1           0        1.386024    0.089872    1.532032
     11          1           0        1.153993    1.475813    0.470339
     12          1           0        0.259135   -2.158341    0.999474
     13          1           0       -0.913467   -2.267010   -0.321504
     14          1           0        0.810286   -2.162402   -0.682912
     15          1           0       -0.349759    1.270971   -1.591308
     16          1           0        0.361057   -0.231036   -2.188131
     17          1           0       -1.360783   -0.166110   -1.813316
     18          1           0       -1.062697   -0.213918    1.911144
     19          1           0       -2.185447   -0.355573    0.564381
     20          1           0       -1.840765    1.912178    0.050739
     21          1           0       -2.287148    1.753278    1.605635
 ---------------------------------------------------------------------
                    Distance matrix (angstroms):
                    1          2          3          4          5
     1  N    0.000000
     2  C    1.465343   0.000000
     3  C    2.532496   1.553097   0.000000
     4  C    3.007621   2.538933   1.544260   0.000000
     5  C    3.055725   2.550747   1.542010   2.502764   0.000000
     6  C    3.869754   2.537575   1.554911   2.498898   2.542220
     7  N    4.420510   3.033190   2.534771   3.838571   3.041368
     8  H    1.019620   2.036232   3.400865   3.923180   3.971142
     9  H    1.018898   2.042658   2.782500   3.404021   2.748953
    10  H    2.081859   1.096679   2.179427   2.790727   3.496023
    11  H    2.083087   1.096200   2.191160   3.495832   2.800592
    12  H    3.309939   2.767320   2.191794   1.095849   3.472434
    13  H    4.034479   3.501687   2.191105   1.096141   2.764719
    14  H    2.729103   2.831775   2.200520   1.095401   2.745939
    15  H    3.324337   2.756878   2.196004   3.473644   1.095206
    16  H    2.825608   2.878294   2.196152   2.704813   1.095538
    17  H    4.090071   3.506797   2.188218   2.800919   1.096004
    18  H    4.118224   2.763240   2.181014   2.717698   3.490257
    19  H    4.697497   3.494001   2.187294   2.702906   2.789484
    20  H    4.684514   3.457362   2.793313   4.154603   2.741565
    21  H    5.365217   3.936210   3.405613   4.536255   3.962550
                    6          7          8          9         10
     6  C    0.000000
     7  N    1.461953   0.000000
     8  H    4.571762   4.951454   0.000000
     9  H    4.196276   4.603962   1.625329   0.000000
    10  H    2.726755   3.313594   2.338926   2.928535   0.000000
    11  H    2.794273   2.717988   2.340984   2.347613   1.761210
    12  H    2.760567   4.139026   4.050770   3.963003   2.570595
    13  H    2.720044   4.098909   4.983557   4.295027   3.778644
    14  H    3.477826   4.702952   3.662690   3.015172   3.210949
    15  H    2.878405   2.821755   4.067137   2.875431   3.763401
    16  H    3.503572   4.087956   3.766096   2.298508   3.872099
    17  H    2.725605   3.279747   5.035009   3.801909   4.336107
    18  H    1.096866   2.081106   4.693701   4.670286   2.496447
    19  H    1.097023   2.084824   5.496717   4.931662   3.726953
    20  H    2.043988   1.019520   5.282187   4.646571   3.990889
    21  H    2.037678   1.020093   5.857693   5.606413   4.032930
                   11         12         13         14         15
    11  H    0.000000
    12  H    3.779924   0.000000
    13  H    4.348578   1.769685   0.000000
    14  H    3.832066   1.770369   1.764336   0.000000
    15  H    2.560004   4.340862   3.800984   3.736166   0.000000
    16  H    3.257230   3.726354   3.042023   2.489511   1.765639
    17  H    3.772942   3.808530   2.615220   3.158565   1.771062
    18  H    3.137646   2.521738   3.036803   3.746169   3.870446
    19  H    3.809813   3.068429   2.460958   3.714133   3.265332
    20  H    3.055332   4.677478   4.296983   4.916148   2.308802
    21  H    3.634189   4.706565   4.665145   5.492184   3.769156
                   16         17         18         19         20
    16  H    0.000000
    17  H    1.763360   0.000000
    18  H    4.339520   3.736676   0.000000
    19  H    3.751868   2.523769   1.759092   0.000000
    20  H    3.801832   2.832731   2.930321   2.350602   0.000000
    21  H    5.034198   4.028824   2.337194   2.354104   1.625486
                   21
    21  H    0.000000
 Stoichiometry    C5H14N2
 Framework group  C1[X(C5H14N2)]
 Deg. of freedom    57
 Full point group                 C1      NOp   1
 Largest Abelian subgroup         C1      NOp   1
 Largest concise Abelian subgroup C1      NOp   1
                         Standard orientation:                         
 ---------------------------------------------------------------------
 Center     Atomic      Atomic             Coordinates (Angstroms)
 Number     Number       Type             X           Y           Z
 ---------------------------------------------------------------------
      1          7           0        2.250240   -0.812423   -0.062469
      2          6           0        0.835794   -0.887636   -0.437859
      3          6           0        0.000230    0.348570   -0.006887
      4          6           0        0.592352    1.632434   -0.628036
      5          6           0       -0.001578    0.506829    1.526979
      6          6           0       -1.454118    0.201298   -0.536916
      7          7           0       -2.167418   -0.965280   -0.019613
      8          1           0        2.721692   -1.654162   -0.392367
      9          1           0        2.330596   -0.830470    0.953095
     10          1           0        0.783110   -1.002567   -1.527226
     11          1           0        0.418408   -1.802308   -0.001032
     12          1           0        0.639495    1.556744   -1.720251
     13          1           0       -0.020091    2.507369   -0.381205
     14          1           0        1.605477    1.831876   -0.262380
     15          1           0       -0.304393   -0.418776    2.028012
     16          1           0        0.990496    0.775349    1.906309
     17          1           0       -0.691973    1.298948    1.838630
     18          1           0       -1.438659    0.131070   -1.631422
     19          1           0       -2.035320    1.097915   -0.288436
     20          1           0       -2.315789   -0.858877    0.983425
     21          1           0       -3.098890   -0.997165   -0.434261
 ---------------------------------------------------------------------
 Rotational constants (GHZ):           3.2741570           1.8404243           1.6386924
 Standard basis: 6-31G(d,p) (6D, 7F)
 There are   175 symmetry adapted cartesian basis functions of A   symmetry.
 There are   175 symmetry adapted basis functions of A   symmetry.
   175 basis functions,   294 primitive gaussians,   175 cartesian basis functions
    29 alpha electrons       29 beta electrons
       nuclear repulsion energy       342.0899001164 Hartrees.
 NAtoms=   21 NActive=   21 NUniq=   21 SFac= 1.00D+00 NAtFMM=   60 NAOKFM=F Big=F
 Integral buffers will be    131072 words long.
 Raffenetti 2 integral format.
 Two-electron integral symmetry is turned on.
 Force inversion solution in PCM.
 ------------------------------------------------------------------------------
 Polarizable Continuum Model (PCM)
 =================================
 Model                : PCM.
 Atomic radii         : UFF (Universal Force Field).
 Polarization charges : Total charges.
 Charge compensation  : None.
 Solution method      : Matrix inversion.
 Cavity type          : Scaled VdW (van der Waals Surface) (Alpha=1.100).
 Cavity algorithm     : GePol (No added spheres)
                        Default sphere list used, NSphG=   21.
                        Lebedev-Laikov grids with approx.  5.0 points / Ang**2.
                        Smoothing algorithm: York/Karplus (Gamma=1.0000).
                        Polarization charges: spherical gaussians, with
                                              point-specific exponents (IZeta= 3).
                        Self-potential: point-specific (ISelfS= 7).
                        Self-field    : sphere-specific E.n sum rule (ISelfD= 2).
 1st derivatives      : Analytical E(r).r(x)/FMM algorithm (CHGder, D1EAlg=3).
                        Cavity 1st derivative terms included.
 2nd derivatives      : Analytical E(r).r(xy)/FMM algorithm (CHGder, D2EAlg=3).
                        Cavity 2nd derivative terms included.
 Solvent              : Water, Eps=  78.355300 Eps(inf)=   1.777849
 ------------------------------------------------------------------------------
 One-electron integrals computed using PRISM.
 NBasis=   175 RedAO= T EigKep=  3.25D-03  NBF=   175
 NBsUse=   175 1.00D-06 EigRej= -1.00D+00 NBFU=   175
 ExpMin= 1.61D-01 ExpMax= 4.17D+03 ExpMxC= 6.27D+02 IAcc=3 IRadAn=         5 AccDes= 0.00D+00
 Harris functional with IExCor=  402 and IRadAn=       5 diagonalized for initial guess.
 HarFok:  IExCor=  402 AccDes= 0.00D+00 IRadAn=         5 IDoV= 1 UseB2=F ITyADJ=14
 ICtDFT=  3500011 ScaDFX=  1.000000  1.000000  1.000000  1.000000
 FoFCou: FMM=F IPFlag=           0 FMFlag=      100000 FMFlg1=           0
         NFxFlg=           0 DoJE=T BraDBF=F KetDBF=T FulRan=T
         wScrn=  0.000000 ICntrl=       500 IOpCl=  0 I1Cent=   200000004 NGrid=           0
         NMat0=    1 NMatS0=      1 NMatT0=    0 NMatD0=    1 NMtDS0=    0 NMtDT0=    0
 Petite list used in FoFCou.
 Keep R1 ints in memory in canonical form, NReq=121590815.
 Requested convergence on RMS density matrix=1.00D-08 within  32 cycles.
 Requested convergence on MAX density matrix=1.00D-06.
 Requested convergence on             energy=1.00D-06.
 No special actions if energy rises.
 Inv3:  Mode=1 IEnd=     5738067.
 Iteration    1 A*A^-1 deviation from unit magnitude is 3.11D-15 for    229.
 Iteration    1 A*A^-1 deviation from orthogonality  is 1.58D-15 for   1362    575.
 Iteration    1 A^-1*A deviation from unit magnitude is 3.33D-15 for    762.
 Iteration    1 A^-1*A deviation from orthogonality  is 2.20D-15 for    907    669.
 Error on total polarization charges =  0.00810
 SCF Done:  E(RB3LYP) =  -308.480128817     A.U. after   11 cycles
            NFock= 11  Conv=0.19D-08     -V/T= 2.0099
 QCSCF skips out because SCF is already converged.
 DoSCS=F DFT=T ScalE2(SS,OS)=  1.000000  1.000000
 Range of M.O.s used for correlation:     1   175
 NBasis=   175 NAE=    29 NBE=    29 NFC=     0 NFV=     0
 NROrb=    175 NOA=    29 NOB=    29 NVA=   146 NVB=   146
 Symmetrizing basis deriv contribution to polar:
 IMax=3 JMax=2 DiffMx= 0.00D+00
 G2DrvN: will do    22 centers at a time, making    1 passes.
 Calling FoFCou, ICntrl=  3107 FMM=F I1Cent=   0 AccDes= 0.00D+00.
 NEqPCM:  Using equilibrium solvation (IEInf=0, Eps=  78.3553, EpsInf=   1.7778)
 G2PCM: DoFxE=T DoFxN=T DoGrad=T DoDP/DQ/DG/TGxP=FFFF NFrqRd=   0 IEInf=0 SqF1=F DoCFld=F IF1Alg=4.
 End of G2Drv F.D. properties file   721 does not exist.
 End of G2Drv F.D. properties file   722 does not exist.
 End of G2Drv F.D. properties file   788 does not exist.
          IDoAtm=111111111111111111111
 NEqPCM:  Using equilibrium solvation (IEInf=0, Eps=  78.3553, EpsInf=   1.7778)
          Differentiating once with respect to nuclear coordinates.
 Keep R1 ints in memory in canonical form, NReq=124365182.
          There are    66 degrees of freedom in the 1st order CPHF.  IDoFFX=6 NUNeed=     0.
     60 vectors produced by pass  0 Test12= 6.42D-15 1.52D-09 XBig12= 8.25D-02 5.22D-02.
 AX will form    60 AO Fock derivatives at one time.
     60 vectors produced by pass  1 Test12= 6.42D-15 1.52D-09 XBig12= 4.71D-03 1.16D-02.
     60 vectors produced by pass  2 Test12= 6.42D-15 1.52D-09 XBig12= 5.40D-05 1.21D-03.
     60 vectors produced by pass  3 Test12= 6.42D-15 1.52D-09 XBig12= 1.03D-07 3.86D-05.
     60 vectors produced by pass  4 Test12= 6.42D-15 1.52D-09 XBig12= 1.08D-10 1.42D-06.
     22 vectors produced by pass  5 Test12= 6.42D-15 1.52D-09 XBig12= 7.15D-14 2.96D-08.
 InvSVY:  IOpt=1 It=  1 EMax= 2.78D-16
 Solved reduced A of dimension   322 with    66 vectors.
 End of Minotr F.D. properties file   721 does not exist.
 End of Minotr F.D. properties file   722 does not exist.
 End of Minotr F.D. properties file   788 does not exist.

 **********************************************************************

            Population analysis using the SCF density.

 **********************************************************************

 Orbital symmetries:
       Occupied  (A) (A) (A) (A) (A) (A) (A) (A) (A) (A) (A) (A)
                 (A) (A) (A) (A) (A) (A) (A) (A) (A) (A) (A) (A)
                 (A) (A) (A) (A) (A)
       Virtual   (A) (A) (A) (A) (A) (A) (A) (A) (A) (A) (A) (A)
                 (A) (A) (A) (A) (A) (A) (A) (A) (A) (A) (A) (A)
                 (A) (A) (A) (A) (A) (A) (A) (A) (A) (A) (A) (A)
                 (A) (A) (A) (A) (A) (A) (A) (A) (A) (A) (A) (A)
                 (A) (A) (A) (A) (A) (A) (A) (A) (A) (A) (A) (A)
                 (A) (A) (A) (A) (A) (A) (A) (A) (A) (A) (A) (A)
                 (A) (A) (A) (A) (A) (A) (A) (A) (A) (A) (A) (A)
                 (A) (A) (A) (A) (A) (A) (A) (A) (A) (A) (A) (A)
                 (A) (A) (A) (A) (A) (A) (A) (A) (A) (A) (A) (A)
                 (A) (A) (A) (A) (A) (A) (A) (A) (A) (A) (A) (A)
                 (A) (A) (A) (A) (A) (A) (A) (A) (A) (A) (A) (A)
                 (A) (A) (A) (A) (A) (A) (A) (A) (A) (A) (A) (A)
                 (A) (A)
 The electronic state is 1-A.
 Alpha  occ. eigenvalues --  -14.30580 -14.30398 -10.19856 -10.19453 -10.19213
 Alpha  occ. eigenvalues --  -10.17030 -10.16537  -0.88122  -0.86667  -0.78367
 Alpha  occ. eigenvalues --   -0.67970  -0.65822  -0.63666  -0.52957  -0.48970
 Alpha  occ. eigenvalues --   -0.47067  -0.45133  -0.43519  -0.43200  -0.40166
 Alpha  occ. eigenvalues --   -0.39603  -0.37904  -0.36454  -0.36108  -0.32151
 Alpha  occ. eigenvalues --   -0.31608  -0.31355  -0.23714  -0.21926
 Alpha virt. eigenvalues --    0.07434   0.09399   0.11719   0.13325   0.14172
 Alpha virt. eigenvalues --    0.14343   0.16156   0.16550   0.18661   0.19190
 Alpha virt. eigenvalues --    0.19700   0.20908   0.21292   0.22501   0.22788
 Alpha virt. eigenvalues --    0.25531   0.26393   0.26626   0.28366   0.28825
 Alpha virt. eigenvalues --    0.51524   0.51963   0.53373   0.54095   0.54784
 Alpha virt. eigenvalues --    0.59591   0.62015   0.62173   0.66084   0.69906
 Alpha virt. eigenvalues --    0.71720   0.72356   0.72861   0.74605   0.76356
 Alpha virt. eigenvalues --    0.79747   0.81822   0.84195   0.85435   0.85540
 Alpha virt. eigenvalues --    0.87234   0.87961   0.88640   0.89650   0.90703
 Alpha virt. eigenvalues --    0.91662   0.92980   0.93743   0.94551   0.96032
 Alpha virt. eigenvalues --    0.97348   0.98099   0.99564   1.03288   1.06519
 Alpha virt. eigenvalues --    1.07298   1.25997   1.27127   1.30508   1.33819
 Alpha virt. eigenvalues --    1.44115   1.46239   1.47359   1.48742   1.53964
 Alpha virt. eigenvalues --    1.55078   1.63445   1.70196   1.72338   1.77805
 Alpha virt. eigenvalues --    1.79578   1.82746   1.83281   1.83947   1.87533
 Alpha virt. eigenvalues --    1.88468   1.92974   1.93864   1.94595   2.01368
 Alpha virt. eigenvalues --    2.02277   2.05605   2.06119   2.08224   2.11136
 Alpha virt. eigenvalues --    2.11481   2.11679   2.14356   2.14638   2.15200
 Alpha virt. eigenvalues --    2.17541   2.18299   2.24400   2.25834   2.28525
 Alpha virt. eigenvalues --    2.31146   2.33523   2.35942   2.36567   2.38539
 Alpha virt. eigenvalues --    2.43611   2.45073   2.50759   2.52021   2.56006
 Alpha virt. eigenvalues --    2.59687   2.61975   2.67634   2.68340   2.69552
 Alpha virt. eigenvalues --    2.71342   2.73282   2.74427   2.78695   2.81820
 Alpha virt. eigenvalues --    2.83286   2.86044   2.89480   2.91445   2.92961
 Alpha virt. eigenvalues --    2.95523   2.96886   2.98785   2.98881   3.01630
 Alpha virt. eigenvalues --    3.18506   3.23959   3.29667   3.30926   3.31802
 Alpha virt. eigenvalues --    3.33071   3.43293   3.43623   3.44090   3.45165
 Alpha virt. eigenvalues --    3.50563   3.51448   3.55089   3.57015   3.99463
 Alpha virt. eigenvalues --    4.06101   4.35373   4.55677   4.59175   4.59566
 Alpha virt. eigenvalues --    4.74237
          Condensed to atoms (all electrons):
               1          2          3          4          5          6
     1  N    6.821604   0.288742  -0.049589  -0.003562  -0.004463   0.002853
     2  C    0.288742   4.850302   0.369964  -0.049564  -0.055665  -0.045277
     3  C   -0.049589   0.369964   4.892643   0.366020   0.376607   0.373836
     4  C   -0.003562  -0.049564   0.366020   4.983053  -0.061378  -0.047437
     5  C   -0.004463  -0.055665   0.376607  -0.061378   5.008985  -0.050671
     6  C    0.002853  -0.045277   0.373836  -0.047437  -0.050671   4.845547
     7  N    0.000134  -0.003561  -0.049002   0.003417  -0.004877   0.287608
     8  H    0.339743  -0.033467   0.005566   0.000123   0.000075  -0.000179
     9  H    0.339256  -0.040106  -0.006882  -0.000226   0.005923   0.000018
    10  H   -0.041731   0.375878  -0.028707  -0.008066   0.005837  -0.004806
    11  H   -0.055230   0.384919  -0.043984   0.006754  -0.010298  -0.003981
    12  H    0.000008  -0.005428  -0.029293   0.374205   0.005679  -0.005036
    13  H    0.000184   0.005432  -0.031918   0.375978  -0.005199  -0.005553
    14  H    0.010943  -0.006521  -0.026560   0.376015  -0.006108   0.004595
    15  H   -0.000376  -0.005004  -0.029206   0.005667   0.371497  -0.004805
    16  H    0.001744  -0.004568  -0.027902  -0.006999   0.378031   0.005028
    17  H    0.000063   0.005110  -0.029669  -0.003642   0.376658  -0.005993
    18  H   -0.000016  -0.009169  -0.027159  -0.005143   0.006040   0.376955
    19  H   -0.000072   0.006131  -0.044216  -0.002777  -0.010293   0.384662
    20  H   -0.000020  -0.000199  -0.007061   0.000017   0.006094  -0.039317
    21  H   -0.000001   0.000141   0.005564  -0.000196   0.000085  -0.031410
               7          8          9         10         11         12
     1  N    0.000134   0.339743   0.339256  -0.041731  -0.055230   0.000008
     2  C   -0.003561  -0.033467  -0.040106   0.375878   0.384919  -0.005428
     3  C   -0.049002   0.005566  -0.006882  -0.028707  -0.043984  -0.029293
     4  C    0.003417   0.000123  -0.000226  -0.008066   0.006754   0.374205
     5  C   -0.004877   0.000075   0.005923   0.005837  -0.010298   0.005679
     6  C    0.287608  -0.000179   0.000018  -0.004806  -0.003981  -0.005036
     7  N    6.818588   0.000006  -0.000003   0.000136   0.011893  -0.000001
     8  H    0.000006   0.477969  -0.032247  -0.004852  -0.003106  -0.000040
     9  H   -0.000003  -0.032247   0.482790   0.006823  -0.005475   0.000044
    10  H    0.000136  -0.004852   0.006823   0.645713  -0.044595   0.004220
    11  H    0.011893  -0.003106  -0.005475  -0.044595   0.675013  -0.000056
    12  H   -0.000001  -0.000040   0.000044   0.004220  -0.000056   0.620247
    13  H    0.000011   0.000002  -0.000041  -0.000084  -0.000140  -0.032356
    14  H   -0.000100  -0.000203  -0.000329  -0.000316   0.000242  -0.029924
    15  H    0.002079  -0.000033   0.000432  -0.000025   0.005090  -0.000221
    16  H    0.000067  -0.000116   0.001507  -0.000091   0.000153   0.000051
    17  H   -0.000545   0.000003  -0.000201  -0.000172  -0.000017  -0.000074
    18  H   -0.041418  -0.000005   0.000003   0.005136  -0.000609   0.004563
    19  H   -0.054693   0.000003   0.000003  -0.000052   0.000227  -0.000397
    20  H    0.339794  -0.000000  -0.000004   0.000020  -0.000253   0.000002
    21  H    0.338041  -0.000000  -0.000000  -0.000052  -0.000151  -0.000001
              13         14         15         16         17         18
     1  N    0.000184   0.010943  -0.000376   0.001744   0.000063  -0.000016
     2  C    0.005432  -0.006521  -0.005004  -0.004568   0.005110  -0.009169
     3  C   -0.031918  -0.026560  -0.029206  -0.027902  -0.029669  -0.027159
     4  C    0.375978   0.376015   0.005667  -0.006999  -0.003642  -0.005143
     5  C   -0.005199  -0.006108   0.371497   0.378031   0.376658   0.006040
     6  C   -0.005553   0.004595  -0.004805   0.005028  -0.005993   0.376955
     7  N    0.000011  -0.000100   0.002079   0.000067  -0.000545  -0.041418
     8  H    0.000002  -0.000203  -0.000033  -0.000116   0.000003  -0.000005
     9  H   -0.000041  -0.000329   0.000432   0.001507  -0.000201   0.000003
    10  H   -0.000084  -0.000316  -0.000025  -0.000091  -0.000172   0.005136
    11  H   -0.000140   0.000242   0.005090   0.000153  -0.000017  -0.000609
    12  H   -0.032356  -0.029924  -0.000221   0.000051  -0.000074   0.004563
    13  H    0.623287  -0.032745  -0.000023  -0.000119   0.003266  -0.000406
    14  H   -0.032745   0.603062   0.000033   0.004680  -0.000278  -0.000107
    15  H   -0.000023   0.000033   0.613242  -0.031861  -0.031475  -0.000114
    16  H   -0.000119   0.004680  -0.031861   0.605221  -0.030663  -0.000170
    17  H    0.003266  -0.000278  -0.031475  -0.030663   0.607611  -0.000012
    18  H   -0.000406  -0.000107  -0.000114  -0.000170  -0.000012   0.640206
    19  H    0.005662  -0.000067   0.000295  -0.000086   0.005256  -0.046040
    20  H   -0.000012   0.000002   0.001414  -0.000189   0.000469   0.006726
    21  H   -0.000006   0.000003  -0.000109   0.000003  -0.000055  -0.005082
              19         20         21
     1  N   -0.000072  -0.000020  -0.000001
     2  C    0.006131  -0.000199   0.000141
     3  C   -0.044216  -0.007061   0.005564
     4  C   -0.002777   0.000017  -0.000196
     5  C   -0.010293   0.006094   0.000085
     6  C    0.384662  -0.039317  -0.031410
     7  N   -0.054693   0.339794   0.338041
     8  H    0.000003  -0.000000  -0.000000
     9  H    0.000003  -0.000004  -0.000000
    10  H   -0.000052   0.000020  -0.000052
    11  H    0.000227  -0.000253  -0.000151
    12  H   -0.000397   0.000002  -0.000001
    13  H    0.005662  -0.000012  -0.000006
    14  H   -0.000067   0.000002   0.000003
    15  H    0.000295   0.001414  -0.000109
    16  H   -0.000086  -0.000189   0.000003
    17  H    0.005256   0.000469  -0.000055
    18  H   -0.046040   0.006726  -0.005082
    19  H    0.686687  -0.005855  -0.003597
    20  H   -0.005855   0.480195  -0.032212
    21  H   -0.003597  -0.032212   0.477353
 Mulliken charges:
               1
     1  N   -0.650214
     2  C   -0.028088
     3  C    0.040948
     4  C   -0.302259
     5  C   -0.332558
     6  C   -0.036637
     7  N   -0.647575
     8  H    0.250757
     9  H    0.248715
    10  H    0.089787
    11  H    0.083603
    12  H    0.093808
    13  H    0.094778
    14  H    0.103683
    15  H    0.103505
    16  H    0.106280
    17  H    0.104360
    18  H    0.095820
    19  H    0.079218
    20  H    0.250388
    21  H    0.251681
 Sum of Mulliken charges =   0.00000
 Mulliken charges with hydrogens summed into heavy atoms:
               1
     1  N   -0.150743
     2  C    0.145302
     3  C    0.040948
     4  C   -0.009990
     5  C   -0.018413
     6  C    0.138401
     7  N   -0.145506
 APT charges:
               1
     1  N   -1.285938
     2  C   -0.495538
     3  C   -0.149846
     4  C   -1.068169
     5  C   -1.057829
     6  C   -0.581172
     7  N   -1.334236
     8  H    0.706488
     9  H    0.440455
    10  H    0.350754
    11  H    0.314413
    12  H    0.348473
    13  H    0.391698
    14  H    0.375094
    15  H    0.320891
    16  H    0.379760
    17  H    0.393956
    18  H    0.360034
    19  H    0.379769
    20  H    0.456212
    21  H    0.754731
 Sum of APT charges =   0.00000
 APT charges with hydrogens summed into heavy atoms:
               1
     1  N   -0.138995
     2  C    0.169628
     3  C   -0.149846
     4  C    0.047096
     5  C    0.036778
     6  C    0.158631
     7  N   -0.123292
 Electronic spatial extent (au):  <R**2>=            910.3420
 Charge=              0.0000 electrons
 Dipole moment (field-independent basis, Debye):
    X=             -1.5546    Y=             -0.1820    Z=              1.1441  Tot=              1.9388
 Quadrupole moment (field-independent basis, Debye-Ang):
   XX=            -42.7973   YY=            -47.2615   ZZ=            -43.7816
   XY=             -4.8564   XZ=              1.3529   YZ=             -0.2792
 Traceless Quadrupole moment (field-independent basis, Debye-Ang):
   XX=              1.8162   YY=             -2.6480   ZZ=              0.8318
   XY=             -4.8564   XZ=              1.3529   YZ=             -0.2792
 Octapole moment (field-independent basis, Debye-Ang**2):
  XXX=            -27.4456  YYY=             -3.6218  ZZZ=              0.2906  XYY=             10.5439
  XXY=            -13.3126  XXZ=              6.1536  XZZ=             -1.1304  YZZ=             -4.2945
  YYZ=              1.3705  XYZ=              1.3390
 Hexadecapole moment (field-independent basis, Debye-Ang**3):
 XXXX=           -552.3481 YYYY=           -337.3647 ZZZZ=           -239.7592 XXXY=            -12.7927
 XXXZ=             16.6102 YYYX=            -26.2244 YYYZ=              2.5451 ZZZX=              0.9994
 ZZZY=             -2.0073 XXYY=           -142.0354 XXZZ=           -129.7881 YYZZ=            -94.6380
 XXYZ=              1.6258 YYXZ=             -4.2515 ZZXY=             -0.7097
 N-N= 3.420899001164D+02 E-N=-1.399566888590D+03  KE= 3.054568565620D+02
  Exact polarizability:   0.000   0.000   0.000   0.000   0.000   0.000
 Approx polarizability:  93.482  -0.452  88.473   1.264   0.780  93.060
 D2PCM: PCM CHGder 2nd derivatives, FixD1E=F FixD2E=F DoIter=F DoCFld=F I1PDM=0
 Calling FoFJK, ICntrl=    100147 FMM=F ISym2X=0 I1Cent= 0 IOpClX= 0 NMat=1 NMatS=1 NMatT=0.
 ***** Axes restored to original set *****
 -------------------------------------------------------------------
 Center     Atomic                   Forces (Hartrees/Bohr)
 Number     Number              X              Y              Z
 -------------------------------------------------------------------
      1        7           0.005205061   -0.011233753   -0.004447539
      2        6           0.001079574    0.008133764   -0.002647035
      3        6           0.000794232   -0.003629405    0.002176022
      4        6           0.000121999   -0.001108934    0.000194895
      5        6           0.000058231    0.002809054    0.000344436
      6        6          -0.003585339    0.001187114   -0.002657266
      7        7           0.005167756    0.011854124    0.002268876
      8        1          -0.001794772   -0.000330194   -0.001403304
      9        1           0.000977644    0.000943213    0.001614891
     10        1          -0.001198473   -0.001487780    0.000198259
     11        1          -0.010479513    0.002161194    0.004497519
     12        1           0.000025611   -0.000182966    0.000342934
     13        1          -0.000639177    0.000912405    0.000399987
     14        1           0.000168184    0.002477722    0.001679749
     15        1          -0.000345468    0.000689866   -0.000355755
     16        1           0.000097519   -0.000041504    0.000792640
     17        1           0.000144367   -0.000497456    0.000255768
     18        1           0.001652123   -0.000054741   -0.000139759
     19        1           0.001589447   -0.010912294   -0.003112124
     20        1          -0.000635671   -0.001146928    0.001922662
     21        1           0.001596665   -0.000542502   -0.001925855
 -------------------------------------------------------------------
 Cartesian Forces:  Max     0.011854124 RMS     0.003508134
 FormGI is forming the generalized inverse of G from B-inverse, IUseBI=4.

 GradGradGradGradGradGradGradGradGradGradGradGradGradGradGradGradGradGrad
 Berny optimization.
 Internal  Forces:  Max     0.011020962 RMS     0.002818456
 Search for a local minimum.
 Step number   1 out of a maximum of  114
 All quantities printed in internal units (Hartrees-Bohrs-Radians)
 Mixed Optimization -- RFO/linear search
 Second derivative matrix not updated -- analytic derivatives used.
 ITU=  0
     Eigenvalues ---    0.00124   0.00166   0.00192   0.00327   0.00382
     Eigenvalues ---    0.00455   0.03282   0.03360   0.04381   0.04445
     Eigenvalues ---    0.04525   0.04579   0.04606   0.04677   0.04790
     Eigenvalues ---    0.04872   0.04936   0.05079   0.05207   0.08498
     Eigenvalues ---    0.08689   0.11312   0.11814   0.11854   0.12229
     Eigenvalues ---    0.12905   0.13155   0.14139   0.14742   0.14894
     Eigenvalues ---    0.15062   0.16638   0.17078   0.17617   0.17791
     Eigenvalues ---    0.22571   0.22890   0.26552   0.26919   0.28207
     Eigenvalues ---    0.30745   0.31685   0.32332   0.32767   0.32893
     Eigenvalues ---    0.33362   0.33431   0.33515   0.33692   0.34278
     Eigenvalues ---    0.34403   0.36848   0.37117   0.43804   0.43927
     Eigenvalues ---    0.44104   0.44274
 RFO step:  Lambda=-4.98688508D-03 EMin= 1.23756426D-03
 Linear search not attempted -- first point.
 Iteration  1 RMS(Cart)=  0.03338732 RMS(Int)=  0.00099443
 Iteration  2 RMS(Cart)=  0.00092487 RMS(Int)=  0.00020314
 Iteration  3 RMS(Cart)=  0.00000090 RMS(Int)=  0.00020313
 Variable       Old X    -DE/DX   Delta X   Delta X   Delta X     New X
                                 (Linear)    (Quad)   (Total)
    R1        2.76910   0.00854   0.00000   0.01580   0.01580   2.78490
    R2        1.92680  -0.00215   0.00000  -0.00254  -0.00254   1.92427
    R3        1.92544  -0.00122   0.00000  -0.00088  -0.00088   1.92455
    R4        2.93493  -0.00674   0.00000  -0.01398  -0.01398   2.92095
    R5        2.07242   0.00042   0.00000   0.00218   0.00218   2.07460
    R6        2.07152   0.00280   0.00000   0.00621   0.00621   2.07773
    R7        2.91823  -0.00207   0.00000  -0.00868  -0.00868   2.90955
    R8        2.91398  -0.00012   0.00000   0.00106   0.00106   2.91503
    R9        2.93836  -0.00647   0.00000  -0.01400  -0.01400   2.92435
   R10        2.07086   0.00038   0.00000   0.00122   0.00122   2.07208
   R11        2.07141   0.00005   0.00000  -0.00016  -0.00016   2.07125
   R12        2.07001  -0.00174   0.00000  -0.00561  -0.00561   2.06440
   R13        2.06964   0.00071   0.00000   0.00114   0.00114   2.07078
   R14        2.07027  -0.00043   0.00000  -0.00096  -0.00096   2.06931
   R15        2.07115  -0.00005   0.00000   0.00036   0.00036   2.07150
   R16        2.76269   0.00904   0.00000   0.01725   0.01725   2.77994
   R17        2.07278   0.00019   0.00000   0.00109   0.00109   2.07387
   R18        2.07307   0.00454   0.00000   0.01307   0.01307   2.08615
   R19        1.92661  -0.00189   0.00000  -0.00267  -0.00267   1.92395
   R20        1.92770  -0.00252   0.00000  -0.00401  -0.00401   1.92369
    A1        1.89764  -0.00027   0.00000  -0.00608  -0.00614   1.89151
    A2        1.90769  -0.00010   0.00000  -0.00659  -0.00665   1.90105
    A3        1.84565  -0.00076   0.00000  -0.01724  -0.01737   1.82827
    A4        1.99037  -0.00638   0.00000  -0.01728  -0.01731   1.97306
    A5        1.88202   0.00106   0.00000  -0.00617  -0.00682   1.87520
    A6        1.88418   0.01102   0.00000   0.08512   0.08520   1.96937
    A7        1.91051   0.00067   0.00000  -0.01950  -0.02005   1.89046
    A8        1.92701  -0.00520   0.00000  -0.03743  -0.03756   1.88945
    A9        1.86513  -0.00063   0.00000  -0.00237  -0.00356   1.86156
   A10        1.92180  -0.00032   0.00000   0.00290   0.00293   1.92474
   A11        1.93729  -0.00051   0.00000  -0.00832  -0.00841   1.92888
   A12        1.91052  -0.00019   0.00000  -0.00603  -0.00610   1.90442
   A13        1.89150   0.00148   0.00000   0.01511   0.01514   1.90664
   A14        1.87577   0.00004   0.00000   0.00413   0.00416   1.87993
   A15        1.92591  -0.00047   0.00000  -0.00718  -0.00729   1.91862
   A16        1.93903   0.00058   0.00000  -0.00139  -0.00144   1.93759
   A17        1.93777  -0.00085   0.00000  -0.00081  -0.00080   1.93697
   A18        1.95168  -0.00253   0.00000  -0.01791  -0.01795   1.93373
   A19        1.87927   0.00027   0.00000   0.00242   0.00242   1.88169
   A20        1.88125   0.00058   0.00000   0.00009  -0.00000   1.88125
   A21        1.87157   0.00214   0.00000   0.01896   0.01898   1.89055
   A22        1.94835   0.00086   0.00000   0.00342   0.00343   1.95178
   A23        1.94821  -0.00100   0.00000  -0.00649  -0.00650   1.94171
   A24        1.93667  -0.00057   0.00000  -0.00244  -0.00245   1.93422
   A25        1.87457   0.00019   0.00000   0.00303   0.00304   1.87761
   A26        1.88237   0.00003   0.00000   0.00240   0.00240   1.88478
   A27        1.87007   0.00052   0.00000   0.00039   0.00037   1.87044
   A28        1.99469  -0.00436   0.00000  -0.01000  -0.01002   1.98467
   A29        1.91030   0.00052   0.00000  -0.01597  -0.01638   1.89392
   A30        1.91869  -0.00572   0.00000  -0.03729  -0.03751   1.88117
   A31        1.88480   0.00019   0.00000  -0.00853  -0.00889   1.87591
   A32        1.88972   0.00999   0.00000   0.07511   0.07523   1.96495
   A33        1.86065  -0.00021   0.00000  -0.00172  -0.00261   1.85804
   A34        1.91330  -0.00074   0.00000  -0.00818  -0.00824   1.90506
   A35        1.90354  -0.00029   0.00000  -0.00697  -0.00703   1.89651
   A36        1.84448  -0.00029   0.00000  -0.01085  -0.01098   1.83351
    D1       -3.12966  -0.00037   0.00000   0.04132   0.04134  -3.08832
    D2       -1.00409  -0.00293   0.00000   0.00067   0.00052  -1.00357
    D3        1.00521   0.00246   0.00000   0.03793   0.03817   1.04338
    D4        1.14666   0.00074   0.00000   0.06865   0.06859   1.21525
    D5       -3.01095  -0.00183   0.00000   0.02799   0.02777  -2.98318
    D6       -1.00166   0.00356   0.00000   0.06526   0.06542  -0.93623
    D7        1.01865  -0.00207   0.00000   0.00925   0.00943   1.02807
    D8       -1.07590  -0.00338   0.00000  -0.00617  -0.00598  -1.08187
    D9        3.07711  -0.00232   0.00000   0.01238   0.01255   3.08966
   D10       -1.09114   0.00042   0.00000   0.04318   0.04327  -1.04787
   D11        3.09750  -0.00090   0.00000   0.02775   0.02787   3.12537
   D12        0.96732   0.00016   0.00000   0.04630   0.04639   1.01371
   D13       -3.13969   0.00386   0.00000   0.07992   0.07964  -3.06006
   D14        1.04895   0.00254   0.00000   0.06450   0.06423   1.11318
   D15       -1.08124   0.00360   0.00000   0.08304   0.08276  -0.99847
   D16        0.99304  -0.00021   0.00000   0.02162   0.02163   1.01467
   D17        3.08391  -0.00004   0.00000   0.02321   0.02319   3.10710
   D18       -1.10971   0.00039   0.00000   0.03470   0.03465  -1.07506
   D19        3.11508  -0.00010   0.00000   0.02276   0.02278   3.13786
   D20       -1.07724   0.00007   0.00000   0.02434   0.02434  -1.05290
   D21        1.01233   0.00050   0.00000   0.03584   0.03580   1.04813
   D22       -1.08675   0.00018   0.00000   0.02480   0.02485  -1.06190
   D23        1.00412   0.00034   0.00000   0.02639   0.02641   1.03053
   D24        3.09369   0.00078   0.00000   0.03788   0.03787   3.13156
   D25       -0.91513   0.00024   0.00000  -0.00861  -0.00864  -0.92377
   D26        1.18315   0.00039   0.00000  -0.00685  -0.00689   1.17626
   D27       -3.01543   0.00000   0.00000  -0.01231  -0.01233  -3.02776
   D28       -3.02762  -0.00001   0.00000  -0.01684  -0.01684  -3.04446
   D29       -0.92934   0.00014   0.00000  -0.01508  -0.01509  -0.94443
   D30        1.15527  -0.00024   0.00000  -0.02053  -0.02053   1.13474
   D31        1.20606  -0.00066   0.00000  -0.02667  -0.02664   1.17942
   D32       -2.97885  -0.00051   0.00000  -0.02491  -0.02489  -3.00374
   D33       -0.89424  -0.00090   0.00000  -0.03037  -0.03033  -0.92457
   D34        1.07145  -0.00281   0.00000  -0.01956  -0.01941   1.05204
   D35       -1.04473  -0.00045   0.00000   0.01020   0.01033  -1.03440
   D36       -3.08286   0.00281   0.00000   0.04319   0.04293  -3.03993
   D37       -3.12473  -0.00328   0.00000  -0.01706  -0.01691   3.14155
   D38        1.04227  -0.00092   0.00000   0.01270   0.01283   1.05510
   D39       -0.99586   0.00234   0.00000   0.04569   0.04544  -0.95043
   D40       -1.06554  -0.00174   0.00000  -0.00045  -0.00032  -1.06586
   D41        3.10146   0.00063   0.00000   0.02931   0.02942   3.13088
   D42        1.06333   0.00389   0.00000   0.06230   0.06202   1.12535
   D43        1.15438   0.00046   0.00000   0.06133   0.06134   1.21572
   D44       -3.11703  -0.00046   0.00000   0.03996   0.04004  -3.07699
   D45       -2.99860  -0.00164   0.00000   0.02791   0.02778  -2.97082
   D46       -0.98682  -0.00256   0.00000   0.00654   0.00648  -0.98034
   D47       -0.99028   0.00334   0.00000   0.06001   0.06003  -0.93025
   D48        1.02150   0.00243   0.00000   0.03864   0.03873   1.06023
         Item               Value     Threshold  Converged?
 Maximum Force            0.011021     0.000450     NO 
 RMS     Force            0.002818     0.000300     NO 
 Maximum Displacement     0.160918     0.001800     NO 
 RMS     Displacement     0.033475     0.001200     NO 
 Predicted change in Energy=-2.710407D-03
 GradGradGradGradGradGradGradGradGradGradGradGradGradGradGradGradGradGrad

                          Input orientation:                          
 ---------------------------------------------------------------------
 Center     Atomic      Atomic             Coordinates (Angstroms)
 Number     Number       Type             X           Y           Z
 ---------------------------------------------------------------------
      1          7           0        2.405396   -0.008857   -0.295260
      2          6           0        1.215778    0.382492    0.481564
      3          6           0       -0.087330   -0.265062   -0.039758
      4          6           0        0.026002   -1.800003    0.001330
      5          6           0       -0.373194    0.185021   -1.487247
      6          6           0       -1.260934    0.145196    0.881707
      7          7           0       -1.487418    1.597561    0.940167
      8          1           0        3.224544    0.414195    0.137075
      9          1           0        2.351076    0.416249   -1.219129
     10          1           0        1.375183    0.052159    1.516313
     11          1           0        1.068839    1.471526    0.517435
     12          1           0        0.233306   -2.151901    1.018924
     13          1           0       -0.905244   -2.271362   -0.333251
     14          1           0        0.837099   -2.146396   -0.643294
     15          1           0       -0.365207    1.276553   -1.583643
     16          1           0        0.373620   -0.213797   -2.181728
     17          1           0       -1.352211   -0.177242   -1.821804
     18          1           0       -1.038971   -0.195147    1.901160
     19          1           0       -2.156782   -0.410740    0.554477
     20          1           0       -1.853126    1.914904    0.044569
     21          1           0       -2.230428    1.784651    1.610389
 ---------------------------------------------------------------------
                    Distance matrix (angstroms):
                    1          2          3          4          5
     1  N    0.000000
     2  C    1.473703   0.000000
     3  C    2.518850   1.545701   0.000000
     4  C    2.992940   2.531694   1.539667   0.000000
     5  C    3.029684   2.537724   1.542569   2.513074   0.000000
     6  C    3.853695   2.520025   1.547500   2.493004   2.530141
     7  N    4.388720   2.998996   2.527819   3.836053   3.021440
     8  H    1.018278   2.038337   3.385435   3.892528   3.954069
     9  H    1.018430   2.045091   2.793013   3.436169   2.747180
    10  H    2.084912   1.097832   2.158918   2.746993   3.477908
    11  H    2.153693   1.099488   2.159382   3.472287   2.784476
    12  H    3.322302   2.770767   2.187184   1.096496   3.479933
    13  H    4.010076   3.493651   2.186403   1.096058   2.765610
    14  H    2.673903   2.793559   2.181339   1.092431   2.759089
    15  H    3.314883   2.750261   2.199403   3.482869   1.095809
    16  H    2.780085   2.856206   2.191606   2.720777   1.095030
    17  H    4.059348   3.494764   2.187082   2.802971   1.096192
    18  H    4.089331   2.726318   2.162792   2.705381   3.474059
    19  H    4.658007   3.465356   2.158001   2.645859   2.775744
    20  H    4.685227   3.457951   2.806671   4.163355   2.743930
    21  H    5.323442   3.888011   3.393697   4.531036   3.950124
                    6          7          8          9         10
     6  C    0.000000
     7  N    1.471080   0.000000
     8  H    4.554817   4.924216   0.000000
     9  H    4.187314   4.559835   1.613147   0.000000
    10  H    2.713023   3.303740   2.335273   2.927041   0.000000
    11  H    2.705492   2.594039   2.430985   2.402789   1.762443
    12  H    2.743763   4.126204   4.038566   4.011138   2.531632
    13  H    2.728074   4.114497   4.948593   4.314122   3.744327
    14  H    3.461035   4.682728   3.586850   3.031643   3.128431
    15  H    2.856614   2.780651   4.073186   2.872487   3.760029
    16  H    3.490742   4.060875   3.728135   2.287768   3.840490
    17  H    2.724201   3.285831   5.013352   3.798655   4.316750
    18  H    1.097445   2.082886   4.654122   4.647841   2.457113
    19  H    1.103942   2.151762   5.460166   4.914302   3.689740
    20  H    2.045325   1.018108   5.295604   4.638773   4.007222
    21  H    2.039290   1.017970   5.814251   5.555976   4.001350
                   11         12         13         14         15
    11  H    0.000000
    12  H    3.752176   0.000000
    13  H    4.316234   1.771706   0.000000
    14  H    3.806620   1.768492   1.774120   0.000000
    15  H    2.551280   4.345787   3.800370   3.747849   0.000000
    16  H    3.257165   3.744343   3.047283   2.513271   1.767686
    17  H    3.748594   3.805637   2.607855   3.171677   1.773250
    18  H    3.022475   2.495178   3.053055   3.715004   3.842357
    19  H    3.734827   2.993304   2.411705   3.662032   3.260100
    20  H    2.993003   4.673485   4.308834   4.919819   2.296186
    21  H    3.489664   4.681479   4.688825   5.471922   3.733504
                   16         17         18         19         20
    16  H    0.000000
    17  H    1.763342   0.000000
    18  H    4.320386   3.736161   0.000000
    19  H    3.732095   2.519636   1.763388   0.000000
    20  H    3.800811   2.848041   2.926105   2.400174   0.000000
    21  H    5.015477   4.049720   2.328887   2.437235   1.615894
                   21
    21  H    0.000000
 Stoichiometry    C5H14N2
 Framework group  C1[X(C5H14N2)]
 Deg. of freedom    57
 Full point group                 C1      NOp   1
 Largest Abelian subgroup         C1      NOp   1
 Largest concise Abelian subgroup C1      NOp   1
                         Standard orientation:                         
 ---------------------------------------------------------------------
 Center     Atomic      Atomic             Coordinates (Angstroms)
 Number     Number       Type             X           Y           Z
 ---------------------------------------------------------------------
      1          7           0        2.231253   -0.819993   -0.065614
      2          6           0        0.812691   -0.879825   -0.460461
      3          6           0        0.004328    0.355323   -0.002040
      4          6           0        0.611112    1.640254   -0.594780
      5          6           0        0.000355    0.458049    1.537099
      6          6           0       -1.446615    0.234498   -0.526373
      7          7           0       -2.155198   -0.958110   -0.036809
      8          1           0        2.704781   -1.637830   -0.444828
      9          1           0        2.297581   -0.927282    0.944975
     10          1           0        0.777999   -0.927391   -1.556713
     11          1           0        0.304178   -1.781346   -0.089587
     12          1           0        0.631543    1.596473   -1.690211
     13          1           0        0.025706    2.520493   -0.305259
     14          1           0        1.637202    1.780754   -0.247209
     15          1           0       -0.332710   -0.474270    2.006828
     16          1           0        1.000204    0.683714    1.922415
     17          1           0       -0.664718    1.262414    1.872230
     18          1           0       -1.417407    0.174139   -1.621767
     19          1           0       -1.973790    1.172296   -0.278764
     20          1           0       -2.340551   -0.851389    0.958579
     21          1           0       -3.073622   -0.993855   -0.474398
 ---------------------------------------------------------------------
 Rotational constants (GHZ):           3.2803533           1.8603750           1.6563984
 Standard basis: 6-31G(d,p) (6D, 7F)
 There are   175 symmetry adapted cartesian basis functions of A   symmetry.
 There are   175 symmetry adapted basis functions of A   symmetry.
   175 basis functions,   294 primitive gaussians,   175 cartesian basis functions
    29 alpha electrons       29 beta electrons
       nuclear repulsion energy       342.9371923363 Hartrees.
 NAtoms=   21 NActive=   21 NUniq=   21 SFac= 1.00D+00 NAtFMM=   60 NAOKFM=F Big=F
 Integral buffers will be    131072 words long.
 Raffenetti 2 integral format.
 Two-electron integral symmetry is turned on.
 ------------------------------------------------------------------------------
 Polarizable Continuum Model (PCM)
 =================================
 Model                : PCM.
 Atomic radii         : UFF (Universal Force Field).
 Polarization charges : Total charges.
 Charge compensation  : None.
 Solution method      : Matrix inversion.
 Cavity type          : Scaled VdW (van der Waals Surface) (Alpha=1.100).
 Cavity algorithm     : GePol (No added spheres)
                        Default sphere list used, NSphG=   21.
                        Lebedev-Laikov grids with approx.  5.0 points / Ang**2.
                        Smoothing algorithm: York/Karplus (Gamma=1.0000).
                        Polarization charges: spherical gaussians, with
                                              point-specific exponents (IZeta= 3).
                        Self-potential: point-specific (ISelfS= 7).
                        Self-field    : sphere-specific E.n sum rule (ISelfD= 2).
 1st derivatives      : Analytical E(r).r(x)/FMM algorithm (CHGder, D1EAlg=3).
                        Cavity 1st derivative terms included.
 Solvent              : Water, Eps=  78.355300 Eps(inf)=   1.777849
 ------------------------------------------------------------------------------
 One-electron integrals computed using PRISM.
 NBasis=   175 RedAO= T EigKep=  3.18D-03  NBF=   175
 NBsUse=   175 1.00D-06 EigRej= -1.00D+00 NBFU=   175
 Initial guess from the checkpoint file:  "DDHUNHGZUHZNKB-UHFFFAOYSA-N_conf_1_0.chk"
 B after Tr=    -0.000000    0.000000    0.000000
         Rot=    0.999901   -0.013139    0.000623    0.004899 Ang=  -1.61 deg.
 ExpMin= 1.61D-01 ExpMax= 4.17D+03 ExpMxC= 6.27D+02 IAcc=2 IRadAn=         4 AccDes= 0.00D+00
 Harris functional with IExCor=  402 and IRadAn=       4 diagonalized for initial guess.
 HarFok:  IExCor=  402 AccDes= 0.00D+00 IRadAn=         4 IDoV= 1 UseB2=F ITyADJ=14
 ICtDFT=  3500011 ScaDFX=  1.000000  1.000000  1.000000  1.000000
 FoFCou: FMM=F IPFlag=           0 FMFlag=      100000 FMFlg1=           0
         NFxFlg=           0 DoJE=T BraDBF=F KetDBF=T FulRan=T
         wScrn=  0.000000 ICntrl=       500 IOpCl=  0 I1Cent=   200000004 NGrid=           0
         NMat0=    1 NMatS0=      1 NMatT0=    0 NMatD0=    1 NMtDS0=    0 NMtDT0=    0
 Petite list used in FoFCou.
 Keep R1 ints in memory in canonical form, NReq=121590815.
 Requested convergence on RMS density matrix=1.00D-08 within  32 cycles.
 Requested convergence on MAX density matrix=1.00D-06.
 Requested convergence on             energy=1.00D-06.
 No special actions if energy rises.
 Inv3:  Mode=1 IEnd=     5721483.
 Iteration    1 A*A^-1 deviation from unit magnitude is 3.55D-15 for    950.
 Iteration    1 A*A^-1 deviation from orthogonality  is 2.23D-15 for   1066    548.
 Iteration    1 A^-1*A deviation from unit magnitude is 3.55D-15 for    950.
 Iteration    1 A^-1*A deviation from orthogonality  is 1.53D-15 for   1366    560.
 Error on total polarization charges =  0.00816
 SCF Done:  E(RB3LYP) =  -308.482859842     A.U. after    9 cycles
            NFock=  9  Conv=0.73D-08     -V/T= 2.0099
 QCSCF skips out because SCF is already converged.
 D1PCM: PCM CHGder 1st derivatives, ID1Alg=3 FixD1E=F DoIter=F DoCFld=F I1PDM=0.
 Calling FoFJK, ICntrl=      2127 FMM=F ISym2X=0 I1Cent= 0 IOpClX= 0 NMat=1 NMatS=1 NMatT=0.
 ***** Axes restored to original set *****
 -------------------------------------------------------------------
 Center     Atomic                   Forces (Hartrees/Bohr)
 Number     Number              X              Y              Z
 -------------------------------------------------------------------
      1        7           0.000201485   -0.000910884   -0.000882561
      2        6           0.000488379    0.001153042   -0.000099982
      3        6           0.000241937   -0.000547225    0.000149767
      4        6          -0.000310199   -0.000118118    0.000088148
      5        6          -0.000002232    0.000141280   -0.000054320
      6        6          -0.000842096    0.000119857   -0.000055495
      7        7           0.000483663    0.000855284   -0.000279687
      8        1           0.000030075   -0.000170903    0.000088438
      9        1           0.000270369    0.000354146    0.000120275
     10        1           0.000100477   -0.000192446   -0.000012358
     11        1          -0.000756767   -0.000059801    0.000510047
     12        1          -0.000183944   -0.000020251    0.000042929
     13        1           0.000041449    0.000008362   -0.000153074
     14        1           0.000175384    0.000075984    0.000253854
     15        1          -0.000137514    0.000010128    0.000036679
     16        1           0.000070558    0.000091215    0.000038480
     17        1           0.000060937   -0.000140819   -0.000056338
     18        1           0.000026457    0.000056865    0.000050226
     19        1           0.000277085   -0.000697394   -0.000080261
     20        1          -0.000387395   -0.000024967    0.000141199
     21        1           0.000151893    0.000016645    0.000154033
 -------------------------------------------------------------------
 Cartesian Forces:  Max     0.001153042 RMS     0.000348950

 GradGradGradGradGradGradGradGradGradGradGradGradGradGradGradGradGradGrad
 Berny optimization.
 Using GEDIIS/GDIIS optimizer.
 FormGI is forming the generalized inverse of G from B-inverse, IUseBI=4.
 Internal  Forces:  Max     0.000949230 RMS     0.000218103
 Search for a local minimum.
 Step number   2 out of a maximum of  114
 All quantities printed in internal units (Hartrees-Bohrs-Radians)
 Mixed Optimization -- En-DIIS/RFO-DIIS
 Update second derivatives using D2CorX and points    1    2
 DE= -2.73D-03 DEPred=-2.71D-03 R= 1.01D+00
 TightC=F SS=  1.41D+00  RLast= 2.95D-01 DXNew= 5.0454D-01 8.8496D-01
 Trust test= 1.01D+00 RLast= 2.95D-01 DXMaxT set to 5.05D-01
 ITU=  1  0
 Use linear search instead of GDIIS.
     Eigenvalues ---    0.00124   0.00166   0.00192   0.00327   0.00382
     Eigenvalues ---    0.00455   0.03282   0.03359   0.04387   0.04445
     Eigenvalues ---    0.04524   0.04579   0.04606   0.04676   0.04794
     Eigenvalues ---    0.04883   0.04932   0.05075   0.05201   0.08486
     Eigenvalues ---    0.08660   0.11308   0.11772   0.11844   0.12230
     Eigenvalues ---    0.12930   0.13168   0.14139   0.14740   0.14886
     Eigenvalues ---    0.15038   0.16636   0.17056   0.17592   0.17773
     Eigenvalues ---    0.22526   0.22871   0.26552   0.26866   0.28126
     Eigenvalues ---    0.30723   0.31700   0.32386   0.32767   0.32874
     Eigenvalues ---    0.33362   0.33431   0.33515   0.33691   0.34279
     Eigenvalues ---    0.34403   0.36595   0.36928   0.43812   0.43932
     Eigenvalues ---    0.44104   0.44272
 RFO step:  Lambda=-5.88594277D-04 EMin= 1.23929533D-03
 Quartic linear search produced a step of  0.11545.
 Iteration  1 RMS(Cart)=  0.07186089 RMS(Int)=  0.00476414
 Iteration  2 RMS(Cart)=  0.00488029 RMS(Int)=  0.00003501
 Iteration  3 RMS(Cart)=  0.00003268 RMS(Int)=  0.00002480
 Iteration  4 RMS(Cart)=  0.00000000 RMS(Int)=  0.00002480
 Variable       Old X    -DE/DX   Delta X   Delta X   Delta X     New X
                                 (Linear)    (Quad)   (Total)
    R1        2.78490   0.00095   0.00182   0.00060   0.00242   2.78732
    R2        1.92427  -0.00001  -0.00029   0.00024  -0.00005   1.92422
    R3        1.92455   0.00002  -0.00010  -0.00031  -0.00042   1.92414
    R4        2.92095   0.00027  -0.00161   0.00356   0.00195   2.92290
    R5        2.07460   0.00006   0.00025  -0.00057  -0.00032   2.07429
    R6        2.07773   0.00006   0.00072  -0.00099  -0.00028   2.07746
    R7        2.90955   0.00004  -0.00100  -0.00065  -0.00165   2.90790
    R8        2.91503   0.00007   0.00012  -0.00230  -0.00218   2.91285
    R9        2.92435   0.00026  -0.00162   0.00348   0.00186   2.92621
   R10        2.07208   0.00001   0.00014   0.00054   0.00068   2.07276
   R11        2.07125   0.00001  -0.00002  -0.00018  -0.00020   2.07105
   R12        2.06440  -0.00004  -0.00065   0.00073   0.00008   2.06447
   R13        2.07078   0.00001   0.00013  -0.00017  -0.00004   2.07074
   R14        2.06931  -0.00001  -0.00011  -0.00038  -0.00049   2.06882
   R15        2.07150   0.00001   0.00004   0.00033   0.00037   2.07187
   R16        2.77994   0.00080   0.00199  -0.00033   0.00167   2.78160
   R17        2.07387   0.00003   0.00013  -0.00032  -0.00019   2.07368
   R18        2.08615   0.00015   0.00151  -0.00122   0.00029   2.08644
   R19        1.92395   0.00001  -0.00031  -0.00004  -0.00034   1.92360
   R20        1.92369  -0.00001  -0.00046   0.00030  -0.00016   1.92352
    A1        1.89151  -0.00000  -0.00071   0.00101   0.00029   1.89180
    A2        1.90105   0.00006  -0.00077   0.00114   0.00036   1.90141
    A3        1.82827  -0.00011  -0.00201   0.00138  -0.00065   1.82763
    A4        1.97306  -0.00051  -0.00200   0.00069  -0.00132   1.97174
    A5        1.87520   0.00008  -0.00079  -0.00186  -0.00274   1.87246
    A6        1.96937   0.00072   0.00984  -0.00250   0.00735   1.97672
    A7        1.89046  -0.00003  -0.00231  -0.00093  -0.00332   1.88714
    A8        1.88945  -0.00016  -0.00434   0.00210  -0.00225   1.88721
    A9        1.86156  -0.00010  -0.00041   0.00261   0.00205   1.86362
   A10        1.92474  -0.00005   0.00034  -0.00291  -0.00257   1.92217
   A11        1.92888  -0.00010  -0.00097  -0.00099  -0.00198   1.92690
   A12        1.90442   0.00015  -0.00070   0.00067  -0.00004   1.90438
   A13        1.90664   0.00015   0.00175  -0.00017   0.00157   1.90821
   A14        1.87993  -0.00009   0.00048   0.00234   0.00282   1.88275
   A15        1.91862  -0.00006  -0.00084   0.00116   0.00030   1.91892
   A16        1.93759  -0.00000  -0.00017   0.00028   0.00010   1.93769
   A17        1.93697   0.00001  -0.00009   0.00304   0.00295   1.93992
   A18        1.93373  -0.00006  -0.00207  -0.00392  -0.00600   1.92773
   A19        1.88169  -0.00001   0.00028  -0.00088  -0.00060   1.88108
   A20        1.88125  -0.00001  -0.00000   0.00110   0.00108   1.88233
   A21        1.89055   0.00007   0.00219   0.00042   0.00262   1.89317
   A22        1.95178  -0.00000   0.00040  -0.00295  -0.00256   1.94922
   A23        1.94171  -0.00003  -0.00075  -0.00356  -0.00432   1.93739
   A24        1.93422   0.00000  -0.00028   0.00127   0.00098   1.93520
   A25        1.87761   0.00002   0.00035   0.00307   0.00342   1.88103
   A26        1.88478   0.00001   0.00028   0.00012   0.00040   1.88518
   A27        1.87044  -0.00000   0.00004   0.00242   0.00246   1.87290
   A28        1.98467  -0.00012  -0.00116   0.00099  -0.00017   1.98450
   A29        1.89392  -0.00008  -0.00189   0.00054  -0.00140   1.89252
   A30        1.88117  -0.00028  -0.00433   0.00404  -0.00032   1.88085
   A31        1.87591  -0.00001  -0.00103  -0.00010  -0.00117   1.87474
   A32        1.96495   0.00053   0.00869  -0.00448   0.00422   1.96917
   A33        1.85804  -0.00005  -0.00030  -0.00105  -0.00145   1.85659
   A34        1.90506   0.00004  -0.00095   0.00190   0.00094   1.90600
   A35        1.89651  -0.00003  -0.00081   0.00108   0.00026   1.89677
   A36        1.83351  -0.00007  -0.00127   0.00121  -0.00007   1.83343
    D1       -3.08832   0.00023   0.00477   0.12251   0.12728  -2.96104
    D2       -1.00357  -0.00006   0.00006   0.12053   0.12057  -0.88300
    D3        1.04338   0.00028   0.00441   0.12111   0.12555   1.16893
    D4        1.21525   0.00033   0.00792   0.11979   0.12770   1.34295
    D5       -2.98318   0.00004   0.00321   0.11781   0.12099  -2.86219
    D6       -0.93623   0.00038   0.00755   0.11840   0.12597  -0.81026
    D7        1.02807   0.00000   0.00109   0.08801   0.08912   1.11719
    D8       -1.08187  -0.00009  -0.00069   0.09079   0.09012  -0.99175
    D9        3.08966  -0.00005   0.00145   0.08954   0.09102  -3.10251
   D10       -1.04787   0.00023   0.00500   0.09053   0.09554  -0.95233
   D11        3.12537   0.00014   0.00322   0.09331   0.09654  -3.06128
   D12        1.01371   0.00018   0.00536   0.09207   0.09743   1.11115
   D13       -3.06006   0.00045   0.00919   0.08685   0.09602  -2.96404
   D14        1.11318   0.00036   0.00742   0.08964   0.09702   1.21020
   D15       -0.99847   0.00040   0.00955   0.08839   0.09791  -0.90056
   D16        1.01467   0.00018   0.00250   0.06862   0.07111   1.08578
   D17        3.10710   0.00018   0.00268   0.06970   0.07238  -3.10371
   D18       -1.07506   0.00023   0.00400   0.06964   0.07363  -1.00143
   D19        3.13786   0.00012   0.00263   0.06541   0.06804  -3.07728
   D20       -1.05290   0.00012   0.00281   0.06650   0.06931  -0.98359
   D21        1.04813   0.00017   0.00413   0.06643   0.07056   1.11869
   D22       -1.06190   0.00008   0.00287   0.06806   0.07094  -0.99096
   D23        1.03053   0.00008   0.00305   0.06915   0.07220   1.10273
   D24        3.13156   0.00013   0.00437   0.06908   0.07345  -3.07817
   D25       -0.92377  -0.00013  -0.00100  -0.02587  -0.02687  -0.95064
   D26        1.17626  -0.00012  -0.00080  -0.02644  -0.02723   1.14902
   D27       -3.02776  -0.00014  -0.00142  -0.02489  -0.02632  -3.05408
   D28       -3.04446  -0.00010  -0.00194  -0.02149  -0.02344  -3.06790
   D29       -0.94443  -0.00009  -0.00174  -0.02206  -0.02380  -0.96823
   D30        1.13474  -0.00011  -0.00237  -0.02052  -0.02289   1.11185
   D31        1.17942  -0.00004  -0.00308  -0.02492  -0.02799   1.15143
   D32       -3.00374  -0.00004  -0.00287  -0.02548  -0.02835  -3.03209
   D33       -0.92457  -0.00006  -0.00350  -0.02394  -0.02744  -0.95201
   D34        1.05204  -0.00008  -0.00224   0.06866   0.06643   1.11847
   D35       -1.03440   0.00006   0.00119   0.06778   0.06898  -0.96542
   D36       -3.03993   0.00031   0.00496   0.06664   0.07156  -2.96837
   D37        3.14155  -0.00011  -0.00195   0.06690   0.06497  -3.07667
   D38        1.05510   0.00004   0.00148   0.06602   0.06752   1.12262
   D39       -0.95043   0.00028   0.00525   0.06488   0.07010  -0.88033
   D40       -1.06586  -0.00001  -0.00004   0.06873   0.06871  -0.99715
   D41        3.13088   0.00013   0.00340   0.06785   0.07126  -3.08105
   D42        1.12535   0.00037   0.00716   0.06671   0.07384   1.19919
   D43        1.21572   0.00027   0.00708   0.09576   0.10285   1.31856
   D44       -3.07699   0.00019   0.00462   0.09876   0.10339  -2.97359
   D45       -2.97082   0.00009   0.00321   0.09699   0.10018  -2.87064
   D46       -0.98034   0.00001   0.00075   0.09999   0.10073  -0.87962
   D47       -0.93025   0.00033   0.00693   0.09312   0.10005  -0.83019
   D48        1.06023   0.00025   0.00447   0.09612   0.10060   1.16083
         Item               Value     Threshold  Converged?
 Maximum Force            0.000949     0.000450     NO 
 RMS     Force            0.000218     0.000300     YES
 Maximum Displacement     0.378122     0.001800     NO 
 RMS     Displacement     0.071656     0.001200     NO 
 Predicted change in Energy=-3.970069D-04
 GradGradGradGradGradGradGradGradGradGradGradGradGradGradGradGradGradGrad

                          Input orientation:                          
 ---------------------------------------------------------------------
 Center     Atomic      Atomic             Coordinates (Angstroms)
 Number     Number       Type             X           Y           Z
 ---------------------------------------------------------------------
      1          7           0        2.392773    0.035530   -0.367532
      2          6           0        1.229648    0.354323    0.481639
      3          6           0       -0.085902   -0.272981   -0.036237
      4          6           0        0.004893   -1.808365    0.011095
      5          6           0       -0.362495    0.177437   -1.484193
      6          6           0       -1.252221    0.162743    0.884443
      7          7           0       -1.509919    1.611871    0.867409
      8          1           0        3.236845    0.329856    0.120065
      9          1           0        2.360991    0.616342   -1.203235
     10          1           0        1.432953   -0.054220    1.479952
     11          1           0        1.067224    1.434261    0.607754
     12          1           0        0.136523   -2.163182    1.040597
     13          1           0       -0.904851   -2.270773   -0.388480
     14          1           0        0.857464   -2.158588   -0.575387
     15          1           0       -0.360953    1.269388   -1.575786
     16          1           0        0.395210   -0.216476   -2.169206
     17          1           0       -1.336289   -0.190293   -1.828528
     18          1           0       -1.001810   -0.114194    1.916317
     19          1           0       -2.139750   -0.433377    0.608825
     20          1           0       -1.988025    1.856825    0.002779
     21          1           0       -2.172309    1.833874    1.607707
 ---------------------------------------------------------------------
                    Distance matrix (angstroms):
                    1          2          3          4          5
     1  N    0.000000
     2  C    1.474985   0.000000
     3  C    2.519676   1.546731   0.000000
     4  C    3.040606   2.529556   1.538794   0.000000
     5  C    2.976336   2.535884   1.541415   2.512821   0.000000
     6  C    3.856113   2.521632   1.548485   2.495663   2.530270
     7  N    4.386449   3.038992   2.529242   3.837439   2.983993
     8  H    1.018251   2.039651   3.380605   3.876774   3.943618
     9  H    1.018210   2.046312   2.853080   3.592353   2.772896
    10  H    2.083868   1.097665   2.157221   2.697020   3.473249
    11  H    2.159794   1.099342   2.158495   3.463982   2.828418
    12  H    3.450772   2.800925   2.186756   1.096857   3.478805
    13  H    4.024152   3.493469   2.187676   1.095954   2.736507
    14  H    2.685988   2.751462   2.176266   1.092472   2.787695
    15  H    3.250429   2.756874   2.196535   3.482039   1.095786
    16  H    2.701813   2.837089   2.187286   2.727667   1.094772
    17  H    4.011410   3.495355   2.186919   2.793051   1.096388
[...]
    20  H   -0.041849   0.000042   0.000416   0.001236   0.008942   0.000233
    21  H   -0.043872   0.000013   0.000043   0.001666   0.005489   0.000245
              13         14         15         16         17         18
     1  N   -0.000082   0.000809  -0.009588  -0.024796  -0.001054  -0.000323
     2  C    0.002911  -0.009954  -0.013196  -0.004117   0.003706  -0.053638
     3  C   -0.030349  -0.030699  -0.038766  -0.043052  -0.040344  -0.020818
     4  C    0.266279   0.335900   0.005495  -0.012482  -0.014880  -0.016720
     5  C   -0.026253  -0.012770   0.115170   0.090589   0.050339   0.001817
     6  C   -0.026426   0.002528  -0.000694   0.005169  -0.011057   0.181813
     7  N   -0.000509  -0.000132  -0.020874  -0.000978  -0.011335  -0.096688
     8  H    0.000151   0.002383   0.001545   0.004412   0.000181   0.000404
     9  H    0.000541   0.004405   0.021402   0.049639   0.003396   0.000405
    10  H    0.002186   0.004923   0.002568   0.002749   0.000720   0.033741
    11  H    0.000299   0.000999   0.022472   0.006245   0.002555   0.011423
    12  H   -0.001964  -0.016041   0.000191   0.001729   0.001867   0.021379
    13  H    0.689441  -0.012872   0.001825   0.008669   0.024054   0.005854
    14  H   -0.012872   0.612439   0.000847   0.012353   0.003154   0.000812
    15  H    0.001825   0.000847   0.760528   0.031679   0.037878   0.002286
    16  H    0.008669   0.012353   0.031679   0.789002   0.048157   0.000559
    17  H    0.024054   0.003154   0.037878   0.048157   0.832028   0.003064
    18  H    0.005854   0.000812   0.002286   0.000559   0.003064   0.775620
    19  H    0.018853   0.000879   0.005207   0.002023   0.023062   0.015214
    20  H    0.000666   0.000050   0.040861   0.002660   0.023267   0.023704
    21  H    0.000205   0.000014   0.003761   0.000150   0.001837   0.042388
              19         20         21
     1  N   -0.000100  -0.000132  -0.000015
     2  C   -0.000620  -0.007424  -0.005997
     3  C   -0.033973  -0.003345   0.007207
     4  C   -0.013361  -0.000075  -0.000250
     5  C   -0.024026  -0.036363  -0.002670
     6  C    0.249111  -0.030399  -0.067435
     7  N   -0.086153  -0.041849  -0.043872
     8  H    0.000028   0.000042   0.000013
     9  H    0.000115   0.000416   0.000043
    10  H    0.002121   0.001236   0.001666
    11  H    0.002475   0.008942   0.005489
    12  H    0.006503   0.000233   0.000245
    13  H    0.018853   0.000666   0.000205
    14  H    0.000879   0.000050   0.000014
    15  H    0.005207   0.040861   0.003761
    16  H    0.002023   0.002660   0.000150
    17  H    0.023062   0.023267   0.001837
    18  H    0.015214   0.023704   0.042388
    19  H    0.672233   0.027283   0.028031
    20  H    0.027283   0.708947   0.111604
    21  H    0.028031   0.111604   0.745758
 Mulliken charges:
               1
     1  N   -0.364127
     2  C   -0.030837
     3  C    0.048890
     4  C   -0.291718
     5  C   -0.231345
     6  C   -0.049708
     7  N   -0.401932
     8  H    0.167815
     9  H    0.150082
    10  H    0.061756
    11  H    0.095060
    12  H    0.076815
    13  H    0.076524
    14  H    0.099975
    15  H    0.029403
    16  H    0.029640
    17  H    0.019405
    18  H    0.067704
    19  H    0.105097
    20  H    0.169677
    21  H    0.171827
 Sum of Mulliken charges =   0.00000
 Mulliken charges with hydrogens summed into heavy atoms:
               1
     1  N   -0.046230
     2  C    0.125978
     3  C    0.048890
     4  C   -0.038405
     5  C   -0.152897
     6  C    0.123092
     7  N   -0.060428
 Electronic spatial extent (au):  <R**2>=            911.4267
 Charge=              0.0000 electrons
 Dipole moment (field-independent basis, Debye):
    X=             -0.8688    Y=             -1.1258    Z=             -1.1935  Tot=              1.8566
 Quadrupole moment (field-independent basis, Debye-Ang):
   XX=            -43.1728   YY=            -49.0018   ZZ=            -50.8740
   XY=             -2.8308   XZ=              0.1998   YZ=             -0.4084
 Traceless Quadrupole moment (field-independent basis, Debye-Ang):
   XX=              4.5100   YY=             -1.3189   ZZ=             -3.1911
   XY=             -2.8308   XZ=              0.1998   YZ=             -0.4084
 Octapole moment (field-independent basis, Debye-Ang**2):
  XXX=            -12.2502  YYY=             -5.2045  ZZZ=             -6.4841  XYY=              4.4636
  XXY=            -10.1018  XXZ=             -1.3108  XZZ=             -0.7601  YZZ=             -3.1327
  YYZ=             -1.8331  XYZ=              1.1263
 Hexadecapole moment (field-independent basis, Debye-Ang**3):
 XXXX=           -597.7321 YYYY=           -356.1621 ZZZZ=           -282.0316 XXXY=             -4.7457
 XXXZ=              1.8459 YYYX=             -9.5231 YYYZ=              0.0134 ZZZX=             -0.0471
 ZZZY=             -3.1493 XXYY=           -155.4423 XXZZ=           -152.2084 YYZZ=           -106.0163
 XXYZ=             -0.5442 YYXZ=             -0.3430 ZZXY=              0.3665
 N-N= 3.427915823043D+02 E-N=-1.399468026480D+03  KE= 3.056330760143D+02
 Evaluate density.
 Using the total density.
 Monte-Carlo method of calculating molar volume:
 based on  0.001 e/bohr**3 density envelope.
 Number of points per bohr**3 =   20 CutOff= 1.00D-04
 Using the CI density.
 There are       359 points.  Will hold       359 in memory.
 LenV=   805211307 MDV=   805306368.
 Box volume = 5804.905 fraction occupied=0.181
 Integrated density= 6.3616810870057044D+01 error= 5.6168108700570443D+00
 Molar volume = 1051.027 bohr**3/mol ( 93.793 cm**3/mol)
 Recommended a0 for SCRF calculation =  4.17 angstrom (  7.89 bohr)
 ******************************Gaussian NBO Version 3.1******************************
             N A T U R A L   A T O M I C   O R B I T A L   A N D
          N A T U R A L   B O N D   O R B I T A L   A N A L Y S I S
 ******************************Gaussian NBO Version 3.1******************************
       /RESON  / : Allow strongly delocalized NBO set

 Analyzing the CI density

 Job title: DDHUNHGZUHZNKB-UHFFFAOYSA-N_conf_1                              

 Storage needed:     93394 in NPA ( 805303953 available)
 GSVD:  LWork=       15841 too small for GESVD, short by       12971 words or       12971 for optimal perf.


 NATURAL POPULATIONS:  Natural atomic orbital occupancies 
                                                          
   NAO  Atom  No  lang   Type(AO)    Occupancy
 --------------------------------------------
     1    N    1  S      Cor( 1S)     1.99947
     2    N    1  S      Val( 2S)     1.46631
     3    N    1  S      Ryd( 3S)     0.00454
     4    N    1  S      Ryd( 4S)     0.00005
     5    N    1  px     Val( 2p)     1.31610
     6    N    1  px     Ryd( 3p)     0.00129
     7    N    1  py     Val( 2p)     1.43241
     8    N    1  py     Ryd( 3p)     0.00293
     9    N    1  pz     Val( 2p)     1.39891
    10    N    1  pz     Ryd( 3p)     0.00143
    11    N    1  dxy    Ryd( 3d)     0.00087
    12    N    1  dxz    Ryd( 3d)     0.00032
    13    N    1  dyz    Ryd( 3d)     0.00096
    14    N    1  dx2y2  Ryd( 3d)     0.00075
    15    N    1  dz2    Ryd( 3d)     0.00051

    16    C    2  S      Cor( 1S)     1.99917
    17    C    2  S      Val( 2S)     1.03630
    18    C    2  S      Ryd( 3S)     0.00267
    19    C    2  S      Ryd( 4S)     0.00004
    20    C    2  px     Val( 2p)     0.91016
    21    C    2  px     Ryd( 3p)     0.00600
    22    C    2  py     Val( 2p)     1.13147
    23    C    2  py     Ryd( 3p)     0.00218
    24    C    2  pz     Val( 2p)     1.20006
    25    C    2  pz     Ryd( 3p)     0.00336
    26    C    2  dxy    Ryd( 3d)     0.00101
    27    C    2  dxz    Ryd( 3d)     0.00076
    28    C    2  dyz    Ryd( 3d)     0.00039
    29    C    2  dx2y2  Ryd( 3d)     0.00115
    30    C    2  dz2    Ryd( 3d)     0.00126

    31    C    3  S      Cor( 1S)     1.99912
    32    C    3  S      Val( 2S)     0.92571
    33    C    3  S      Ryd( 3S)     0.00082
    34    C    3  S      Ryd( 4S)     0.00002
    35    C    3  px     Val( 2p)     1.02627
    36    C    3  px     Ryd( 3p)     0.00312
    37    C    3  py     Val( 2p)     1.03857
    38    C    3  py     Ryd( 3p)     0.00344
    39    C    3  pz     Val( 2p)     1.06338
    40    C    3  pz     Ryd( 3p)     0.00300
    41    C    3  dxy    Ryd( 3d)     0.00070
    42    C    3  dxz    Ryd( 3d)     0.00062
    43    C    3  dyz    Ryd( 3d)     0.00065
    44    C    3  dx2y2  Ryd( 3d)     0.00080
    45    C    3  dz2    Ryd( 3d)     0.00096

    46    C    4  S      Cor( 1S)     1.99937
    47    C    4  S      Val( 2S)     1.09596
    48    C    4  S      Ryd( 3S)     0.00064
    49    C    4  S      Ryd( 4S)     0.00002
    50    C    4  px     Val( 2p)     1.23225
    51    C    4  px     Ryd( 3p)     0.00206
    52    C    4  py     Val( 2p)     1.12492
    53    C    4  py     Ryd( 3p)     0.00297
    54    C    4  pz     Val( 2p)     1.22936
    55    C    4  pz     Ryd( 3p)     0.00246
    56    C    4  dxy    Ryd( 3d)     0.00058
    57    C    4  dxz    Ryd( 3d)     0.00024
    58    C    4  dyz    Ryd( 3d)     0.00039
    59    C    4  dx2y2  Ryd( 3d)     0.00069
    60    C    4  dz2    Ryd( 3d)     0.00095

    61    C    5  S      Cor( 1S)     1.99936
    62    C    5  S      Val( 2S)     1.12485
    63    C    5  S      Ryd( 3S)     0.00100
    64    C    5  S      Ryd( 4S)     0.00007
    65    C    5  px     Val( 2p)     1.24914
    66    C    5  px     Ryd( 3p)     0.00258
    67    C    5  py     Val( 2p)     1.24659
    68    C    5  py     Ryd( 3p)     0.00273
    69    C    5  pz     Val( 2p)     1.07749
    70    C    5  pz     Ryd( 3p)     0.00276
    71    C    5  dxy    Ryd( 3d)     0.00054
    72    C    5  dxz    Ryd( 3d)     0.00047
    73    C    5  dyz    Ryd( 3d)     0.00049
    74    C    5  dx2y2  Ryd( 3d)     0.00055
    75    C    5  dz2    Ryd( 3d)     0.00071

    76    C    6  S      Cor( 1S)     1.99921
    77    C    6  S      Val( 2S)     1.02605
    78    C    6  S      Ryd( 3S)     0.00267
    79    C    6  S      Ryd( 4S)     0.00005
    80    C    6  px     Val( 2p)     1.02905
    81    C    6  px     Ryd( 3p)     0.00254
    82    C    6  py     Val( 2p)     1.02083
    83    C    6  py     Ryd( 3p)     0.00502
    84    C    6  pz     Val( 2p)     1.20233
    85    C    6  pz     Ryd( 3p)     0.00400
    86    C    6  dxy    Ryd( 3d)     0.00116
    87    C    6  dxz    Ryd( 3d)     0.00056
    88    C    6  dyz    Ryd( 3d)     0.00053
    89    C    6  dx2y2  Ryd( 3d)     0.00101
    90    C    6  dz2    Ryd( 3d)     0.00132

    91    N    7  S      Cor( 1S)     1.99950
    92    N    7  S      Val( 2S)     1.46501
    93    N    7  S      Ryd( 3S)     0.00410
    94    N    7  S      Ryd( 4S)     0.00006
    95    N    7  px     Val( 2p)     1.40596
    96    N    7  px     Ryd( 3p)     0.00259
    97    N    7  py     Val( 2p)     1.39033
    98    N    7  py     Ryd( 3p)     0.00227
    99    N    7  pz     Val( 2p)     1.39774
   100    N    7  pz     Ryd( 3p)     0.00146
   101    N    7  dxy    Ryd( 3d)     0.00061
   102    N    7  dxz    Ryd( 3d)     0.00066
   103    N    7  dyz    Ryd( 3d)     0.00058
   104    N    7  dx2y2  Ryd( 3d)     0.00108
   105    N    7  dz2    Ryd( 3d)     0.00059

   106    H    8  S      Val( 1S)     0.64406
   107    H    8  S      Ryd( 2S)     0.04157
   108    H    8  px     Ryd( 2p)     0.00035
   109    H    8  py     Ryd( 2p)     0.00056
   110    H    8  pz     Ryd( 2p)     0.00037

   111    H    9  S      Val( 1S)     0.64903
   112    H    9  S      Ryd( 2S)     0.04873
   113    H    9  px     Ryd( 2p)     0.00029
   114    H    9  py     Ryd( 2p)     0.00040
   115    H    9  pz     Ryd( 2p)     0.00059

   116    H   10  S      Val( 1S)     0.77400
   117    H   10  S      Ryd( 2S)     0.02400
   118    H   10  px     Ryd( 2p)     0.00009
   119    H   10  py     Ryd( 2p)     0.00008
   120    H   10  pz     Ryd( 2p)     0.00038

   121    H   11  S      Val( 1S)     0.74502
   122    H   11  S      Ryd( 2S)     0.01801
   123    H   11  px     Ryd( 2p)     0.00018
   124    H   11  py     Ryd( 2p)     0.00030
   125    H   11  pz     Ryd( 2p)     0.00012

   126    H   12  S      Val( 1S)     0.77487
   127    H   12  S      Ryd( 2S)     0.00788
   128    H   12  px     Ryd( 2p)     0.00009
   129    H   12  py     Ryd( 2p)     0.00008
   130    H   12  pz     Ryd( 2p)     0.00034

   131    H   13  S      Val( 1S)     0.77312
   132    H   13  S      Ryd( 2S)     0.00947
   133    H   13  px     Ryd( 2p)     0.00014
   134    H   13  py     Ryd( 2p)     0.00025
   135    H   13  pz     Ryd( 2p)     0.00012

   136    H   14  S      Val( 1S)     0.75620
   137    H   14  S      Ryd( 2S)     0.00401
   138    H   14  px     Ryd( 2p)     0.00033
   139    H   14  py     Ryd( 2p)     0.00010
   140    H   14  pz     Ryd( 2p)     0.00010

   141    H   15  S      Val( 1S)     0.78782
   142    H   15  S      Ryd( 2S)     0.02289
   143    H   15  px     Ryd( 2p)     0.00011
   144    H   15  py     Ryd( 2p)     0.00028
   145    H   15  pz     Ryd( 2p)     0.00012

   146    H   16  S      Val( 1S)     0.79372
   147    H   16  S      Ryd( 2S)     0.01935
   148    H   16  px     Ryd( 2p)     0.00029
   149    H   16  py     Ryd( 2p)     0.00010
   150    H   16  pz     Ryd( 2p)     0.00012

   151    H   17  S      Val( 1S)     0.79288
   152    H   17  S      Ryd( 2S)     0.02312
   153    H   17  px     Ryd( 2p)     0.00018
   154    H   17  py     Ryd( 2p)     0.00021
   155    H   17  pz     Ryd( 2p)     0.00012

   156    H   18  S      Val( 1S)     0.77808
   157    H   18  S      Ryd( 2S)     0.01979
   158    H   18  px     Ryd( 2p)     0.00007
   159    H   18  py     Ryd( 2p)     0.00010
   160    H   18  pz     Ryd( 2p)     0.00038

   161    H   19  S      Val( 1S)     0.74034
   162    H   19  S      Ryd( 2S)     0.01653
   163    H   19  px     Ryd( 2p)     0.00015
   164    H   19  py     Ryd( 2p)     0.00030
   165    H   19  pz     Ryd( 2p)     0.00013

   166    H   20  S      Val( 1S)     0.63864
   167    H   20  S      Ryd( 2S)     0.04154
   168    H   20  px     Ryd( 2p)     0.00034
   169    H   20  py     Ryd( 2p)     0.00037
   170    H   20  pz     Ryd( 2p)     0.00060

   171    H   21  S      Val( 1S)     0.64473
   172    H   21  S      Ryd( 2S)     0.03903
   173    H   21  px     Ryd( 2p)     0.00058
   174    H   21  py     Ryd( 2p)     0.00034
   175    H   21  pz     Ryd( 2p)     0.00036


 Summary of Natural Population Analysis:                  
                                                          
                                       Natural Population 
                Natural  -----------------------------------------------
    Atom  No    Charge         Core      Valence    Rydberg      Total
 -----------------------------------------------------------------------
      N    1   -0.62687      1.99947     5.61374    0.01366     7.62687
      C    2   -0.29598      1.99917     4.27799    0.01882     6.29598
      C    3   -0.06717      1.99912     4.05393    0.01413     6.06717
      C    4   -0.69285      1.99937     4.68248    0.01100     6.69285
      C    5   -0.70933      1.99936     4.69807    0.01190     6.70933
      C    6   -0.29633      1.99921     4.27827    0.01885     6.29633
      N    7   -0.67255      1.99950     5.65905    0.01400     7.67255
      H    8    0.31309      0.00000     0.64406    0.04284     0.68691
      H    9    0.30096      0.00000     0.64903    0.05002     0.69904
      H   10    0.20144      0.00000     0.77400    0.02455     0.79856
      H   11    0.23637      0.00000     0.74502    0.01861     0.76363
      H   12    0.21674      0.00000     0.77487    0.00839     0.78326
      H   13    0.21690      0.00000     0.77312    0.00998     0.78310
      H   14    0.23926      0.00000     0.75620    0.00454     0.76074
      H   15    0.18877      0.00000     0.78782    0.02341     0.81123
      H   16    0.18642      0.00000     0.79372    0.01987     0.81358
      H   17    0.18351      0.00000     0.79288    0.02362     0.81649
      H   18    0.20158      0.00000     0.77808    0.02034     0.79842
      H   19    0.24255      0.00000     0.74034    0.01711     0.75745
      H   20    0.31852      0.00000     0.63864    0.04285     0.68148
      H   21    0.31497      0.00000     0.64473    0.04030     0.68503
 =======================================================================
   * Total *    0.00000     13.99520    43.55602    0.44878    58.00000

                                 Natural Population      
 --------------------------------------------------------
   Core                      13.99520 ( 99.9657% of  14)
   Valence                   43.55602 ( 98.9910% of  44)
   Natural Minimal Basis     57.55122 ( 99.2262% of  58)
   Natural Rydberg Basis      0.44878 (  0.7738% of  58)
 --------------------------------------------------------

    Atom  No          Natural Electron Configuration
 ----------------------------------------------------------------------------
      N    1      [core]2S( 1.47)2p( 4.15)3p( 0.01)
      C    2      [core]2S( 1.04)2p( 3.24)3p( 0.01)
      C    3      [core]2S( 0.93)2p( 3.13)3p( 0.01)
      C    4      [core]2S( 1.10)2p( 3.59)3p( 0.01)
      C    5      [core]2S( 1.12)2p( 3.57)3p( 0.01)
      C    6      [core]2S( 1.03)2p( 3.25)3p( 0.01)
      N    7      [core]2S( 1.47)2p( 4.19)3p( 0.01)
      H    8            1S( 0.64)2S( 0.04)
      H    9            1S( 0.65)2S( 0.05)
      H   10            1S( 0.77)2S( 0.02)
      H   11            1S( 0.75)2S( 0.02)
      H   12            1S( 0.77)2S( 0.01)
      H   13            1S( 0.77)2S( 0.01)
      H   14            1S( 0.76)
      H   15            1S( 0.79)2S( 0.02)
      H   16            1S( 0.79)2S( 0.02)
      H   17            1S( 0.79)2S( 0.02)
      H   18            1S( 0.78)2S( 0.02)
      H   19            1S( 0.74)2S( 0.02)
      H   20            1S( 0.64)2S( 0.04)
      H   21            1S( 0.64)2S( 0.04)


 NBO analysis skipped by request.
 1\1\GINC-DRG2-W002\SP\RB3LYP TD-FC\6-31G(d,p)\C5H14N2\QDUEZ\17-Jul-202
 4\0\\# TD(NStates=10, Root=1) B3LYP/6-31G** SCRF=(Solvent=water) volum
 e pop=NPA density=current Geom=AllCheck Guess=Read\\DDHUNHGZUHZNKB-UHF
 FFAOYSA-N_conf_1\\0,1\N,0,2.3906529259,0.0362015918,-0.3713768044\C,0,
 1.2292772981,0.3528897311,0.4813616345\C,0,-0.0872560466,-0.273107802,
 -0.0368559607\C,0,0.0054937884,-1.8086477433,0.0116185322\C,0,-0.36459
 82614,0.1777166801,-1.4844307266\C,0,-1.25153738,0.1634376614,0.885766
 9802\N,0,-1.5090783446,1.6129711559,0.8651256095\H,0,3.236745107,0.323
 0745308,0.1167707994\H,0,2.360401088,0.6207136866,-1.2044864301\H,0,1.
 4335536794,-0.0575832732,1.478706376\H,0,1.06788371,1.432758136,0.6093
 812856\H,0,0.1164857769,-2.1637513758,1.0433998235\H,0,-0.8943836843,-
 2.2733712791,-0.4071677272\H,0,0.870733608,-2.1569655846,-0.5578432554
 \H,0,-0.3705552293,1.2697295863,-1.5734194282\H,0,0.39720738,-0.209574
 6932,-2.1684210528\H,0,-1.3356165298,-0.1958697905,-1.8302588873\H,0,-
 0.997613252,-0.1113643185,1.9174846454\H,0,-2.1397282068,-0.433292991,
 0.6145385804\H,0,-1.9907208144,1.8561481722,0.0020267208\H,0,-2.167346
 6125,1.837887919,1.6080792853\\Version=ES64L-G16RevA.03\State=1-A\HF=-
 308.4832007\RMSD=8.120e-10\Dipole=-0.0499283,0.3738092,0.6255332\Quadr
 upole=3.8945982,-1.7438887,-2.1507094,0.2484036,-1.4047524,-0.0911294\
 PG=C01 [X(C5H14N2)]\\@


 ... THE UNIVERSE IS NOT ONLY QUEERER THAN WE SUPPOSE,
 BUT QUEERER THAN WE CAN SUPPOSE ... 

                                   -- J. B. S. HALDANE
 Job cpu time:       0 days  0 hours 18 minutes 16.9 seconds.
 Elapsed time:       0 days  0 hours  6 minutes  9.9 seconds.
 File lengths (MBytes):  RWF=    301 Int=      0 D2E=      0 Chk=     19 Scr=      1
 Normal termination of Gaussian 16 at Wed Jul 17 15:01:30 2024.
