 Entering Gaussian System, Link 0=g16
 Initial command:
 /opt/sw/arch/manual/gaussian/G16_A03/g16/l1.exe "/scratch/1381519/Gau-178754.inp" -scrdir="/scratch/1381519/"
 Entering Link 1 = /opt/sw/arch/manual/gaussian/G16_A03/g16/l1.exe PID=    178755.
  
 Copyright (c) 1988,1990,1992,1993,1995,1998,2003,2009,2016,
            Gaussian, Inc.  All Rights Reserved.
  
 This is part of the Gaussian(R) 16 program.  It is based on
 the Gaussian(R) 09 system (copyright 2009, Gaussian, Inc.),
 the Gaussian(R) 03 system (copyright 2003, Gaussian, Inc.),
 the Gaussian(R) 98 system (copyright 1998, Gaussian, Inc.),
 the Gaussian(R) 94 system (copyright 1995, Gaussian, Inc.),
 the Gaussian 92(TM) system (copyright 1992, Gaussian, Inc.),
 the Gaussian 90(TM) system (copyright 1990, Gaussian, Inc.),
 the Gaussian 88(TM) system (copyright 1988, Gaussian, Inc.),
 the Gaussian 86(TM) system (copyright 1986, Carnegie Mellon
 University), and the Gaussian 82(TM) system (copyright 1983,
 Carnegie Mellon University). Gaussian is a federally registered
 trademark of Gaussian, Inc.
  
 This software contains proprietary and confidential information,
 including trade secrets, belonging to Gaussian, Inc.
  
 This software is provided under written license and may be
 used, copied, transmitted, or stored only in accord with that
 written license.
  
 The following legend is applicable only to US Government
 contracts under FAR:
  
                    RESTRICTED RIGHTS LEGEND
  
 Use, reproduction and disclosure by the US Government is
 subject to restrictions as set forth in subparagraphs (a)
 and (c) of the Commercial Computer Software - Restricted
 Rights clause in FAR 52.227-19.
  
 Gaussian, Inc.
 340 Quinnipiac St., Bldg. 40, Wallingford CT 06492
  
  
 ---------------------------------------------------------------
 Warning -- This program may not be used in any manner that
 competes with the business of Gaussian, Inc. or will provide
 assistance to any competitor of Gaussian, Inc.  The licensee
 of this program is prohibited from giving any competitor of
 Gaussian, Inc. access to this program.  By using this program,
 the user acknowledges that Gaussian, Inc. is engaged in the
 business of creating and licensing software in the field of
 computational chemistry and represents and warrants to the
 licensee that it is not a competitor of Gaussian, Inc. and that
 it will not use this program in any manner prohibited above.
 ---------------------------------------------------------------
  

 Cite this work as:
 Gaussian 16, Revision A.03,
 M. J. Frisch, G. W. Trucks, H. B. Schlegel, G. E. Scuseria, 
 M. A. Robb, J. R. Cheeseman, G. Scalmani, V. Barone, 
 G. A. Petersson, H. Nakatsuji, X. Li, M. Caricato, A. V. Marenich, 
 J. Bloino, B. G. Janesko, R. Gomperts, B. Mennucci, H. P. Hratchian, 
 J. V. Ortiz, A. F. Izmaylov, J. L. Sonnenberg, D. Williams-Young, 
 F. Ding, F. Lipparini, F. Egidi, J. Goings, B. Peng, A. Petrone, 
 T. Henderson, D. Ranasinghe, V. G. Zakrzewski, J. Gao, N. Rega, 
 G. Zheng, W. Liang, M. Hada, M. Ehara, K. Toyota, R. Fukuda, 
 J. Hasegawa, M. Ishida, T. Nakajima, Y. Honda, O. Kitao, H. Nakai, 
 T. Vreven, K. Throssell, J. A. Montgomery, Jr., J. E. Peralta, 
 F. Ogliaro, M. J. Bearpark, J. J. Heyd, E. N. Brothers, K. N. Kudin, 
 V. N. Staroverov, T. A. Keith, R. Kobayashi, J. Normand, 
 K. Raghavachari, A. P. Rendell, J. C. Burant, S. S. Iyengar, 
 J. Tomasi, M. Cossi, J. M. Millam, M. Klene, C. Adamo, R. Cammi, 
 J. W. Ochterski, R. L. Martin, K. Morokuma, O. Farkas, 
 J. B. Foresman, and D. J. Fox, Gaussian, Inc., Wallingford CT, 2016.
 
 ******************************************
 Gaussian 16:  ES64L-G16RevA.03 25-Dec-2016
                21-Jul-2024 
 ******************************************
 %nprocshared=6
 Will use up to    6 processors via shared memory.
 %mem=12GB
 %Chk=YQLZOAVZWJBZSY-UHFFFAOYSA-N_conf_1_0.chk
 -------------------------------------------------------
 # opt=CalcFc B3LYP/6-31G** SCRF=(Solvent=water) scf=xqc
 -------------------------------------------------------
 1/10=4,18=20,19=15,26=3,38=1/1,3;
 2/9=110,12=2,17=6,18=5,40=1/2;
 3/5=1,6=6,7=101,11=2,25=1,30=1,70=2201,71=2,72=1,74=-5,140=1/1,2,3;
 4//1;
 5/5=2,8=3,13=1,38=5,53=1/2,8;
 8/6=4,10=90,11=11/1;
 11/6=1,8=1,9=11,15=111,16=1/1,2,10;
 10/6=1,13=1/2;
 6/7=2,8=2,9=2,10=2,28=1/1;
 7/10=1,18=20,25=1/1,2,3,16;
 1/10=4,18=20,19=15,26=3/3(2);
 2/9=110/2;
 99//99;
 2/9=110/2;
 3/5=1,6=6,7=101,11=2,25=1,30=1,70=2205,71=1,72=1,74=-5/1,2,3;
 4/5=5,16=3,69=1/1;
 5/5=2,8=3,13=1,38=5,53=1/2,8;
 7//1,2,3,16;
 1/18=20,19=15,26=3/3(-5);
 2/9=110/2;
 6/7=2,8=2,9=2,10=2,19=2,28=1/1;
 99/9=1/99;
 ----------------------------------
 YQLZOAVZWJBZSY-UHFFFAOYSA-N_conf_1
 ----------------------------------
 Symbolic Z-matrix:
 Charge =  0 Multiplicity = 1
 N                    -5.36967   0.26861   0.01563 
 C                    -3.92513   0.37001  -0.1655 
 C                    -3.29358  -1.01909  -0.15339 
 C                    -1.76021  -1.01252  -0.18282 
 C                    -1.14154  -0.43344  -1.46023 
 C                    -0.75347   1.04648  -1.39075 
 C                     0.31885   1.4319   -0.36331 
 C                     1.68975   0.78097  -0.5862 
 C                     1.91951  -0.44916   0.29928 
 C                     3.28632  -1.10938   0.07411 
 C                     4.38821  -0.65727   1.03783 
 N                     4.75482   0.74512   0.90484 
 H                    -5.57377  -0.16204   0.91662 
 H                    -5.77228   1.20432   0.04927 
 H                    -3.50109   0.99049   0.6311 
 H                    -3.73726   0.86487  -1.12237 
 H                    -3.6706   -1.60477  -1.00167 
 H                    -3.60562  -1.55258   0.75427 
 H                    -1.43961  -2.0599   -0.10619 
 H                    -1.37621  -0.51504   0.71298 
 H                    -0.24737  -1.01425  -1.71441 
 H                    -1.83069  -0.57914  -2.30135 
 H                    -0.4011    1.34969  -2.38527 
 H                    -1.64298   1.65329  -1.19426 
 H                    -0.03641   1.25909   0.65808 
 H                     0.45325   2.51873  -0.44818 
 H                     1.8227    0.52056  -1.64285 
 H                     2.45377   1.5306   -0.35651 
 H                     1.15116  -1.19486   0.07242 
 H                     1.79252  -0.1872    1.35638 
 H                     3.61225  -0.97923  -0.96506 
 H                     3.16224  -2.19048   0.22035 
 H                     5.28304  -1.2628    0.85559 
 H                     4.08406  -0.85105   2.07246 
 H                     4.9281    0.96446  -0.07518 
 H                     3.97805   1.33499   1.19751 
 

 GradGradGradGradGradGradGradGradGradGradGradGradGradGradGradGradGradGrad
 Berny optimization.
 Initialization pass.
                           ----------------------------
                           !    Initial Parameters    !
                           ! (Angstroms and Degrees)  !
 --------------------------                            --------------------------
 ! Name  Definition              Value          Derivative Info.                !
 --------------------------------------------------------------------------------
 ! R1    R(1,2)                  1.4594         calculate D2E/DX2 analytically  !
 ! R2    R(1,13)                 1.0193         calculate D2E/DX2 analytically  !
 ! R3    R(1,14)                 1.0192         calculate D2E/DX2 analytically  !
 ! R4    R(2,3)                  1.526          calculate D2E/DX2 analytically  !
 ! R5    R(2,15)                 1.0952         calculate D2E/DX2 analytically  !
 ! R6    R(2,16)                 1.0935         calculate D2E/DX2 analytically  !
 ! R7    R(3,4)                  1.5337         calculate D2E/DX2 analytically  !
 ! R8    R(3,17)                 1.0976         calculate D2E/DX2 analytically  !
 ! R9    R(3,18)                 1.0981         calculate D2E/DX2 analytically  !
 ! R10   R(4,5)                  1.5329         calculate D2E/DX2 analytically  !
 ! R11   R(4,19)                 1.098          calculate D2E/DX2 analytically  !
 ! R12   R(4,20)                 1.0943         calculate D2E/DX2 analytically  !
 ! R13   R(5,6)                  1.5315         calculate D2E/DX2 analytically  !
 ! R14   R(5,21)                 1.0961         calculate D2E/DX2 analytically  !
 ! R15   R(5,22)                 1.0971         calculate D2E/DX2 analytically  !
 ! R16   R(6,7)                  1.5343         calculate D2E/DX2 analytically  !
 ! R17   R(6,23)                 1.0978         calculate D2E/DX2 analytically  !
 ! R18   R(6,24)                 1.0946         calculate D2E/DX2 analytically  !
 ! R19   R(7,8)                  1.5339         calculate D2E/DX2 analytically  !
 ! R20   R(7,25)                 1.0951         calculate D2E/DX2 analytically  !
 ! R21   R(7,26)                 1.0984         calculate D2E/DX2 analytically  !
 ! R22   R(8,9)                  1.533          calculate D2E/DX2 analytically  !
 ! R23   R(8,27)                 1.0963         calculate D2E/DX2 analytically  !
 ! R24   R(8,28)                 1.0947         calculate D2E/DX2 analytically  !
 ! R25   R(9,10)                 1.5345         calculate D2E/DX2 analytically  !
 ! R26   R(9,29)                 1.0945         calculate D2E/DX2 analytically  !
 ! R27   R(9,30)                 1.0965         calculate D2E/DX2 analytically  !
 ! R28   R(10,11)                1.5321         calculate D2E/DX2 analytically  !
 ! R29   R(10,31)                1.0968         calculate D2E/DX2 analytically  !
 ! R30   R(10,32)                1.098          calculate D2E/DX2 analytically  !
 ! R31   R(11,12)                1.4556         calculate D2E/DX2 analytically  !
 ! R32   R(11,33)                1.0957         calculate D2E/DX2 analytically  !
 ! R33   R(11,34)                1.0957         calculate D2E/DX2 analytically  !
 ! R34   R(12,35)                1.0191         calculate D2E/DX2 analytically  !
 ! R35   R(12,36)                1.0183         calculate D2E/DX2 analytically  !
 ! A1    A(2,1,13)             109.7109         calculate D2E/DX2 analytically  !
 ! A2    A(2,1,14)             109.3486         calculate D2E/DX2 analytically  !
 ! A3    A(13,1,14)            106.2376         calculate D2E/DX2 analytically  !
 ! A4    A(1,2,3)              110.2076         calculate D2E/DX2 analytically  !
 ! A5    A(1,2,15)             109.4106         calculate D2E/DX2 analytically  !
 ! A6    A(1,2,16)             108.0655         calculate D2E/DX2 analytically  !
 ! A7    A(3,2,15)             110.4706         calculate D2E/DX2 analytically  !
 ! A8    A(3,2,16)             110.3528         calculate D2E/DX2 analytically  !
 ! A9    A(15,2,16)            108.2747         calculate D2E/DX2 analytically  !
 ! A10   A(2,3,4)              114.1882         calculate D2E/DX2 analytically  !
 ! A11   A(2,3,17)             109.7212         calculate D2E/DX2 analytically  !
 ! A12   A(2,3,18)             109.3424         calculate D2E/DX2 analytically  !
 ! A13   A(4,3,17)             109.322          calculate D2E/DX2 analytically  !
 ! A14   A(4,3,18)             107.5808         calculate D2E/DX2 analytically  !
 ! A15   A(17,3,18)            106.3772         calculate D2E/DX2 analytically  !
 ! A16   A(3,4,5)              114.9053         calculate D2E/DX2 analytically  !
 ! A17   A(3,4,19)             106.6484         calculate D2E/DX2 analytically  !
 ! A18   A(3,4,20)             109.7001         calculate D2E/DX2 analytically  !
 ! A19   A(5,4,19)             107.4969         calculate D2E/DX2 analytically  !
 ! A20   A(5,4,20)             111.6422         calculate D2E/DX2 analytically  !
 ! A21   A(19,4,20)            105.9062         calculate D2E/DX2 analytically  !
 ! A22   A(4,5,6)              115.435          calculate D2E/DX2 analytically  !
 ! A23   A(4,5,21)             108.8018         calculate D2E/DX2 analytically  !
 ! A24   A(4,5,22)             109.5844         calculate D2E/DX2 analytically  !
 ! A25   A(6,5,21)             108.4116         calculate D2E/DX2 analytically  !
 ! A26   A(6,5,22)             108.8011         calculate D2E/DX2 analytically  !
 ! A27   A(21,5,22)            105.3232         calculate D2E/DX2 analytically  !
 ! A28   A(5,6,7)              116.7575         calculate D2E/DX2 analytically  !
 ! A29   A(5,6,23)             107.8858         calculate D2E/DX2 analytically  !
 ! A30   A(5,6,24)             109.7507         calculate D2E/DX2 analytically  !
 ! A31   A(7,6,23)             108.2363         calculate D2E/DX2 analytically  !
 ! A32   A(7,6,24)             107.9689         calculate D2E/DX2 analytically  !
 ! A33   A(23,6,24)            105.6849         calculate D2E/DX2 analytically  !
 ! A34   A(6,7,8)              114.8807         calculate D2E/DX2 analytically  !
 ! A35   A(6,7,25)             110.9893         calculate D2E/DX2 analytically  !
 ! A36   A(6,7,26)             106.3997         calculate D2E/DX2 analytically  !
 ! A37   A(8,7,25)             111.0083         calculate D2E/DX2 analytically  !
 ! A38   A(8,7,26)             107.4166         calculate D2E/DX2 analytically  !
 ! A39   A(25,7,26)            105.5389         calculate D2E/DX2 analytically  !
 ! A40   A(7,8,9)              112.9886         calculate D2E/DX2 analytically  !
 ! A41   A(7,8,27)             110.4404         calculate D2E/DX2 analytically  !
 ! A42   A(7,8,28)             107.6181         calculate D2E/DX2 analytically  !
 ! A43   A(9,8,27)             110.3606         calculate D2E/DX2 analytically  !
 ! A44   A(9,8,28)             108.8855         calculate D2E/DX2 analytically  !
 ! A45   A(27,8,28)            106.274          calculate D2E/DX2 analytically  !
 ! A46   A(8,9,10)             113.2026         calculate D2E/DX2 analytically  !
 ! A47   A(8,9,29)             108.7703         calculate D2E/DX2 analytically  !
 ! A48   A(8,9,30)             110.3536         calculate D2E/DX2 analytically  !
 ! A49   A(10,9,29)            107.5621         calculate D2E/DX2 analytically  !
 ! A50   A(10,9,30)            110.3298         calculate D2E/DX2 analytically  !
 ! A51   A(29,9,30)            106.3382         calculate D2E/DX2 analytically  !
 ! A52   A(9,10,11)            114.9191         calculate D2E/DX2 analytically  !
 ! A53   A(9,10,31)            110.6491         calculate D2E/DX2 analytically  !
 ! A54   A(9,10,32)            107.6639         calculate D2E/DX2 analytically  !
 ! A55   A(11,10,31)           110.3177         calculate D2E/DX2 analytically  !
 ! A56   A(11,10,32)           106.7415         calculate D2E/DX2 analytically  !
 ! A57   A(31,10,32)           106.0574         calculate D2E/DX2 analytically  !
 ! A58   A(10,11,12)           114.0779         calculate D2E/DX2 analytically  !
 ! A59   A(10,11,33)           108.6421         calculate D2E/DX2 analytically  !
 ! A60   A(10,11,34)           110.0074         calculate D2E/DX2 analytically  !
 ! A61   A(12,11,33)           108.1522         calculate D2E/DX2 analytically  !
 ! A62   A(12,11,34)           109.0611         calculate D2E/DX2 analytically  !
 ! A63   A(33,11,34)           106.6191         calculate D2E/DX2 analytically  !
 ! A64   A(11,12,35)           109.7575         calculate D2E/DX2 analytically  !
 ! A65   A(11,12,36)           109.8587         calculate D2E/DX2 analytically  !
 ! A66   A(35,12,36)           106.3437         calculate D2E/DX2 analytically  !
 ! D1    D(13,1,2,3)            61.2262         calculate D2E/DX2 analytically  !
 ! D2    D(13,1,2,15)          -60.43           calculate D2E/DX2 analytically  !
 ! D3    D(13,1,2,16)         -178.1172         calculate D2E/DX2 analytically  !
 ! D4    D(14,1,2,3)           177.369          calculate D2E/DX2 analytically  !
 ! D5    D(14,1,2,15)           55.7128         calculate D2E/DX2 analytically  !
 ! D6    D(14,1,2,16)          -61.9744         calculate D2E/DX2 analytically  !
 ! D7    D(1,2,3,4)           -173.6404         calculate D2E/DX2 analytically  !
 ! D8    D(1,2,3,17)            63.2435         calculate D2E/DX2 analytically  !
 ! D9    D(1,2,3,18)           -53.0697         calculate D2E/DX2 analytically  !
 ! D10   D(15,2,3,4)           -52.6157         calculate D2E/DX2 analytically  !
 ! D11   D(15,2,3,17)         -175.7318         calculate D2E/DX2 analytically  !
 ! D12   D(15,2,3,18)           67.9549         calculate D2E/DX2 analytically  !
 ! D13   D(16,2,3,4)            67.0854         calculate D2E/DX2 analytically  !
 ! D14   D(16,2,3,17)          -56.0307         calculate D2E/DX2 analytically  !
 ! D15   D(16,2,3,18)         -172.344          calculate D2E/DX2 analytically  !
 ! D16   D(2,3,4,5)            -64.5142         calculate D2E/DX2 analytically  !
 ! D17   D(2,3,4,19)           176.4849         calculate D2E/DX2 analytically  !
 ! D18   D(2,3,4,20)            62.223          calculate D2E/DX2 analytically  !
 ! D19   D(17,3,4,5)            58.8179         calculate D2E/DX2 analytically  !
 ! D20   D(17,3,4,19)          -60.1829         calculate D2E/DX2 analytically  !
 ! D21   D(17,3,4,20)         -174.4448         calculate D2E/DX2 analytically  !
 ! D22   D(18,3,4,5)           173.9385         calculate D2E/DX2 analytically  !
 ! D23   D(18,3,4,19)           54.9377         calculate D2E/DX2 analytically  !
 ! D24   D(18,3,4,20)          -59.3242         calculate D2E/DX2 analytically  !
 ! D25   D(3,4,5,6)             95.3058         calculate D2E/DX2 analytically  !
 ! D26   D(3,4,5,21)          -142.5959         calculate D2E/DX2 analytically  !
 ! D27   D(3,4,5,22)           -27.9234         calculate D2E/DX2 analytically  !
 ! D28   D(19,4,5,6)          -146.168          calculate D2E/DX2 analytically  !
 ! D29   D(19,4,5,21)          -24.0697         calculate D2E/DX2 analytically  !
 ! D30   D(19,4,5,22)           90.6028         calculate D2E/DX2 analytically  !
 ! D31   D(20,4,5,6)           -30.4315         calculate D2E/DX2 analytically  !
 ! D32   D(20,4,5,21)           91.6668         calculate D2E/DX2 analytically  !
 ! D33   D(20,4,5,22)         -153.6608         calculate D2E/DX2 analytically  !
 ! D34   D(4,5,6,7)             62.3328         calculate D2E/DX2 analytically  !
 ! D35   D(4,5,6,23)          -175.5956         calculate D2E/DX2 analytically  !
 ! D36   D(4,5,6,24)           -60.9058         calculate D2E/DX2 analytically  !
 ! D37   D(21,5,6,7)           -59.9741         calculate D2E/DX2 analytically  !
 ! D38   D(21,5,6,23)           62.0975         calculate D2E/DX2 analytically  !
 ! D39   D(21,5,6,24)          176.7873         calculate D2E/DX2 analytically  !
 ! D40   D(22,5,6,7)          -174.025          calculate D2E/DX2 analytically  !
 ! D41   D(22,5,6,23)          -51.9534         calculate D2E/DX2 analytically  !
 ! D42   D(22,5,6,24)           62.7364         calculate D2E/DX2 analytically  !
 ! D43   D(5,6,7,8)             62.0542         calculate D2E/DX2 analytically  !
 ! D44   D(5,6,7,25)           -64.9013         calculate D2E/DX2 analytically  !
 ! D45   D(5,6,7,26)          -179.2326         calculate D2E/DX2 analytically  !
 ! D46   D(23,6,7,8)           -59.8344         calculate D2E/DX2 analytically  !
 ! D47   D(23,6,7,25)          173.2102         calculate D2E/DX2 analytically  !
 ! D48   D(23,6,7,26)           58.8788         calculate D2E/DX2 analytically  !
 ! D49   D(24,6,7,8)          -173.7944         calculate D2E/DX2 analytically  !
 ! D50   D(24,6,7,25)           59.2502         calculate D2E/DX2 analytically  !
 ! D51   D(24,6,7,26)          -55.0811         calculate D2E/DX2 analytically  !
 ! D52   D(6,7,8,9)            -98.6541         calculate D2E/DX2 analytically  !
 ! D53   D(6,7,8,27)            25.5023         calculate D2E/DX2 analytically  !
 ! D54   D(6,7,8,28)           141.1055         calculate D2E/DX2 analytically  !
 ! D55   D(25,7,8,9)            28.2917         calculate D2E/DX2 analytically  !
 ! D56   D(25,7,8,27)          152.448          calculate D2E/DX2 analytically  !
 ! D57   D(25,7,8,28)          -91.9488         calculate D2E/DX2 analytically  !
 ! D58   D(26,7,8,9)           143.2037         calculate D2E/DX2 analytically  !
 ! D59   D(26,7,8,27)          -92.6399         calculate D2E/DX2 analytically  !
 ! D60   D(26,7,8,28)           22.9633         calculate D2E/DX2 analytically  !
 ! D61   D(7,8,9,10)           179.6486         calculate D2E/DX2 analytically  !
 ! D62   D(7,8,9,29)            60.1495         calculate D2E/DX2 analytically  !
 ! D63   D(7,8,9,30)           -56.1441         calculate D2E/DX2 analytically  !
 ! D64   D(27,8,9,10)           55.4485         calculate D2E/DX2 analytically  !
 ! D65   D(27,8,9,29)          -64.0506         calculate D2E/DX2 analytically  !
 ! D66   D(27,8,9,30)          179.6558         calculate D2E/DX2 analytically  !
 ! D67   D(28,8,9,10)          -60.8385         calculate D2E/DX2 analytically  !
 ! D68   D(28,8,9,29)          179.6623         calculate D2E/DX2 analytically  !
 ! D69   D(28,8,9,30)           63.3688         calculate D2E/DX2 analytically  !
 ! D70   D(8,9,10,11)           94.7024         calculate D2E/DX2 analytically  !
 ! D71   D(8,9,10,31)          -31.0465         calculate D2E/DX2 analytically  !
 ! D72   D(8,9,10,32)         -146.5282         calculate D2E/DX2 analytically  !
 ! D73   D(29,9,10,11)        -145.1074         calculate D2E/DX2 analytically  !
 ! D74   D(29,9,10,31)          89.1437         calculate D2E/DX2 analytically  !
 ! D75   D(29,9,10,32)         -26.338          calculate D2E/DX2 analytically  !
 ! D76   D(30,9,10,11)         -29.5178         calculate D2E/DX2 analytically  !
 ! D77   D(30,9,10,31)        -155.2668         calculate D2E/DX2 analytically  !
 ! D78   D(30,9,10,32)          89.2515         calculate D2E/DX2 analytically  !
 ! D79   D(9,10,11,12)         -65.096          calculate D2E/DX2 analytically  !
 ! D80   D(9,10,11,33)         174.1817         calculate D2E/DX2 analytically  !
 ! D81   D(9,10,11,34)          57.8181         calculate D2E/DX2 analytically  !
 ! D82   D(31,10,11,12)         60.8243         calculate D2E/DX2 analytically  !
 ! D83   D(31,10,11,33)        -59.8979         calculate D2E/DX2 analytically  !
 ! D84   D(31,10,11,34)       -176.2616         calculate D2E/DX2 analytically  !
 ! D85   D(32,10,11,12)        175.6199         calculate D2E/DX2 analytically  !
 ! D86   D(32,10,11,33)         54.8977         calculate D2E/DX2 analytically  !
 ! D87   D(32,10,11,34)        -61.466          calculate D2E/DX2 analytically  !
 ! D88   D(10,11,12,35)        -49.5895         calculate D2E/DX2 analytically  !
 ! D89   D(10,11,12,36)         67.0026         calculate D2E/DX2 analytically  !
 ! D90   D(33,11,12,35)         71.4055         calculate D2E/DX2 analytically  !
 ! D91   D(33,11,12,36)       -172.0025         calculate D2E/DX2 analytically  !
 ! D92   D(34,11,12,35)       -173.0172         calculate D2E/DX2 analytically  !
 ! D93   D(34,11,12,36)        -56.4252         calculate D2E/DX2 analytically  !
 --------------------------------------------------------------------------------
 Trust Radius=3.00D-01 FncErr=1.00D-07 GrdErr=1.00D-06 EigMax=2.50D+02 EigMin=1.00D-04
 Number of steps in this run=    204 maximum allowed number of steps=    216.
 GradGradGradGradGradGradGradGradGradGradGradGradGradGradGradGradGradGrad

                          Input orientation:                          
 ---------------------------------------------------------------------
 Center     Atomic      Atomic             Coordinates (Angstroms)
 Number     Number       Type             X           Y           Z
 ---------------------------------------------------------------------
      1          7           0       -5.369671    0.268606    0.015633
      2          6           0       -3.925128    0.370007   -0.165504
      3          6           0       -3.293582   -1.019086   -0.153389
      4          6           0       -1.760215   -1.012518   -0.182819
      5          6           0       -1.141539   -0.433436   -1.460233
      6          6           0       -0.753465    1.046482   -1.390747
      7          6           0        0.318852    1.431901   -0.363309
      8          6           0        1.689749    0.780969   -0.586203
      9          6           0        1.919512   -0.449156    0.299280
     10          6           0        3.286321   -1.109376    0.074110
     11          6           0        4.388207   -0.657269    1.037828
     12          7           0        4.754822    0.745117    0.904844
     13          1           0       -5.573765   -0.162037    0.916625
     14          1           0       -5.772284    1.204316    0.049268
     15          1           0       -3.501095    0.990486    0.631099
     16          1           0       -3.737263    0.864873   -1.122367
     17          1           0       -3.670601   -1.604773   -1.001673
     18          1           0       -3.605623   -1.552580    0.754266
     19          1           0       -1.439614   -2.059899   -0.106188
     20          1           0       -1.376211   -0.515038    0.712978
     21          1           0       -0.247371   -1.014252   -1.714409
     22          1           0       -1.830686   -0.579140   -2.301353
     23          1           0       -0.401098    1.349695   -2.385268
     24          1           0       -1.642978    1.653291   -1.194260
     25          1           0       -0.036413    1.259095    0.658079
     26          1           0        0.453253    2.518727   -0.448179
     27          1           0        1.822702    0.520565   -1.642847
     28          1           0        2.453768    1.530598   -0.356507
     29          1           0        1.151164   -1.194861    0.072419
     30          1           0        1.792519   -0.187197    1.356383
     31          1           0        3.612246   -0.979225   -0.965061
     32          1           0        3.162241   -2.190485    0.220346
     33          1           0        5.283042   -1.262797    0.855594
     34          1           0        4.084059   -0.851048    2.072458
     35          1           0        4.928097    0.964459   -0.075181
     36          1           0        3.978048    1.334988    1.197508
 ---------------------------------------------------------------------
                    Distance matrix (angstroms):
                    1          2          3          4          5
     1  N    0.000000
     2  C    1.459383   0.000000
     3  C    2.448849   1.525967   0.000000
     4  C    3.835210   2.568759   1.533664   0.000000
     5  C    4.533006   3.173359   2.584979   1.532933   0.000000
     6  C    4.887980   3.466739   3.499974   2.590774   1.531531
     7  C    5.818603   4.379282   4.370479   3.214075   2.610645
     8  C    7.103529   5.645592   5.316118   3.909163   3.202327
     9  C    7.329927   5.920040   5.263657   3.753690   3.530747
    10  C    8.765184   7.365527   6.584454   5.054000   4.734665
    11  C    9.854862   8.462555   7.782017   6.278476   6.071944
    12  N   10.174631   8.753735   8.307171   6.835056   6.461398
    13  H    1.019262   2.042567   2.660582   4.058973   5.036639
    14  H    1.019206   2.038181   3.335947   4.589653   5.138543
    15  H    2.095587   1.095160   2.167224   2.775815   3.459585
    16  H    2.077339   1.093514   2.164503   2.883759   2.921907
    17  H    2.726041   2.159564   1.097615   2.161218   2.824617
    18  H    2.640864   2.155087   1.098100   2.139001   3.496884
    19  H    4.569696   3.476455   2.126669   1.098028   2.137210
    20  H    4.128936   2.837607   2.163555   1.094256   2.187368
    21  H    5.556683   4.223881   3.422895   2.152781   1.096125
    22  H    4.314106   3.138378   2.635786   2.163555   1.097103
    23  H    5.623148   4.278542   4.354179   3.504002   2.140911
    24  H    4.155651   2.813070   3.309004   2.853646   2.162548
    25  H    5.462366   4.073189   4.056814   2.973016   2.928005
    26  H    6.259761   4.885398   5.161569   4.176068   3.504694
    27  H    7.385409   5.936561   5.546654   4.161648   3.119326
    28  H    7.933304   6.486429   6.290801   4.924962   4.242862
    29  H    6.683281   5.317345   4.453948   2.928228   2.860992
    30  H    7.300845   5.942903   5.370277   3.958814   4.074636
    31  H    9.121057   7.698814   6.953479   5.429213   4.810568
    32  H    8.881586   7.545582   6.571873   5.077472   4.943086
    33  H   10.794954   9.407395   8.639209   7.123791   6.879400
    34  H    9.739465   8.405149   7.707933   6.266409   6.321486
    35  H   10.321651   8.873619   8.457930   6.975209   6.380671
    36  H    9.482291   8.077696   7.761649   6.351672   6.033331
                    6          7          8          9         10
     6  C    0.000000
     7  C    1.534288   0.000000
     8  C    2.585939   1.533868   0.000000
     9  C    3.498276   2.557247   1.532997   0.000000
    10  C    4.807640   3.931323   2.560950   1.534522   0.000000
    11  C    5.936121   4.784085   3.462324   2.585192   1.532092
    12  N    5.975098   4.664517   3.408692   3.135599   2.507142
    13  H    5.479030   6.237131   7.477057   7.524145   8.950330
    14  H    5.223705   6.109333   7.500998   7.871480   9.349444
    15  H    3.411813   3.971862   5.335783   5.618332   7.126617
    16  H    3.001342   4.165304   5.454077   5.978868   7.393237
    17  H    3.961087   5.054169   5.881983   5.854681   7.057017
    18  H    4.414862   5.055453   5.939972   5.652582   6.939592
    19  H    3.430815   3.918033   4.253687   3.747349   4.823947
    20  H    2.692919   2.796820   3.573180   3.322240   4.743479
    21  H    2.146512   2.851271   2.871951   3.011588   3.961671
    22  H    2.152267   3.524317   4.145491   4.565542   5.666369
    23  H    1.097804   2.147884   2.816332   3.978429   5.068791
    24  H    1.094558   2.142025   3.498249   4.397986   5.791294
    25  H    2.181068   1.095130   2.180935   2.621546   4.122043
    26  H    2.124173   1.098388   2.137236   3.393662   4.632731
    27  H    2.641360   2.174699   1.096350   2.172921   2.783313
    28  H    3.404463   2.137207   1.094728   2.152885   2.801436
    29  H    3.285130   2.789709   2.151222   1.094486   2.136869
    30  H    3.943441   2.783975   2.172913   1.096457   2.173956
    31  H    4.831577   4.125782   2.633973   2.178275   1.096834
    32  H    5.329759   4.641896   3.412960   2.140755   1.097987
    33  H    6.842385   5.778434   4.378072   3.504972   2.149686
    34  H    6.244682   5.032058   3.932516   2.826825   2.167144
    35  H    5.832461   4.641838   3.283552   3.345162   2.649247
    36  H    5.400881   3.979354   2.953790   2.868371   2.777666
                   11         12         13         14         15
    11  C    0.000000
    12  N    1.455603   0.000000
    13  H    9.975010  10.368355   0.000000
    14  H   10.376816  10.571794   1.630533   0.000000
    15  H    8.069796   8.264098   2.388681   2.354262   0.000000
    16  H    8.544391   8.731519   2.929979   2.372607   1.773753
    17  H    8.366702   8.952349   3.063232   3.662312   3.070838
    18  H    8.048808   8.671743   2.415275   3.576579   2.548192
    19  H    6.102429   6.874688   4.662535   5.426905   3.754749
    20  H    5.775316   6.262138   4.217291   4.766775   2.605463
    21  H    5.402854   5.914204   6.001590   6.209449   4.484094
    22  H    7.059098   7.443270   4.953786   4.923650   3.721998
    23  H    6.219561   6.146045   6.320151   5.898961   4.340217
    24  H    6.833454   6.794326   4.816881   4.335794   2.687722
    25  H    4.836726   4.825039   5.722650   5.768350   3.475183
    26  H    5.270582   4.845602   6.736032   6.382197   4.374612
    27  H    3.892959   3.890820   7.856498   7.811183   5.808138
    28  H    3.236200   2.739131   8.302239   8.242514   6.060320
    29  H    3.420448   4.176458   6.855952   7.327394   5.170239
    30  H    2.657074   3.138206   7.379442   7.801993   5.471318
    31  H    2.171943   2.788437   9.412298   9.688453   7.551630
    32  H    2.126504   3.409195   8.995400   9.559272   7.395089
    33  H    1.095720   2.076815  10.912637  11.355925   9.071314
    34  H    1.095680   2.088298   9.751116  10.269631   7.937463
    35  H    2.039675   1.019109  10.608571  10.703792   8.458770
    36  H    2.040299   1.018322   9.672492   9.818579   7.508467
                   16         17         18         19         20
    16  H    0.000000
    17  H    2.473492   0.000000
    18  H    3.063195   1.757916   0.000000
    19  H    3.855658   2.446699   2.385235   0.000000
    20  H    3.293511   3.064600   2.459365   1.749756   0.000000
    21  H    4.007614   3.546154   4.202619   2.258583   2.723179
    22  H    2.666499   2.475152   3.665350   2.676627   3.049073
    23  H    3.599995   4.618751   5.343113   4.230609   3.745291
    24  H    2.238928   3.842307   4.233951   3.874666   2.900064
    25  H    4.125735   4.915672   4.544670   3.683584   2.223875
    26  H    4.555237   5.857967   5.873320   4.966258   3.728130
    27  H    5.594877   5.924908   6.285761   4.434278   4.105536
    28  H    6.273642   6.910476   6.888833   5.302146   4.471819
    29  H    5.437530   4.956926   4.818703   2.737210   2.694457
    30  H    6.150572   6.116831   5.600603   4.011584   3.249969
    31  H    7.578966   7.309755   7.441939   5.237061   5.283559
    32  H    7.664284   6.965926   6.818796   4.615273   4.862855
    33  H    9.476561   9.150634   8.893965   6.837726   6.702621
    34  H    8.621158   8.375747   7.833326   6.059603   5.636989
    35  H    8.728973   9.022026   8.935762   7.049500   6.523374
    36  H    8.070244   8.484127   8.126905   6.525024   5.685548
                   21         22         23         24         25
    21  H    0.000000
    22  H    1.743763   0.000000
    23  H    2.462099   2.402325   0.000000
    24  H    3.055169   2.498927   1.747265   0.000000
    25  H    3.292615   3.918770   3.066459   2.483466   0.000000
    26  H    3.817873   4.271699   2.418443   2.387425   1.746497
    27  H    2.577981   3.871721   2.486752   3.673586   3.048934
    28  H    3.951748   5.156546   3.506973   4.183325   2.702610
    29  H    2.276241   3.860742   3.863225   4.186128   2.788411
    30  H    3.778219   5.163358   4.601516   4.657877   2.434005
    31  H    3.931844   5.618831   4.852607   5.882181   4.577923
    32  H    4.092953   5.821058   5.658577   6.313942   4.724680
    33  H    6.103455   7.812735   7.045407   7.789430   5.890293
    34  H    5.755718   7.361275   6.695613   7.052809   4.840606
    35  H    5.778221   7.281462   5.821103   6.701183   5.027012
    36  H    5.643789   7.046084   5.658040   6.117009   4.051252
                   26         27         28         29         30
    26  H    0.000000
    27  H    2.700977   0.000000
    28  H    2.233128   1.753021   0.000000
    29  H    3.814293   2.517098   3.051046   0.000000
    30  H    3.517400   3.081756   2.514372   1.753650   0.000000
    31  H    4.741527   2.431303   2.830481   2.679513   3.054148
    32  H    5.473776   3.551851   3.831599   2.248907   2.679530
    33  H    6.271093   4.625639   4.156566   4.205995   3.686659
    34  H    5.558035   4.560542   3.772262   3.566544   2.490907
    35  H    4.751748   3.506864   2.553814   4.353122   3.634218
    36  H    4.066165   3.657378   2.185556   3.956922   2.668113
                   31         32         33         34         35
    31  H    0.000000
    32  H    1.753524   0.000000
    33  H    2.487319   2.400404   0.000000
    34  H    3.076615   2.464580   1.757229   0.000000
    35  H    2.510231   3.627568   2.439876   2.936123   0.000000
    36  H    3.188432   3.748246   2.927184   2.357018   1.630835
                   36
    36  H    0.000000
 Stoichiometry    C10H24N2
 Framework group  C1[X(C10H24N2)]
 Deg. of freedom   102
 Full point group                 C1      NOp   1
 Largest Abelian subgroup         C1      NOp   1
 Largest concise Abelian subgroup C1      NOp   1
                         Standard orientation:                         
 ---------------------------------------------------------------------
 Center     Atomic      Atomic             Coordinates (Angstroms)
 Number     Number       Type             X           Y           Z
 ---------------------------------------------------------------------
      1          7           0        5.326138   -0.038143   -0.744562
      2          6           0        3.908179    0.180171   -0.477111
      3          6           0        3.269594   -1.098578    0.057289
      4          6           0        1.747233   -1.018188    0.224863
      5          6           0        1.265394   -0.005300    1.269742
      6          6           0        0.881963    1.372648    0.722178
      7          6           0       -0.286678    1.420622   -0.270806
      8          6           0       -1.632054    0.945840    0.292486
      9          6           0       -1.958671   -0.504885   -0.080071
     10          6           0       -3.299809   -0.987743    0.488218
     11          6           0       -4.490952   -0.853897   -0.466019
     12          7           0       -4.832966    0.521042   -0.799710
     13          1           0        5.434781   -0.763657   -1.452178
     14          1           0        5.729364    0.809638   -1.141372
     15          1           0        3.409451    0.501593   -1.397618
     16          1           0        3.821780    0.984606    0.258547
     17          1           0        3.727032   -1.367462    1.018126
     18          1           0        3.484271   -1.927238   -0.630505
     19          1           0        1.413655   -2.012364    0.550448
     20          1           0        1.277439   -0.848162   -0.748677
     21          1           0        0.397906   -0.423422    1.793314
     22          1           0        2.035490    0.122341    2.040647
     23          1           0        0.634490    2.017576    1.575406
     24          1           0        1.750853    1.835393    0.243686
     25          1           0       -0.038199    0.888345   -1.195062
     26          1           0       -0.404640    2.473594   -0.560272
     27          1           0       -1.658630    1.075412    1.380828
     28          1           0       -2.410539    1.599781   -0.113412
     29          1           0       -1.176142   -1.156318    0.321406
     30          1           0       -1.938060   -0.632912   -1.168833
     31          1           0       -3.517573   -0.490446    1.441275
     32          1           0       -3.198314   -2.056297    0.719451
     33          1           0       -5.366577   -1.320182   -0.000764
     34          1           0       -4.294809   -1.408292   -1.390512
     35          1           0       -4.904300    1.074902    0.052776
     36          1           0       -4.086114    0.939143   -1.351418
 ---------------------------------------------------------------------
 Rotational constants (GHZ):           2.1227239           0.2677206           0.2577410
 Standard basis: 6-31G(d,p) (6D, 7F)
 There are   300 symmetry adapted cartesian basis functions of A   symmetry.
 There are   300 symmetry adapted basis functions of A   symmetry.
   300 basis functions,   504 primitive gaussians,   300 cartesian basis functions
    49 alpha electrons       49 beta electrons
       nuclear repulsion energy       738.8834571073 Hartrees.
 NAtoms=   36 NActive=   36 NUniq=   36 SFac= 1.00D+00 NAtFMM=   60 NAOKFM=F Big=F
 Integral buffers will be    131072 words long.
 Raffenetti 2 integral format.
 Two-electron integral symmetry is turned on.
 Force inversion solution in PCM.
 ------------------------------------------------------------------------------
 Polarizable Continuum Model (PCM)
 =================================
 Model                : PCM.
 Atomic radii         : UFF (Universal Force Field).
 Polarization charges : Total charges.
 Charge compensation  : None.
 Solution method      : Matrix inversion.
 Cavity type          : Scaled VdW (van der Waals Surface) (Alpha=1.100).
 Cavity algorithm     : GePol (No added spheres)
                        Default sphere list used, NSphG=   36.
                        Lebedev-Laikov grids with approx.  5.0 points / Ang**2.
                        Smoothing algorithm: York/Karplus (Gamma=1.0000).
                        Polarization charges: spherical gaussians, with
                                              point-specific exponents (IZeta= 3).
                        Self-potential: point-specific (ISelfS= 7).
                        Self-field    : sphere-specific E.n sum rule (ISelfD= 2).
 1st derivatives      : Analytical E(r).r(x)/FMM algorithm (CHGder, D1EAlg=3).
                        Cavity 1st derivative terms included.
 2nd derivatives      : Analytical E(r).r(xy)/FMM algorithm (CHGder, D2EAlg=3).
                        Cavity 2nd derivative terms included.
 Solvent              : Water, Eps=  78.355300 Eps(inf)=   1.777849
 ------------------------------------------------------------------------------
 One-electron integrals computed using PRISM.
 NBasis=   300 RedAO= T EigKep=  3.42D-03  NBF=   300
 NBsUse=   300 1.00D-06 EigRej= -1.00D+00 NBFU=   300
 ExpMin= 1.61D-01 ExpMax= 4.17D+03 ExpMxC= 6.27D+02 IAcc=3 IRadAn=         5 AccDes= 0.00D+00
 Harris functional with IExCor=  402 and IRadAn=       5 diagonalized for initial guess.
 HarFok:  IExCor=  402 AccDes= 0.00D+00 IRadAn=         5 IDoV= 1 UseB2=F ITyADJ=14
 ICtDFT=  3500011 ScaDFX=  1.000000  1.000000  1.000000  1.000000
 FoFCou: FMM=F IPFlag=           0 FMFlag=      100000 FMFlg1=           0
         NFxFlg=           0 DoJE=T BraDBF=F KetDBF=T FulRan=T
         wScrn=  0.000000 ICntrl=       500 IOpCl=  0 I1Cent=   200000004 NGrid=           0
         NMat0=    1 NMatS0=      1 NMatT0=    0 NMatD0=    1 NMtDS0=    0 NMtDT0=    0
 Petite list used in FoFCou.
 Requested convergence on RMS density matrix=1.00D-08 within  32 cycles.
 Requested convergence on MAX density matrix=1.00D-06.
 Requested convergence on             energy=1.00D-06.
 No special actions if energy rises.
 Inv3:  Mode=1 IEnd=    15445083.
 Iteration    1 A*A^-1 deviation from unit magnitude is 3.77D-15 for   1082.
 Iteration    1 A*A^-1 deviation from orthogonality  is 2.52D-15 for   1888   1117.
 Iteration    1 A^-1*A deviation from unit magnitude is 4.22D-15 for   1082.
 Iteration    1 A^-1*A deviation from orthogonality  is 8.61D-15 for   1913   1888.
 Error on total polarization charges =  0.01104
 SCF Done:  E(RB3LYP) =  -505.048665829     A.U. after   11 cycles
            NFock= 11  Conv=0.20D-08     -V/T= 2.0096
 QCSCF skips out because SCF is already converged.
 DoSCS=F DFT=T ScalE2(SS,OS)=  1.000000  1.000000
 Range of M.O.s used for correlation:     1   300
 NBasis=   300 NAE=    49 NBE=    49 NFC=     0 NFV=     0
 NROrb=    300 NOA=    49 NOB=    49 NVA=   251 NVB=   251
 Symmetrizing basis deriv contribution to polar:
 IMax=3 JMax=2 DiffMx= 0.00D+00
 G2DrvN: will do    37 centers at a time, making    1 passes.
 Calling FoFCou, ICntrl=  3107 FMM=F I1Cent=   0 AccDes= 0.00D+00.
 NEqPCM:  Using equilibrium solvation (IEInf=0, Eps=  78.3553, EpsInf=   1.7778)
 G2PCM: DoFxE=T DoFxN=T DoGrad=T DoDP/DQ/DG/TGxP=FFFF NFrqRd=   0 IEInf=0 SqF1=F DoCFld=F IF1Alg=4.
 End of G2Drv F.D. properties file   721 does not exist.
 End of G2Drv F.D. properties file   722 does not exist.
 End of G2Drv F.D. properties file   788 does not exist.
          IDoAtm=111111111111111111111111111111111111
 NEqPCM:  Using equilibrium solvation (IEInf=0, Eps=  78.3553, EpsInf=   1.7778)
          Differentiating once with respect to nuclear coordinates.
 Keep R1 ints in memory in canonical form, NReq=1032935983.
          There are   111 degrees of freedom in the 1st order CPHF.  IDoFFX=6 NUNeed=     0.
    105 vectors produced by pass  0 Test12= 1.23D-14 1.00D-09 XBig12= 7.64D-02 7.05D-02.
 AX will form   105 AO Fock derivatives at one time.
    105 vectors produced by pass  1 Test12= 1.23D-14 1.00D-09 XBig12= 6.67D-03 1.65D-02.
    105 vectors produced by pass  2 Test12= 1.23D-14 1.00D-09 XBig12= 7.50D-05 1.25D-03.
    105 vectors produced by pass  3 Test12= 1.23D-14 1.00D-09 XBig12= 1.76D-07 5.06D-05.
    105 vectors produced by pass  4 Test12= 1.23D-14 1.00D-09 XBig12= 1.42D-10 1.19D-06.
     38 vectors produced by pass  5 Test12= 1.23D-14 1.00D-09 XBig12= 7.90D-14 2.98D-08.
      1 vectors produced by pass  6 Test12= 1.23D-14 1.00D-09 XBig12= 4.95D-17 1.37D-09.
 InvSVY:  IOpt=1 It=  1 EMax= 4.16D-16
 Solved reduced A of dimension   564 with   111 vectors.
 End of Minotr F.D. properties file   721 does not exist.
 End of Minotr F.D. properties file   722 does not exist.
 End of Minotr F.D. properties file   788 does not exist.

 **********************************************************************

            Population analysis using the SCF density.

 **********************************************************************

 Orbital symmetries:
       Occupied  (A) (A) (A) (A) (A) (A) (A) (A) (A) (A) (A) (A)
                 (A) (A) (A) (A) (A) (A) (A) (A) (A) (A) (A) (A)
                 (A) (A) (A) (A) (A) (A) (A) (A) (A) (A) (A) (A)
                 (A) (A) (A) (A) (A) (A) (A) (A) (A) (A) (A) (A)
                 (A)
       Virtual   (A) (A) (A) (A) (A) (A) (A) (A) (A) (A) (A) (A)
                 (A) (A) (A) (A) (A) (A) (A) (A) (A) (A) (A) (A)
                 (A) (A) (A) (A) (A) (A) (A) (A) (A) (A) (A) (A)
                 (A) (A) (A) (A) (A) (A) (A) (A) (A) (A) (A) (A)
                 (A) (A) (A) (A) (A) (A) (A) (A) (A) (A) (A) (A)
                 (A) (A) (A) (A) (A) (A) (A) (A) (A) (A) (A) (A)
                 (A) (A) (A) (A) (A) (A) (A) (A) (A) (A) (A) (A)
                 (A) (A) (A) (A) (A) (A) (A) (A) (A) (A) (A) (A)
                 (A) (A) (A) (A) (A) (A) (A) (A) (A) (A) (A) (A)
                 (A) (A) (A) (A) (A) (A) (A) (A) (A) (A) (A) (A)
                 (A) (A) (A) (A) (A) (A) (A) (A) (A) (A) (A) (A)
                 (A) (A) (A) (A) (A) (A) (A) (A) (A) (A) (A) (A)
                 (A) (A) (A) (A) (A) (A) (A) (A) (A) (A) (A) (A)
                 (A) (A) (A) (A) (A) (A) (A) (A) (A) (A) (A) (A)
                 (A) (A) (A) (A) (A) (A) (A) (A) (A) (A) (A) (A)
                 (A) (A) (A) (A) (A) (A) (A) (A) (A) (A) (A) (A)
                 (A) (A) (A) (A) (A) (A) (A) (A) (A) (A) (A) (A)
                 (A) (A) (A) (A) (A) (A) (A) (A) (A) (A) (A) (A)
                 (A) (A) (A) (A) (A) (A) (A) (A) (A) (A) (A) (A)
                 (A) (A) (A) (A) (A) (A) (A) (A) (A) (A) (A) (A)
                 (A) (A) (A) (A) (A) (A) (A) (A) (A) (A) (A)
 The electronic state is 1-A.
 Alpha  occ. eigenvalues --  -14.30640 -14.30408 -10.19853 -10.19695 -10.17305
 Alpha  occ. eigenvalues --  -10.17169 -10.17134 -10.17096 -10.17067 -10.17051
 Alpha  occ. eigenvalues --  -10.17003 -10.16911  -0.87674  -0.87387  -0.80616
 Alpha  occ. eigenvalues --   -0.77994  -0.74875  -0.71031  -0.67462  -0.63960
 Alpha  occ. eigenvalues --   -0.60550  -0.57614  -0.56950  -0.54148  -0.49108
 Alpha  occ. eigenvalues --   -0.48286  -0.46918  -0.44984  -0.44647  -0.43861
 Alpha  occ. eigenvalues --   -0.43715  -0.41439  -0.40427  -0.40103  -0.38467
 Alpha  occ. eigenvalues --   -0.37887  -0.37443  -0.36151  -0.34548  -0.34187
 Alpha  occ. eigenvalues --   -0.33735  -0.32938  -0.31957  -0.31254  -0.30482
 Alpha  occ. eigenvalues --   -0.29771  -0.29075  -0.22961  -0.22737
 Alpha virt. eigenvalues --    0.07520   0.09018   0.09624   0.10235   0.10729
 Alpha virt. eigenvalues --    0.12204   0.12691   0.13069   0.14429   0.14665
 Alpha virt. eigenvalues --    0.15061   0.16346   0.16931   0.17472   0.17895
 Alpha virt. eigenvalues --    0.18783   0.19244   0.19402   0.19785   0.20474
 Alpha virt. eigenvalues --    0.20882   0.21855   0.22601   0.23799   0.24099
 Alpha virt. eigenvalues --    0.25177   0.25648   0.26685   0.27177   0.27938
 Alpha virt. eigenvalues --    0.29080   0.30352   0.31972   0.32423   0.33905
 Alpha virt. eigenvalues --    0.50164   0.51523   0.52039   0.52648   0.54202
 Alpha virt. eigenvalues --    0.55074   0.55137   0.55758   0.56848   0.57904
 Alpha virt. eigenvalues --    0.58857   0.62374   0.63494   0.64307   0.64718
 Alpha virt. eigenvalues --    0.66299   0.67890   0.68472   0.70043   0.70366
 Alpha virt. eigenvalues --    0.71114   0.71739   0.72909   0.73148   0.75199
 Alpha virt. eigenvalues --    0.75497   0.76804   0.78237   0.79901   0.81597
 Alpha virt. eigenvalues --    0.82546   0.83512   0.83801   0.84988   0.85776
 Alpha virt. eigenvalues --    0.86449   0.87476   0.87986   0.88793   0.89494
 Alpha virt. eigenvalues --    0.90484   0.91233   0.91697   0.92431   0.92735
 Alpha virt. eigenvalues --    0.93258   0.95072   0.95457   0.95996   0.96857
 Alpha virt. eigenvalues --    0.97646   0.98049   0.98561   1.00492   1.01647
 Alpha virt. eigenvalues --    1.02530   1.03155   1.04780   1.07713   1.09435
 Alpha virt. eigenvalues --    1.12471   1.14037   1.16414   1.26699   1.28922
 Alpha virt. eigenvalues --    1.31386   1.34937   1.35713   1.37700   1.41414
 Alpha virt. eigenvalues --    1.43599   1.46826   1.48837   1.51580   1.54094
 Alpha virt. eigenvalues --    1.54799   1.57539   1.62753   1.63563   1.65424
 Alpha virt. eigenvalues --    1.66355   1.68765   1.69978   1.71188   1.71929
 Alpha virt. eigenvalues --    1.74698   1.77381   1.78570   1.80156   1.82505
 Alpha virt. eigenvalues --    1.82554   1.84945   1.85655   1.86477   1.87543
 Alpha virt. eigenvalues --    1.88096   1.90443   1.92477   1.93400   1.94881
 Alpha virt. eigenvalues --    1.96977   1.97686   1.98282   1.99394   2.02316
 Alpha virt. eigenvalues --    2.02800   2.07323   2.09647   2.09924   2.10988
 Alpha virt. eigenvalues --    2.13648   2.13902   2.15061   2.16416   2.17408
 Alpha virt. eigenvalues --    2.18177   2.20158   2.22578   2.22738   2.23637
 Alpha virt. eigenvalues --    2.24096   2.24773   2.25849   2.26081   2.26592
 Alpha virt. eigenvalues --    2.27831   2.28833   2.29621   2.30137   2.31749
 Alpha virt. eigenvalues --    2.33115   2.34297   2.34953   2.35498   2.38561
 Alpha virt. eigenvalues --    2.40419   2.41799   2.43068   2.46639   2.46825
 Alpha virt. eigenvalues --    2.47373   2.48478   2.49977   2.50851   2.54424
 Alpha virt. eigenvalues --    2.56227   2.58395   2.59940   2.61395   2.63054
 Alpha virt. eigenvalues --    2.64831   2.67707   2.68056   2.68620   2.71652
 Alpha virt. eigenvalues --    2.73112   2.73178   2.74119   2.74448   2.76498
 Alpha virt. eigenvalues --    2.77977   2.79194   2.79379   2.81479   2.83725
 Alpha virt. eigenvalues --    2.84739   2.87641   2.88087   2.89720   2.90200
 Alpha virt. eigenvalues --    2.91272   2.92436   2.93205   2.93932   2.95159
 Alpha virt. eigenvalues --    2.96145   2.96823   2.97583   2.98963   2.99595
 Alpha virt. eigenvalues --    3.24020   3.24873   3.28629   3.29377   3.30629
 Alpha virt. eigenvalues --    3.31783   3.32486   3.32825   3.35028   3.35611
 Alpha virt. eigenvalues --    3.36472   3.39395   3.40352   3.40744   3.43002
 Alpha virt. eigenvalues --    3.43763   3.48702   3.51175   3.54935   3.57265
 Alpha virt. eigenvalues --    3.57927   3.58471   3.59695   3.61556   3.97310
 Alpha virt. eigenvalues --    3.99712   4.25325   4.33064   4.38696   4.48271
 Alpha virt. eigenvalues --    4.55483   4.65298   4.67726   4.71053   4.74345
 Alpha virt. eigenvalues --    4.78830
          Condensed to atoms (all electrons):
               1          2          3          4          5          6
     1  N    6.830082   0.288957  -0.049922   0.003491  -0.000040   0.000054
     2  C    0.288957   4.794021   0.376311  -0.040774  -0.003762  -0.000448
     3  C   -0.049922   0.376311   4.937635   0.357278  -0.038132  -0.000954
     4  C    0.003491  -0.040774   0.357278   4.929699   0.367829  -0.041595
     5  C   -0.000040  -0.003762  -0.038132   0.367829   4.925945   0.378315
     6  C    0.000054  -0.000448  -0.000954  -0.041595   0.378315   4.903883
     7  C   -0.000001  -0.000005   0.000066  -0.006300  -0.046489   0.381207
     8  C    0.000000   0.000001   0.000007  -0.000823  -0.002696  -0.038980
     9  C    0.000000  -0.000001   0.000027  -0.000438  -0.000530  -0.001349
    10  C   -0.000000   0.000000  -0.000000   0.000008  -0.000055  -0.000070
    11  C    0.000000  -0.000000   0.000000  -0.000000   0.000000  -0.000002
    12  N   -0.000000   0.000000  -0.000000  -0.000000  -0.000000  -0.000002
    13  H    0.339684  -0.037870  -0.006188  -0.000214   0.000016  -0.000005
    14  H    0.337415  -0.033209   0.005799  -0.000258   0.000008   0.000004
    15  H   -0.054138   0.390320  -0.052366   0.002436  -0.001790  -0.000003
    16  H   -0.042469   0.386441  -0.029092  -0.005343   0.004808  -0.002634
    17  H    0.004600  -0.038304   0.372580  -0.032552  -0.007973  -0.000097
    18  H   -0.005257  -0.041319   0.380168  -0.034335   0.005194  -0.000158
    19  H   -0.000111   0.005361  -0.034189   0.375113  -0.035351   0.004777
    20  H    0.000007  -0.007379  -0.036874   0.386195  -0.044290  -0.008839
    21  H    0.000001   0.000031   0.004278  -0.036957   0.381574  -0.040004
    22  H   -0.000073  -0.001079  -0.007143  -0.046240   0.381269  -0.033350
    23  H   -0.000001  -0.000075  -0.000051   0.005269  -0.036521   0.375957
    24  H    0.000022   0.001031   0.000007  -0.004182  -0.044326   0.379167
    25  H   -0.000001  -0.000036  -0.000002   0.001697  -0.006315  -0.037648
    26  H    0.000000   0.000007  -0.000009   0.000160   0.005446  -0.033408
    27  H    0.000000   0.000000   0.000000   0.000123  -0.000697  -0.007672
    28  H   -0.000000  -0.000000   0.000000  -0.000016   0.000048   0.003789
    29  H   -0.000000   0.000002   0.000031   0.000522  -0.000221   0.000335
    30  H    0.000000   0.000000   0.000001   0.000034   0.000006   0.000031
    31  H    0.000000  -0.000000   0.000000   0.000001  -0.000007  -0.000010
    32  H   -0.000000   0.000000  -0.000000  -0.000003   0.000004   0.000003
    33  H   -0.000000   0.000000  -0.000000  -0.000000   0.000000  -0.000000
    34  H   -0.000000   0.000000   0.000000  -0.000000  -0.000000  -0.000000
    35  H   -0.000000  -0.000000   0.000000  -0.000000  -0.000000   0.000000
    36  H    0.000000  -0.000000  -0.000000  -0.000000  -0.000000   0.000001
               7          8          9         10         11         12
     1  N   -0.000001   0.000000   0.000000  -0.000000   0.000000  -0.000000
     2  C   -0.000005   0.000001  -0.000001   0.000000  -0.000000   0.000000
     3  C    0.000066   0.000007   0.000027  -0.000000   0.000000  -0.000000
     4  C   -0.006300  -0.000823  -0.000438   0.000008  -0.000000  -0.000000
     5  C   -0.046489  -0.002696  -0.000530  -0.000055   0.000000  -0.000000
     6  C    0.381207  -0.038980  -0.001349  -0.000070  -0.000002  -0.000002
     7  C    4.936024   0.353372  -0.037146   0.004391  -0.000033   0.000065
     8  C    0.353372   4.930074   0.381925  -0.036574  -0.001462  -0.005239
     9  C   -0.037146   0.381925   4.923277   0.352242  -0.038757   0.001187
    10  C    0.004391  -0.036574   0.352242   5.025762   0.375443  -0.079087
    11  C   -0.000033  -0.001462  -0.038757   0.375443   4.775680   0.327899
    12  N    0.000065  -0.005239   0.001187  -0.079087   0.327899   6.760965
    13  H    0.000000  -0.000000   0.000000  -0.000000  -0.000000  -0.000000
    14  H    0.000000  -0.000000  -0.000000   0.000000  -0.000000   0.000000
    15  H   -0.000037   0.000001  -0.000000   0.000000  -0.000000  -0.000000
    16  H    0.000023  -0.000001   0.000000   0.000000   0.000000   0.000000
    17  H   -0.000004   0.000000  -0.000000   0.000000  -0.000000   0.000000
    18  H    0.000010  -0.000001   0.000001  -0.000000  -0.000000   0.000000
    19  H    0.000271  -0.000001  -0.000235  -0.000000   0.000000  -0.000000
    20  H    0.001795  -0.000366   0.000420   0.000003  -0.000000  -0.000000
    21  H   -0.008494   0.005091  -0.001568   0.000117   0.000001  -0.000000
    22  H    0.005149  -0.000094   0.000070  -0.000000   0.000000  -0.000000
    23  H   -0.038461  -0.008462   0.000036   0.000008  -0.000000  -0.000000
    24  H   -0.036404   0.005179  -0.000137   0.000003   0.000000   0.000000
    25  H    0.385268  -0.043709  -0.009319   0.000330  -0.000015   0.000004
    26  H    0.371433  -0.034712   0.004350  -0.000215   0.000004  -0.000002
    27  H   -0.042969   0.384764  -0.037952  -0.005588  -0.000044   0.000294
    28  H   -0.032644   0.373550  -0.045821  -0.003019  -0.000199   0.006293
    29  H   -0.002066  -0.043243   0.385772  -0.033083   0.003806   0.000077
    30  H   -0.005158  -0.038368   0.384722  -0.045341  -0.007405   0.000342
    31  H    0.000289  -0.009142  -0.044328   0.382455  -0.035695  -0.004929
    32  H   -0.000191   0.004584  -0.033958   0.348191  -0.028984   0.006318
    33  H    0.000003  -0.000146   0.005180  -0.049016   0.385923  -0.043451
    34  H    0.000009  -0.000068  -0.007993  -0.044196   0.389500  -0.038470
    35  H    0.000004  -0.000146  -0.001433  -0.003463  -0.043831   0.349316
    36  H    0.000067  -0.001816   0.004879  -0.003327  -0.041568   0.352470
              13         14         15         16         17         18
     1  N    0.339684   0.337415  -0.054138  -0.042469   0.004600  -0.005257
     2  C   -0.037870  -0.033209   0.390320   0.386441  -0.038304  -0.041319
     3  C   -0.006188   0.005799  -0.052366  -0.029092   0.372580   0.380168
     4  C   -0.000214  -0.000258   0.002436  -0.005343  -0.032552  -0.034335
     5  C    0.000016   0.000008  -0.001790   0.004808  -0.007973   0.005194
     6  C   -0.000005   0.000004  -0.000003  -0.002634  -0.000097  -0.000158
     7  C    0.000000   0.000000  -0.000037   0.000023  -0.000004   0.000010
     8  C   -0.000000  -0.000000   0.000001  -0.000001   0.000000  -0.000001
     9  C    0.000000  -0.000000  -0.000000   0.000000  -0.000000   0.000001
    10  C   -0.000000   0.000000   0.000000   0.000000   0.000000  -0.000000
    11  C   -0.000000  -0.000000  -0.000000   0.000000  -0.000000  -0.000000
    12  N   -0.000000   0.000000  -0.000000   0.000000   0.000000   0.000000
    13  H    0.482678  -0.032257  -0.005219   0.006651  -0.000679   0.006634
    14  H   -0.032257   0.481851  -0.004006  -0.003123  -0.000136   0.000077
    15  H   -0.005219  -0.004006   0.686391  -0.051005   0.006976  -0.006157
    16  H    0.006651  -0.003123  -0.051005   0.628900  -0.008716   0.005991
    17  H   -0.000679  -0.000136   0.006976  -0.008716   0.643926  -0.039590
    18  H    0.006634   0.000077  -0.006157   0.005991  -0.039590   0.649370
    19  H   -0.000009   0.000004   0.000008  -0.000113  -0.004401  -0.004987
    20  H   -0.000005  -0.000002   0.005151  -0.000241   0.005834  -0.003768
    21  H    0.000000  -0.000000  -0.000018  -0.000047   0.000123  -0.000236
    22  H    0.000001   0.000004   0.000131   0.001312   0.004990   0.000251
    23  H    0.000000  -0.000000   0.000020   0.000168   0.000002   0.000005
    24  H    0.000001  -0.000015   0.001522   0.002314   0.000133  -0.000070
    25  H    0.000000  -0.000000   0.000330   0.000002   0.000001   0.000010
    26  H   -0.000000  -0.000000  -0.000000  -0.000004   0.000000  -0.000000
    27  H   -0.000000  -0.000000   0.000000  -0.000000  -0.000000  -0.000000
    28  H    0.000000  -0.000000  -0.000000  -0.000000  -0.000000  -0.000000
    29  H    0.000000   0.000000  -0.000000  -0.000000  -0.000000   0.000000
    30  H   -0.000000   0.000000  -0.000000  -0.000000   0.000000  -0.000000
    31  H   -0.000000  -0.000000  -0.000000  -0.000000  -0.000000  -0.000000
    32  H    0.000000   0.000000   0.000000  -0.000000   0.000000  -0.000000
    33  H   -0.000000   0.000000   0.000000   0.000000   0.000000  -0.000000
    34  H   -0.000000  -0.000000  -0.000000  -0.000000  -0.000000   0.000000
    35  H    0.000000  -0.000000  -0.000000  -0.000000  -0.000000   0.000000
    36  H    0.000000  -0.000000  -0.000000   0.000000   0.000000   0.000000
              19         20         21         22         23         24
     1  N   -0.000111   0.000007   0.000001  -0.000073  -0.000001   0.000022
     2  C    0.005361  -0.007379   0.000031  -0.001079  -0.000075   0.001031
     3  C   -0.034189  -0.036874   0.004278  -0.007143  -0.000051   0.000007
     4  C    0.375113   0.386195  -0.036957  -0.046240   0.005269  -0.004182
     5  C   -0.035351  -0.044290   0.381574   0.381269  -0.036521  -0.044326
     6  C    0.004777  -0.008839  -0.040004  -0.033350   0.375957   0.379167
     7  C    0.000271   0.001795  -0.008494   0.005149  -0.038461  -0.036404
     8  C   -0.000001  -0.000366   0.005091  -0.000094  -0.008462   0.005179
     9  C   -0.000235   0.000420  -0.001568   0.000070   0.000036  -0.000137
    10  C   -0.000000   0.000003   0.000117  -0.000000   0.000008   0.000003
    11  C    0.000000  -0.000000   0.000001   0.000000  -0.000000   0.000000
    12  N   -0.000000  -0.000000  -0.000000  -0.000000  -0.000000   0.000000
    13  H   -0.000009  -0.000005   0.000000   0.000001   0.000000   0.000001
    14  H    0.000004  -0.000002  -0.000000   0.000004  -0.000000  -0.000015
    15  H    0.000008   0.005151  -0.000018   0.000131   0.000020   0.001522
    16  H   -0.000113  -0.000241  -0.000047   0.001312   0.000168   0.002314
    17  H   -0.004401   0.005834   0.000123   0.004990   0.000002   0.000133
    18  H   -0.004987  -0.003768  -0.000236   0.000251   0.000005  -0.000070
    19  H    0.651690  -0.037525  -0.011736   0.001669  -0.000221  -0.000053
    20  H   -0.037525   0.631205   0.001397   0.005398   0.000218   0.000483
    21  H   -0.011736   0.001397   0.645755  -0.036978  -0.004494   0.006493
    22  H    0.001669   0.005398  -0.036978   0.643667  -0.004203  -0.004318
    23  H   -0.000221   0.000218  -0.004494  -0.004203   0.655996  -0.037210
    24  H   -0.000053   0.000483   0.006493  -0.004318  -0.037210   0.648599
    25  H   -0.000205   0.004161  -0.000090  -0.000044   0.006046  -0.003578
    26  H    0.000000  -0.000223   0.000031  -0.000177  -0.005264  -0.004446
    27  H   -0.000004   0.000001   0.001936  -0.000180   0.004778   0.000253
    28  H    0.000001   0.000008  -0.000086   0.000001   0.000183  -0.000226
    29  H    0.001575   0.000474   0.000884   0.000047   0.000058  -0.000077
    30  H   -0.000003   0.000185   0.000068  -0.000005   0.000001   0.000016
    31  H    0.000000   0.000001   0.000046  -0.000000  -0.000003   0.000000
    32  H   -0.000000  -0.000002  -0.000022  -0.000000  -0.000000  -0.000000
    33  H   -0.000000  -0.000000   0.000000  -0.000000  -0.000000   0.000000
    34  H    0.000000   0.000000   0.000000   0.000000  -0.000000  -0.000000
    35  H    0.000000   0.000000  -0.000000   0.000000   0.000000  -0.000000
    36  H   -0.000000  -0.000000  -0.000000  -0.000000   0.000000  -0.000000
              25         26         27         28         29         30
     1  N   -0.000001   0.000000   0.000000  -0.000000  -0.000000   0.000000
     2  C   -0.000036   0.000007   0.000000  -0.000000   0.000002   0.000000
     3  C   -0.000002  -0.000009   0.000000   0.000000   0.000031   0.000001
     4  C    0.001697   0.000160   0.000123  -0.000016   0.000522   0.000034
     5  C   -0.006315   0.005446  -0.000697   0.000048  -0.000221   0.000006
     6  C   -0.037648  -0.033408  -0.007672   0.003789   0.000335   0.000031
     7  C    0.385268   0.371433  -0.042969  -0.032644  -0.002066  -0.005158
     8  C   -0.043709  -0.034712   0.384764   0.373550  -0.043243  -0.038368
     9  C   -0.009319   0.004350  -0.037952  -0.045821   0.385772   0.384722
    10  C    0.000330  -0.000215  -0.005588  -0.003019  -0.033083  -0.045341
    11  C   -0.000015   0.000004  -0.000044  -0.000199   0.003806  -0.007405
    12  N    0.000004  -0.000002   0.000294   0.006293   0.000077   0.000342
    13  H    0.000000  -0.000000  -0.000000   0.000000   0.000000  -0.000000
    14  H   -0.000000  -0.000000  -0.000000  -0.000000   0.000000   0.000000
    15  H    0.000330  -0.000000   0.000000  -0.000000  -0.000000  -0.000000
    16  H    0.000002  -0.000004  -0.000000  -0.000000  -0.000000  -0.000000
    17  H    0.000001   0.000000  -0.000000  -0.000000  -0.000000   0.000000
    18  H    0.000010  -0.000000  -0.000000  -0.000000   0.000000  -0.000000
    19  H   -0.000205   0.000000  -0.000004   0.000001   0.001575  -0.000003
    20  H    0.004161  -0.000223   0.000001   0.000008   0.000474   0.000185
    21  H   -0.000090   0.000031   0.001936  -0.000086   0.000884   0.000068
    22  H   -0.000044  -0.000177  -0.000180   0.000001   0.000047  -0.000005
    23  H    0.006046  -0.005264   0.004778   0.000183   0.000058   0.000001
    24  H   -0.003578  -0.004446   0.000253  -0.000226  -0.000077   0.000016
    25  H    0.635184  -0.037407   0.005143   0.001751   0.000044   0.004726
    26  H   -0.037407   0.657817   0.001933  -0.011647  -0.000023   0.000230
    27  H    0.005143   0.001933   0.634820  -0.037581  -0.006161   0.005686
    28  H    0.001751  -0.011647  -0.037581   0.655921   0.006494  -0.005828
    29  H    0.000044  -0.000023  -0.006161   0.006494   0.630382  -0.038025
    30  H    0.004726   0.000230   0.005686  -0.005828  -0.038025   0.638621
    31  H    0.000015  -0.000003   0.005350   0.000346   0.001160   0.005378
    32  H   -0.000002   0.000003   0.000255   0.000113  -0.010042   0.002024
    33  H    0.000000  -0.000000   0.000019  -0.000013  -0.000217   0.000248
    34  H   -0.000003  -0.000000   0.000007   0.000159   0.000149   0.005235
    35  H    0.000002  -0.000006   0.000078   0.003118   0.000009   0.000208
    36  H    0.000024  -0.000030  -0.000015   0.005312  -0.000046   0.000896
              31         32         33         34         35         36
     1  N    0.000000  -0.000000  -0.000000  -0.000000  -0.000000   0.000000
     2  C   -0.000000   0.000000   0.000000   0.000000  -0.000000  -0.000000
     3  C    0.000000  -0.000000  -0.000000   0.000000   0.000000  -0.000000
     4  C    0.000001  -0.000003  -0.000000  -0.000000  -0.000000  -0.000000
     5  C   -0.000007   0.000004   0.000000  -0.000000  -0.000000  -0.000000
     6  C   -0.000010   0.000003  -0.000000  -0.000000   0.000000   0.000001
     7  C    0.000289  -0.000191   0.000003   0.000009   0.000004   0.000067
     8  C   -0.009142   0.004584  -0.000146  -0.000068  -0.000146  -0.001816
     9  C   -0.044328  -0.033958   0.005180  -0.007993  -0.001433   0.004879
    10  C    0.382455   0.348191  -0.049016  -0.044196  -0.003463  -0.003327
    11  C   -0.035695  -0.028984   0.385923   0.389500  -0.043831  -0.041568
    12  N   -0.004929   0.006318  -0.043451  -0.038470   0.349316   0.352470
    13  H   -0.000000   0.000000  -0.000000  -0.000000   0.000000   0.000000
    14  H   -0.000000   0.000000   0.000000  -0.000000  -0.000000  -0.000000
    15  H   -0.000000   0.000000   0.000000  -0.000000  -0.000000  -0.000000
    16  H   -0.000000  -0.000000   0.000000  -0.000000  -0.000000   0.000000
    17  H   -0.000000   0.000000   0.000000  -0.000000  -0.000000   0.000000
    18  H   -0.000000  -0.000000  -0.000000   0.000000   0.000000   0.000000
    19  H    0.000000  -0.000000  -0.000000   0.000000   0.000000  -0.000000
    20  H    0.000001  -0.000002  -0.000000   0.000000   0.000000  -0.000000
    21  H    0.000046  -0.000022   0.000000   0.000000  -0.000000  -0.000000
    22  H   -0.000000  -0.000000  -0.000000   0.000000   0.000000  -0.000000
    23  H   -0.000003  -0.000000  -0.000000  -0.000000   0.000000   0.000000
    24  H    0.000000  -0.000000   0.000000  -0.000000  -0.000000  -0.000000
    25  H    0.000015  -0.000002   0.000000  -0.000003   0.000002   0.000024
    26  H   -0.000003   0.000003  -0.000000  -0.000000  -0.000006  -0.000030
    27  H    0.005350   0.000255   0.000019   0.000007   0.000078  -0.000015
    28  H    0.000346   0.000113  -0.000013   0.000159   0.003118   0.005312
    29  H    0.001160  -0.010042  -0.000217   0.000149   0.000009  -0.000046
    30  H    0.005378   0.002024   0.000248   0.005235   0.000208   0.000896
    31  H    0.635772  -0.035209  -0.004088   0.005596   0.005580  -0.000252
    32  H   -0.035209   0.667113  -0.001098  -0.002058  -0.000006  -0.000065
    33  H   -0.004088  -0.001098   0.645493  -0.036700  -0.004125   0.006462
    34  H    0.005596  -0.002058  -0.036700   0.626722   0.006626  -0.007446
    35  H    0.005580  -0.000006  -0.004125   0.006626   0.476947  -0.037473
    36  H   -0.000252  -0.000065   0.006462  -0.007446  -0.037473   0.467512
 Mulliken charges:
               1
     1  N   -0.652301
     2  C   -0.038222
     3  C   -0.179266
     4  C   -0.179826
     5  C   -0.181266
     6  C   -0.180297
     7  C   -0.183044
     8  C   -0.172501
     9  C   -0.183122
    10  C   -0.185917
    11  C   -0.060262
    12  N   -0.634053
    13  H    0.246781
    14  H    0.247844
    15  H    0.081455
    16  H    0.106178
    17  H    0.093288
    18  H    0.088167
    19  H    0.088677
    20  H    0.096578
    21  H    0.092903
    22  H    0.089926
    23  H    0.086218
    24  H    0.089819
    25  H    0.093635
    26  H    0.086163
    27  H    0.093420
    28  H    0.079995
    29  H    0.101382
    30  H    0.091473
    31  H    0.091676
    32  H    0.083031
    33  H    0.095526
    34  H    0.102931
    35  H    0.248595
    36  H    0.254415
 Sum of Mulliken charges =  -0.00000
 Mulliken charges with hydrogens summed into heavy atoms:
               1
     1  N   -0.157675
     2  C    0.149411
     3  C    0.002189
     4  C    0.005429
     5  C    0.001563
     6  C   -0.004259
     7  C   -0.003246
     8  C    0.000914
     9  C    0.009733
    10  C   -0.011210
    11  C    0.138195
    12  N   -0.131043
 APT charges:
               1
     1  N   -1.645154
     2  C   -0.161669
     3  C   -0.939663
     4  C   -0.472272
     5  C   -0.739995
     6  C   -0.848125
     7  C   -0.680585
     8  C   -0.811069
     9  C   -0.388204
    10  C   -0.710087
    11  C   -1.158694
    12  N   -0.255316
    13  H    0.598554
    14  H    0.794032
    15  H    0.198073
    16  H    0.244845
    17  H    0.472469
    18  H    0.426458
    19  H    0.348776
    20  H    0.147248
    21  H    0.243623
    22  H    0.500406
    23  H    0.426636
    24  H    0.396189
    25  H    0.218811
    26  H    0.470856
    27  H    0.332735
    28  H    0.436561
    29  H    0.161409
    30  H    0.286377
    31  H    0.358612
    32  H    0.351161
    33  H    0.769352
    34  H    0.308336
    35  H    0.399535
    36  H   -0.080221
 Sum of APT charges =  -0.00000
 APT charges with hydrogens summed into heavy atoms:
               1
     1  N   -0.252568
     2  C    0.281249
     3  C   -0.040736
     4  C    0.023752
     5  C    0.004034
     6  C   -0.025301
     7  C    0.009081
     8  C   -0.041773
     9  C    0.059582
    10  C   -0.000313
    11  C   -0.081006
    12  N    0.063998
 Electronic spatial extent (au):  <R**2>=           4409.3283
 Charge=              0.0000 electrons
 Dipole moment (field-independent basis, Debye):
    X=              0.7487    Y=              0.4718    Z=             -0.6057  Tot=              1.0724
 Quadrupole moment (field-independent basis, Debye-Ang):
   XX=           -101.1511   YY=            -76.9242   ZZ=            -76.9758
   XY=              2.9861   XZ=            -14.2778   YZ=              0.9684
 Traceless Quadrupole moment (field-independent basis, Debye-Ang):
   XX=            -16.1341   YY=              8.0928   ZZ=              8.0413
   XY=              2.9861   XZ=            -14.2778   YZ=              0.9684
 Octapole moment (field-independent basis, Debye-Ang**2):
  XXX=             56.2341  YYY=              2.5664  ZZZ=             -7.5752  XYY=              2.2696
  XXY=             11.3128  XXZ=             -7.2434  XZZ=             18.6917  YZZ=             -0.4600
  YYZ=             -3.5331  XYZ=             -3.6765
 Hexadecapole moment (field-independent basis, Debye-Ang**3):
 XXXX=          -5999.3590 YYYY=           -557.3540 ZZZZ=           -336.0423 XXXY=            157.6266
 XXXZ=           -525.4657 YYYX=            -10.4002 YYYZ=             -1.7002 ZZZX=            -30.7964
 ZZZY=              3.7664 XXYY=           -857.8637 XXZZ=           -838.2370 YYZZ=           -147.0268
 XXYZ=             31.0444 YYXZ=            -12.6329 ZZXY=             -4.0621
 N-N= 7.388834571073D+02 E-N=-2.646796626865D+03  KE= 5.002659355465D+02
  Exact polarizability:   0.000   0.000   0.000   0.000   0.000   0.000
 Approx polarizability: 162.449  -0.149 163.934  -3.866   1.376 160.216
 D2PCM: PCM CHGder 2nd derivatives, FixD1E=F FixD2E=F DoIter=F DoCFld=F I1PDM=0
 Calling FoFJK, ICntrl=    100147 FMM=F ISym2X=0 I1Cent= 0 IOpClX= 0 NMat=1 NMatS=1 NMatT=0.
 ***** Axes restored to original set *****
 -------------------------------------------------------------------
 Center     Atomic                   Forces (Hartrees/Bohr)
 Number     Number              X              Y              Z
 -------------------------------------------------------------------
      1        7          -0.012692772   -0.001958714   -0.005944728
      2        6          -0.005497400   -0.002498910    0.005527582
      3        6           0.004365899    0.001178620    0.001684010
      4        6          -0.002820575   -0.010903017   -0.001711002
      5        6           0.004636281    0.001091566   -0.000577086
      6        6          -0.002480691    0.002895832   -0.002004421
      7        6          -0.000822141    0.008981686   -0.007849941
      8        6          -0.001668598    0.002929158    0.010417243
      9        6           0.002154894   -0.002809561   -0.010352292
     10        6          -0.001477265   -0.014282200    0.009655826
     11        6          -0.000919987   -0.001188945   -0.010145296
     12        7           0.006808495    0.010556865    0.007070697
     13        1           0.001026842    0.001978683   -0.000069476
     14        1          -0.000291300   -0.001745248    0.001098701
     15        1           0.010401073    0.002189479    0.000466309
     16        1           0.000969718    0.001311196   -0.000432522
     17        1          -0.001227786    0.001061491   -0.000172035
     18        1          -0.002416112    0.000856098    0.000658197
     19        1           0.000177112    0.000294194    0.002472195
     20        1           0.000822188    0.001414952    0.000242423
     21        1           0.000648240    0.000284228   -0.000929563
     22        1          -0.000864217   -0.000465543   -0.000189389
     23        1           0.000737040    0.000902905   -0.000341926
     24        1          -0.001797951    0.000605729   -0.000126556
     25        1           0.000619893   -0.001420388    0.000996803
     26        1          -0.002510239    0.000268464    0.001389991
     27        1           0.000006459   -0.001061816   -0.000493971
     28        1           0.002492585   -0.001323116   -0.001466358
     29        1          -0.002306922    0.001018010    0.001372199
     30        1           0.000000587    0.001141961    0.000897594
     31        1           0.000930926    0.001169292   -0.000287181
     32        1           0.001409664   -0.001971708   -0.001874909
     33        1           0.001584404   -0.000989857    0.000667600
     34        1          -0.000518896    0.000938200    0.000679315
     35        1          -0.000748803   -0.000092673    0.001212614
     36        1           0.001269358   -0.000356913   -0.001540646
 -------------------------------------------------------------------
 Cartesian Forces:  Max     0.014282200 RMS     0.003926702
 FormGI is forming the generalized inverse of G from B-inverse, IUseBI=4.

 GradGradGradGradGradGradGradGradGradGradGradGradGradGradGradGradGradGrad
 Berny optimization.
 Internal  Forces:  Max     0.016234082 RMS     0.002949110
 Search for a local minimum.
 Step number   1 out of a maximum of  204
 All quantities printed in internal units (Hartrees-Bohrs-Radians)
 Mixed Optimization -- RFO/linear search
 Second derivative matrix not updated -- analytic derivatives used.
 ITU=  0
     Eigenvalues ---    0.00024   0.00106   0.00131   0.00240   0.00260
     Eigenvalues ---    0.00306   0.00321   0.00352   0.00408   0.00409
     Eigenvalues ---    0.00639   0.03195   0.03233   0.03248   0.03294
     Eigenvalues ---    0.03432   0.03618   0.03776   0.03903   0.03934
     Eigenvalues ---    0.04020   0.04039   0.04082   0.04132   0.04204
     Eigenvalues ---    0.04225   0.04297   0.04359   0.04678   0.04709
     Eigenvalues ---    0.04875   0.05186   0.05308   0.07004   0.07048
     Eigenvalues ---    0.07194   0.07339   0.07445   0.07486   0.07531
     Eigenvalues ---    0.07780   0.08271   0.08529   0.10302   0.10384
     Eigenvalues ---    0.10503   0.11064   0.11842   0.12068   0.12448
     Eigenvalues ---    0.12692   0.13075   0.13458   0.14625   0.15071
     Eigenvalues ---    0.17087   0.18212   0.18488   0.19022   0.21610
     Eigenvalues ---    0.22028   0.22451   0.22661   0.23897   0.24508
     Eigenvalues ---    0.24785   0.25238   0.27891   0.28139   0.28367
     Eigenvalues ---    0.28640   0.29558   0.30234   0.31963   0.32236
     Eigenvalues ---    0.32302   0.32328   0.32536   0.32602   0.32651
     Eigenvalues ---    0.32787   0.32905   0.33006   0.33119   0.33197
     Eigenvalues ---    0.33319   0.33348   0.33452   0.33552   0.33650
     Eigenvalues ---    0.33930   0.34069   0.34253   0.35873   0.36045
     Eigenvalues ---    0.36382   0.37987   0.38767   0.43935   0.44174
     Eigenvalues ---    0.44239   0.44641
 RFO step:  Lambda=-7.27615312D-03 EMin= 2.38863707D-04
 Linear search not attempted -- first point.
 Iteration  1 RMS(Cart)=  0.05216478 RMS(Int)=  0.00051296
 Iteration  2 RMS(Cart)=  0.00070445 RMS(Int)=  0.00017676
 Iteration  3 RMS(Cart)=  0.00000058 RMS(Int)=  0.00017676
 Variable       Old X    -DE/DX   Delta X   Delta X   Delta X     New X
                                 (Linear)    (Quad)   (Total)
    R1        2.75783   0.01135   0.00000   0.02226   0.02226   2.78010
    R2        1.92613  -0.00110   0.00000   0.00004   0.00004   1.92616
    R3        1.92602  -0.00145   0.00000  -0.00168  -0.00168   1.92434
    R4        2.88366   0.00186   0.00000   0.00837   0.00837   2.89203
    R5        2.06955   0.00561   0.00000   0.01669   0.01669   2.08624
    R6        2.06644   0.00114   0.00000   0.00462   0.00462   2.07106
    R7        2.89821   0.00540   0.00000   0.00926   0.00926   2.90746
    R8        2.07419  -0.00001   0.00000   0.00089   0.00089   2.07508
    R9        2.07511   0.00081   0.00000   0.00273   0.00273   2.07784
   R10        2.89682   0.00866   0.00000   0.02415   0.02415   2.92097
   R11        2.07497  -0.00006   0.00000  -0.00206  -0.00206   2.07291
   R12        2.06784   0.00113   0.00000   0.00588   0.00588   2.07372
   R13        2.89417   0.00631   0.00000   0.01668   0.01668   2.91086
   R14        2.07138   0.00059   0.00000   0.00079   0.00079   2.07217
   R15        2.07322   0.00075   0.00000   0.00288   0.00288   2.07610
   R16        2.89938   0.00501   0.00000   0.01292   0.01292   2.91230
   R17        2.07455   0.00080   0.00000   0.00194   0.00194   2.07649
   R18        2.06841   0.00177   0.00000   0.00444   0.00444   2.07285
   R19        2.89859   0.00990   0.00000   0.02201   0.02201   2.92060
   R20        2.06950   0.00095   0.00000   0.00516   0.00516   2.07466
   R21        2.07565  -0.00015   0.00000  -0.00227  -0.00227   2.07339
   R22        2.89694   0.00521   0.00000   0.01158   0.01158   2.90852
   R23        2.07180   0.00073   0.00000   0.00499   0.00499   2.07679
   R24        2.06874   0.00053   0.00000   0.00233   0.00233   2.07106
[...]
    36    C    3  px     Ryd( 3p)     0.00293
    37    C    3  py     Val( 2p)     1.12338
    38    C    3  py     Ryd( 3p)     0.00185
    39    C    3  pz     Val( 2p)     1.22582
    40    C    3  pz     Ryd( 3p)     0.00328
    41    C    3  dxy    Ryd( 3d)     0.00054
    42    C    3  dxz    Ryd( 3d)     0.00063
    43    C    3  dyz    Ryd( 3d)     0.00084
    44    C    3  dx2y2  Ryd( 3d)     0.00066
    45    C    3  dz2    Ryd( 3d)     0.00049

    46    C    4  S      Cor( 1S)     1.99933
    47    C    4  S      Val( 2S)     1.03254
    48    C    4  S      Ryd( 3S)     0.00068
    49    C    4  S      Ryd( 4S)     0.00002
    50    C    4  px     Val( 2p)     1.06869
    51    C    4  px     Ryd( 3p)     0.00168
    52    C    4  py     Val( 2p)     1.18982
    53    C    4  py     Ryd( 3p)     0.00398
    54    C    4  pz     Val( 2p)     1.16655
    55    C    4  pz     Ryd( 3p)     0.00216
    56    C    4  dxy    Ryd( 3d)     0.00046
    57    C    4  dxz    Ryd( 3d)     0.00072
    58    C    4  dyz    Ryd( 3d)     0.00043
    59    C    4  dx2y2  Ryd( 3d)     0.00083
    60    C    4  dz2    Ryd( 3d)     0.00072

    61    C    5  S      Cor( 1S)     1.99933
    62    C    5  S      Val( 2S)     1.03563
    63    C    5  S      Ryd( 3S)     0.00076
    64    C    5  S      Ryd( 4S)     0.00002
    65    C    5  px     Val( 2p)     1.21614
    66    C    5  px     Ryd( 3p)     0.00402
    67    C    5  py     Val( 2p)     1.06373
    68    C    5  py     Ryd( 3p)     0.00173
    69    C    5  pz     Val( 2p)     1.14484
    70    C    5  pz     Ryd( 3p)     0.00198
    71    C    5  dxy    Ryd( 3d)     0.00058
    72    C    5  dxz    Ryd( 3d)     0.00095
    73    C    5  dyz    Ryd( 3d)     0.00060
    74    C    5  dx2y2  Ryd( 3d)     0.00062
    75    C    5  dz2    Ryd( 3d)     0.00040

    76    C    6  S      Cor( 1S)     1.99933
    77    C    6  S      Val( 2S)     1.03353
    78    C    6  S      Ryd( 3S)     0.00071
    79    C    6  S      Ryd( 4S)     0.00002
    80    C    6  px     Val( 2p)     1.13940
    81    C    6  px     Ryd( 3p)     0.00251
    82    C    6  py     Val( 2p)     1.10552
    83    C    6  py     Ryd( 3p)     0.00153
    84    C    6  pz     Val( 2p)     1.16699
    85    C    6  pz     Ryd( 3p)     0.00304
    86    C    6  dxy    Ryd( 3d)     0.00068
    87    C    6  dxz    Ryd( 3d)     0.00068
    88    C    6  dyz    Ryd( 3d)     0.00081
    89    C    6  dx2y2  Ryd( 3d)     0.00056
    90    C    6  dz2    Ryd( 3d)     0.00050

    91    C    7  S      Cor( 1S)     1.99933
    92    C    7  S      Val( 2S)     1.03182
    93    C    7  S      Ryd( 3S)     0.00071
    94    C    7  S      Ryd( 4S)     0.00002
    95    C    7  px     Val( 2p)     1.03609
    96    C    7  px     Ryd( 3p)     0.00176
    97    C    7  py     Val( 2p)     1.22632
    98    C    7  py     Ryd( 3p)     0.00464
    99    C    7  pz     Val( 2p)     1.15804
   100    C    7  pz     Ryd( 3p)     0.00166
   101    C    7  dxy    Ryd( 3d)     0.00038
   102    C    7  dxz    Ryd( 3d)     0.00062
   103    C    7  dyz    Ryd( 3d)     0.00053
   104    C    7  dx2y2  Ryd( 3d)     0.00095
   105    C    7  dz2    Ryd( 3d)     0.00070

   106    C    8  S      Cor( 1S)     1.99932
   107    C    8  S      Val( 2S)     1.04621
   108    C    8  S      Ryd( 3S)     0.00099
   109    C    8  S      Ryd( 4S)     0.00004
   110    C    8  px     Val( 2p)     1.11564
   111    C    8  px     Ryd( 3p)     0.00272
   112    C    8  py     Val( 2p)     1.09758
   113    C    8  py     Ryd( 3p)     0.00339
   114    C    8  pz     Val( 2p)     1.20327
   115    C    8  pz     Ryd( 3p)     0.00296
   116    C    8  dxy    Ryd( 3d)     0.00077
   117    C    8  dxz    Ryd( 3d)     0.00038
   118    C    8  dyz    Ryd( 3d)     0.00033
   119    C    8  dx2y2  Ryd( 3d)     0.00061
   120    C    8  dz2    Ryd( 3d)     0.00096

   121    C    9  S      Cor( 1S)     1.99931
   122    C    9  S      Val( 2S)     1.04781
   123    C    9  S      Ryd( 3S)     0.00087
   124    C    9  S      Ryd( 4S)     0.00003
   125    C    9  px     Val( 2p)     1.09349
   126    C    9  px     Ryd( 3p)     0.00379
   127    C    9  py     Val( 2p)     1.10508
   128    C    9  py     Ryd( 3p)     0.00233
   129    C    9  pz     Val( 2p)     1.21197
   130    C    9  pz     Ryd( 3p)     0.00255
   131    C    9  dxy    Ryd( 3d)     0.00083
   132    C    9  dxz    Ryd( 3d)     0.00041
   133    C    9  dyz    Ryd( 3d)     0.00039
   134    C    9  dx2y2  Ryd( 3d)     0.00057
   135    C    9  dz2    Ryd( 3d)     0.00095

   136    C   10  S      Cor( 1S)     1.99927
   137    C   10  S      Val( 2S)     1.05126
   138    C   10  S      Ryd( 3S)     0.00083
   139    C   10  S      Ryd( 4S)     0.00002
   140    C   10  px     Val( 2p)     0.99511
   141    C   10  px     Ryd( 3p)     0.00166
   142    C   10  py     Val( 2p)     1.23652
   143    C   10  py     Ryd( 3p)     0.00351
   144    C   10  pz     Val( 2p)     1.16025
   145    C   10  pz     Ryd( 3p)     0.00205
   146    C   10  dxy    Ryd( 3d)     0.00039
   147    C   10  dxz    Ryd( 3d)     0.00069
   148    C   10  dyz    Ryd( 3d)     0.00035
   149    C   10  dx2y2  Ryd( 3d)     0.00098
   150    C   10  dz2    Ryd( 3d)     0.00079

   151    C   11  S      Cor( 1S)     1.99933
   152    C   11  S      Val( 2S)     1.05331
   153    C   11  S      Ryd( 3S)     0.00158
   154    C   11  S      Ryd( 4S)     0.00004
   155    C   11  px     Val( 2p)     1.13425
   156    C   11  px     Ryd( 3p)     0.00229
   157    C   11  py     Val( 2p)     0.94803
   158    C   11  py     Ryd( 3p)     0.00811
   159    C   11  pz     Val( 2p)     1.20422
   160    C   11  pz     Ryd( 3p)     0.00227
   161    C   11  dxy    Ryd( 3d)     0.00086
   162    C   11  dxz    Ryd( 3d)     0.00063
   163    C   11  dyz    Ryd( 3d)     0.00085
   164    C   11  dx2y2  Ryd( 3d)     0.00123
   165    C   11  dz2    Ryd( 3d)     0.00095

   166    N   12  S      Cor( 1S)     1.99937
   167    N   12  S      Val( 2S)     1.48133
   168    N   12  S      Ryd( 3S)     0.01364
   169    N   12  S      Ryd( 4S)     0.00000
   170    N   12  px     Val( 2p)     1.24511
   171    N   12  px     Ryd( 3p)     0.00246
   172    N   12  py     Val( 2p)     1.31115
   173    N   12  py     Ryd( 3p)     0.00233
   174    N   12  pz     Val( 2p)     1.33810
   175    N   12  pz     Ryd( 3p)     0.00027
   176    N   12  dxy    Ryd( 3d)     0.00065
   177    N   12  dxz    Ryd( 3d)     0.00000
   178    N   12  dyz    Ryd( 3d)     0.00069
   179    N   12  dx2y2  Ryd( 3d)     0.00019
   180    N   12  dz2    Ryd( 3d)     0.00052

   181    H   13  S      Val( 1S)     0.61519
   182    H   13  S      Ryd( 2S)     0.00156
   183    H   13  px     Ryd( 2p)     0.00031
   184    H   13  py     Ryd( 2p)     0.00043
   185    H   13  pz     Ryd( 2p)     0.00067

   186    H   14  S      Val( 1S)     0.60836
   187    H   14  S      Ryd( 2S)     0.00125
   188    H   14  px     Ryd( 2p)     0.00035
   189    H   14  py     Ryd( 2p)     0.00053
   190    H   14  pz     Ryd( 2p)     0.00052

   191    H   15  S      Val( 1S)     0.79701
   192    H   15  S      Ryd( 2S)     0.00223
   193    H   15  px     Ryd( 2p)     0.00013
   194    H   15  py     Ryd( 2p)     0.00013
   195    H   15  pz     Ryd( 2p)     0.00031

   196    H   16  S      Val( 1S)     0.77685
   197    H   16  S      Ryd( 2S)     0.00208
   198    H   16  px     Ryd( 2p)     0.00008
   199    H   16  py     Ryd( 2p)     0.00024
   200    H   16  pz     Ryd( 2p)     0.00024

   201    H   17  S      Val( 1S)     0.76723
   202    H   17  S      Ryd( 2S)     0.00240
   203    H   17  px     Ryd( 2p)     0.00014
   204    H   17  py     Ryd( 2p)     0.00011
   205    H   17  pz     Ryd( 2p)     0.00029

   206    H   18  S      Val( 1S)     0.76741
   207    H   18  S      Ryd( 2S)     0.00177
   208    H   18  px     Ryd( 2p)     0.00011
   209    H   18  py     Ryd( 2p)     0.00025
   210    H   18  pz     Ryd( 2p)     0.00020

   211    H   19  S      Val( 1S)     0.75960
   212    H   19  S      Ryd( 2S)     0.00249
   213    H   19  px     Ryd( 2p)     0.00013
   214    H   19  py     Ryd( 2p)     0.00033
   215    H   19  pz     Ryd( 2p)     0.00011

   216    H   20  S      Val( 1S)     0.76976
   217    H   20  S      Ryd( 2S)     0.00194
   218    H   20  px     Ryd( 2p)     0.00015
   219    H   20  py     Ryd( 2p)     0.00011
   220    H   20  pz     Ryd( 2p)     0.00030

   221    H   21  S      Val( 1S)     0.77224
   222    H   21  S      Ryd( 2S)     0.00724
   223    H   21  px     Ryd( 2p)     0.00027
   224    H   21  py     Ryd( 2p)     0.00015
   225    H   21  pz     Ryd( 2p)     0.00016

   226    H   22  S      Val( 1S)     0.76875
   227    H   22  S      Ryd( 2S)     0.00257
   228    H   22  px     Ryd( 2p)     0.00020
   229    H   22  py     Ryd( 2p)     0.00010
   230    H   22  pz     Ryd( 2p)     0.00025

   231    H   23  S      Val( 1S)     0.76754
   232    H   23  S      Ryd( 2S)     0.00222
   233    H   23  px     Ryd( 2p)     0.00011
   234    H   23  py     Ryd( 2p)     0.00018
   235    H   23  pz     Ryd( 2p)     0.00027

   236    H   24  S      Val( 1S)     0.77191
   237    H   24  S      Ryd( 2S)     0.00273
   238    H   24  px     Ryd( 2p)     0.00026
   239    H   24  py     Ryd( 2p)     0.00016
   240    H   24  pz     Ryd( 2p)     0.00014

   241    H   25  S      Val( 1S)     0.77312
   242    H   25  S      Ryd( 2S)     0.00196
   243    H   25  px     Ryd( 2p)     0.00011
   244    H   25  py     Ryd( 2p)     0.00015
   245    H   25  pz     Ryd( 2p)     0.00029

   246    H   26  S      Val( 1S)     0.77040
   247    H   26  S      Ryd( 2S)     0.00531
   248    H   26  px     Ryd( 2p)     0.00010
   249    H   26  py     Ryd( 2p)     0.00034
   250    H   26  pz     Ryd( 2p)     0.00012

   251    H   27  S      Val( 1S)     0.78081
   252    H   27  S      Ryd( 2S)     0.00792
   253    H   27  px     Ryd( 2p)     0.00010
   254    H   27  py     Ryd( 2p)     0.00012
   255    H   27  pz     Ryd( 2p)     0.00034

   256    H   28  S      Val( 1S)     0.83023
   257    H   28  S      Ryd( 2S)     0.03806
   258    H   28  px     Ryd( 2p)     0.00024
   259    H   28  py     Ryd( 2p)     0.00020
   260    H   28  pz     Ryd( 2p)     0.00014

   261    H   29  S      Val( 1S)     0.76679
   262    H   29  S      Ryd( 2S)     0.01035
   263    H   29  px     Ryd( 2p)     0.00025
   264    H   29  py     Ryd( 2p)     0.00019
   265    H   29  pz     Ryd( 2p)     0.00013

   266    H   30  S      Val( 1S)     0.77285
   267    H   30  S      Ryd( 2S)     0.01644
   268    H   30  px     Ryd( 2p)     0.00012
   269    H   30  py     Ryd( 2p)     0.00010
   270    H   30  pz     Ryd( 2p)     0.00035

   271    H   31  S      Val( 1S)     0.75266
   272    H   31  S      Ryd( 2S)     0.01249
   273    H   31  px     Ryd( 2p)     0.00010
   274    H   31  py     Ryd( 2p)     0.00013
   275    H   31  pz     Ryd( 2p)     0.00032

   276    H   32  S      Val( 1S)     0.73909
   277    H   32  S      Ryd( 2S)     0.00639
   278    H   32  px     Ryd( 2p)     0.00010
   279    H   32  py     Ryd( 2p)     0.00035
   280    H   32  pz     Ryd( 2p)     0.00010

   281    H   33  S      Val( 1S)     0.73274
   282    H   33  S      Ryd( 2S)     0.01254
   283    H   33  px     Ryd( 2p)     0.00027
   284    H   33  py     Ryd( 2p)     0.00016
   285    H   33  pz     Ryd( 2p)     0.00011

   286    H   34  S      Val( 1S)     0.74410
   287    H   34  S      Ryd( 2S)     0.01447
   288    H   34  px     Ryd( 2p)     0.00008
   289    H   34  py     Ryd( 2p)     0.00014
   290    H   34  pz     Ryd( 2p)     0.00030

   291    H   35  S      Val( 1S)     0.67286
   292    H   35  S      Ryd( 2S)     0.06395
   293    H   35  px     Ryd( 2p)     0.00018
   294    H   35  py     Ryd( 2p)     0.00036
   295    H   35  pz     Ryd( 2p)     0.00067

   296    H   36  S      Val( 1S)     0.73490
   297    H   36  S      Ryd( 2S)     0.07684
   298    H   36  px     Ryd( 2p)     0.00058
   299    H   36  py     Ryd( 2p)     0.00031
   300    H   36  pz     Ryd( 2p)     0.00026


 Summary of Natural Population Analysis:                  
                                                          
                                       Natural Population 
                Natural  -----------------------------------------------
    Atom  No    Charge         Core      Valence    Rydberg      Total
 -----------------------------------------------------------------------
      N    1   -0.92891      1.99968     5.91437    0.01486     7.92891
      C    2   -0.26138      1.99935     4.24905    0.01297     6.26138
      C    3   -0.47154      1.99933     4.46002    0.01220     6.47154
      C    4   -0.46862      1.99933     4.45761    0.01168     6.46862
      C    5   -0.47133      1.99933     4.46034    0.01167     6.47133
      C    6   -0.45581      1.99933     4.44543    0.01105     6.45581
      C    7   -0.46356      1.99933     4.45226    0.01196     6.46356
      C    8   -0.47517      1.99932     4.46271    0.01314     6.47517
      C    9   -0.47039      1.99931     4.45835    0.01272     6.47039
      C   10   -0.45368      1.99927     4.44315    0.01127     6.45368
      C   11   -0.35796      1.99933     4.33981    0.01882     6.35796
      N   12   -0.39581      1.99937     5.37569    0.02076     7.39581
      H   13    0.38184      0.00000     0.61519    0.00297     0.61816
      H   14    0.38899      0.00000     0.60836    0.00266     0.61101
      H   15    0.20019      0.00000     0.79701    0.00280     0.79981
      H   16    0.22051      0.00000     0.77685    0.00264     0.77949
      H   17    0.22983      0.00000     0.76723    0.00294     0.77017
      H   18    0.23025      0.00000     0.76741    0.00234     0.76975
      H   19    0.23734      0.00000     0.75960    0.00306     0.76266
      H   20    0.22775      0.00000     0.76976    0.00250     0.77225
      H   21    0.21994      0.00000     0.77224    0.00782     0.78006
      H   22    0.22812      0.00000     0.76875    0.00312     0.77188
      H   23    0.22969      0.00000     0.76754    0.00278     0.77031
      H   24    0.22479      0.00000     0.77191    0.00329     0.77521
      H   25    0.22436      0.00000     0.77312    0.00252     0.77564
      H   26    0.22373      0.00000     0.77040    0.00588     0.77627
      H   27    0.21072      0.00000     0.78081    0.00847     0.78928
      H   28    0.13112      0.00000     0.83023    0.03865     0.86888
      H   29    0.22229      0.00000     0.76679    0.01092     0.77771
      H   30    0.21014      0.00000     0.77285    0.01700     0.78986
      H   31    0.23429      0.00000     0.75266    0.01305     0.76571
      H   32    0.25396      0.00000     0.73909    0.00695     0.74604
      H   33    0.25419      0.00000     0.73274    0.01308     0.74581
      H   34    0.24090      0.00000     0.74410    0.01500     0.75910
      H   35    0.26198      0.00000     0.67286    0.06516     0.73802
      H   36    0.18711      0.00000     0.73490    0.07799     0.81289
 =======================================================================
   * Total *   -0.00016     23.99228    73.53121    0.47667    98.00016

                                 Natural Population      
 --------------------------------------------------------
   Core                      23.99228 ( 99.9678% of  24)
   Valence                   73.53121 ( 99.3665% of  74)
   Natural Minimal Basis     97.52348 ( 99.5138% of  98)
   Natural Rydberg Basis      0.47667 (  0.4864% of  98)
 --------------------------------------------------------

    Atom  No          Natural Electron Configuration
 ----------------------------------------------------------------------------
      N    1      [core]2S( 1.45)2p( 4.47)3p( 0.01)
      C    2      [core]2S( 1.02)2p( 3.23)3p( 0.01)
      C    3      [core]2S( 1.04)2p( 3.42)3p( 0.01)
      C    4      [core]2S( 1.03)2p( 3.43)3p( 0.01)
      C    5      [core]2S( 1.04)2p( 3.42)3p( 0.01)
      C    6      [core]2S( 1.03)2p( 3.41)3p( 0.01)
      C    7      [core]2S( 1.03)2p( 3.42)3p( 0.01)
      C    8      [core]2S( 1.05)2p( 3.42)3p( 0.01)
      C    9      [core]2S( 1.05)2p( 3.41)3p( 0.01)
      C   10      [core]2S( 1.05)2p( 3.39)3p( 0.01)
      C   11      [core]2S( 1.05)2p( 3.29)3p( 0.01)
      N   12      [core]2S( 1.48)2p( 3.89)3S( 0.01)3p( 0.01)
      H   13            1S( 0.62)
      H   14            1S( 0.61)
      H   15            1S( 0.80)
      H   16            1S( 0.78)
      H   17            1S( 0.77)
      H   18            1S( 0.77)
      H   19            1S( 0.76)
      H   20            1S( 0.77)
      H   21            1S( 0.77)2S( 0.01)
      H   22            1S( 0.77)
      H   23            1S( 0.77)
      H   24            1S( 0.77)
      H   25            1S( 0.77)
      H   26            1S( 0.77)2S( 0.01)
      H   27            1S( 0.78)2S( 0.01)
      H   28            1S( 0.83)2S( 0.04)
      H   29            1S( 0.77)2S( 0.01)
      H   30            1S( 0.77)2S( 0.02)
      H   31            1S( 0.75)2S( 0.01)
      H   32            1S( 0.74)2S( 0.01)
      H   33            1S( 0.73)2S( 0.01)
      H   34            1S( 0.74)2S( 0.01)
      H   35            1S( 0.67)2S( 0.06)
      H   36            1S( 0.73)2S( 0.08)


 NBO analysis skipped by request.
 1\1\GINC-DRG2-W012\SP\RB3LYP TD-FC\6-31G(d,p)\C10H24N2\QDUEZ\21-Jul-20
 24\0\\# TD(NStates=10, Root=1) B3LYP/6-31G** SCRF=(Solvent=water) volu
 me pop=NPA density=current Geom=AllCheck Guess=Read\\YQLZOAVZWJBZSY-UH
 FFFAOYSA-N_conf_1\\0,1\N,0,-5.4698607939,0.3074979937,-0.0599447429\C,
 0,-4.0028880572,0.3977024944,-0.146871929\C,0,-3.3845585687,-1.0026497
 316,-0.1711150236\C,0,-1.8468612091,-1.0567524411,-0.1693313047\C,0,-1
 .1534590428,-0.4761531316,-1.4230615745\C,0,-0.7659392158,1.0139155672
 ,-1.364274691\C,0,0.3130283205,1.4138319582,-0.3385456593\C,0,1.709271
 074,0.7828501559,-0.5469179793\C,0,1.9743216874,-0.4903390369,0.277209
 0325\C,0,3.3665090493,-1.1241757875,0.0679777026\C,0,4.4871575196,-0.6
 120656084,0.9925106696\N,0,4.8747078579,0.8034230712,0.8998586664\H,0,
 -5.7199218891,-0.0811504826,0.8486838887\H,0,-5.8619185645,1.247473388
 5,-0.0627318786\H,0,-3.5486609569,0.9781289867,0.6756413715\H,0,-3.761
 3554367,0.93005321,-1.0738995206\H,0,-3.7710776941,-1.5407939641,-1.04
 68414093\H,0,-3.7490758878,-1.5511030543,0.7095137786\H,0,-1.559981598
 6,-2.1105924551,-0.0678084467\H,0,-1.4675339149,-0.561852354,0.7342954
 457\H,0,-0.2496236325,-1.0592907808,-1.635885213\H,0,-1.8083171306,-0.
 6314769034,-2.2915714982\H,0,-0.4120855126,1.3117712531,-2.3610737801\
 H,0,-1.6597933347,1.6197076733,-1.1722577163\H,0,-0.0348241513,1.19865
 0842,0.6806972035\H,0,0.4088380364,2.5056000638,-0.387511169\H,0,1.853
 698329,0.5559543154,-1.6129358349\H,0,2.4756043637,1.5264985994,-0.301
 7522942\H,0,1.2088876468,-1.2353849577,0.0336085936\H,0,1.8352867835,-
 0.2635829774,1.3445957705\H,0,3.6755521698,-0.9984849347,-0.9798623474
 \H,0,3.2932127933,-2.2080976888,0.2297987801\H,0,5.3869600881,-1.21279
 83046,0.8068746011\H,0,4.2013564321,-0.8039238607,2.0351357543\H,0,5.0
 761199598,1.0358631178,-0.0716895691\H,0,4.0872244804,1.391745765,1.16
 27017597\\Version=ES64L-G16RevA.03\State=1-A\HF=-505.052802\RMSD=1.377
 e-09\Dipole=1.4312108,-0.3780552,0.8625691\Quadrupole=5.5151221,-2.912
 4567,-2.6026653,-8.6716762,-3.1967016,-1.1827038\PG=C01 [X(C10H24N2)]\
 \@


 THERE ARE PEOPLE SO ADDICTED TO EXAGERATING THEY
 CAN'T TELL THE TRUTH WITHOUT LYING. -- FORTUNE COOKIE
 Job cpu time:       0 days  0 hours 57 minutes 27.5 seconds.
 Elapsed time:       0 days  0 hours 19 minutes 13.0 seconds.
 File lengths (MBytes):  RWF=    746 Int=      0 D2E=      0 Chk=     48 Scr=      1
 Normal termination of Gaussian 16 at Sun Jul 21 12:57:07 2024.
