 Entering Gaussian System, Link 0=g16
 Initial command:
 /opt/sw/arch/manual/gaussian/G16_A03/g16/l1.exe "/scratch/1381518/Gau-178723.inp" -scrdir="/scratch/1381518/"
 Entering Link 1 = /opt/sw/arch/manual/gaussian/G16_A03/g16/l1.exe PID=    178727.
  
 Copyright (c) 1988,1990,1992,1993,1995,1998,2003,2009,2016,
            Gaussian, Inc.  All Rights Reserved.
  
 This is part of the Gaussian(R) 16 program.  It is based on
 the Gaussian(R) 09 system (copyright 2009, Gaussian, Inc.),
 the Gaussian(R) 03 system (copyright 2003, Gaussian, Inc.),
 the Gaussian(R) 98 system (copyright 1998, Gaussian, Inc.),
 the Gaussian(R) 94 system (copyright 1995, Gaussian, Inc.),
 the Gaussian 92(TM) system (copyright 1992, Gaussian, Inc.),
 the Gaussian 90(TM) system (copyright 1990, Gaussian, Inc.),
 the Gaussian 88(TM) system (copyright 1988, Gaussian, Inc.),
 the Gaussian 86(TM) system (copyright 1986, Carnegie Mellon
 University), and the Gaussian 82(TM) system (copyright 1983,
 Carnegie Mellon University). Gaussian is a federally registered
 trademark of Gaussian, Inc.
  
 This software contains proprietary and confidential information,
 including trade secrets, belonging to Gaussian, Inc.
  
 This software is provided under written license and may be
 used, copied, transmitted, or stored only in accord with that
 written license.
  
 The following legend is applicable only to US Government
 contracts under FAR:
  
                    RESTRICTED RIGHTS LEGEND
  
 Use, reproduction and disclosure by the US Government is
 subject to restrictions as set forth in subparagraphs (a)
 and (c) of the Commercial Computer Software - Restricted
 Rights clause in FAR 52.227-19.
  
 Gaussian, Inc.
 340 Quinnipiac St., Bldg. 40, Wallingford CT 06492
  
  
 ---------------------------------------------------------------
 Warning -- This program may not be used in any manner that
 competes with the business of Gaussian, Inc. or will provide
 assistance to any competitor of Gaussian, Inc.  The licensee
 of this program is prohibited from giving any competitor of
 Gaussian, Inc. access to this program.  By using this program,
 the user acknowledges that Gaussian, Inc. is engaged in the
 business of creating and licensing software in the field of
 computational chemistry and represents and warrants to the
 licensee that it is not a competitor of Gaussian, Inc. and that
 it will not use this program in any manner prohibited above.
 ---------------------------------------------------------------
  

 Cite this work as:
 Gaussian 16, Revision A.03,
 M. J. Frisch, G. W. Trucks, H. B. Schlegel, G. E. Scuseria, 
 M. A. Robb, J. R. Cheeseman, G. Scalmani, V. Barone, 
 G. A. Petersson, H. Nakatsuji, X. Li, M. Caricato, A. V. Marenich, 
 J. Bloino, B. G. Janesko, R. Gomperts, B. Mennucci, H. P. Hratchian, 
 J. V. Ortiz, A. F. Izmaylov, J. L. Sonnenberg, D. Williams-Young, 
 F. Ding, F. Lipparini, F. Egidi, J. Goings, B. Peng, A. Petrone, 
 T. Henderson, D. Ranasinghe, V. G. Zakrzewski, J. Gao, N. Rega, 
 G. Zheng, W. Liang, M. Hada, M. Ehara, K. Toyota, R. Fukuda, 
 J. Hasegawa, M. Ishida, T. Nakajima, Y. Honda, O. Kitao, H. Nakai, 
 T. Vreven, K. Throssell, J. A. Montgomery, Jr., J. E. Peralta, 
 F. Ogliaro, M. J. Bearpark, J. J. Heyd, E. N. Brothers, K. N. Kudin, 
 V. N. Staroverov, T. A. Keith, R. Kobayashi, J. Normand, 
 K. Raghavachari, A. P. Rendell, J. C. Burant, S. S. Iyengar, 
 J. Tomasi, M. Cossi, J. M. Millam, M. Klene, C. Adamo, R. Cammi, 
 J. W. Ochterski, R. L. Martin, K. Morokuma, O. Farkas, 
 J. B. Foresman, and D. J. Fox, Gaussian, Inc., Wallingford CT, 2016.
 
 ******************************************
 Gaussian 16:  ES64L-G16RevA.03 25-Dec-2016
                21-Jul-2024 
 ******************************************
 %nprocshared=6
 Will use up to    6 processors via shared memory.
 %mem=12GB
 %Chk=YQLZOAVZWJBZSY-UHFFFAOYSA-N_conf_0_0.chk
 -------------------------------------------------------
 # opt=CalcFc B3LYP/6-31G** SCRF=(Solvent=water) scf=xqc
 -------------------------------------------------------
 1/10=4,18=20,19=15,26=3,38=1/1,3;
 2/9=110,12=2,17=6,18=5,40=1/2;
 3/5=1,6=6,7=101,11=2,25=1,30=1,70=2201,71=2,72=1,74=-5,140=1/1,2,3;
 4//1;
 5/5=2,8=3,13=1,38=5,53=1/2,8;
 8/6=4,10=90,11=11/1;
 11/6=1,8=1,9=11,15=111,16=1/1,2,10;
 10/6=1,13=1/2;
 6/7=2,8=2,9=2,10=2,28=1/1;
 7/10=1,18=20,25=1/1,2,3,16;
 1/10=4,18=20,19=15,26=3/3(2);
 2/9=110/2;
 99//99;
 2/9=110/2;
 3/5=1,6=6,7=101,11=2,25=1,30=1,70=2205,71=1,72=1,74=-5/1,2,3;
 4/5=5,16=3,69=1/1;
 5/5=2,8=3,13=1,38=5,53=1/2,8;
 7//1,2,3,16;
 1/18=20,19=15,26=3/3(-5);
 2/9=110/2;
 6/7=2,8=2,9=2,10=2,19=2,28=1/1;
 99/9=1/99;
 ----------------------------------
 YQLZOAVZWJBZSY-UHFFFAOYSA-N_conf_0
 ----------------------------------
 Symbolic Z-matrix:
 Charge =  0 Multiplicity = 1
 N                     3.58854   0.35533   2.52105 
 C                     3.38867   0.34586   1.07508 
 C                     3.20678  -1.08295   0.55793 
 C                     3.00036  -1.1455   -0.96003 
 C                     1.53684  -1.24823  -1.40413 
 C                     0.68405  -0.03248  -1.04121 
 C                    -0.71762  -0.13819  -1.64811 
 C                    -1.58201   1.10203  -1.401 
 C                    -1.84767   1.44643   0.0682 
 C                    -2.49253   0.33418   0.90411 
 C                    -3.83762  -0.17778   0.38475 
 N                    -4.83733   0.88107   0.32439 
 H                     2.78945  -0.08225   2.97831 
 H                     4.3959   -0.22027   2.75788 
 H                     4.25819   0.81042   0.59734 
 H                     2.52174   0.96796   0.83896 
 H                     2.38012  -1.58268   1.0775 
 H                     4.11497  -1.65103   0.79998 
 H                     3.50907  -2.04492  -1.33076 
 H                     3.48441  -0.29486  -1.45435 
 H                     1.08807  -2.15156  -0.97256 
 H                     1.52445  -1.38416  -2.49291 
 H                     0.60174   0.03792   0.04763 
 H                     1.1716    0.88148  -1.40008 
 H                    -0.62879  -0.27664  -2.73306 
 H                    -1.22198  -1.03249  -1.26479 
 H                    -2.53782   0.97043  -1.92189 
 H                    -1.10024   1.9673   -1.87391 
 H                    -2.48325   2.34      0.10258 
 H                    -0.90595   1.73887   0.54815 
 H                    -2.62359   0.70808   1.92807 
 H                    -1.80107  -0.51302   0.98248 
 H                    -3.72273  -0.62528  -0.60736 
 H                    -4.19856  -0.96859   1.05196 
 H                    -5.73534   0.48454   0.05092 
 H                    -4.97085   1.28098   1.25226 
 

 GradGradGradGradGradGradGradGradGradGradGradGradGradGradGradGradGradGrad
 Berny optimization.
 Initialization pass.
                           ----------------------------
                           !    Initial Parameters    !
                           ! (Angstroms and Degrees)  !
 --------------------------                            --------------------------
 ! Name  Definition              Value          Derivative Info.                !
 --------------------------------------------------------------------------------
 ! R1    R(1,2)                  1.4598         calculate D2E/DX2 analytically  !
 ! R2    R(1,13)                 1.0194         calculate D2E/DX2 analytically  !
 ! R3    R(1,14)                 1.0194         calculate D2E/DX2 analytically  !
 ! R4    R(2,3)                  1.5304         calculate D2E/DX2 analytically  !
 ! R5    R(2,15)                 1.0955         calculate D2E/DX2 analytically  !
 ! R6    R(2,16)                 1.0929         calculate D2E/DX2 analytically  !
 ! R7    R(3,4)                  1.5332         calculate D2E/DX2 analytically  !
 ! R8    R(3,17)                 1.0968         calculate D2E/DX2 analytically  !
 ! R9    R(3,18)                 1.0982         calculate D2E/DX2 analytically  !
 ! R10   R(4,5)                  1.5329         calculate D2E/DX2 analytically  !
 ! R11   R(4,19)                 1.0978         calculate D2E/DX2 analytically  !
 ! R12   R(4,20)                 1.0965         calculate D2E/DX2 analytically  !
 ! R13   R(5,6)                  1.5287         calculate D2E/DX2 analytically  !
 ! R14   R(5,21)                 1.0971         calculate D2E/DX2 analytically  !
 ! R15   R(5,22)                 1.0973         calculate D2E/DX2 analytically  !
 ! R16   R(6,7)                  1.5311         calculate D2E/DX2 analytically  !
 ! R17   R(6,23)                 1.0942         calculate D2E/DX2 analytically  !
 ! R18   R(6,24)                 1.0963         calculate D2E/DX2 analytically  !
 ! R19   R(7,8)                  1.5318         calculate D2E/DX2 analytically  !
 ! R20   R(7,25)                 1.0973         calculate D2E/DX2 analytically  !
 ! R21   R(7,26)                 1.0959         calculate D2E/DX2 analytically  !
 ! R22   R(8,9)                  1.5322         calculate D2E/DX2 analytically  !
 ! R23   R(8,27)                 1.0965         calculate D2E/DX2 analytically  !
 ! R24   R(8,28)                 1.0975         calculate D2E/DX2 analytically  !
 ! R25   R(9,10)                 1.5335         calculate D2E/DX2 analytically  !
 ! R26   R(9,29)                 1.0971         calculate D2E/DX2 analytically  !
 ! R27   R(9,30)                 1.0967         calculate D2E/DX2 analytically  !
 ! R28   R(10,11)                1.5301         calculate D2E/DX2 analytically  !
 ! R29   R(10,31)                1.0979         calculate D2E/DX2 analytically  !
 ! R30   R(10,32)                1.0964         calculate D2E/DX2 analytically  !
 ! R31   R(11,12)                1.4575         calculate D2E/DX2 analytically  !
 ! R32   R(11,33)                1.0944         calculate D2E/DX2 analytically  !
 ! R33   R(11,34)                1.0958         calculate D2E/DX2 analytically  !
 ! R34   R(12,35)                1.019          calculate D2E/DX2 analytically  !
 ! R35   R(12,36)                1.0192         calculate D2E/DX2 analytically  !
 ! A1    A(2,1,13)             109.5248         calculate D2E/DX2 analytically  !
 ! A2    A(2,1,14)             109.5662         calculate D2E/DX2 analytically  !
 ! A3    A(13,1,14)            105.9174         calculate D2E/DX2 analytically  !
 ! A4    A(1,2,3)              110.9203         calculate D2E/DX2 analytically  !
 ! A5    A(1,2,15)             108.6963         calculate D2E/DX2 analytically  !
 ! A6    A(1,2,16)             108.5986         calculate D2E/DX2 analytically  !
 ! A7    A(3,2,15)             110.0533         calculate D2E/DX2 analytically  !
 ! A8    A(3,2,16)             111.3567         calculate D2E/DX2 analytically  !
 ! A9    A(15,2,16)            107.0984         calculate D2E/DX2 analytically  !
 ! A10   A(2,3,4)              112.871          calculate D2E/DX2 analytically  !
 ! A11   A(2,3,17)             110.7858         calculate D2E/DX2 analytically  !
 ! A12   A(2,3,18)             108.0697         calculate D2E/DX2 analytically  !
 ! A13   A(4,3,17)             110.4219         calculate D2E/DX2 analytically  !
 ! A14   A(4,3,18)             107.9657         calculate D2E/DX2 analytically  !
 ! A15   A(17,3,18)            106.4501         calculate D2E/DX2 analytically  !
 ! A16   A(3,4,5)              114.7158         calculate D2E/DX2 analytically  !
 ! A17   A(3,4,19)             107.7807         calculate D2E/DX2 analytically  !
 ! A18   A(3,4,20)             110.8094         calculate D2E/DX2 analytically  !
 ! A19   A(5,4,19)             106.8385         calculate D2E/DX2 analytically  !
 ! A20   A(5,4,20)             110.0519         calculate D2E/DX2 analytically  !
 ! A21   A(19,4,20)            106.1881         calculate D2E/DX2 analytically  !
 ! A22   A(4,5,6)              114.2382         calculate D2E/DX2 analytically  !
 ! A23   A(4,5,21)             109.3753         calculate D2E/DX2 analytically  !
 ! A24   A(4,5,22)             107.8518         calculate D2E/DX2 analytically  !
 ! A25   A(6,5,21)             109.4652         calculate D2E/DX2 analytically  !
 ! A26   A(6,5,22)             109.1335         calculate D2E/DX2 analytically  !
 ! A27   A(21,5,22)            106.4808         calculate D2E/DX2 analytically  !
 ! A28   A(5,6,7)              111.2034         calculate D2E/DX2 analytically  !
 ! A29   A(5,6,23)             109.23           calculate D2E/DX2 analytically  !
 ! A30   A(5,6,24)             109.7065         calculate D2E/DX2 analytically  !
 ! A31   A(7,6,23)             109.27           calculate D2E/DX2 analytically  !
 ! A32   A(7,6,24)             109.5698         calculate D2E/DX2 analytically  !
 ! A33   A(23,6,24)            107.7922         calculate D2E/DX2 analytically  !
 ! A34   A(6,7,8)              113.3752         calculate D2E/DX2 analytically  !
 ! A35   A(6,7,25)             109.0578         calculate D2E/DX2 analytically  !
 ! A36   A(6,7,26)             109.8169         calculate D2E/DX2 analytically  !
 ! A37   A(8,7,25)             107.8982         calculate D2E/DX2 analytically  !
 ! A38   A(8,7,26)             110.1552         calculate D2E/DX2 analytically  !
 ! A39   A(25,7,26)            106.2671         calculate D2E/DX2 analytically  !
 ! A40   A(7,8,9)              115.7543         calculate D2E/DX2 analytically  !
 ! A41   A(7,8,27)             108.5479         calculate D2E/DX2 analytically  !
 ! A42   A(7,8,28)             108.7306         calculate D2E/DX2 analytically  !
 ! A43   A(9,8,27)             109.3512         calculate D2E/DX2 analytically  !
 ! A44   A(9,8,28)             108.1848         calculate D2E/DX2 analytically  !
 ! A45   A(27,8,28)            105.8183         calculate D2E/DX2 analytically  !
 ! A46   A(8,9,10)             115.6299         calculate D2E/DX2 analytically  !
 ! A47   A(8,9,29)             108.2744         calculate D2E/DX2 analytically  !
 ! A48   A(8,9,30)             109.3103         calculate D2E/DX2 analytically  !
 ! A49   A(10,9,29)            109.2714         calculate D2E/DX2 analytically  !
 ! A50   A(10,9,30)            108.4177         calculate D2E/DX2 analytically  !
 ! A51   A(29,9,30)            105.4603         calculate D2E/DX2 analytically  !
 ! A52   A(9,10,11)            115.2983         calculate D2E/DX2 analytically  !
 ! A53   A(9,10,31)            108.1536         calculate D2E/DX2 analytically  !
 ! A54   A(9,10,32)            109.5246         calculate D2E/DX2 analytically  !
 ! A55   A(11,10,31)           109.0005         calculate D2E/DX2 analytically  !
 ! A56   A(11,10,32)           108.6715         calculate D2E/DX2 analytically  !
 ! A57   A(31,10,32)           105.7699         calculate D2E/DX2 analytically  !
 ! A58   A(10,11,12)           111.9604         calculate D2E/DX2 analytically  !
 ! A59   A(10,11,33)           110.6244         calculate D2E/DX2 analytically  !
 ! A60   A(10,11,34)           108.9265         calculate D2E/DX2 analytically  !
 ! A61   A(12,11,33)           109.3611         calculate D2E/DX2 analytically  !
 ! A62   A(12,11,34)           108.8791         calculate D2E/DX2 analytically  !
 ! A63   A(33,11,34)           106.9447         calculate D2E/DX2 analytically  !
 ! A64   A(11,12,35)           109.4432         calculate D2E/DX2 analytically  !
 ! A65   A(11,12,36)           109.708          calculate D2E/DX2 analytically  !
 ! A66   A(35,12,36)           106.3529         calculate D2E/DX2 analytically  !
 ! D1    D(13,1,2,3)           -58.3689         calculate D2E/DX2 analytically  !
 ! D2    D(13,1,2,15)         -179.494          calculate D2E/DX2 analytically  !
 ! D3    D(13,1,2,16)           64.3143         calculate D2E/DX2 analytically  !
 ! D4    D(14,1,2,3)            57.4067         calculate D2E/DX2 analytically  !
 ! D5    D(14,1,2,15)          -63.7184         calculate D2E/DX2 analytically  !
 ! D6    D(14,1,2,16)         -179.91           calculate D2E/DX2 analytically  !
 ! D7    D(1,2,3,4)           -179.7007         calculate D2E/DX2 analytically  !
 ! D8    D(1,2,3,17)            55.8843         calculate D2E/DX2 analytically  !
 ! D9    D(1,2,3,18)           -60.3761         calculate D2E/DX2 analytically  !
 ! D10   D(15,2,3,4)           -59.3786         calculate D2E/DX2 analytically  !
 ! D11   D(15,2,3,17)          176.2065         calculate D2E/DX2 analytically  !
 ! D12   D(15,2,3,18)           59.946          calculate D2E/DX2 analytically  !
 ! D13   D(16,2,3,4)            59.2285         calculate D2E/DX2 analytically  !
 ! D14   D(16,2,3,17)          -65.1865         calculate D2E/DX2 analytically  !
 ! D15   D(16,2,3,18)          178.5531         calculate D2E/DX2 analytically  !
 ! D16   D(2,3,4,5)            -97.652          calculate D2E/DX2 analytically  !
 ! D17   D(2,3,4,19)           143.4995         calculate D2E/DX2 analytically  !
 ! D18   D(2,3,4,20)            27.7086         calculate D2E/DX2 analytically  !
 ! D19   D(17,3,4,5)            26.9619         calculate D2E/DX2 analytically  !
 ! D20   D(17,3,4,19)          -91.8866         calculate D2E/DX2 analytically  !
 ! D21   D(17,3,4,20)          152.3225         calculate D2E/DX2 analytically  !
 ! D22   D(18,3,4,5)           142.9632         calculate D2E/DX2 analytically  !
 ! D23   D(18,3,4,19)           24.1147         calculate D2E/DX2 analytically  !
 ! D24   D(18,3,4,20)          -91.6762         calculate D2E/DX2 analytically  !
 ! D25   D(3,4,5,6)             63.9292         calculate D2E/DX2 analytically  !
 ! D26   D(3,4,5,21)           -59.1446         calculate D2E/DX2 analytically  !
 ! D27   D(3,4,5,22)          -174.5613         calculate D2E/DX2 analytically  !
 ! D28   D(19,4,5,6)          -176.695          calculate D2E/DX2 analytically  !
 ! D29   D(19,4,5,21)           60.2311         calculate D2E/DX2 analytically  !
 ! D30   D(19,4,5,22)          -55.1855         calculate D2E/DX2 analytically  !
 ! D31   D(20,4,5,6)           -61.8262         calculate D2E/DX2 analytically  !
 ! D32   D(20,4,5,21)          175.1            calculate D2E/DX2 analytically  !
 ! D33   D(20,4,5,22)           59.6833         calculate D2E/DX2 analytically  !
 ! D34   D(4,5,6,7)            173.7452         calculate D2E/DX2 analytically  !
 ! D35   D(4,5,6,23)           -65.5759         calculate D2E/DX2 analytically  !
 ! D36   D(4,5,6,24)            52.3739         calculate D2E/DX2 analytically  !
 ! D37   D(21,5,6,7)           -63.2297         calculate D2E/DX2 analytically  !
 ! D38   D(21,5,6,23)           57.4493         calculate D2E/DX2 analytically  !
 ! D39   D(21,5,6,24)          175.399          calculate D2E/DX2 analytically  !
 ! D40   D(22,5,6,7)            52.9449         calculate D2E/DX2 analytically  !
 ! D41   D(22,5,6,23)          173.6238         calculate D2E/DX2 analytically  !
 ! D42   D(22,5,6,24)          -68.4265         calculate D2E/DX2 analytically  !
 ! D43   D(5,6,7,8)           -175.7985         calculate D2E/DX2 analytically  !
 ! D44   D(5,6,7,25)           -55.5643         calculate D2E/DX2 analytically  !
 ! D45   D(5,6,7,26)            60.5077         calculate D2E/DX2 analytically  !
 ! D46   D(23,6,7,8)            63.5462         calculate D2E/DX2 analytically  !
 ! D47   D(23,6,7,25)         -176.2197         calculate D2E/DX2 analytically  !
 ! D48   D(23,6,7,26)          -60.1477         calculate D2E/DX2 analytically  !
 ! D49   D(24,6,7,8)           -54.3473         calculate D2E/DX2 analytically  !
 ! D50   D(24,6,7,25)           65.8869         calculate D2E/DX2 analytically  !
 ! D51   D(24,6,7,26)         -178.0411         calculate D2E/DX2 analytically  !
 ! D52   D(6,7,8,9)            -60.3279         calculate D2E/DX2 analytically  !
 ! D53   D(6,7,8,27)           176.31           calculate D2E/DX2 analytically  !
 ! D54   D(6,7,8,28)            61.6413         calculate D2E/DX2 analytically  !
 ! D55   D(25,7,8,9)           178.7817         calculate D2E/DX2 analytically  !
 ! D56   D(25,7,8,27)           55.4196         calculate D2E/DX2 analytically  !
 ! D57   D(25,7,8,28)          -59.2491         calculate D2E/DX2 analytically  !
 ! D58   D(26,7,8,9)            63.1807         calculate D2E/DX2 analytically  !
 ! D59   D(26,7,8,27)          -60.1814         calculate D2E/DX2 analytically  !
 ! D60   D(26,7,8,28)         -174.85           calculate D2E/DX2 analytically  !
 ! D61   D(7,8,9,10)           -56.3511         calculate D2E/DX2 analytically  !
 ! D62   D(7,8,9,29)          -179.3028         calculate D2E/DX2 analytically  !
 ! D63   D(7,8,9,30)            66.2929         calculate D2E/DX2 analytically  !
 ! D64   D(27,8,9,10)           66.5888         calculate D2E/DX2 analytically  !
 ! D65   D(27,8,9,29)          -56.3629         calculate D2E/DX2 analytically  !
 ! D66   D(27,8,9,30)         -170.7673         calculate D2E/DX2 analytically  !
 ! D67   D(28,8,9,10)         -178.6105         calculate D2E/DX2 analytically  !
 ! D68   D(28,8,9,29)           58.4378         calculate D2E/DX2 analytically  !
 ! D69   D(28,8,9,30)          -55.9665         calculate D2E/DX2 analytically  !
 ! D70   D(8,9,10,11)          -57.9049         calculate D2E/DX2 analytically  !
 ! D71   D(8,9,10,31)          179.822          calculate D2E/DX2 analytically  !
 ! D72   D(8,9,10,32)           65.0045         calculate D2E/DX2 analytically  !
 ! D73   D(29,9,10,11)          64.5186         calculate D2E/DX2 analytically  !
 ! D74   D(29,9,10,31)         -57.7545         calculate D2E/DX2 analytically  !
 ! D75   D(29,9,10,32)        -172.572          calculate D2E/DX2 analytically  !
 ! D76   D(30,9,10,11)         178.9793         calculate D2E/DX2 analytically  !
 ! D77   D(30,9,10,31)          56.7062         calculate D2E/DX2 analytically  !
 ! D78   D(30,9,10,32)         -58.1113         calculate D2E/DX2 analytically  !
 ! D79   D(9,10,11,12)         -59.8722         calculate D2E/DX2 analytically  !
 ! D80   D(9,10,11,33)          62.383          calculate D2E/DX2 analytically  !
 ! D81   D(9,10,11,34)         179.6577         calculate D2E/DX2 analytically  !
 ! D82   D(31,10,11,12)         61.9462         calculate D2E/DX2 analytically  !
 ! D83   D(31,10,11,33)       -175.7986         calculate D2E/DX2 analytically  !
 ! D84   D(31,10,11,34)        -58.524          calculate D2E/DX2 analytically  !
 ! D85   D(32,10,11,12)        176.7659         calculate D2E/DX2 analytically  !
 ! D86   D(32,10,11,33)        -60.9789         calculate D2E/DX2 analytically  !
 ! D87   D(32,10,11,34)         56.2958         calculate D2E/DX2 analytically  !
 ! D88   D(10,11,12,35)       -175.2133         calculate D2E/DX2 analytically  !
 ! D89   D(10,11,12,36)        -58.8791         calculate D2E/DX2 analytically  !
 ! D90   D(33,11,12,35)         61.8131         calculate D2E/DX2 analytically  !
 ! D91   D(33,11,12,36)        178.1474         calculate D2E/DX2 analytically  !
 ! D92   D(34,11,12,35)        -54.7156         calculate D2E/DX2 analytically  !
 ! D93   D(34,11,12,36)         61.6186         calculate D2E/DX2 analytically  !
 --------------------------------------------------------------------------------
 Trust Radius=3.00D-01 FncErr=1.00D-07 GrdErr=1.00D-06 EigMax=2.50D+02 EigMin=1.00D-04
 Number of steps in this run=    204 maximum allowed number of steps=    216.
 GradGradGradGradGradGradGradGradGradGradGradGradGradGradGradGradGradGrad

                          Input orientation:                          
 ---------------------------------------------------------------------
 Center     Atomic      Atomic             Coordinates (Angstroms)
 Number     Number       Type             X           Y           Z
 ---------------------------------------------------------------------
      1          7           0        3.588543    0.355329    2.521053
      2          6           0        3.388674    0.345857    1.075079
      3          6           0        3.206784   -1.082947    0.557928
      4          6           0        3.000361   -1.145496   -0.960029
      5          6           0        1.536842   -1.248227   -1.404131
      6          6           0        0.684049   -0.032476   -1.041209
      7          6           0       -0.717618   -0.138195   -1.648114
      8          6           0       -1.582008    1.102032   -1.400999
      9          6           0       -1.847674    1.446429    0.068204
     10          6           0       -2.492533    0.334184    0.904113
     11          6           0       -3.837620   -0.177779    0.384750
     12          7           0       -4.837328    0.881069    0.324387
     13          1           0        2.789450   -0.082251    2.978307
     14          1           0        4.395898   -0.220269    2.757880
     15          1           0        4.258189    0.810423    0.597337
     16          1           0        2.521744    0.967957    0.838962
     17          1           0        2.380120   -1.582678    1.077501
     18          1           0        4.114969   -1.651026    0.799982
     19          1           0        3.509068   -2.044922   -1.330756
     20          1           0        3.484413   -0.294859   -1.454351
     21          1           0        1.088075   -2.151562   -0.972564
     22          1           0        1.524449   -1.384156   -2.492914
     23          1           0        0.601737    0.037918    0.047626
     24          1           0        1.171602    0.881478   -1.400075
     25          1           0       -0.628795   -0.276640   -2.733057
     26          1           0       -1.221984   -1.032494   -1.264790
     27          1           0       -2.537818    0.970433   -1.921891
     28          1           0       -1.100243    1.967295   -1.873906
     29          1           0       -2.483253    2.339997    0.102585
     30          1           0       -0.905951    1.738865    0.548153
     31          1           0       -2.623593    0.708083    1.928068
     32          1           0       -1.801065   -0.513024    0.982481
     33          1           0       -3.722732   -0.625277   -0.607362
     34          1           0       -4.198561   -0.968591    1.051962
     35          1           0       -5.735342    0.484536    0.050924
     36          1           0       -4.970850    1.280984    1.252265
 ---------------------------------------------------------------------
                    Distance matrix (angstroms):
                    1          2          3          4          5
     1  N    0.000000
     2  C    1.459753   0.000000
     3  C    2.463380   1.530363   0.000000
     4  C    3.836192   2.552760   1.533204   0.000000
     5  C    4.710407   3.480929   2.581801   1.532862   0.000000
     6  C    4.612612   3.454969   3.166215   2.571129   1.528731
     7  C    6.014029   4.950932   4.600012   3.912989   2.524736
     8  C    6.532584   5.604502   5.616409   5.122884   3.905247
     9  C    6.062955   5.444667   5.673193   5.592744   4.569890
    10  C    6.292411   5.883704   5.883054   5.986348   4.905903
    11  C    7.745701   7.278054   7.104431   7.035829   5.764616
    12  N    8.723363   8.277506   8.283697   8.196710   6.939144
    13  H    1.019367   2.040742   2.652131   4.084785   4.704709
    14  H    1.019422   2.041279   2.645373   4.077551   5.152983
    15  H    2.087156   1.095497   2.166069   2.798775   3.955962
    16  H    2.083939   1.092853   2.180475   2.816404   3.303478
    17  H    2.701851   2.176335   1.096842   2.174248   2.642248
    18  H    2.695305   2.142598   1.098228   2.143723   3.415714
    19  H    4.539158   3.393871   2.141005   1.097811   2.128329
    20  H    4.029569   2.611072   2.178859   1.096469   2.168978
    21  H    4.974154   3.965186   2.823698   2.160825   1.097113
    22  H    5.694398   4.381650   3.496944   2.141264   1.097306
    23  H    3.890965   2.986220   2.881496   2.858187   2.153181
    24  H    4.636128   3.365811   3.440161   2.765253   2.160801
    25  H    6.766905   5.570410   5.117849   4.131502   2.720296
    26  H    6.276929   5.350982   4.789450   4.234837   2.770754
    27  H    7.592786   6.670475   6.585311   6.006143   4.668338
    28  H    6.625618   5.610343   5.811048   5.228728   4.185032
    29  H    6.830418   6.277091   6.655855   6.583907   5.595240
    30  H    5.099704   4.545540   4.987716   5.084626   4.324508
    31  H    6.250336   6.083268   6.251269   6.588301   5.678021
    32  H    5.671783   5.261146   5.058025   5.217956   4.168701
    33  H    8.012697   7.371961   7.041701   6.752405   5.355934
    34  H    8.034301   7.700289   7.422687   7.476889   6.245434
    35  H    9.646402   9.182363   9.092616   8.943798   7.616056
    36  H    8.702291   8.413531   8.540724   8.621035   7.470167
                    6          7          8          9         10
     6  C    0.000000
     7  C    1.531072   0.000000
     8  C    2.559603   1.531795   0.000000
     9  C    3.134897   2.594958   1.532236   0.000000
    10  C    3.742912   3.144412   2.594647   1.533518   0.000000
    11  C    4.743412   3.724045   3.148747   2.588077   1.530066
    12  N    5.760644   4.679922   3.690921   3.053407   2.476535
    13  H    4.537808   5.805724   6.300039   5.684055   5.689907
    14  H    5.314712   6.750376   7.401359   6.999602   7.155023
    15  H    4.021167   5.540810   6.179504   6.161659   6.774449
    16  H    2.813011   4.231145   4.677198   4.462602   5.054591
    17  H    3.125494   4.371669   5.389720   5.297963   5.239005
    18  H    4.216741   5.624565   6.699193   6.758909   6.900072
    19  H    3.480591   4.647710   5.985592   6.545328   6.831838
    20  H    2.842811   4.209413   5.255737   5.812178   6.456155
    21  H    2.158349   2.787569   4.230694   4.758924   4.745693
    22  H    2.154242   2.700551   4.125952   5.093403   5.534315
    23  H    1.094208   2.155747   2.828355   2.825587   3.224260
    24  H    1.096269   2.161113   2.762428   3.404562   4.362878
    25  H    2.155348   1.097342   2.140964   3.507377   4.132268
    26  H    2.164021   1.095944   2.168956   2.883300   2.861162
    27  H    3.487385   2.148752   1.096457   2.159479   2.897095
    28  H    2.806451   2.151853   1.097460   2.145168   3.510401
    29  H    4.119308   3.510534   2.146058   1.097090   2.160050
    30  H    2.862136   2.895240   2.159122   1.096682   2.148739
    31  H    4.506166   4.139807   3.510383   2.146230   1.097935
    32  H    3.240685   2.869562   2.887451   2.162761   1.096372
    33  H    4.467589   3.217316   2.862893   2.874752   2.172213
    34  H    5.394215   4.482960   4.141358   3.510951   2.151654
    35  H    6.532123   5.334048   4.442923   4.004934   3.356537
    36  H    6.242041   5.340060   4.307677   3.344189   2.675760
                   11         12         13         14         15
    11  C    0.000000
    12  N    1.457471   0.000000
    13  H    7.117142   8.132590   0.000000
    14  H    8.568802   9.611831   1.627364   0.000000
    15  H    8.158667   9.099886   2.936508   2.397757   0.000000
    16  H    6.477694   7.377552   2.398208   2.933698   1.760239
    17  H    6.412014   7.663471   2.455992   2.956889   3.079713
    18  H    8.098552   9.315650   2.993854   2.441179   2.473926
    19  H    7.771938   8.997959   4.789359   4.564294   3.525865
    20  H    7.550375   8.590582   4.491841   4.310366   2.455565
    21  H    5.477279   6.781543   4.773479   5.346756   4.613845
    22  H    6.203876   7.317147   5.764499   6.096778   4.673239
    23  H    4.457361   5.510983   3.659156   4.669882   3.777378
    24  H    5.422170   6.251481   4.766176   5.375735   3.677189
    25  H    4.475160   5.329166   6.658969   7.443192   6.012973
    26  H    3.208281   4.388385   5.915947   6.957168   6.074220
    27  H    2.885909   3.215820   7.314360   8.449523   7.249677
    28  H    4.146819   4.469696   6.547849   7.513085   6.013168
    29  H    2.872825   2.778369   6.475991   7.805657   6.930470
    30  H    3.506410   4.030088   4.783105   6.068830   5.247167
    31  H    2.154169   2.739041   5.570337   7.129073   7.010010
    32  H    2.148773   3.405213   5.024113   6.452914   6.214049
    33  H    1.094413   2.092740   7.453885   8.797786   8.198025
    34  H    1.095825   2.087734   7.302650   8.794025   8.653796
    35  H    2.037511   1.019043   9.031217  10.510299  10.013761
    36  H    2.040780   1.019175   8.065970   9.605030   9.264206
                   16         17         18         19         20
    16  H    0.000000
    17  H    2.565677   0.000000
    18  H    3.065772   1.758236   0.000000
    19  H    3.841866   2.699611   2.249959   0.000000
    20  H    2.789395   3.047657   2.705329   1.754595   0.000000
    21  H    3.881808   2.489132   3.543239   2.449670   3.069511
    22  H    4.198623   3.676880   4.198235   2.392893   2.471162
    23  H    2.275437   2.617178   3.970060   3.832850   3.267491
    24  H    2.616037   3.697427   4.462873   3.745981   2.595344
    25  H    4.922828   5.027888   6.072446   4.713299   4.307424
    26  H    4.737412   4.331764   5.755774   4.838618   4.767622
    27  H    5.763808   6.300860   7.651158   6.782819   6.171452
    28  H    4.634341   5.781525   6.887697   6.135035   5.129566
    29  H    5.241635   6.323783   7.742814   7.562400   6.706680
    30  H    3.525331   4.702246   6.063367   6.110626   5.236541
    31  H    5.265755   5.568499   7.228153   7.470509   7.053679
    32  H    4.571716   4.316885   6.027257   5.991269   5.824262
    33  H    6.604826   6.403138   8.028844   7.405243   7.264262
    34  H    6.997005   6.607329   8.345298   8.139004   8.109477
    35  H    8.308680   8.437295  10.106945   9.683301   9.374283
    36  H    7.510510   7.890998   9.557895   9.467981   9.016680
                   21         22         23         24         25
    21  H    0.000000
    22  H    1.758067   0.000000
    23  H    2.463967   3.054184   0.000000
    24  H    3.064160   2.540059   1.769796   0.000000
    25  H    3.092298   2.433253   3.057017   2.521807   0.000000
    26  H    2.583424   3.029001   2.488810   3.067710   1.754707
    27  H    4.878029   4.729923   3.821699   3.746999   2.420237
    28  H    4.750383   4.301675   3.211155   2.562185   2.448602
    29  H    5.838187   6.055378   3.849643   4.212271   4.280966
    30  H    4.628622   4.990812   2.327417   2.974380   3.860754
    31  H    5.510690   6.413174   3.793143   5.050753   5.164784
    32  H    3.854107   4.888383   2.636466   4.056842   3.903245
    33  H    5.060314   5.627087   4.423784   5.182008   3.769957
    34  H    5.783307   6.744752   5.006457   6.186590   5.248656
    35  H    7.386173   7.916292   6.352798   7.068864   5.865727
    36  H    7.310458   7.957276   5.835245   6.702554   6.096099
                   26         27         28         29         30
    26  H    0.000000
    27  H    2.484938   0.000000
    28  H    3.063426   1.750045   0.000000
    29  H    3.851520   2.444828   2.440930   0.000000
    30  H    3.326721   3.058528   2.440554   1.745787   0.000000
    31  H    3.897237   3.859841   4.285000   2.452596   2.432483
    32  H    2.378111   3.343475   3.847348   3.062569   2.461885
    33  H    2.617590   2.382918   3.899104   3.291379   3.854690
    34  H    3.772457   3.919398   5.174911   3.845823   4.292485
    35  H    4.939927   3.788437   5.233325   3.744527   5.014339
    36  H    5.073631   4.011403   5.022506   2.937926   4.150763
                   31         32         33         34         35
    31  H    0.000000
    32  H    1.749797   0.000000
    33  H    3.068283   2.496598   0.000000
    34  H    2.461569   2.441384   1.760009   0.000000
    35  H    3.640965   4.164307   2.390737   2.339946   0.000000
    36  H    2.508893   3.652230   2.941061   2.386868   1.631562
                   36
    36  H    0.000000
 Stoichiometry    C10H24N2
 Framework group  C1[X(C10H24N2)]
 Deg. of freedom   102
 Full point group                 C1      NOp   1
 Largest Abelian subgroup         C1      NOp   1
 Largest concise Abelian subgroup C1      NOp   1
                         Standard orientation:                         
 ---------------------------------------------------------------------
 Center     Atomic      Atomic             Coordinates (Angstroms)
 Number     Number       Type             X           Y           Z
 ---------------------------------------------------------------------
      1          7           0       -3.682699    2.426745    0.186996
      2          6           0       -3.379396    1.047386    0.556125
      3          6           0       -3.386352    0.138148   -0.674829
      4          6           0       -3.079566   -1.325417   -0.336340
      5          6           0       -1.621387   -1.742562   -0.558533
      6          6           0       -0.617532   -1.016848    0.337366
      7          6           0        0.791427   -1.592015    0.169447
      8          6           0        1.819197   -0.969474    1.119462
      9          6           0        2.025255    0.542362    0.979328
     10          6           0        2.422941    1.030844   -0.418852
     11          6           0        3.705763    0.418542   -0.985030
     12          7           0        4.861223    0.697452   -0.141620
     13          1           0       -2.998763    2.755539   -0.493618
     14          1           0       -4.585927    2.463327   -0.284240
     15          1           0       -4.126903    0.705144    1.280153
     16          1           0       -2.410242    1.026665    1.060744
     17          1           0       -2.689694    0.508937   -1.436567
     18          1           0       -4.388079    0.179358   -1.123104
     19          1           0       -3.694263   -1.956874   -0.991015
     20          1           0       -3.385548   -1.560242    0.690050
     21          1           0       -1.353753   -1.584084   -1.610632
     22          1           0       -1.549255   -2.822549   -0.378244
     23          1           0       -0.606714    0.046356    0.078964
     24          1           0       -0.927119   -1.103729    1.385418
     25          1           0        0.763205   -2.671658    0.363699
     26          1           0        1.118834   -1.475561   -0.869945
     27          1           0        2.778615   -1.481445    0.979382
     28          1           0        1.516169   -1.179480    2.153140
     29          1           0        2.789080    0.853948    1.702578
     30          1           0        1.108059    1.062820    1.280307
     31          1           0        2.534335    2.122457   -0.380981
     32          1           0        1.602952    0.839185   -1.120932
     33          1           0        3.596342   -0.663850   -1.104163
     34          1           0        3.887011    0.832998   -1.983132
     35          1           0        5.703588    0.342604   -0.592123
     36          1           0        4.986307    1.704965   -0.052236
 ---------------------------------------------------------------------
 Rotational constants (GHZ):           1.3354512           0.3174853           0.2815800
 Standard basis: 6-31G(d,p) (6D, 7F)
 There are   300 symmetry adapted cartesian basis functions of A   symmetry.
 There are   300 symmetry adapted basis functions of A   symmetry.
   300 basis functions,   504 primitive gaussians,   300 cartesian basis functions
    49 alpha electrons       49 beta electrons
       nuclear repulsion energy       740.0920040301 Hartrees.
 NAtoms=   36 NActive=   36 NUniq=   36 SFac= 1.00D+00 NAtFMM=   60 NAOKFM=F Big=F
 Integral buffers will be    131072 words long.
 Raffenetti 2 integral format.
 Two-electron integral symmetry is turned on.
 Force inversion solution in PCM.
 ------------------------------------------------------------------------------
 Polarizable Continuum Model (PCM)
 =================================
 Model                : PCM.
 Atomic radii         : UFF (Universal Force Field).
 Polarization charges : Total charges.
 Charge compensation  : None.
 Solution method      : Matrix inversion.
 Cavity type          : Scaled VdW (van der Waals Surface) (Alpha=1.100).
 Cavity algorithm     : GePol (No added spheres)
                        Default sphere list used, NSphG=   36.
                        Lebedev-Laikov grids with approx.  5.0 points / Ang**2.
                        Smoothing algorithm: York/Karplus (Gamma=1.0000).
                        Polarization charges: spherical gaussians, with
                                              point-specific exponents (IZeta= 3).
                        Self-potential: point-specific (ISelfS= 7).
                        Self-field    : sphere-specific E.n sum rule (ISelfD= 2).
 1st derivatives      : Analytical E(r).r(x)/FMM algorithm (CHGder, D1EAlg=3).
                        Cavity 1st derivative terms included.
 2nd derivatives      : Analytical E(r).r(xy)/FMM algorithm (CHGder, D2EAlg=3).
                        Cavity 2nd derivative terms included.
 Solvent              : Water, Eps=  78.355300 Eps(inf)=   1.777849
 ------------------------------------------------------------------------------
 One-electron integrals computed using PRISM.
 NBasis=   300 RedAO= T EigKep=  3.07D-03  NBF=   300
 NBsUse=   300 1.00D-06 EigRej= -1.00D+00 NBFU=   300
 ExpMin= 1.61D-01 ExpMax= 4.17D+03 ExpMxC= 6.27D+02 IAcc=3 IRadAn=         5 AccDes= 0.00D+00
 Harris functional with IExCor=  402 and IRadAn=       5 diagonalized for initial guess.
 HarFok:  IExCor=  402 AccDes= 0.00D+00 IRadAn=         5 IDoV= 1 UseB2=F ITyADJ=14
 ICtDFT=  3500011 ScaDFX=  1.000000  1.000000  1.000000  1.000000
 FoFCou: FMM=F IPFlag=           0 FMFlag=      100000 FMFlg1=           0
         NFxFlg=           0 DoJE=T BraDBF=F KetDBF=T FulRan=T
         wScrn=  0.000000 ICntrl=       500 IOpCl=  0 I1Cent=   200000004 NGrid=           0
         NMat0=    1 NMatS0=      1 NMatT0=    0 NMatD0=    1 NMtDS0=    0 NMtDT0=    0
 Petite list used in FoFCou.
 Requested convergence on RMS density matrix=1.00D-08 within  32 cycles.
 Requested convergence on MAX density matrix=1.00D-06.
 Requested convergence on             energy=1.00D-06.
 No special actions if energy rises.
 Inv3:  Mode=1 IEnd=    15966747.
 Iteration    1 A*A^-1 deviation from unit magnitude is 3.11D-15 for   1448.
 Iteration    1 A*A^-1 deviation from orthogonality  is 2.20D-15 for   1778    815.
 Iteration    1 A^-1*A deviation from unit magnitude is 3.22D-15 for    735.
 Iteration    1 A^-1*A deviation from orthogonality  is 1.95D-15 for   1845     73.
 Error on total polarization charges =  0.01094
 SCF Done:  E(RB3LYP) =  -505.055859086     A.U. after   11 cycles
            NFock= 11  Conv=0.23D-08     -V/T= 2.0096
 QCSCF skips out because SCF is already converged.
 DoSCS=F DFT=T ScalE2(SS,OS)=  1.000000  1.000000
 Range of M.O.s used for correlation:     1   300
 NBasis=   300 NAE=    49 NBE=    49 NFC=     0 NFV=     0
 NROrb=    300 NOA=    49 NOB=    49 NVA=   251 NVB=   251
 Symmetrizing basis deriv contribution to polar:
 IMax=3 JMax=2 DiffMx= 0.00D+00
 G2DrvN: will do    37 centers at a time, making    1 passes.
 Calling FoFCou, ICntrl=  3107 FMM=F I1Cent=   0 AccDes= 0.00D+00.
 NEqPCM:  Using equilibrium solvation (IEInf=0, Eps=  78.3553, EpsInf=   1.7778)
 G2PCM: DoFxE=T DoFxN=T DoGrad=T DoDP/DQ/DG/TGxP=FFFF NFrqRd=   0 IEInf=0 SqF1=F DoCFld=F IF1Alg=4.
 End of G2Drv F.D. properties file   721 does not exist.
 End of G2Drv F.D. properties file   722 does not exist.
 End of G2Drv F.D. properties file   788 does not exist.
          IDoAtm=111111111111111111111111111111111111
 NEqPCM:  Using equilibrium solvation (IEInf=0, Eps=  78.3553, EpsInf=   1.7778)
          Differentiating once with respect to nuclear coordinates.
 Keep R1 ints in memory in canonical form, NReq=1032935997.
          There are   111 degrees of freedom in the 1st order CPHF.  IDoFFX=6 NUNeed=     0.
    105 vectors produced by pass  0 Test12= 1.23D-14 1.00D-09 XBig12= 7.66D-02 6.64D-02.
 AX will form   105 AO Fock derivatives at one time.
    105 vectors produced by pass  1 Test12= 1.23D-14 1.00D-09 XBig12= 1.13D-02 2.54D-02.
    105 vectors produced by pass  2 Test12= 1.23D-14 1.00D-09 XBig12= 1.86D-04 1.90D-03.
    105 vectors produced by pass  3 Test12= 1.23D-14 1.00D-09 XBig12= 5.18D-07 8.05D-05.
    105 vectors produced by pass  4 Test12= 1.23D-14 1.00D-09 XBig12= 4.55D-10 1.78D-06.
     38 vectors produced by pass  5 Test12= 1.23D-14 1.00D-09 XBig12= 2.36D-13 4.63D-08.
      1 vectors produced by pass  6 Test12= 1.23D-14 1.00D-09 XBig12= 1.61D-16 1.30D-09.
 InvSVY:  IOpt=1 It=  1 EMax= 2.78D-16
 Solved reduced A of dimension   564 with   111 vectors.
 End of Minotr F.D. properties file   721 does not exist.
 End of Minotr F.D. properties file   722 does not exist.
 End of Minotr F.D. properties file   788 does not exist.

 **********************************************************************

            Population analysis using the SCF density.

 **********************************************************************

 Orbital symmetries:
       Occupied  (A) (A) (A) (A) (A) (A) (A) (A) (A) (A) (A) (A)
                 (A) (A) (A) (A) (A) (A) (A) (A) (A) (A) (A) (A)
                 (A) (A) (A) (A) (A) (A) (A) (A) (A) (A) (A) (A)
                 (A) (A) (A) (A) (A) (A) (A) (A) (A) (A) (A) (A)
                 (A)
       Virtual   (A) (A) (A) (A) (A) (A) (A) (A) (A) (A) (A) (A)
                 (A) (A) (A) (A) (A) (A) (A) (A) (A) (A) (A) (A)
                 (A) (A) (A) (A) (A) (A) (A) (A) (A) (A) (A) (A)
                 (A) (A) (A) (A) (A) (A) (A) (A) (A) (A) (A) (A)
                 (A) (A) (A) (A) (A) (A) (A) (A) (A) (A) (A) (A)
                 (A) (A) (A) (A) (A) (A) (A) (A) (A) (A) (A) (A)
                 (A) (A) (A) (A) (A) (A) (A) (A) (A) (A) (A) (A)
                 (A) (A) (A) (A) (A) (A) (A) (A) (A) (A) (A) (A)
                 (A) (A) (A) (A) (A) (A) (A) (A) (A) (A) (A) (A)
                 (A) (A) (A) (A) (A) (A) (A) (A) (A) (A) (A) (A)
                 (A) (A) (A) (A) (A) (A) (A) (A) (A) (A) (A) (A)
                 (A) (A) (A) (A) (A) (A) (A) (A) (A) (A) (A) (A)
                 (A) (A) (A) (A) (A) (A) (A) (A) (A) (A) (A) (A)
                 (A) (A) (A) (A) (A) (A) (A) (A) (A) (A) (A) (A)
                 (A) (A) (A) (A) (A) (A) (A) (A) (A) (A) (A) (A)
                 (A) (A) (A) (A) (A) (A) (A) (A) (A) (A) (A) (A)
                 (A) (A) (A) (A) (A) (A) (A) (A) (A) (A) (A) (A)
                 (A) (A) (A) (A) (A) (A) (A) (A) (A) (A) (A) (A)
                 (A) (A) (A) (A) (A) (A) (A) (A) (A) (A) (A) (A)
                 (A) (A) (A) (A) (A) (A) (A) (A) (A) (A) (A) (A)
                 (A) (A) (A) (A) (A) (A) (A) (A) (A) (A) (A)
 The electronic state is 1-A.
 Alpha  occ. eigenvalues --  -14.30462 -14.30421 -10.19729 -10.19725 -10.17313
 Alpha  occ. eigenvalues --  -10.17068 -10.17037 -10.16990 -10.16946 -10.16932
 Alpha  occ. eigenvalues --  -10.16932 -10.16905  -0.87469  -0.87415  -0.80589
 Alpha  occ. eigenvalues --   -0.78152  -0.74590  -0.70826  -0.67123  -0.63955
 Alpha  occ. eigenvalues --   -0.60492  -0.58340  -0.56013  -0.53768  -0.49310
 Alpha  occ. eigenvalues --   -0.48518  -0.46670  -0.46059  -0.44196  -0.43691
 Alpha  occ. eigenvalues --   -0.42373  -0.42072  -0.40769  -0.38964  -0.38545
 Alpha  occ. eigenvalues --   -0.37775  -0.37116  -0.35752  -0.35152  -0.33992
 Alpha  occ. eigenvalues --   -0.33735  -0.32417  -0.31780  -0.31666  -0.30807
 Alpha  occ. eigenvalues --   -0.30146  -0.28897  -0.22728  -0.22644
 Alpha virt. eigenvalues --    0.07250   0.08656   0.09921   0.10824   0.10933
 Alpha virt. eigenvalues --    0.11605   0.13209   0.13705   0.14349   0.15348
 Alpha virt. eigenvalues --    0.15701   0.16303   0.17440   0.17699   0.17973
 Alpha virt. eigenvalues --    0.18541   0.19208   0.19396   0.20537   0.20838
 Alpha virt. eigenvalues --    0.21441   0.22089   0.22872   0.23707   0.24386
 Alpha virt. eigenvalues --    0.24568   0.24703   0.25580   0.25880   0.26937
 Alpha virt. eigenvalues --    0.27588   0.28260   0.29295   0.32637   0.33259
 Alpha virt. eigenvalues --    0.50472   0.50849   0.51769   0.52089   0.54019
 Alpha virt. eigenvalues --    0.54835   0.55545   0.56420   0.56920   0.57965
 Alpha virt. eigenvalues --    0.59476   0.61962   0.62258   0.63044   0.64568
 Alpha virt. eigenvalues --    0.65577   0.67744   0.68670   0.69554   0.70279
 Alpha virt. eigenvalues --    0.71549   0.72535   0.73063   0.73998   0.74672
 Alpha virt. eigenvalues --    0.75883   0.77588   0.79033   0.80543   0.81442
 Alpha virt. eigenvalues --    0.81891   0.83080   0.84493   0.85106   0.85570
 Alpha virt. eigenvalues --    0.87282   0.87357   0.87815   0.88078   0.88820
 Alpha virt. eigenvalues --    0.90303   0.91098   0.91752   0.92362   0.92899
 Alpha virt. eigenvalues --    0.93550   0.94787   0.94906   0.95866   0.97004
 Alpha virt. eigenvalues --    0.97432   0.97669   0.98231   0.99513   1.00211
 Alpha virt. eigenvalues --    1.02232   1.04517   1.06003   1.08976   1.10412
 Alpha virt. eigenvalues --    1.13227   1.16193   1.18644   1.27268   1.29473
 Alpha virt. eigenvalues --    1.30034   1.32970   1.35935   1.40232   1.41922
 Alpha virt. eigenvalues --    1.43522   1.44556   1.46217   1.51025   1.53809
 Alpha virt. eigenvalues --    1.58165   1.58843   1.61075   1.62010   1.64235
 Alpha virt. eigenvalues --    1.65644   1.66646   1.67618   1.72966   1.73694
 Alpha virt. eigenvalues --    1.75671   1.78733   1.79435   1.80627   1.81458
 Alpha virt. eigenvalues --    1.82602   1.82833   1.85397   1.86031   1.89200
 Alpha virt. eigenvalues --    1.89781   1.90250   1.90884   1.93305   1.94855
 Alpha virt. eigenvalues --    1.95456   1.96715   1.98034   2.00001   2.00871
 Alpha virt. eigenvalues --    2.05234   2.07407   2.09619   2.10114   2.12496
 Alpha virt. eigenvalues --    2.13001   2.13650   2.14226   2.16232   2.17725
 Alpha virt. eigenvalues --    2.19108   2.20844   2.22279   2.23098   2.24128
 Alpha virt. eigenvalues --    2.24451   2.24815   2.25498   2.26423   2.27167
 Alpha virt. eigenvalues --    2.27573   2.28920   2.29780   2.30500   2.31782
 Alpha virt. eigenvalues --    2.32292   2.33516   2.34696   2.36660   2.38379
 Alpha virt. eigenvalues --    2.40416   2.41469   2.43057   2.44922   2.46102
 Alpha virt. eigenvalues --    2.46940   2.47153   2.50738   2.52034   2.53435
 Alpha virt. eigenvalues --    2.55774   2.57293   2.60871   2.62525   2.62795
 Alpha virt. eigenvalues --    2.63572   2.66824   2.67662   2.67827   2.69867
 Alpha virt. eigenvalues --    2.72123   2.72610   2.73709   2.76131   2.77524
 Alpha virt. eigenvalues --    2.78059   2.79824   2.80855   2.84762   2.85290
 Alpha virt. eigenvalues --    2.86636   2.88218   2.89401   2.89709   2.90468
 Alpha virt. eigenvalues --    2.90719   2.91549   2.93124   2.93655   2.93939
 Alpha virt. eigenvalues --    2.94585   2.95256   2.97971   2.98233   2.99916
 Alpha virt. eigenvalues --    3.23194   3.26163   3.27547   3.29860   3.31022
 Alpha virt. eigenvalues --    3.31213   3.31933   3.33063   3.34107   3.34263
 Alpha virt. eigenvalues --    3.35897   3.38275   3.39794   3.40196   3.43071
 Alpha virt. eigenvalues --    3.46799   3.48513   3.51920   3.55243   3.56438
 Alpha virt. eigenvalues --    3.58035   3.58471   3.59249   3.61353   4.00293
 Alpha virt. eigenvalues --    4.00593   4.25621   4.33428   4.39906   4.48287
 Alpha virt. eigenvalues --    4.56557   4.63544   4.65278   4.70329   4.70855
 Alpha virt. eigenvalues --    4.79295
          Condensed to atoms (all electrons):
               1          2          3          4          5          6
     1  N    6.773946   0.311824  -0.072395   0.006219  -0.000051  -0.000070
     2  C    0.311824   4.801646   0.389180  -0.034138  -0.001322  -0.001201
     3  C   -0.072395   0.389180   5.002029   0.318142  -0.037251  -0.002050
     4  C    0.006219  -0.034138   0.318142   4.970508   0.370498  -0.045880
     5  C   -0.000051  -0.001322  -0.037251   0.370498   4.897885   0.377090
     6  C   -0.000070  -0.001201  -0.002050  -0.045880   0.377090   4.908714
     7  C   -0.000000   0.000106  -0.000028   0.004186  -0.035475   0.374096
     8  C   -0.000000   0.000004   0.000005  -0.000171   0.004005  -0.042573
     9  C    0.000000  -0.000012  -0.000000   0.000003   0.000148  -0.004186
    10  C   -0.000000   0.000001  -0.000001   0.000000   0.000012  -0.002293
    11  C    0.000000  -0.000000   0.000000   0.000000   0.000000   0.000163
    12  N   -0.000000   0.000000  -0.000000  -0.000000   0.000000  -0.000003
    13  H    0.348332  -0.046298  -0.002723   0.000041   0.000001   0.000008
    14  H    0.347675  -0.046497  -0.002338   0.000075  -0.000003  -0.000001
    15  H   -0.036119   0.385653  -0.043965  -0.003139   0.000030  -0.000029
    16  H   -0.035759   0.387496  -0.048976   0.000695  -0.000187   0.001746
    17  H   -0.000598  -0.039856   0.382275  -0.039393  -0.007687  -0.001086
    18  H   -0.001368  -0.039744   0.375423  -0.029601   0.003851   0.000072
    19  H   -0.000211   0.003850  -0.029308   0.364238  -0.032101   0.005443
    20  H    0.000277  -0.009053  -0.048169   0.387380  -0.036707  -0.007821
    21  H    0.000006  -0.000062  -0.008313  -0.036907   0.381326  -0.039487
    22  H    0.000002  -0.000105   0.005062  -0.035933   0.379396  -0.042949
    23  H    0.000107  -0.002751   0.004698  -0.004612  -0.036304   0.385151
    24  H    0.000015  -0.000184  -0.001564  -0.003009  -0.041110   0.384609
    25  H    0.000000  -0.000004   0.000006   0.000030  -0.005541  -0.040613
    26  H    0.000000  -0.000001  -0.000008   0.000051  -0.003341  -0.039463
    27  H    0.000000  -0.000000  -0.000000   0.000002  -0.000151   0.005044
    28  H    0.000000  -0.000000   0.000000  -0.000000   0.000057  -0.007736
    29  H   -0.000000   0.000000   0.000000  -0.000000  -0.000003   0.000014
    30  H   -0.000000  -0.000022  -0.000010   0.000012  -0.000105   0.004262
    31  H    0.000000  -0.000000   0.000000  -0.000000   0.000001   0.000029
    32  H   -0.000000  -0.000000  -0.000004  -0.000001  -0.000063  -0.000080
    33  H    0.000000  -0.000000   0.000000  -0.000000  -0.000000   0.000017
    34  H    0.000000   0.000000  -0.000000   0.000000  -0.000000  -0.000005
    35  H    0.000000  -0.000000   0.000000  -0.000000  -0.000000   0.000000
    36  H    0.000000   0.000000   0.000000   0.000000  -0.000000   0.000000
               7          8          9         10         11         12
     1  N   -0.000000  -0.000000   0.000000  -0.000000   0.000000  -0.000000
     2  C    0.000106   0.000004  -0.000012   0.000001  -0.000000   0.000000
     3  C   -0.000028   0.000005  -0.000000  -0.000001   0.000000  -0.000000
     4  C    0.004186  -0.000171   0.000003   0.000000   0.000000  -0.000000
     5  C   -0.035475   0.004005   0.000148   0.000012   0.000000   0.000000
     6  C    0.374096  -0.042573  -0.004186  -0.002293   0.000163  -0.000003
     7  C    4.923639   0.365584  -0.045529  -0.003139  -0.002384   0.000115
     8  C    0.365584   4.929740   0.374406  -0.043977  -0.002181  -0.002423
     9  C   -0.045529   0.374406   4.917235   0.363304  -0.045722  -0.000538
    10  C   -0.003139  -0.043977   0.363304   4.948492   0.377833  -0.057106
    11  C   -0.002384  -0.002181  -0.045722   0.377833   4.791490   0.296403
    12  N    0.000115  -0.002423  -0.000538  -0.057106   0.296403   6.807359
    13  H   -0.000000  -0.000000   0.000000  -0.000000   0.000000   0.000000
    14  H    0.000000  -0.000000  -0.000000   0.000000  -0.000000   0.000000
    15  H   -0.000005   0.000000   0.000000  -0.000000   0.000000  -0.000000
    16  H   -0.000007  -0.000012  -0.000020  -0.000004   0.000000  -0.000000
    17  H   -0.000098   0.000003  -0.000001  -0.000001  -0.000000   0.000000
    18  H    0.000000  -0.000000  -0.000000  -0.000000   0.000000  -0.000000
    19  H   -0.000158   0.000002  -0.000000   0.000000  -0.000000   0.000000
    20  H    0.000040  -0.000000   0.000000  -0.000000   0.000000  -0.000000
    21  H   -0.003987   0.000057  -0.000017   0.000002  -0.000001   0.000000
    22  H   -0.006163   0.000084   0.000005  -0.000002  -0.000000  -0.000000
    23  H   -0.037736  -0.004921   0.003055   0.000258  -0.000013  -0.000000
    24  H   -0.041521  -0.002798  -0.001224   0.000132  -0.000004   0.000000
    25  H    0.378705  -0.033512   0.005367  -0.000018   0.000032  -0.000001
    26  H    0.381596  -0.037659  -0.008251   0.004205  -0.000184   0.000001
    27  H   -0.034259   0.373463  -0.037017  -0.009334   0.002997   0.003248
    28  H   -0.038488   0.377144  -0.035018   0.005526  -0.000008  -0.000019
    29  H    0.005315  -0.032798   0.376964  -0.038413  -0.008975   0.011227
    30  H   -0.007695  -0.039457   0.379100  -0.037101   0.005342   0.000114
    31  H   -0.000013   0.005350  -0.036872   0.378542  -0.038010  -0.005287
    32  H    0.003911  -0.007709  -0.036009   0.376847  -0.034481   0.004161
    33  H   -0.000134   0.005398  -0.010076  -0.030939   0.386426  -0.044729
    34  H    0.000066  -0.000253   0.006573  -0.043762   0.387777  -0.054492
    35  H   -0.000001   0.000010   0.000068   0.005911  -0.033390   0.339810
    36  H   -0.000003   0.000128  -0.000744  -0.004771  -0.039234   0.340301
              13         14         15         16         17         18
     1  N    0.348332   0.347675  -0.036119  -0.035759  -0.000598  -0.001368
     2  C   -0.046298  -0.046497   0.385653   0.387496  -0.039856  -0.039744
     3  C   -0.002723  -0.002338  -0.043965  -0.048976   0.382275   0.375423
     4  C    0.000041   0.000075  -0.003139   0.000695  -0.039393  -0.029601
     5  C    0.000001  -0.000003   0.000030  -0.000187  -0.007687   0.003851
     6  C    0.000008  -0.000001  -0.000029   0.001746  -0.001086   0.000072
     7  C   -0.000000   0.000000  -0.000005  -0.000007  -0.000098   0.000000
     8  C   -0.000000  -0.000000   0.000000  -0.000012   0.000003  -0.000000
     9  C    0.000000  -0.000000   0.000000  -0.000020  -0.000001  -0.000000
    10  C   -0.000000   0.000000  -0.000000  -0.000004  -0.000001  -0.000000
    11  C    0.000000  -0.000000   0.000000   0.000000  -0.000000   0.000000
    12  N    0.000000   0.000000  -0.000000  -0.000000   0.000000  -0.000000
    13  H    0.481567  -0.034639   0.006570  -0.005633   0.005923  -0.000506
    14  H   -0.034639   0.482486  -0.005770   0.006520  -0.000459   0.006363
    15  H    0.006570  -0.005770   0.627706  -0.037792   0.005642  -0.006690
    16  H   -0.005633   0.006520  -0.037792   0.619987  -0.005363   0.006097
    17  H    0.005923  -0.000459   0.005642  -0.005363   0.633553  -0.038810
    18  H   -0.000506   0.006363  -0.006690   0.006097  -0.038810   0.646146
    19  H    0.000000  -0.000010   0.000033  -0.000142   0.001567  -0.011929
    20  H    0.000024   0.000023   0.005198   0.000856   0.005348   0.001878
    21  H   -0.000004   0.000001   0.000004   0.000128   0.004964   0.000170
    22  H    0.000000  -0.000000   0.000020  -0.000048   0.000252  -0.000227
    23  H    0.000118  -0.000007   0.000097   0.001900   0.001575  -0.000070
    24  H    0.000000   0.000000   0.000064   0.001877   0.000192  -0.000012
    25  H    0.000000  -0.000000   0.000000   0.000004   0.000000   0.000000
    26  H   -0.000000  -0.000000   0.000000   0.000005   0.000003  -0.000000
    27  H   -0.000000   0.000000  -0.000000   0.000000  -0.000000  -0.000000
    28  H   -0.000000  -0.000000   0.000000  -0.000002  -0.000000  -0.000000
    29  H   -0.000000   0.000000   0.000000  -0.000001   0.000000   0.000000
    30  H    0.000000   0.000000  -0.000001   0.000445  -0.000006   0.000000
    31  H    0.000000  -0.000000   0.000000   0.000000  -0.000000   0.000000
    32  H    0.000001  -0.000000   0.000000  -0.000009   0.000024  -0.000000
    33  H    0.000000  -0.000000   0.000000   0.000000  -0.000000  -0.000000
    34  H   -0.000000  -0.000000  -0.000000  -0.000000   0.000000  -0.000000
    35  H   -0.000000  -0.000000   0.000000   0.000000  -0.000000   0.000000
    36  H   -0.000000   0.000000  -0.000000   0.000000  -0.000000   0.000000
              19         20         21         22         23         24
     1  N   -0.000211   0.000277   0.000006   0.000002   0.000107   0.000015
     2  C    0.003850  -0.009053  -0.000062  -0.000105  -0.002751  -0.000184
     3  C   -0.029308  -0.048169  -0.008313   0.005062   0.004698  -0.001564
     4  C    0.364238   0.387380  -0.036907  -0.035933  -0.004612  -0.003009
     5  C   -0.032101  -0.036707   0.381326   0.379396  -0.036304  -0.041110
     6  C    0.005443  -0.007821  -0.039487  -0.042949   0.385151   0.384609
     7  C   -0.000158   0.000040  -0.003987  -0.006163  -0.037736  -0.041521
     8  C    0.000002  -0.000000   0.000057   0.000084  -0.004921  -0.002798
     9  C   -0.000000   0.000000  -0.000017   0.000005   0.003055  -0.001224
    10  C    0.000000  -0.000000   0.000002  -0.000002   0.000258   0.000132
    11  C   -0.000000   0.000000  -0.000001  -0.000000  -0.000013  -0.000004
    12  N    0.000000  -0.000000   0.000000  -0.000000  -0.000000   0.000000
    13  H    0.000000   0.000024  -0.000004   0.000000   0.000118   0.000000
    14  H   -0.000010   0.000023   0.000001  -0.000000  -0.000007   0.000000
    15  H    0.000033   0.005198   0.000004   0.000020   0.000097   0.000064
    16  H   -0.000142   0.000856   0.000128  -0.000048   0.001900   0.001877
    17  H    0.001567   0.005348   0.004964   0.000252   0.001575   0.000192
    18  H   -0.011929   0.001878   0.000170  -0.000227  -0.000070  -0.000012
    19  H    0.661549  -0.038418  -0.004417  -0.004598  -0.000041   0.000007
    20  H   -0.038418   0.641685   0.005946  -0.003830  -0.000292   0.005326
    21  H   -0.004417   0.005946   0.647101  -0.038966  -0.007533   0.006242
    22  H   -0.004598  -0.003830  -0.038966   0.655873   0.006205  -0.004831
    23  H   -0.000041  -0.000292  -0.007533   0.006205   0.629414  -0.042455
    24  H    0.000007   0.005326   0.006242  -0.004831  -0.042455   0.644986
    25  H   -0.000008   0.000003  -0.000515   0.006554   0.006079  -0.005468
    26  H    0.000005   0.000006   0.004657  -0.000539  -0.007033   0.006104
    27  H   -0.000000   0.000000   0.000005  -0.000010  -0.000046   0.000027
    28  H    0.000000  -0.000002   0.000005   0.000006  -0.000302   0.005418
    29  H   -0.000000  -0.000000  -0.000000   0.000000  -0.000040  -0.000026
    30  H   -0.000000   0.000001   0.000010  -0.000002   0.000471   0.000618
    31  H    0.000000  -0.000000  -0.000000   0.000000  -0.000054  -0.000001
    32  H   -0.000000   0.000000   0.000055   0.000002   0.001713  -0.000011
    33  H    0.000000  -0.000000  -0.000001   0.000000  -0.000002   0.000001
    34  H   -0.000000   0.000000   0.000000   0.000000   0.000001   0.000000
    35  H   -0.000000  -0.000000  -0.000000   0.000000  -0.000000  -0.000000
    36  H   -0.000000   0.000000  -0.000000   0.000000   0.000000  -0.000000
              25         26         27         28         29         30
     1  N    0.000000   0.000000   0.000000   0.000000  -0.000000  -0.000000
     2  C   -0.000004  -0.000001  -0.000000  -0.000000   0.000000  -0.000022
     3  C    0.000006  -0.000008  -0.000000   0.000000   0.000000  -0.000010
     4  C    0.000030   0.000051   0.000002  -0.000000  -0.000000   0.000012
     5  C   -0.005541  -0.003341  -0.000151   0.000057  -0.000003  -0.000105
     6  C   -0.040613  -0.039463   0.005044  -0.007736   0.000014   0.004262
     7  C    0.378705   0.381596  -0.034259  -0.038488   0.005315  -0.007695
     8  C   -0.033512  -0.037659   0.373463   0.377144  -0.032798  -0.039457
     9  C    0.005367  -0.008251  -0.037017  -0.035018   0.376964   0.379100
    10  C   -0.000018   0.004205  -0.009334   0.005526  -0.038413  -0.037101
    11  C    0.000032  -0.000184   0.002997  -0.000008  -0.008975   0.005342
    12  N   -0.000001   0.000001   0.003248  -0.000019   0.011227   0.000114
    13  H    0.000000  -0.000000  -0.000000  -0.000000  -0.000000   0.000000
    14  H   -0.000000  -0.000000   0.000000  -0.000000   0.000000   0.000000
    15  H    0.000000   0.000000  -0.000000   0.000000   0.000000  -0.000001
    16  H    0.000004   0.000005   0.000000  -0.000002  -0.000001   0.000445
    17  H    0.000000   0.000003  -0.000000  -0.000000   0.000000  -0.000006
    18  H    0.000000  -0.000000  -0.000000  -0.000000   0.000000   0.000000
    19  H   -0.000008   0.000005  -0.000000   0.000000  -0.000000  -0.000000
    20  H    0.000003   0.000006   0.000000  -0.000002  -0.000000   0.000001
    21  H   -0.000515   0.004657   0.000005   0.000005  -0.000000   0.000010
    22  H    0.006554  -0.000539  -0.000010   0.000006   0.000000  -0.000002
    23  H    0.006079  -0.007033  -0.000046  -0.000302  -0.000040   0.000471
    24  H   -0.005468   0.006104   0.000027   0.005418  -0.000026   0.000618
    25  H    0.650572  -0.038972  -0.003668  -0.004666  -0.000163  -0.000027
    26  H   -0.038972   0.641861  -0.004385   0.006232   0.000004  -0.000044
    27  H   -0.003668  -0.004385   0.651997  -0.037939  -0.004653   0.006302
    28  H   -0.004666   0.006232  -0.037939   0.653629  -0.003057  -0.004999
    29  H   -0.000163   0.000004  -0.004653  -0.003057   0.643701  -0.038673
    30  H   -0.000027  -0.000044   0.006302  -0.004999  -0.038673   0.653067
    31  H   -0.000001  -0.000077  -0.000061  -0.000170  -0.004800  -0.003479
    32  H   -0.000063   0.000990  -0.000058  -0.000009   0.006120  -0.005207
    33  H   -0.000032   0.001668  -0.000529  -0.000085  -0.000396  -0.000018
    34  H    0.000001  -0.000055   0.000119  -0.000002   0.000248  -0.000126
    35  H   -0.000000   0.000001  -0.000056   0.000001  -0.000234   0.000002
    36  H    0.000000   0.000001  -0.000081   0.000000  -0.000233  -0.000062
              31         32         33         34         35         36
     1  N    0.000000  -0.000000   0.000000   0.000000   0.000000   0.000000
     2  C   -0.000000  -0.000000  -0.000000   0.000000  -0.000000   0.000000
     3  C    0.000000  -0.000004   0.000000  -0.000000   0.000000   0.000000
     4  C   -0.000000  -0.000001  -0.000000   0.000000  -0.000000   0.000000
     5  C    0.000001  -0.000063  -0.000000  -0.000000  -0.000000  -0.000000
     6  C    0.000029  -0.000080   0.000017  -0.000005   0.000000   0.000000
     7  C   -0.000013   0.003911  -0.000134   0.000066  -0.000001  -0.000003
     8  C    0.005350  -0.007709   0.005398  -0.000253   0.000010   0.000128
     9  C   -0.036872  -0.036009  -0.010076   0.006573   0.000068  -0.000744
    10  C    0.378542   0.376847  -0.030939  -0.043762   0.005911  -0.004771
    11  C   -0.038010  -0.034481   0.386426   0.387777  -0.033390  -0.039234
    12  N   -0.005287   0.004161  -0.044729  -0.054492   0.339810   0.340301
    13  H    0.000000   0.000001   0.000000  -0.000000  -0.000000  -0.000000
    14  H   -0.000000  -0.000000  -0.000000  -0.000000  -0.000000   0.000000
    15  H    0.000000   0.000000   0.000000  -0.000000   0.000000  -0.000000
    16  H    0.000000  -0.000009   0.000000  -0.000000   0.000000   0.000000
    17  H   -0.000000   0.000024  -0.000000   0.000000  -0.000000  -0.000000
    18  H    0.000000  -0.000000  -0.000000  -0.000000   0.000000   0.000000
    19  H    0.000000  -0.000000   0.000000  -0.000000  -0.000000  -0.000000
    20  H   -0.000000   0.000000  -0.000000   0.000000  -0.000000   0.000000
    21  H   -0.000000   0.000055  -0.000001   0.000000  -0.000000  -0.000000
    22  H    0.000000   0.000002   0.000000   0.000000   0.000000   0.000000
    23  H   -0.000054   0.001713  -0.000002   0.000001  -0.000000   0.000000
    24  H   -0.000001  -0.000011   0.000001   0.000000  -0.000000  -0.000000
    25  H   -0.000001  -0.000063  -0.000032   0.000001  -0.000000   0.000000
    26  H   -0.000077   0.000990   0.001668  -0.000055   0.000001   0.000001
    27  H   -0.000061  -0.000058  -0.000529   0.000119  -0.000056  -0.000081
    28  H   -0.000170  -0.000009  -0.000085  -0.000002   0.000001   0.000000
    29  H   -0.004800   0.006120  -0.000396   0.000248  -0.000234  -0.000233
    30  H   -0.003479  -0.005207  -0.000018  -0.000126   0.000002  -0.000062
    31  H    0.645858  -0.035620   0.006052  -0.006614  -0.000003   0.005671
    32  H   -0.035620   0.633582  -0.003852  -0.000664  -0.000247  -0.000129
    33  H    0.006052  -0.003852   0.633843  -0.049470  -0.003031   0.006716
    34  H   -0.006614  -0.000664  -0.049470   0.692012  -0.004491  -0.004965
    35  H   -0.000003  -0.000247  -0.003031  -0.004491   0.478018  -0.032347
    36  H    0.005671  -0.000129   0.006716  -0.004965  -0.032347   0.482394
 Mulliken charges:
               1
     1  N   -0.641831
     2  C   -0.058509
     3  C   -0.179716
     4  C   -0.189298
     5  C   -0.176898
     6  C   -0.168935
     7  C   -0.180540
     8  C   -0.184941
     9  C   -0.164993
    10  C   -0.190207
    11  C   -0.043876
    12  N   -0.638141
    13  H    0.247218
    14  H    0.246582
    15  H    0.102494
    16  H    0.106197
    17  H    0.092036
    18  H    0.088956
    19  H    0.084646
    20  H    0.090301
    21  H    0.089530
    22  H    0.084744
    23  H    0.103372
    24  H    0.088601
    25  H    0.085917
    26  H    0.092621
    27  H    0.089041
    28  H    0.084481
    29  H    0.088869
    30  H    0.087289
    31  H    0.089562
    32  H    0.096812
    33  H    0.103173
    34  H    0.078101
    35  H    0.249980
    36  H    0.247359
 Sum of Mulliken charges =  -0.00000
 Mulliken charges with hydrogens summed into heavy atoms:
               1
     1  N   -0.148031
     2  C    0.150182
     3  C    0.001276
     4  C   -0.014350
     5  C   -0.002623
     6  C    0.023038
     7  C   -0.002001
     8  C   -0.011418
     9  C    0.011165
    10  C   -0.003833
    11  C    0.137398
    12  N   -0.140803
 APT charges:
               1
     1  N   -1.172849
     2  C   -0.448282
     3  C   -0.744380
     4  C   -1.042523
     5  C   -0.743230
     6  C   -0.464610
     7  C   -0.742506
     8  C   -0.940438
     9  C   -0.686015
    10  C   -0.486030
    11  C   -0.535041
    12  N   -1.855715
    13  H    0.130769
    14  H    0.937024
    15  H    0.618989
    16  H   -0.069021
    17  H    0.068225
    18  H    0.699600
    19  H    0.607663
    20  H    0.391082
    21  H    0.270754
    22  H    0.472402
    23  H    0.157525
    24  H    0.346993
    25  H    0.475755
    26  H    0.270662
    27  H    0.510118
    28  H    0.375076
    29  H    0.543287
    30  H    0.149058
    31  H    0.425317
    32  H    0.066665
    33  H    0.216476
    34  H    0.519476
    35  H    1.045378
    36  H    0.632344
 Sum of APT charges =  -0.00000
 APT charges with hydrogens summed into heavy atoms:
               1
     1  N   -0.105056
     2  C    0.101685
     3  C    0.023445
     4  C   -0.043778
     5  C   -0.000074
     6  C    0.039909
     7  C    0.003911
     8  C   -0.055244
     9  C    0.006330
    10  C    0.005953
    11  C    0.200912
    12  N   -0.177992
 Electronic spatial extent (au):  <R**2>=           4090.6659
 Charge=             -0.0000 electrons
 Dipole moment (field-independent basis, Debye):
    X=              0.3930    Y=             -0.1470    Z=             -2.8611  Tot=              2.8917
 Quadrupole moment (field-independent basis, Debye-Ang):
   XX=            -73.0450   YY=            -81.6802   ZZ=            -80.1029
   XY=              7.4281   XZ=             -1.8955   YZ=             -5.2643
 Traceless Quadrupole moment (field-independent basis, Debye-Ang):
   XX=              5.2310   YY=             -3.4041   ZZ=             -1.8269
   XY=              7.4281   XZ=             -1.8955   YZ=             -5.2643
 Octapole moment (field-independent basis, Debye-Ang**2):
  XXX=             30.3274  YYY=             -1.9956  ZZZ=             -2.2294  XYY=             29.1472
  XXY=             13.6985  XXZ=            -56.1212  XZZ=              0.3328  YZZ=              0.1744
  YYZ=            -14.4556  XYZ=             16.3394
 Hexadecapole moment (field-independent basis, Debye-Ang**3):
 XXXX=          -3662.5694 YYYY=           -948.4310 ZZZZ=           -369.0251 XXXY=            104.5620
 XXXZ=           -114.5553 YYYX=             72.5481 YYYZ=            -47.1945 ZZZX=             -4.2467
 ZZZY=             -5.1183 XXYY=           -844.8772 XXZZ=           -766.0992 YYZZ=           -219.7650
 XXYZ=            -71.4465 YYXZ=             50.0314 ZZXY=              3.4591
 N-N= 7.400920040301D+02 E-N=-2.649561235303D+03  KE= 5.002358870496D+02
  Exact polarizability:   0.000   0.000   0.000   0.000   0.000   0.000
 Approx polarizability: 166.168   0.615 162.608  -0.410  -1.067 157.875
 D2PCM: PCM CHGder 2nd derivatives, FixD1E=F FixD2E=F DoIter=F DoCFld=F I1PDM=0
 Calling FoFJK, ICntrl=    100147 FMM=F ISym2X=0 I1Cent= 0 IOpClX= 0 NMat=1 NMatS=1 NMatT=0.
 ***** Axes restored to original set *****
 -------------------------------------------------------------------
 Center     Atomic                   Forces (Hartrees/Bohr)
 Number     Number              X              Y              Z
 -------------------------------------------------------------------
      1        7           0.002711118    0.011902041    0.011347721
      2        6          -0.000812657   -0.011572998    0.009471174
      3        6           0.006040506    0.004150915   -0.012049841
      4        6          -0.002109684   -0.014571642   -0.003668625
      5        6           0.005120698    0.004653512   -0.001969492
      6        6          -0.004595958   -0.008219541   -0.003323410
      7        6           0.000109607    0.005704832   -0.000387470
      8        6          -0.003347868    0.000090058   -0.002352203
      9        6          -0.000053818    0.004478875    0.001084579
     10        6           0.001249369    0.000342935   -0.000558767
     11        6          -0.002528775   -0.003457740    0.008943385
     12        7          -0.004467020    0.011741767   -0.008263244
     13        1           0.001386929   -0.000385142   -0.001049946
     14        1          -0.001694783   -0.000363952   -0.000711990
     15        1           0.000425744    0.000074953   -0.000889278
     16        1          -0.000953214    0.000784182   -0.000632106
     17        1          -0.000964101    0.001343213    0.001017817
     18        1          -0.000264274    0.001214565    0.003357693
     19        1           0.001172653    0.001282582   -0.002383250
     20        1           0.000350860    0.001317399    0.000361240
     21        1          -0.000239365   -0.000853252    0.000349803
     22        1          -0.001750848   -0.000288332   -0.001054075
     23        1           0.000947882    0.002118903    0.000959255
     24        1           0.000498949    0.001693474    0.000422377
     25        1           0.000470755   -0.001338700   -0.000500570
     26        1           0.000142204   -0.001363386    0.000410695
     27        1          -0.001109095    0.000669332   -0.000076718
     28        1           0.000262109    0.000564805   -0.000629101
     29        1          -0.000457438   -0.000937356   -0.000004933
     30        1           0.000473365   -0.000279787    0.000667797
     31        1          -0.000934991   -0.000584434    0.000885121
     32        1          -0.000751759   -0.001291676    0.000233567
     33        1          -0.000387494    0.000931553   -0.001549294
     34        1           0.005427428   -0.008620722    0.001516545
     35        1           0.001044445    0.001120215    0.001441899
     36        1          -0.000411479   -0.002051450   -0.000416353
 -------------------------------------------------------------------
 Cartesian Forces:  Max     0.014571642 RMS     0.003923874
 FormGI is forming the generalized inverse of G from B-inverse, IUseBI=4.

 GradGradGradGradGradGradGradGradGradGradGradGradGradGradGradGradGradGrad
 Berny optimization.
 Internal  Forces:  Max     0.020088384 RMS     0.002979584
 Search for a local minimum.
 Step number   1 out of a maximum of  204
 All quantities printed in internal units (Hartrees-Bohrs-Radians)
 Mixed Optimization -- RFO/linear search
 Second derivative matrix not updated -- analytic derivatives used.
 ITU=  0
     Eigenvalues ---    0.00127   0.00214   0.00217   0.00263   0.00270
     Eigenvalues ---    0.00325   0.00338   0.00347   0.00381   0.00422
     Eigenvalues ---    0.00469   0.03119   0.03160   0.03249   0.03379
     Eigenvalues ---    0.03466   0.03571   0.03689   0.03804   0.03885
     Eigenvalues ---    0.03922   0.03960   0.04002   0.04062   0.04134
     Eigenvalues ---    0.04144   0.04168   0.04265   0.04590   0.04625
     Eigenvalues ---    0.04704   0.05144   0.05217   0.06775   0.07035
     Eigenvalues ---    0.07143   0.07258   0.07269   0.07461   0.07525
     Eigenvalues ---    0.07651   0.08094   0.08429   0.09515   0.10257
     Eigenvalues ---    0.10622   0.11145   0.11520   0.12213   0.12428
     Eigenvalues ---    0.12789   0.13192   0.13597   0.14622   0.14922
     Eigenvalues ---    0.17091   0.17351   0.18580   0.18643   0.20694
     Eigenvalues ---    0.20956   0.22359   0.23053   0.23301   0.23862
     Eigenvalues ---    0.24282   0.25108   0.27454   0.27960   0.28107
     Eigenvalues ---    0.28811   0.29339   0.30181   0.31276   0.31925
     Eigenvalues ---    0.32235   0.32383   0.32508   0.32651   0.32720
     Eigenvalues ---    0.32756   0.32917   0.32948   0.33058   0.33204
     Eigenvalues ---    0.33290   0.33310   0.33433   0.33447   0.33556
     Eigenvalues ---    0.33755   0.33840   0.33948   0.34230   0.34348
     Eigenvalues ---    0.36136   0.37824   0.38397   0.43981   0.43988
     Eigenvalues ---    0.44143   0.44272
 RFO step:  Lambda=-7.13712737D-03 EMin= 1.26500199D-03
 Linear search not attempted -- first point.
 Iteration  1 RMS(Cart)=  0.05254652 RMS(Int)=  0.00056583
 Iteration  2 RMS(Cart)=  0.00075013 RMS(Int)=  0.00014949
 Iteration  3 RMS(Cart)=  0.00000057 RMS(Int)=  0.00014949
 Variable       Old X    -DE/DX   Delta X   Delta X   Delta X     New X
                                 (Linear)    (Quad)   (Total)
    R1        2.75853   0.00990   0.00000   0.01781   0.01781   2.77634
    R2        1.92632  -0.00139   0.00000  -0.00001  -0.00001   1.92631
    R3        1.92643  -0.00130   0.00000   0.00017   0.00017   1.92660
    R4        2.89197   0.00647   0.00000   0.01389   0.01389   2.90586
    R5        2.07019   0.00076   0.00000   0.00407   0.00407   2.07426
    R6        2.06519   0.00134   0.00000   0.00522   0.00522   2.07042
    R7        2.89734   0.01085   0.00000   0.02211   0.02211   2.91945
    R8        2.07273   0.00060   0.00000   0.00467   0.00467   2.07740
    R9        2.07535  -0.00011   0.00000   0.00027   0.00027   2.07562
   R10        2.89669   0.00594   0.00000   0.01122   0.01122   2.90791
   R11        2.07456   0.00030   0.00000  -0.00195  -0.00195   2.07261
   R12        2.07203   0.00101   0.00000   0.00540   0.00540   2.07743
   R13        2.88888   0.00538   0.00000   0.01116   0.01116   2.90005
   R14        2.07324   0.00094   0.00000   0.00423   0.00423   2.07747
   R15        2.07361   0.00110   0.00000   0.00299   0.00299   2.07660
   R16        2.89331   0.00426   0.00000   0.00815   0.00815   2.90146
   R17        2.06775   0.00102   0.00000   0.00447   0.00447   2.07222
   R18        2.07165   0.00149   0.00000   0.00646   0.00646   2.07811
   R19        2.89467   0.00573   0.00000   0.01264   0.01264   2.90731
   R20        2.07368   0.00070   0.00000   0.00247   0.00247   2.07615
   R21        2.07103   0.00119   0.00000   0.00470   0.00470   2.07573
   R22        2.89551   0.00444   0.00000   0.01314   0.01314   2.90864
   R23        2.07200   0.00092   0.00000   0.00157   0.00157   2.07357
   R24        2.07390   0.00083   0.00000   0.00249   0.00249   2.07639
[...]
    34    C    3  S      Ryd( 4S)     0.00002
    35    C    3  px     Val( 2p)     1.23409
    36    C    3  px     Ryd( 3p)     0.00389
    37    C    3  py     Val( 2p)     1.05163
    38    C    3  py     Ryd( 3p)     0.00196
    39    C    3  pz     Val( 2p)     1.14523
    40    C    3  pz     Ryd( 3p)     0.00155
    41    C    3  dxy    Ryd( 3d)     0.00036
    42    C    3  dxz    Ryd( 3d)     0.00078
    43    C    3  dyz    Ryd( 3d)     0.00071
    44    C    3  dx2y2  Ryd( 3d)     0.00081
    45    C    3  dz2    Ryd( 3d)     0.00043

    46    C    4  S      Cor( 1S)     1.99933
    47    C    4  S      Val( 2S)     1.03320
    48    C    4  S      Ryd( 3S)     0.00070
    49    C    4  S      Ryd( 4S)     0.00002
    50    C    4  px     Val( 2p)     1.09486
    51    C    4  px     Ryd( 3p)     0.00194
    52    C    4  py     Val( 2p)     1.09357
    53    C    4  py     Ryd( 3p)     0.00212
    54    C    4  pz     Val( 2p)     1.23204
    55    C    4  pz     Ryd( 3p)     0.00366
    56    C    4  dxy    Ryd( 3d)     0.00071
    57    C    4  dxz    Ryd( 3d)     0.00058
    58    C    4  dyz    Ryd( 3d)     0.00053
    59    C    4  dx2y2  Ryd( 3d)     0.00065
    60    C    4  dz2    Ryd( 3d)     0.00071

    61    C    5  S      Cor( 1S)     1.99934
    62    C    5  S      Val( 2S)     1.03117
    63    C    5  S      Ryd( 3S)     0.00084
    64    C    5  S      Ryd( 4S)     0.00002
    65    C    5  px     Val( 2p)     1.03904
    66    C    5  px     Ryd( 3p)     0.00176
    67    C    5  py     Val( 2p)     1.19191
    68    C    5  py     Ryd( 3p)     0.00319
    69    C    5  pz     Val( 2p)     1.18496
    70    C    5  pz     Ryd( 3p)     0.00218
    71    C    5  dxy    Ryd( 3d)     0.00044
    72    C    5  dxz    Ryd( 3d)     0.00056
    73    C    5  dyz    Ryd( 3d)     0.00021
    74    C    5  dx2y2  Ryd( 3d)     0.00097
    75    C    5  dz2    Ryd( 3d)     0.00103

    76    C    6  S      Cor( 1S)     1.99933
    77    C    6  S      Val( 2S)     1.03258
    78    C    6  S      Ryd( 3S)     0.00093
    79    C    6  S      Ryd( 4S)     0.00002
    80    C    6  px     Val( 2p)     1.04954
    81    C    6  px     Ryd( 3p)     0.00331
    82    C    6  py     Val( 2p)     1.18807
    83    C    6  py     Ryd( 3p)     0.00189
    84    C    6  pz     Val( 2p)     1.18534
    85    C    6  pz     Ryd( 3p)     0.00222
    86    C    6  dxy    Ryd( 3d)     0.00045
    87    C    6  dxz    Ryd( 3d)     0.00057
    88    C    6  dyz    Ryd( 3d)     0.00023
    89    C    6  dx2y2  Ryd( 3d)     0.00093
    90    C    6  dz2    Ryd( 3d)     0.00098

    91    C    7  S      Cor( 1S)     1.99934
    92    C    7  S      Val( 2S)     1.03356
    93    C    7  S      Ryd( 3S)     0.00087
    94    C    7  S      Ryd( 4S)     0.00002
    95    C    7  px     Val( 2p)     1.03974
    96    C    7  px     Ryd( 3p)     0.00193
    97    C    7  py     Val( 2p)     1.19058
    98    C    7  py     Ryd( 3p)     0.00343
    99    C    7  pz     Val( 2p)     1.18733
   100    C    7  pz     Ryd( 3p)     0.00226
   101    C    7  dxy    Ryd( 3d)     0.00043
   102    C    7  dxz    Ryd( 3d)     0.00057
   103    C    7  dyz    Ryd( 3d)     0.00021
   104    C    7  dx2y2  Ryd( 3d)     0.00096
   105    C    7  dz2    Ryd( 3d)     0.00099

   106    C    8  S      Cor( 1S)     1.99933
   107    C    8  S      Val( 2S)     1.03642
   108    C    8  S      Ryd( 3S)     0.00075
   109    C    8  S      Ryd( 4S)     0.00003
   110    C    8  px     Val( 2p)     1.16672
   111    C    8  px     Ryd( 3p)     0.00282
   112    C    8  py     Val( 2p)     1.06989
   113    C    8  py     Ryd( 3p)     0.00189
   114    C    8  pz     Val( 2p)     1.18164
   115    C    8  pz     Ryd( 3p)     0.00304
   116    C    8  dxy    Ryd( 3d)     0.00077
   117    C    8  dxz    Ryd( 3d)     0.00042
   118    C    8  dyz    Ryd( 3d)     0.00036
   119    C    8  dx2y2  Ryd( 3d)     0.00061
   120    C    8  dz2    Ryd( 3d)     0.00098

   121    C    9  S      Cor( 1S)     1.99933
   122    C    9  S      Val( 2S)     1.03813
   123    C    9  S      Ryd( 3S)     0.00077
   124    C    9  S      Ryd( 4S)     0.00003
   125    C    9  px     Val( 2p)     1.22443
   126    C    9  px     Ryd( 3p)     0.00372
   127    C    9  py     Val( 2p)     1.09665
   128    C    9  py     Ryd( 3p)     0.00183
   129    C    9  pz     Val( 2p)     1.09372
   130    C    9  pz     Ryd( 3p)     0.00221
   131    C    9  dxy    Ryd( 3d)     0.00074
   132    C    9  dxz    Ryd( 3d)     0.00073
   133    C    9  dyz    Ryd( 3d)     0.00051
   134    C    9  dx2y2  Ryd( 3d)     0.00055
   135    C    9  dz2    Ryd( 3d)     0.00062

   136    C   10  S      Cor( 1S)     1.99932
   137    C   10  S      Val( 2S)     1.04489
   138    C   10  S      Ryd( 3S)     0.00104
   139    C   10  S      Ryd( 4S)     0.00003
   140    C   10  px     Val( 2p)     1.09296
   141    C   10  px     Ryd( 3p)     0.00322
   142    C   10  py     Val( 2p)     1.21203
   143    C   10  py     Ryd( 3p)     0.00327
   144    C   10  pz     Val( 2p)     1.12025
   145    C   10  pz     Ryd( 3p)     0.00224
   146    C   10  dxy    Ryd( 3d)     0.00036
   147    C   10  dxz    Ryd( 3d)     0.00088
   148    C   10  dyz    Ryd( 3d)     0.00034
   149    C   10  dx2y2  Ryd( 3d)     0.00082
   150    C   10  dz2    Ryd( 3d)     0.00068

   151    C   11  S      Cor( 1S)     1.99929
   152    C   11  S      Val( 2S)     1.06319
   153    C   11  S      Ryd( 3S)     0.00191
   154    C   11  S      Ryd( 4S)     0.00004
   155    C   11  px     Val( 2p)     0.95435
   156    C   11  px     Ryd( 3p)     0.00494
   157    C   11  py     Val( 2p)     1.23075
   158    C   11  py     Ryd( 3p)     0.00294
   159    C   11  pz     Val( 2p)     1.09019
   160    C   11  pz     Ryd( 3p)     0.00385
   161    C   11  dxy    Ryd( 3d)     0.00063
   162    C   11  dxz    Ryd( 3d)     0.00141
   163    C   11  dyz    Ryd( 3d)     0.00044
   164    C   11  dx2y2  Ryd( 3d)     0.00123
   165    C   11  dz2    Ryd( 3d)     0.00069

   166    N   12  S      Cor( 1S)     1.99935
   167    N   12  S      Val( 2S)     1.49897
   168    N   12  S      Ryd( 3S)     0.01244
   169    N   12  S      Ryd( 4S)     0.00002
   170    N   12  px     Val( 2p)     1.35087
   171    N   12  px     Ryd( 3p)     0.00333
   172    N   12  py     Val( 2p)     1.39410
   173    N   12  py     Ryd( 3p)     0.00166
   174    N   12  pz     Val( 2p)     1.09920
   175    N   12  pz     Ryd( 3p)     0.00000
   176    N   12  dxy    Ryd( 3d)     0.00027
   177    N   12  dxz    Ryd( 3d)     0.00070
   178    N   12  dyz    Ryd( 3d)     0.00024
   179    N   12  dx2y2  Ryd( 3d)     0.00071
   180    N   12  dz2    Ryd( 3d)     0.00037

   181    H   13  S      Val( 1S)     0.61494
   182    H   13  S      Ryd( 2S)     0.00188
   183    H   13  px     Ryd( 2p)     0.00040
   184    H   13  py     Ryd( 2p)     0.00038
   185    H   13  pz     Ryd( 2p)     0.00064

   186    H   14  S      Val( 1S)     0.61521
   187    H   14  S      Ryd( 2S)     0.00163
   188    H   14  px     Ryd( 2p)     0.00053
   189    H   14  py     Ryd( 2p)     0.00035
   190    H   14  pz     Ryd( 2p)     0.00055

   191    H   15  S      Val( 1S)     0.77682
   192    H   15  S      Ryd( 2S)     0.00164
   193    H   15  px     Ryd( 2p)     0.00019
   194    H   15  py     Ryd( 2p)     0.00010
   195    H   15  pz     Ryd( 2p)     0.00026

   196    H   16  S      Val( 1S)     0.77637
   197    H   16  S      Ryd( 2S)     0.00221
   198    H   16  px     Ryd( 2p)     0.00034
   199    H   16  py     Ryd( 2p)     0.00007
   200    H   16  pz     Ryd( 2p)     0.00014

   201    H   17  S      Val( 1S)     0.77101
   202    H   17  S      Ryd( 2S)     0.00246
   203    H   17  px     Ryd( 2p)     0.00018
   204    H   17  py     Ryd( 2p)     0.00012
   205    H   17  pz     Ryd( 2p)     0.00025

   206    H   18  S      Val( 1S)     0.76489
   207    H   18  S      Ryd( 2S)     0.00170
   208    H   18  px     Ryd( 2p)     0.00032
   209    H   18  py     Ryd( 2p)     0.00010
   210    H   18  pz     Ryd( 2p)     0.00014

   211    H   19  S      Val( 1S)     0.75661
   212    H   19  S      Ryd( 2S)     0.00129
   213    H   19  px     Ryd( 2p)     0.00019
   214    H   19  py     Ryd( 2p)     0.00020
   215    H   19  pz     Ryd( 2p)     0.00017

   216    H   20  S      Val( 1S)     0.76971
   217    H   20  S      Ryd( 2S)     0.00167
   218    H   20  px     Ryd( 2p)     0.00012
   219    H   20  py     Ryd( 2p)     0.00011
   220    H   20  pz     Ryd( 2p)     0.00033

   221    H   21  S      Val( 1S)     0.77219
   222    H   21  S      Ryd( 2S)     0.00264
   223    H   21  px     Ryd( 2p)     0.00011
   224    H   21  py     Ryd( 2p)     0.00010
   225    H   21  pz     Ryd( 2p)     0.00035

   226    H   22  S      Val( 1S)     0.76663
   227    H   22  S      Ryd( 2S)     0.00183
   228    H   22  px     Ryd( 2p)     0.00010
   229    H   22  py     Ryd( 2p)     0.00036
   230    H   22  pz     Ryd( 2p)     0.00010

   231    H   23  S      Val( 1S)     0.77984
   232    H   23  S      Ryd( 2S)     0.00774
   233    H   23  px     Ryd( 2p)     0.00011
   234    H   23  py     Ryd( 2p)     0.00034
   235    H   23  pz     Ryd( 2p)     0.00011

   236    H   24  S      Val( 1S)     0.77377
   237    H   24  S      Ryd( 2S)     0.00347
   238    H   24  px     Ryd( 2p)     0.00012
   239    H   24  py     Ryd( 2p)     0.00009
   240    H   24  pz     Ryd( 2p)     0.00034

   241    H   25  S      Val( 1S)     0.77260
   242    H   25  S      Ryd( 2S)     0.00425
   243    H   25  px     Ryd( 2p)     0.00010
   244    H   25  py     Ryd( 2p)     0.00035
   245    H   25  pz     Ryd( 2p)     0.00011

   246    H   26  S      Val( 1S)     0.78217
   247    H   26  S      Ryd( 2S)     0.00958
   248    H   26  px     Ryd( 2p)     0.00012
   249    H   26  py     Ryd( 2p)     0.00011
   250    H   26  pz     Ryd( 2p)     0.00033

   251    H   27  S      Val( 1S)     0.78562
   252    H   27  S      Ryd( 2S)     0.01571
   253    H   27  px     Ryd( 2p)     0.00029
   254    H   27  py     Ryd( 2p)     0.00016
   255    H   27  pz     Ryd( 2p)     0.00011

   256    H   28  S      Val( 1S)     0.77195
   257    H   28  S      Ryd( 2S)     0.00535
   258    H   28  px     Ryd( 2p)     0.00011
   259    H   28  py     Ryd( 2p)     0.00011
   260    H   28  pz     Ryd( 2p)     0.00033

   261    H   29  S      Val( 1S)     0.77711
   262    H   29  S      Ryd( 2S)     0.01146
   263    H   29  px     Ryd( 2p)     0.00021
   264    H   29  py     Ryd( 2p)     0.00013
   265    H   29  pz     Ryd( 2p)     0.00023

   266    H   30  S      Val( 1S)     0.77056
   267    H   30  S      Ryd( 2S)     0.00782
   268    H   30  px     Ryd( 2p)     0.00028
   269    H   30  py     Ryd( 2p)     0.00016
   270    H   30  pz     Ryd( 2p)     0.00011

   271    H   31  S      Val( 1S)     0.76969
   272    H   31  S      Ryd( 2S)     0.02077
   273    H   31  px     Ryd( 2p)     0.00013
   274    H   31  py     Ryd( 2p)     0.00035
   275    H   31  pz     Ryd( 2p)     0.00009

   276    H   32  S      Val( 1S)     0.78217
   277    H   32  S      Ryd( 2S)     0.01648
   278    H   32  px     Ryd( 2p)     0.00024
   279    H   32  py     Ryd( 2p)     0.00010
   280    H   32  pz     Ryd( 2p)     0.00020

   281    H   33  S      Val( 1S)     0.76225
   282    H   33  S      Ryd( 2S)     0.02955
   283    H   33  px     Ryd( 2p)     0.00006
   284    H   33  py     Ryd( 2p)     0.00037
   285    H   33  pz     Ryd( 2p)     0.00009

   286    H   34  S      Val( 1S)     0.71203
   287    H   34  S      Ryd( 2S)     0.02967
   288    H   34  px     Ryd( 2p)     0.00008
   289    H   34  py     Ryd( 2p)     0.00012
   290    H   34  pz     Ryd( 2p)     0.00037

   291    H   35  S      Val( 1S)     0.69691
   292    H   35  S      Ryd( 2S)     0.07384
   293    H   35  px     Ryd( 2p)     0.00061
   294    H   35  py     Ryd( 2p)     0.00029
   295    H   35  pz     Ryd( 2p)     0.00030

   296    H   36  S      Val( 1S)     0.67896
   297    H   36  S      Ryd( 2S)     0.07451
   298    H   36  px     Ryd( 2p)     0.00025
   299    H   36  py     Ryd( 2p)     0.00078
   300    H   36  pz     Ryd( 2p)     0.00021


 Summary of Natural Population Analysis:                  
                                                          
                                       Natural Population 
                Natural  -----------------------------------------------
    Atom  No    Charge         Core      Valence    Rydberg      Total
 -----------------------------------------------------------------------
      N    1   -0.92518      1.99971     5.91025    0.01523     7.92518
      C    2   -0.26096      1.99936     4.24683    0.01477     6.26096
      C    3   -0.48968      1.99933     4.47895    0.01141     6.48968
      C    4   -0.46461      1.99933     4.45367    0.01161     6.46461
      C    5   -0.45761      1.99934     4.44709    0.01119     6.45761
      C    6   -0.46639      1.99933     4.45553    0.01154     6.46639
      C    7   -0.46223      1.99934     4.45121    0.01169     6.46223
      C    8   -0.46569      1.99933     4.45468    0.01168     6.46569
      C    9   -0.46397      1.99933     4.45294    0.01171     6.46397
      C   10   -0.48234      1.99932     4.47012    0.01289     6.48234
      C   11   -0.35585      1.99929     4.33848    0.01808     6.35585
      N   12   -0.36223      1.99935     5.34313    0.01975     7.36223
      H   13    0.38175      0.00000     0.61494    0.00331     0.61825
      H   14    0.38174      0.00000     0.61521    0.00305     0.61826
      H   15    0.22099      0.00000     0.77682    0.00219     0.77901
      H   16    0.22086      0.00000     0.77637    0.00276     0.77914
      H   17    0.22598      0.00000     0.77101    0.00301     0.77402
      H   18    0.23285      0.00000     0.76489    0.00226     0.76715
      H   19    0.24153      0.00000     0.75661    0.00186     0.75847
      H   20    0.22807      0.00000     0.76971    0.00223     0.77193
      H   21    0.22461      0.00000     0.77219    0.00320     0.77539
      H   22    0.23098      0.00000     0.76663    0.00239     0.76902
      H   23    0.21187      0.00000     0.77984    0.00830     0.78813
      H   24    0.22220      0.00000     0.77377    0.00402     0.77780
      H   25    0.22260      0.00000     0.77260    0.00480     0.77740
      H   26    0.20769      0.00000     0.78217    0.01015     0.79231
      H   27    0.19811      0.00000     0.78562    0.01627     0.80189
      H   28    0.22214      0.00000     0.77195    0.00591     0.77786
      H   29    0.21086      0.00000     0.77711    0.01202     0.78914
      H   30    0.22107      0.00000     0.77056    0.00837     0.77893
      H   31    0.20898      0.00000     0.76969    0.02133     0.79102
      H   32    0.20081      0.00000     0.78217    0.01702     0.79919
      H   33    0.20768      0.00000     0.76225    0.03007     0.79232
      H   34    0.25774      0.00000     0.71203    0.03023     0.74226
      H   35    0.22805      0.00000     0.69691    0.07504     0.77195
      H   36    0.24528      0.00000     0.67896    0.07576     0.75472
 =======================================================================
   * Total *   -0.00233     23.99234    73.50292    0.50706    98.00233

                                 Natural Population      
 --------------------------------------------------------
   Core                      23.99234 ( 99.9681% of  24)
   Valence                   73.50292 ( 99.3283% of  74)
   Natural Minimal Basis     97.49526 ( 99.4850% of  98)
   Natural Rydberg Basis      0.50706 (  0.5174% of  98)
 --------------------------------------------------------

    Atom  No          Natural Electron Configuration
 ----------------------------------------------------------------------------
      N    1      [core]2S( 1.44)2p( 4.47)3p( 0.01)
      C    2      [core]2S( 1.02)2p( 3.23)3p( 0.01)
      C    3      [core]2S( 1.05)2p( 3.43)3p( 0.01)
      C    4      [core]2S( 1.03)2p( 3.42)3p( 0.01)
      C    5      [core]2S( 1.03)2p( 3.42)3p( 0.01)
      C    6      [core]2S( 1.03)2p( 3.42)3p( 0.01)
      C    7      [core]2S( 1.03)2p( 3.42)3p( 0.01)
      C    8      [core]2S( 1.04)2p( 3.42)3p( 0.01)
      C    9      [core]2S( 1.04)2p( 3.41)3p( 0.01)
      C   10      [core]2S( 1.04)2p( 3.43)3p( 0.01)
      C   11      [core]2S( 1.06)2p( 3.28)3p( 0.01)
      N   12      [core]2S( 1.50)2p( 3.84)3S( 0.01)
      H   13            1S( 0.61)
      H   14            1S( 0.62)
      H   15            1S( 0.78)
      H   16            1S( 0.78)
      H   17            1S( 0.77)
      H   18            1S( 0.76)
      H   19            1S( 0.76)
      H   20            1S( 0.77)
      H   21            1S( 0.77)
      H   22            1S( 0.77)
      H   23            1S( 0.78)2S( 0.01)
      H   24            1S( 0.77)
      H   25            1S( 0.77)
      H   26            1S( 0.78)2S( 0.01)
      H   27            1S( 0.79)2S( 0.02)
      H   28            1S( 0.77)2S( 0.01)
      H   29            1S( 0.78)2S( 0.01)
      H   30            1S( 0.77)2S( 0.01)
      H   31            1S( 0.77)2S( 0.02)
      H   32            1S( 0.78)2S( 0.02)
      H   33            1S( 0.76)2S( 0.03)
      H   34            1S( 0.71)2S( 0.03)
      H   35            1S( 0.70)2S( 0.07)
      H   36            1S( 0.68)2S( 0.07)


 NBO analysis skipped by request.
 1\1\GINC-DRG2-W012\SP\RB3LYP TD-FC\6-31G(d,p)\C10H24N2\QDUEZ\21-Jul-20
 24\0\\# TD(NStates=10, Root=1) B3LYP/6-31G** SCRF=(Solvent=water) volu
 me pop=NPA density=current Geom=AllCheck Guess=Read\\YQLZOAVZWJBZSY-UH
 FFFAOYSA-N_conf_0\\0,1\N,0,3.7331095147,0.4179011681,2.548059658\C,0,3
 .4512318463,0.3327972687,1.107313303\C,0,3.3339782269,-1.0916790577,0.
 5378656004\C,0,3.0692807645,-1.1682710384,-0.9825128994\C,0,1.59280102
 6,-1.2582365071,-1.4075327499\C,0,0.7148278209,-0.0484195266,-1.060154
 814\C,0,-0.7081594668,-0.1655327959,-1.6247206114\C,0,-1.6036717461,1.
 0595742982,-1.3707305283\C,0,-1.9049914037,1.384449871,0.1037207911\C,
 0,-2.6272343924,0.2798770255,0.8938775121\C,0,-4.0088883033,-0.1155706
 553,0.3585082698\N,0,-4.9236596366,1.0369075794,0.3203667828\H,0,2.993
 8863239,-0.0671826044,3.0556342379\H,0,4.5799248745,-0.1136931572,2.74
 82222622\H,0,4.2532912632,0.8621805996,0.5761921296\H,0,2.5327351644,0
 .8977020858,0.9137307821\H,0,2.5460160537,-1.6338904032,1.0803757311\H
 ,0,4.2723199812,-1.6144330918,0.7677553156\H,0,3.5808891692,-2.0516756
 001,-1.3834934623\H,0,3.5386122271,-0.3051757432,-1.4765964836\H,0,1.1
 50179542,-2.1604663767,-0.9612163689\H,0,1.5586559441,-1.4136485883,-2
 .4949522076\H,0,0.6678937299,0.0708784322,0.0288300501\H,0,1.183576281
 8,0.8670032926,-1.4502473984\H,0,-0.6435929733,-0.3271093044,-2.709569
 8269\H,0,-1.1839932946,-1.0685150084,-1.218294164\H,0,-2.5504286733,0.
 9206903823,-1.9078857107\H,0,-1.130254512,1.9402704629,-1.826478999\H,
 0,-2.5174500207,2.2923717948,0.1356194061\H,0,-0.9702126568,1.62825789
 76,0.6242464752\H,0,-2.739511963,0.6125419362,1.9356521738\H,0,-2.0072
 860208,-0.6246273249,0.9367027665\H,0,-3.9160471938,-0.4993988147,-0.6
 645772224\H,0,-4.3884164059,-0.9532376167,0.9681550959\H,0,-5.82823401
 13,0.7319553698,-0.0340594995\H,0,-5.10117708,1.3454037503,1.275594131
 9\\Version=ES64L-G16RevA.03\State=1-A\HF=-505.0599195\RMSD=1.758e-09\D
 ipole=-1.1452639,-0.7232904,0.1163326\Quadrupole=8.3926466,-3.5860646,
 -4.806582,-5.1747592,-3.2520816,-4.1013865\PG=C01 [X(C10H24N2)]\\@


 REALITY IS FOR PEOPLE WHO CAN'T FACE SCIENCE FICTION.
 Job cpu time:       0 days  0 hours 59 minutes 28.3 seconds.
 Elapsed time:       0 days  0 hours 19 minutes 53.3 seconds.
 File lengths (MBytes):  RWF=    748 Int=      0 D2E=      0 Chk=     48 Scr=      1
 Normal termination of Gaussian 16 at Sun Jul 21 12:53:38 2024.
