 Entering Gaussian System, Link 0=g16
 Initial command:
 /opt/sw/arch/manual/gaussian/G16_A03/g16/l1.exe "/scratch/1381408/Gau-250669.inp" -scrdir="/scratch/1381408/"
 Entering Link 1 = /opt/sw/arch/manual/gaussian/G16_A03/g16/l1.exe PID=    250670.
  
 Copyright (c) 1988,1990,1992,1993,1995,1998,2003,2009,2016,
            Gaussian, Inc.  All Rights Reserved.
  
 This is part of the Gaussian(R) 16 program.  It is based on
 the Gaussian(R) 09 system (copyright 2009, Gaussian, Inc.),
 the Gaussian(R) 03 system (copyright 2003, Gaussian, Inc.),
 the Gaussian(R) 98 system (copyright 1998, Gaussian, Inc.),
 the Gaussian(R) 94 system (copyright 1995, Gaussian, Inc.),
 the Gaussian 92(TM) system (copyright 1992, Gaussian, Inc.),
 the Gaussian 90(TM) system (copyright 1990, Gaussian, Inc.),
 the Gaussian 88(TM) system (copyright 1988, Gaussian, Inc.),
 the Gaussian 86(TM) system (copyright 1986, Carnegie Mellon
 University), and the Gaussian 82(TM) system (copyright 1983,
 Carnegie Mellon University). Gaussian is a federally registered
 trademark of Gaussian, Inc.
  
 This software contains proprietary and confidential information,
 including trade secrets, belonging to Gaussian, Inc.
  
 This software is provided under written license and may be
 used, copied, transmitted, or stored only in accord with that
 written license.
  
 The following legend is applicable only to US Government
 contracts under FAR:
  
                    RESTRICTED RIGHTS LEGEND
  
 Use, reproduction and disclosure by the US Government is
 subject to restrictions as set forth in subparagraphs (a)
 and (c) of the Commercial Computer Software - Restricted
 Rights clause in FAR 52.227-19.
  
 Gaussian, Inc.
 340 Quinnipiac St., Bldg. 40, Wallingford CT 06492
  
  
 ---------------------------------------------------------------
 Warning -- This program may not be used in any manner that
 competes with the business of Gaussian, Inc. or will provide
 assistance to any competitor of Gaussian, Inc.  The licensee
 of this program is prohibited from giving any competitor of
 Gaussian, Inc. access to this program.  By using this program,
 the user acknowledges that Gaussian, Inc. is engaged in the
 business of creating and licensing software in the field of
 computational chemistry and represents and warrants to the
 licensee that it is not a competitor of Gaussian, Inc. and that
 it will not use this program in any manner prohibited above.
 ---------------------------------------------------------------
  

 Cite this work as:
 Gaussian 16, Revision A.03,
 M. J. Frisch, G. W. Trucks, H. B. Schlegel, G. E. Scuseria, 
 M. A. Robb, J. R. Cheeseman, G. Scalmani, V. Barone, 
 G. A. Petersson, H. Nakatsuji, X. Li, M. Caricato, A. V. Marenich, 
 J. Bloino, B. G. Janesko, R. Gomperts, B. Mennucci, H. P. Hratchian, 
 J. V. Ortiz, A. F. Izmaylov, J. L. Sonnenberg, D. Williams-Young, 
 F. Ding, F. Lipparini, F. Egidi, J. Goings, B. Peng, A. Petrone, 
 T. Henderson, D. Ranasinghe, V. G. Zakrzewski, J. Gao, N. Rega, 
 G. Zheng, W. Liang, M. Hada, M. Ehara, K. Toyota, R. Fukuda, 
 J. Hasegawa, M. Ishida, T. Nakajima, Y. Honda, O. Kitao, H. Nakai, 
 T. Vreven, K. Throssell, J. A. Montgomery, Jr., J. E. Peralta, 
 F. Ogliaro, M. J. Bearpark, J. J. Heyd, E. N. Brothers, K. N. Kudin, 
 V. N. Staroverov, T. A. Keith, R. Kobayashi, J. Normand, 
 K. Raghavachari, A. P. Rendell, J. C. Burant, S. S. Iyengar, 
 J. Tomasi, M. Cossi, J. M. Millam, M. Klene, C. Adamo, R. Cammi, 
 J. W. Ochterski, R. L. Martin, K. Morokuma, O. Farkas, 
 J. B. Foresman, and D. J. Fox, Gaussian, Inc., Wallingford CT, 2016.
 
 ******************************************
 Gaussian 16:  ES64L-G16RevA.03 25-Dec-2016
                19-Jul-2024 
 ******************************************
 %nprocshared=3
 Will use up to    3 processors via shared memory.
 %mem=6GB
 %Chk=WIOZZYWDYUOMAY-UHFFFAOYSA-N_conf_4_0.chk
 -------------------------------------------------------
 # opt=CalcFc B3LYP/6-31G** SCRF=(Solvent=water) scf=xqc
 -------------------------------------------------------
 1/10=4,18=20,19=15,26=3,38=1/1,3;
 2/9=110,12=2,17=6,18=5,40=1/2;
 3/5=1,6=6,7=101,11=2,25=1,30=1,70=2201,71=2,72=1,74=-5,140=1/1,2,3;
 4//1;
 5/5=2,8=3,13=1,38=5,53=1/2,8;
 8/6=4,10=90,11=11/1;
 11/6=1,8=1,9=11,15=111,16=1/1,2,10;
 10/6=1,13=1/2;
 6/7=2,8=2,9=2,10=2,28=1/1;
 7/10=1,18=20,25=1/1,2,3,16;
 1/10=4,18=20,19=15,26=3/3(2);
 2/9=110/2;
 99//99;
 2/9=110/2;
 3/5=1,6=6,7=101,11=2,25=1,30=1,70=2205,71=1,72=1,74=-5/1,2,3;
 4/5=5,16=3,69=1/1;
 5/5=2,8=3,13=1,38=5,53=1/2,8;
 7//1,2,3,16;
 1/18=20,19=15,26=3/3(-5);
 2/9=110/2;
 6/7=2,8=2,9=2,10=2,19=2,28=1/1;
 99/9=1/99;
 ----------------------------------
 WIOZZYWDYUOMAY-UHFFFAOYSA-N_conf_4
 ----------------------------------
 Symbolic Z-matrix:
 Charge =  0 Multiplicity = 1
 O                     3.77014   0.12514   0.0401 
 C                     2.78056   0.63694   0.53465 
 C                     1.36764   0.25703   0.26439 
 C                     0.3237    1.11267   0.66 
 C                    -1.01777   0.8096    0.38623 
 N                    -2.00572   1.64453   0.93907 
 C                    -1.31091  -0.42612  -0.21939 
 C                    -2.68933  -0.90846  -0.50096 
 O                    -3.62708   0.06019  -0.47541 
 O                    -2.99464  -2.0519   -0.79042 
 C                    -0.26603  -1.28516  -0.60624 
 C                     1.07819  -0.93925  -0.41795 
 N                     2.0567   -1.90537  -0.70823 
 O                     2.89534   1.65162   1.41182 
 H                     0.55575   2.02869   1.19945 
 H                    -1.75061   2.62503   0.99769 
 H                    -2.91635   1.50381   0.49133 
 H                    -4.45024  -0.42687  -0.6968 
 H                    -0.50877  -2.24834  -1.05371 
 H                     3.00431  -1.51799  -0.76393 
 H                     1.84174  -2.51864  -1.48765 
 H                     3.86338   1.77286   1.50716 
 

 GradGradGradGradGradGradGradGradGradGradGradGradGradGradGradGradGradGrad
 Berny optimization.
 Initialization pass.
                           ----------------------------
                           !    Initial Parameters    !
                           ! (Angstroms and Degrees)  !
 --------------------------                            --------------------------
 ! Name  Definition              Value          Derivative Info.                !
 --------------------------------------------------------------------------------
 ! R1    R(1,2)                  1.2189         calculate D2E/DX2 analytically  !
 ! R2    R(2,3)                  1.4879         calculate D2E/DX2 analytically  !
 ! R3    R(2,14)                 1.3462         calculate D2E/DX2 analytically  !
 ! R4    R(3,4)                  1.4066         calculate D2E/DX2 analytically  !
 ! R5    R(3,12)                 1.4073         calculate D2E/DX2 analytically  !
 ! R6    R(4,5)                  1.4023         calculate D2E/DX2 analytically  !
 ! R7    R(4,15)                 1.0881         calculate D2E/DX2 analytically  !
 ! R8    R(5,6)                  1.4067         calculate D2E/DX2 analytically  !
 ! R9    R(5,7)                  1.407          calculate D2E/DX2 analytically  !
 ! R10   R(6,16)                 1.0148         calculate D2E/DX2 analytically  !
 ! R11   R(6,17)                 1.0245         calculate D2E/DX2 analytically  !
 ! R12   R(7,8)                  1.4873         calculate D2E/DX2 analytically  !
 ! R13   R(7,11)                 1.4069         calculate D2E/DX2 analytically  !
 ! R14   R(8,9)                  1.3484         calculate D2E/DX2 analytically  !
 ! R15   R(8,10)                 1.2184         calculate D2E/DX2 analytically  !
 ! R16   R(9,18)                 0.9818         calculate D2E/DX2 analytically  !
 ! R17   R(11,12)                1.4007         calculate D2E/DX2 analytically  !
 ! R18   R(11,19)                1.0894         calculate D2E/DX2 analytically  !
 ! R19   R(12,13)                1.4054         calculate D2E/DX2 analytically  !
 ! R20   R(13,20)                1.0253         calculate D2E/DX2 analytically  !
 ! R21   R(13,21)                1.0148         calculate D2E/DX2 analytically  !
 ! R22   R(14,22)                0.9803         calculate D2E/DX2 analytically  !
 ! A1    A(1,2,3)              126.1599         calculate D2E/DX2 analytically  !
 ! A2    A(1,2,14)             120.7728         calculate D2E/DX2 analytically  !
 ! A3    A(3,2,14)             113.0665         calculate D2E/DX2 analytically  !
 ! A4    A(2,3,4)              119.8931         calculate D2E/DX2 analytically  !
 ! A5    A(2,3,12)             120.0302         calculate D2E/DX2 analytically  !
 ! A6    A(4,3,12)             120.0546         calculate D2E/DX2 analytically  !
 ! A7    A(3,4,5)              121.5759         calculate D2E/DX2 analytically  !
 ! A8    A(3,4,15)             119.5563         calculate D2E/DX2 analytically  !
 ! A9    A(5,4,15)             118.8655         calculate D2E/DX2 analytically  !
 ! A10   A(4,5,6)              117.8313         calculate D2E/DX2 analytically  !
 ! A11   A(4,5,7)              118.2394         calculate D2E/DX2 analytically  !
 ! A12   A(6,5,7)              122.964          calculate D2E/DX2 analytically  !
 ! A13   A(5,6,16)             114.8099         calculate D2E/DX2 analytically  !
 ! A14   A(5,6,17)             111.7772         calculate D2E/DX2 analytically  !
 ! A15   A(16,6,17)            112.4207         calculate D2E/DX2 analytically  !
 ! A16   A(5,7,8)              124.015          calculate D2E/DX2 analytically  !
 ! A17   A(5,7,11)             119.9915         calculate D2E/DX2 analytically  !
 ! A18   A(8,7,11)             115.9922         calculate D2E/DX2 analytically  !
 ! A19   A(7,8,9)              114.078          calculate D2E/DX2 analytically  !
 ! A20   A(7,8,10)             125.5619         calculate D2E/DX2 analytically  !
 ! A21   A(9,8,10)             120.2914         calculate D2E/DX2 analytically  !
 ! A22   A(8,9,18)             102.8522         calculate D2E/DX2 analytically  !
 ! A23   A(7,11,12)            121.6664         calculate D2E/DX2 analytically  !
 ! A24   A(7,11,19)            119.1626         calculate D2E/DX2 analytically  !
 ! A25   A(12,11,19)           119.1677         calculate D2E/DX2 analytically  !
 ! A26   A(3,12,11)            118.1958         calculate D2E/DX2 analytically  !
 ! A27   A(3,12,13)            122.7724         calculate D2E/DX2 analytically  !
 ! A28   A(11,12,13)           118.0758         calculate D2E/DX2 analytically  !
 ! A29   A(12,13,20)           113.2668         calculate D2E/DX2 analytically  !
 ! A30   A(12,13,21)           115.2518         calculate D2E/DX2 analytically  !
 ! A31   A(20,13,21)           112.4827         calculate D2E/DX2 analytically  !
 ! A32   A(2,14,22)            103.9339         calculate D2E/DX2 analytically  !
 ! D1    D(1,2,3,4)           -165.6131         calculate D2E/DX2 analytically  !
 ! D2    D(1,2,3,12)            12.6788         calculate D2E/DX2 analytically  !
 ! D3    D(14,2,3,4)            14.0515         calculate D2E/DX2 analytically  !
 ! D4    D(14,2,3,12)         -167.6565         calculate D2E/DX2 analytically  !
 ! D5    D(1,2,14,22)           -1.7259         calculate D2E/DX2 analytically  !
 ! D6    D(3,2,14,22)          178.5892         calculate D2E/DX2 analytically  !
 ! D7    D(2,3,4,5)            177.9893         calculate D2E/DX2 analytically  !
 ! D8    D(2,3,4,15)            -2.5653         calculate D2E/DX2 analytically  !
 ! D9    D(12,3,4,5)            -0.3022         calculate D2E/DX2 analytically  !
 ! D10   D(12,3,4,15)          179.1432         calculate D2E/DX2 analytically  !
 ! D11   D(2,3,12,11)          177.5667         calculate D2E/DX2 analytically  !
 ! D12   D(2,3,12,13)            8.9808         calculate D2E/DX2 analytically  !
 ! D13   D(4,3,12,11)           -4.1441         calculate D2E/DX2 analytically  !
 ! D14   D(4,3,12,13)         -172.7301         calculate D2E/DX2 analytically  !
 ! D15   D(3,4,5,6)            173.3875         calculate D2E/DX2 analytically  !
 ! D16   D(3,4,5,7)              4.2881         calculate D2E/DX2 analytically  !
 ! D17   D(15,4,5,6)            -6.0615         calculate D2E/DX2 analytically  !
 ! D18   D(15,4,5,7)          -175.161          calculate D2E/DX2 analytically  !
 ! D19   D(4,5,6,16)            35.1321         calculate D2E/DX2 analytically  !
 ! D20   D(4,5,6,17)           164.7126         calculate D2E/DX2 analytically  !
 ! D21   D(7,5,6,16)          -156.3209         calculate D2E/DX2 analytically  !
 ! D22   D(7,5,6,17)           -26.7404         calculate D2E/DX2 analytically  !
 ! D23   D(4,5,7,8)            176.6633         calculate D2E/DX2 analytically  !
 ! D24   D(4,5,7,11)            -3.7805         calculate D2E/DX2 analytically  !
 ! D25   D(6,5,7,8)              8.1604         calculate D2E/DX2 analytically  !
 ! D26   D(6,5,7,11)          -172.2834         calculate D2E/DX2 analytically  !
 ! D27   D(5,7,8,9)             17.3386         calculate D2E/DX2 analytically  !
 ! D28   D(5,7,8,10)          -165.6845         calculate D2E/DX2 analytically  !
 ! D29   D(11,7,8,9)          -162.2338         calculate D2E/DX2 analytically  !
 ! D30   D(11,7,8,10)           14.7431         calculate D2E/DX2 analytically  !
 ! D31   D(5,7,11,12)           -0.6819         calculate D2E/DX2 analytically  !
 ! D32   D(5,7,11,19)          178.6465         calculate D2E/DX2 analytically  !
 ! D33   D(8,7,11,12)          178.9089         calculate D2E/DX2 analytically  !
 ! D34   D(8,7,11,19)           -1.7627         calculate D2E/DX2 analytically  !
 ! D35   D(7,8,9,18)           178.8364         calculate D2E/DX2 analytically  !
 ! D36   D(10,8,9,18)            1.6843         calculate D2E/DX2 analytically  !
 ! D37   D(7,11,12,3)            4.6599         calculate D2E/DX2 analytically  !
 ! D38   D(7,11,12,13)         173.7894         calculate D2E/DX2 analytically  !
 ! D39   D(19,11,12,3)        -174.6684         calculate D2E/DX2 analytically  !
 ! D40   D(19,11,12,13)         -5.5389         calculate D2E/DX2 analytically  !
 ! D41   D(3,12,13,20)         -25.2269         calculate D2E/DX2 analytically  !
 ! D42   D(3,12,13,21)        -156.7595         calculate D2E/DX2 analytically  !
 ! D43   D(11,12,13,20)        166.1741         calculate D2E/DX2 analytically  !
 ! D44   D(11,12,13,21)         34.6416         calculate D2E/DX2 analytically  !
 --------------------------------------------------------------------------------
 Trust Radius=3.00D-01 FncErr=1.00D-07 GrdErr=1.00D-06 EigMax=2.50D+02 EigMin=1.00D-04
 Number of steps in this run=    108 maximum allowed number of steps=    132.
 GradGradGradGradGradGradGradGradGradGradGradGradGradGradGradGradGradGrad

                          Input orientation:                          
 ---------------------------------------------------------------------
 Center     Atomic      Atomic             Coordinates (Angstroms)
 Number     Number       Type             X           Y           Z
 ---------------------------------------------------------------------
      1          8           0        3.770141    0.125141    0.040098
      2          6           0        2.780556    0.636943    0.534650
      3          6           0        1.367641    0.257026    0.264386
      4          6           0        0.323703    1.112666    0.660001
      5          6           0       -1.017768    0.809601    0.386234
      6          7           0       -2.005717    1.644526    0.939066
      7          6           0       -1.310912   -0.426121   -0.219387
      8          6           0       -2.689335   -0.908455   -0.500964
      9          8           0       -3.627079    0.060188   -0.475415
     10          8           0       -2.994640   -2.051896   -0.790423
     11          6           0       -0.266030   -1.285163   -0.606239
     12          6           0        1.078187   -0.939254   -0.417947
     13          7           0        2.056697   -1.905366   -0.708235
     14          8           0        2.895335    1.651623    1.411818
     15          1           0        0.555753    2.028687    1.199453
     16          1           0       -1.750607    2.625026    0.997692
     17          1           0       -2.916346    1.503809    0.491328
     18          1           0       -4.450241   -0.426874   -0.696797
     19          1           0       -0.508767   -2.248340   -1.053708
     20          1           0        3.004312   -1.517986   -0.763932
     21          1           0        1.841735   -2.518641   -1.487651
     22          1           0        3.863382    1.772862    1.507160
 ---------------------------------------------------------------------
                    Distance matrix (angstroms):
                    1          2          3          4          5
     1  O    0.000000
     2  C    1.218934   0.000000
     3  C    2.416548   1.487854   0.000000
     4  C    3.638326   2.505624   1.406569   0.000000
     5  C    4.848955   3.805142   2.451604   1.402263   0.000000
     6  N    6.039637   4.907870   3.709433   2.405608   1.406686
     7  C    5.117453   4.294041   2.806309   2.411048   1.407024
     8  C    6.563985   5.777583   4.289890   3.809352   2.555968
     9  O    7.415446   6.512347   5.053046   4.243296   2.848256
    10  O    7.154825   6.506809   5.047102   4.809322   3.671608
    11  C    4.324047   3.778599   2.409401   2.775019   2.436832
    12  C    2.930761   2.507967   1.407284   2.437538   2.845738
    13  N    2.760226   2.920971   2.469156   3.739499   4.245144
    14  O    2.230930   1.346169   2.365449   2.732947   4.131973
    15  H    3.911507   2.707151   2.161550   1.088095   2.150224
    16  H    6.135558   4.969740   3.983545   2.589214   2.051024
    17  H    6.842036   5.762641   4.467496   3.267930   2.024246
    18  H    8.271784   7.411653   5.936273   5.196309   3.805745
    19  H    5.013868   4.654823   3.396341   3.863439   3.418115
    20  H    1.983135   2.525886   2.624271   4.016662   4.787240
    21  H    3.611419   3.863780   3.316432   4.483661   4.771309
    22  H    2.208155   1.846239   3.173479   3.699036   5.099997
                    6          7          8          9         10
     6  N    0.000000
     7  C    2.472316   0.000000
     8  C    3.009773   1.487273   0.000000
     9  O    2.672021   2.380478   1.348439   0.000000
    10  O    4.199123   2.409184   1.218382   2.227130   0.000000
    11  C    3.741331   1.406907   2.454669   3.622670   2.840267
    12  C    4.245923   2.451637   3.768562   4.810584   4.238470
    13  N    5.640793   3.710516   4.854030   6.018548   5.054130
    14  O    4.923805   4.966927   6.434382   6.973966   7.297789
    15  H    2.603173   3.394647   4.695617   4.916935   5.763337
    16  H    1.014839   3.314228   3.951287   3.502796   5.159319
    17  H    1.024459   2.609055   2.618244   1.877172   3.780484
    18  H    3.597561   3.175422   1.836045   0.981751   2.183629
    19  H    4.622381   2.158705   2.618338   3.922703   2.507484
    20  H    6.164582   4.484401   5.732215   6.822699   6.022722
    21  H    6.166344   3.990779   4.908853   6.130490   4.908615
    22  H    5.897926   5.881310   7.359356   7.935418   8.181695
                   11         12         13         14         15
    11  C    0.000000
    12  C    1.400723   0.000000
    13  N    2.406266   1.405391   0.000000
    14  O    4.763559   3.655504   4.224939   0.000000
    15  H    3.862312   3.420175   4.622649   2.379270   0.000000
    16  H    4.479525   4.765522   6.158750   4.764850   2.390737
    17  H    4.000900   4.769867   6.147568   5.885983   3.582235
    18  H    4.272293   5.559119   6.672804   7.919842   5.889441
    19  H    1.089430   2.153211   2.611242   5.733797   4.950039
    20  H    3.282409   2.040734   1.025251   3.846060   4.735949
    21  H    2.596349   2.054686   1.014792   5.187301   5.436218
    22  H    5.556079   4.338078   4.658481   0.980257   3.331748
                   16         17         18         19         20
    16  H    0.000000
    17  H    1.694839   0.000000
    18  H    4.412869   2.737154   0.000000
    19  H    5.431399   4.718283   4.356643   0.000000
    20  H    6.548062   6.764697   7.534281   3.599876   0.000000
    21  H    6.748270   6.537263   6.677567   2.405458   1.696073
    22  H    5.701106   6.860687   8.877646   6.468677   4.089687
                   21         22
    21  H    0.000000
    22  H    5.610075   0.000000
 Stoichiometry    C8H8N2O4
 Framework group  C1[X(C8H8N2O4)]
 Deg. of freedom    60
 Full point group                 C1      NOp   1
 Largest Abelian subgroup         C1      NOp   1
 Largest concise Abelian subgroup C1      NOp   1
                         Standard orientation:                         
 ---------------------------------------------------------------------
 Center     Atomic      Atomic             Coordinates (Angstroms)
 Number     Number       Type             X           Y           Z
 ---------------------------------------------------------------------
      1          8           0        3.705613    0.546824    0.277277
      2          6           0        2.875918   -0.309402    0.023734
      3          6           0        1.399382   -0.126360    0.016837
      4          6           0        0.553718   -1.250272    0.006309
      5          6           0       -0.841978   -1.119364    0.041480
      6          7           0       -1.615001   -2.284130   -0.115114
      7          6           0       -1.390564    0.175493   -0.004533
      8          6           0       -2.849793    0.459835   -0.046725
      9          8           0       -3.623728   -0.578790    0.328203
     10          8           0       -3.354966    1.531423   -0.331250
     11          6           0       -0.543314    1.298681   -0.003289
     12          6           0        0.850051    1.168652    0.057158
     13          7           0        1.629311    2.330166   -0.079811
     14          8           0        3.253159   -1.565019   -0.281697
     15          1           0        0.986802   -2.247432   -0.039085
     16          1           0       -1.213444   -3.120269    0.296616
     17          1           0       -2.587544   -2.136140    0.170850
     18          1           0       -4.531356   -0.211072    0.258712
     19          1           0       -0.981622    2.294339   -0.061671
     20          1           0        2.607692    2.196298    0.195851
     21          1           0        1.225621    3.171761    0.318379
     22          1           0        4.232534   -1.528818   -0.261253
 ---------------------------------------------------------------------
 Rotational constants (GHZ):           1.4060567           0.4266147           0.3301891
 Standard basis: 6-31G(d,p) (6D, 7F)
 There are   250 symmetry adapted cartesian basis functions of A   symmetry.
 There are   250 symmetry adapted basis functions of A   symmetry.
   250 basis functions,   448 primitive gaussians,   250 cartesian basis functions
    51 alpha electrons       51 beta electrons
       nuclear repulsion energy       872.9606987341 Hartrees.
 NAtoms=   22 NActive=   22 NUniq=   22 SFac= 1.00D+00 NAtFMM=   60 NAOKFM=F Big=F
 Integral buffers will be    131072 words long.
 Raffenetti 2 integral format.
 Two-electron integral symmetry is turned on.
 Force inversion solution in PCM.
 ------------------------------------------------------------------------------
 Polarizable Continuum Model (PCM)
 =================================
 Model                : PCM.
 Atomic radii         : UFF (Universal Force Field).
 Polarization charges : Total charges.
 Charge compensation  : None.
 Solution method      : Matrix inversion.
 Cavity type          : Scaled VdW (van der Waals Surface) (Alpha=1.100).
 Cavity algorithm     : GePol (No added spheres)
                        Default sphere list used, NSphG=   22.
                        Lebedev-Laikov grids with approx.  5.0 points / Ang**2.
                        Smoothing algorithm: York/Karplus (Gamma=1.0000).
                        Polarization charges: spherical gaussians, with
                                              point-specific exponents (IZeta= 3).
                        Self-potential: point-specific (ISelfS= 7).
                        Self-field    : sphere-specific E.n sum rule (ISelfD= 2).
 1st derivatives      : Analytical E(r).r(x)/FMM algorithm (CHGder, D1EAlg=3).
                        Cavity 1st derivative terms included.
 2nd derivatives      : Analytical E(r).r(xy)/FMM algorithm (CHGder, D2EAlg=3).
                        Cavity 2nd derivative terms included.
 Solvent              : Water, Eps=  78.355300 Eps(inf)=   1.777849
 ------------------------------------------------------------------------------
 One-electron integrals computed using PRISM.
 NBasis=   250 RedAO= T EigKep=  3.46D-04  NBF=   250
 NBsUse=   250 1.00D-06 EigRej= -1.00D+00 NBFU=   250
 ExpMin= 1.61D-01 ExpMax= 5.48D+03 ExpMxC= 8.25D+02 IAcc=3 IRadAn=         5 AccDes= 0.00D+00
 Harris functional with IExCor=  402 and IRadAn=       5 diagonalized for initial guess.
 HarFok:  IExCor=  402 AccDes= 0.00D+00 IRadAn=         5 IDoV= 1 UseB2=F ITyADJ=14
 ICtDFT=  3500011 ScaDFX=  1.000000  1.000000  1.000000  1.000000
 FoFCou: FMM=F IPFlag=           0 FMFlag=      100000 FMFlg1=           0
         NFxFlg=           0 DoJE=T BraDBF=F KetDBF=T FulRan=T
         wScrn=  0.000000 ICntrl=       500 IOpCl=  0 I1Cent=   200000004 NGrid=           0
         NMat0=    1 NMatS0=      1 NMatT0=    0 NMatD0=    1 NMtDS0=    0 NMtDT0=    0
 Petite list used in FoFCou.
 Keep R1 ints in memory in canonical form, NReq=500119023.
 Requested convergence on RMS density matrix=1.00D-08 within  32 cycles.
 Requested convergence on MAX density matrix=1.00D-06.
 Requested convergence on             energy=1.00D-06.
 No special actions if energy rises.
 Inv3:  Mode=1 IEnd=     9991875.
 Iteration    1 A*A^-1 deviation from unit magnitude is 3.33D-15 for    372.
 Iteration    1 A*A^-1 deviation from orthogonality  is 1.76D-15 for   1483    468.
 Iteration    1 A^-1*A deviation from unit magnitude is 3.55D-15 for    372.
 Iteration    1 A^-1*A deviation from orthogonality  is 7.43D-13 for   1811   1042.
 Error on total polarization charges =  0.00508
 SCF Done:  E(RB3LYP) =  -720.140231403     A.U. after   13 cycles
            NFock= 13  Conv=0.56D-08     -V/T= 2.0091
 QCSCF skips out because SCF is already converged.
 DoSCS=F DFT=T ScalE2(SS,OS)=  1.000000  1.000000
 Range of M.O.s used for correlation:     1   250
 NBasis=   250 NAE=    51 NBE=    51 NFC=     0 NFV=     0
 NROrb=    250 NOA=    51 NOB=    51 NVA=   199 NVB=   199
 Symmetrizing basis deriv contribution to polar:
 IMax=3 JMax=2 DiffMx= 0.00D+00
 G2DrvN: will do    23 centers at a time, making    1 passes.
 Calling FoFCou, ICntrl=  3107 FMM=F I1Cent=   0 AccDes= 0.00D+00.
 NEqPCM:  Using equilibrium solvation (IEInf=0, Eps=  78.3553, EpsInf=   1.7778)
 G2PCM: DoFxE=T DoFxN=T DoGrad=T DoDP/DQ/DG/TGxP=FFFF NFrqRd=   0 IEInf=0 SqF1=F DoCFld=F IF1Alg=4.
 End of G2Drv F.D. properties file   721 does not exist.
 End of G2Drv F.D. properties file   722 does not exist.
 End of G2Drv F.D. properties file   788 does not exist.
          IDoAtm=1111111111111111111111
 NEqPCM:  Using equilibrium solvation (IEInf=0, Eps=  78.3553, EpsInf=   1.7778)
          Differentiating once with respect to nuclear coordinates.
 Keep R1 ints in memory in canonical form, NReq=501042706.
          There are    69 degrees of freedom in the 1st order CPHF.  IDoFFX=6 NUNeed=     0.
     63 vectors produced by pass  0 Test12= 1.47D-14 1.45D-09 XBig12= 1.86D-01 1.50D-01.
 AX will form    63 AO Fock derivatives at one time.
     63 vectors produced by pass  1 Test12= 1.47D-14 1.45D-09 XBig12= 2.92D-02 4.48D-02.
     63 vectors produced by pass  2 Test12= 1.47D-14 1.45D-09 XBig12= 2.87D-04 2.72D-03.
     63 vectors produced by pass  3 Test12= 1.47D-14 1.45D-09 XBig12= 1.08D-06 1.82D-04.
     63 vectors produced by pass  4 Test12= 1.47D-14 1.45D-09 XBig12= 2.86D-09 5.14D-06.
     55 vectors produced by pass  5 Test12= 1.47D-14 1.45D-09 XBig12= 3.31D-12 1.76D-07.
     15 vectors produced by pass  6 Test12= 1.47D-14 1.45D-09 XBig12= 2.97D-15 5.06D-09.
 InvSVY:  IOpt=1 It=  1 EMax= 2.78D-16
 Solved reduced A of dimension   385 with    69 vectors.
 End of Minotr F.D. properties file   721 does not exist.
 End of Minotr F.D. properties file   722 does not exist.
 End of Minotr F.D. properties file   788 does not exist.

 **********************************************************************

            Population analysis using the SCF density.

 **********************************************************************

 Orbital symmetries:
       Occupied  (A) (A) (A) (A) (A) (A) (A) (A) (A) (A) (A) (A)
                 (A) (A) (A) (A) (A) (A) (A) (A) (A) (A) (A) (A)
                 (A) (A) (A) (A) (A) (A) (A) (A) (A) (A) (A) (A)
                 (A) (A) (A) (A) (A) (A) (A) (A) (A) (A) (A) (A)
                 (A) (A) (A)
       Virtual   (A) (A) (A) (A) (A) (A) (A) (A) (A) (A) (A) (A)
                 (A) (A) (A) (A) (A) (A) (A) (A) (A) (A) (A) (A)
                 (A) (A) (A) (A) (A) (A) (A) (A) (A) (A) (A) (A)
                 (A) (A) (A) (A) (A) (A) (A) (A) (A) (A) (A) (A)
                 (A) (A) (A) (A) (A) (A) (A) (A) (A) (A) (A) (A)
                 (A) (A) (A) (A) (A) (A) (A) (A) (A) (A) (A) (A)
                 (A) (A) (A) (A) (A) (A) (A) (A) (A) (A) (A) (A)
                 (A) (A) (A) (A) (A) (A) (A) (A) (A) (A) (A) (A)
                 (A) (A) (A) (A) (A) (A) (A) (A) (A) (A) (A) (A)
                 (A) (A) (A) (A) (A) (A) (A) (A) (A) (A) (A) (A)
                 (A) (A) (A) (A) (A) (A) (A) (A) (A) (A) (A) (A)
                 (A) (A) (A) (A) (A) (A) (A) (A) (A) (A) (A) (A)
                 (A) (A) (A) (A) (A) (A) (A) (A) (A) (A) (A) (A)
                 (A) (A) (A) (A) (A) (A) (A) (A) (A) (A) (A) (A)
                 (A) (A) (A) (A) (A) (A) (A) (A) (A) (A) (A) (A)
                 (A) (A) (A) (A) (A) (A) (A) (A) (A) (A) (A) (A)
                 (A) (A) (A) (A) (A) (A) (A)
 The electronic state is 1-A.
 Alpha  occ. eigenvalues --  -19.20978 -19.20268 -19.15113 -19.14704 -14.33494
 Alpha  occ. eigenvalues --  -14.33461 -10.33301 -10.33260 -10.24012 -10.23935
 Alpha  occ. eigenvalues --  -10.21501 -10.21456 -10.20145 -10.20038  -1.12085
 Alpha  occ. eigenvalues --   -1.11711  -1.02347  -1.02153  -0.92322  -0.90839
 Alpha  occ. eigenvalues --   -0.83529  -0.78673  -0.72450  -0.69658  -0.63585
 Alpha  occ. eigenvalues --   -0.61442  -0.58795  -0.54498  -0.52701  -0.51418
 Alpha  occ. eigenvalues --   -0.50445  -0.49497  -0.47915  -0.47037  -0.45936
 Alpha  occ. eigenvalues --   -0.45612  -0.44510  -0.43739  -0.41437  -0.40567
 Alpha  occ. eigenvalues --   -0.39967  -0.38167  -0.37059  -0.34846  -0.33100
 Alpha  occ. eigenvalues --   -0.32694  -0.29132  -0.28872  -0.27276  -0.26815
 Alpha  occ. eigenvalues --   -0.19237
 Alpha virt. eigenvalues --   -0.07079   0.00542   0.00731   0.07500   0.08316
 Alpha virt. eigenvalues --    0.08766   0.10226   0.11789   0.13234   0.15477
 Alpha virt. eigenvalues --    0.17507   0.18035   0.19593   0.22503   0.23396
 Alpha virt. eigenvalues --    0.24707   0.27606   0.29213   0.30644   0.31165
 Alpha virt. eigenvalues --    0.32397   0.36676   0.39482   0.41108   0.43150
 Alpha virt. eigenvalues --    0.49132   0.49589   0.51053   0.51330   0.52677
 Alpha virt. eigenvalues --    0.54375   0.56190   0.56774   0.58082   0.58540
 Alpha virt. eigenvalues --    0.59818   0.61199   0.62099   0.63468   0.64508
 Alpha virt. eigenvalues --    0.67522   0.68508   0.68774   0.69153   0.69910
 Alpha virt. eigenvalues --    0.72417   0.73282   0.74891   0.76129   0.78052
 Alpha virt. eigenvalues --    0.79814   0.80955   0.81468   0.83280   0.83677
 Alpha virt. eigenvalues --    0.85234   0.86411   0.86935   0.88946   0.89396
 Alpha virt. eigenvalues --    0.90549   0.92375   0.93417   0.94503   0.97745
 Alpha virt. eigenvalues --    0.98999   0.99439   1.01426   1.02125   1.02417
 Alpha virt. eigenvalues --    1.03038   1.04950   1.05944   1.09760   1.13802
 Alpha virt. eigenvalues --    1.14478   1.18229   1.21770   1.22854   1.25825
 Alpha virt. eigenvalues --    1.28030   1.28549   1.30520   1.31673   1.32122
 Alpha virt. eigenvalues --    1.33966   1.35543   1.37123   1.38288   1.40534
 Alpha virt. eigenvalues --    1.41679   1.46479   1.48692   1.50249   1.55236
 Alpha virt. eigenvalues --    1.56150   1.57261   1.61542   1.65959   1.66870
 Alpha virt. eigenvalues --    1.71944   1.72342   1.72898   1.73580   1.75798
 Alpha virt. eigenvalues --    1.76945   1.78226   1.81016   1.81317   1.82363
 Alpha virt. eigenvalues --    1.83730   1.85307   1.86103   1.87412   1.89666
 Alpha virt. eigenvalues --    1.90460   1.90967   1.94121   1.95627   1.98832
 Alpha virt. eigenvalues --    2.00168   2.04108   2.05303   2.05580   2.09423
 Alpha virt. eigenvalues --    2.09945   2.16590   2.19515   2.20877   2.22158
 Alpha virt. eigenvalues --    2.22672   2.24339   2.26218   2.28215   2.29596
 Alpha virt. eigenvalues --    2.31269   2.32585   2.34429   2.36009   2.39548
 Alpha virt. eigenvalues --    2.41255   2.42164   2.43356   2.46101   2.48528
 Alpha virt. eigenvalues --    2.49723   2.51610   2.52070   2.54060   2.55063
 Alpha virt. eigenvalues --    2.56104   2.57187   2.58659   2.59703   2.64624
 Alpha virt. eigenvalues --    2.66821   2.67661   2.69875   2.70420   2.71537
 Alpha virt. eigenvalues --    2.72947   2.74778   2.79439   2.81330   2.87965
 Alpha virt. eigenvalues --    2.88928   2.90470   2.94923   2.98035   2.98841
 Alpha virt. eigenvalues --    3.01868   3.07299   3.10750   3.14709   3.20631
 Alpha virt. eigenvalues --    3.21406   3.30612   3.31045   3.33988   3.40122
 Alpha virt. eigenvalues --    3.41976   3.45651   3.48307   3.54748   3.69609
 Alpha virt. eigenvalues --    3.94299   3.97024   4.03990   4.09958   4.11035
 Alpha virt. eigenvalues --    4.12840   4.16128   4.23873   4.33630   4.42901
 Alpha virt. eigenvalues --    4.43583   4.55596   4.58833   4.85000
          Condensed to atoms (all electrons):
               1          2          3          4          5          6
     1  O    8.129925   0.531745  -0.075748   0.003237  -0.000053   0.000000
     2  C    0.531745   4.409473   0.310667  -0.039755   0.004388  -0.000100
     3  C   -0.075748   0.310667   5.028836   0.479401  -0.018361   0.004148
     4  C    0.003237  -0.039755   0.479401   5.083724   0.463140  -0.072590
     5  C   -0.000053   0.004388  -0.018361   0.463140   4.749876   0.304903
     6  N    0.000000  -0.000100   0.004148  -0.072590   0.304903   6.884228
     7  C   -0.000014   0.000187  -0.029195  -0.031762   0.462569  -0.064749
     8  C   -0.000000   0.000003   0.000220   0.005667  -0.036471  -0.013607
     9  O    0.000000  -0.000000  -0.000004   0.000106   0.001981  -0.025142
    10  O    0.000000  -0.000000  -0.000003  -0.000063   0.003297  -0.000078
    11  C    0.000454   0.008117  -0.033662  -0.060646  -0.037271   0.005507
    12  C   -0.000898  -0.046351   0.489679  -0.043167  -0.037355   0.000471
    13  N   -0.022963  -0.014962  -0.059685   0.005347   0.000533   0.000001
    14  O   -0.089743   0.286276  -0.093464  -0.000548   0.000420  -0.000003
    15  H    0.000142  -0.010109  -0.030553   0.364655  -0.037319  -0.005953
    16  H   -0.000000  -0.000003   0.000108  -0.010585  -0.023799   0.340823
    17  H   -0.000000   0.000001  -0.000131   0.005773  -0.023130   0.328821
    18  H   -0.000000   0.000000   0.000001   0.000010  -0.000516   0.000594
    19  H    0.000005  -0.000139   0.004527   0.000580   0.004578  -0.000070
    20  H    0.037370   0.001746  -0.016786  -0.000257   0.000004  -0.000000
    21  H    0.000587  -0.000014   0.005648  -0.000075  -0.000021  -0.000000
    22  H    0.009169  -0.013756   0.011266  -0.000538   0.000004  -0.000000
               7          8          9         10         11         12
     1  O   -0.000014  -0.000000   0.000000   0.000000   0.000454  -0.000898
     2  C    0.000187   0.000003  -0.000000  -0.000000   0.008117  -0.046351
     3  C   -0.029195   0.000220  -0.000004  -0.000003  -0.033662   0.489679
     4  C   -0.031762   0.005667   0.000106  -0.000063  -0.060646  -0.043167
     5  C    0.462569  -0.036471   0.001981   0.003297  -0.037271  -0.037355
     6  N   -0.064749  -0.013607  -0.025142  -0.000078   0.005507   0.000471
     7  C    5.055608   0.300917  -0.080264  -0.088036   0.489907  -0.021858
     8  C    0.300917   4.418372   0.244469   0.574752  -0.046919   0.007209
     9  O   -0.080264   0.244469   8.158680  -0.093482   0.003354  -0.000050
    10  O   -0.088036   0.574752  -0.093482   8.089296   0.001841   0.001001
    11  C    0.489907  -0.046919   0.003354   0.001841   5.095780   0.440350
    12  C   -0.021858   0.007209  -0.000050   0.001001   0.440350   4.756132
    13  N    0.004298  -0.000137   0.000000  -0.000002  -0.073210   0.305324
    14  O    0.000002  -0.000000   0.000000  -0.000000  -0.000052   0.002869
    15  H    0.004110  -0.000120   0.000003   0.000000   0.000578   0.004217
    16  H    0.005627  -0.000027   0.000575   0.000001  -0.000083  -0.000023
    17  H   -0.012913   0.002498   0.023928   0.000284  -0.000369  -0.000004
    18  H    0.010833  -0.009654   0.270393   0.011946  -0.000262  -0.000000
    19  H   -0.038539  -0.009256   0.000355   0.013282   0.362252  -0.036606
    20  H   -0.000157   0.000002  -0.000000  -0.000000   0.005845  -0.019817
    21  H    0.000085  -0.000004  -0.000000  -0.000003  -0.009760  -0.025001
    22  H    0.000001   0.000000  -0.000000   0.000000   0.000002  -0.000140
              13         14         15         16         17         18
     1  O   -0.022963  -0.089743   0.000142  -0.000000  -0.000000  -0.000000
     2  C   -0.014962   0.286276  -0.010109  -0.000003   0.000001   0.000000
     3  C   -0.059685  -0.093464  -0.030553   0.000108  -0.000131   0.000001
     4  C    0.005347  -0.000548   0.364655  -0.010585   0.005773   0.000010
     5  C    0.000533   0.000420  -0.037319  -0.023799  -0.023130  -0.000516
     6  N    0.000001  -0.000003  -0.005953   0.340823   0.328821   0.000594
     7  C    0.004298   0.000002   0.004110   0.005627  -0.012913   0.010833
     8  C   -0.000137  -0.000000  -0.000120  -0.000027   0.002498  -0.009654
     9  O    0.000000   0.000000   0.000003   0.000575   0.023928   0.270393
    10  O   -0.000002  -0.000000   0.000000   0.000001   0.000284   0.011946
    11  C   -0.073210  -0.000052   0.000578  -0.000083  -0.000369  -0.000262
    12  C    0.305324   0.002869   0.004217  -0.000023  -0.000004  -0.000000
    13  N    6.885040  -0.000092  -0.000078  -0.000000  -0.000000  -0.000000
    14  O   -0.000092   8.104307   0.009495  -0.000005   0.000000  -0.000000
    15  H   -0.000078   0.009495   0.573580   0.003796  -0.000019  -0.000000
    16  H   -0.000000  -0.000005   0.003796   0.428991  -0.023854  -0.000020
    17  H   -0.000000   0.000000  -0.000019  -0.023854   0.403783   0.000102
    18  H   -0.000000  -0.000000  -0.000000  -0.000020   0.000102   0.365702
    19  H   -0.005743   0.000000   0.000014   0.000003  -0.000012  -0.000036
    20  H    0.320968   0.000403  -0.000009   0.000000  -0.000000   0.000000
    21  H    0.340754   0.000002   0.000003  -0.000000  -0.000000   0.000000
    22  H    0.000013   0.274925  -0.000230   0.000000   0.000000  -0.000000
              19         20         21         22
     1  O    0.000005   0.037370   0.000587   0.009169
     2  C   -0.000139   0.001746  -0.000014  -0.013756
     3  C    0.004527  -0.016786   0.005648   0.011266
     4  C    0.000580  -0.000257  -0.000075  -0.000538
     5  C    0.004578   0.000004  -0.000021   0.000004
     6  N   -0.000070  -0.000000  -0.000000  -0.000000
     7  C   -0.038539  -0.000157   0.000085   0.000001
     8  C   -0.009256   0.000002  -0.000004   0.000000
     9  O    0.000355  -0.000000  -0.000000  -0.000000
    10  O    0.013282  -0.000000  -0.000003   0.000000
    11  C    0.362252   0.005845  -0.009760   0.000002
    12  C   -0.036606  -0.019817  -0.025001  -0.000140
    13  N   -0.005743   0.320968   0.340754   0.000013
    14  O    0.000000   0.000403   0.000002   0.274925
    15  H    0.000014  -0.000009   0.000003  -0.000230
    16  H    0.000003   0.000000  -0.000000   0.000000
    17  H   -0.000012  -0.000000  -0.000000   0.000000
    18  H   -0.000036   0.000000   0.000000  -0.000000
    19  H    0.583749   0.000019   0.003857  -0.000000
    20  H    0.000019   0.405590  -0.023595  -0.000019
    21  H    0.003857  -0.023595   0.430105  -0.000001
    22  H   -0.000000  -0.000019  -0.000001   0.371803
 Mulliken charges:
               1
     1  O   -0.523213
     2  C    0.572586
     3  C    0.023091
     4  C   -0.151655
     5  C    0.218604
     6  N   -0.687202
     7  C    0.033343
     8  C    0.562086
     9  O   -0.504902
    10  O   -0.514033
    11  C   -0.151755
    12  C    0.224018
    13  N   -0.685405
    14  O   -0.494793
    15  H    0.123795
    16  H    0.278475
    17  H    0.295241
    18  H    0.350908
    19  H    0.117182
    20  H    0.288693
    21  H    0.277433
    22  H    0.347502
 Sum of Mulliken charges =  -0.00000
 Mulliken charges with hydrogens summed into heavy atoms:
               1
     1  O   -0.523213
     2  C    0.572586
     3  C    0.023091
     4  C   -0.027859
     5  C    0.218604
     6  N   -0.113486
     7  C    0.033343
     8  C    0.562086
     9  O   -0.153994
    10  O   -0.514033
    11  C   -0.034573
    12  C    0.224018
    13  N   -0.119279
    14  O   -0.147292
 APT charges:
               1
     1  O    0.314469
     2  C   -0.319050
     3  C   -0.242148
     4  C   -0.456354
     5  C   -0.105925
     6  N   -1.166460
     7  C   -0.213683
     8  C   -0.328153
     9  O   -0.968430
    10  O    0.317572
    11  C   -0.485407
    12  C   -0.122037
    13  N   -1.184511
    14  O   -0.972413
    15  H    0.513246
    16  H    0.680910
    17  H    0.631674
    18  H    1.130255
    19  H    0.502232
    20  H    0.639599
    21  H    0.693799
    22  H    1.140813
 Sum of APT charges =  -0.00000
 APT charges with hydrogens summed into heavy atoms:
               1
     1  O    0.314469
     2  C   -0.319050
     3  C   -0.242148
     4  C    0.056892
     5  C   -0.105925
     6  N    0.146124
     7  C   -0.213683
     8  C   -0.328153
     9  O    0.161825
    10  O    0.317572
    11  C    0.016825
    12  C   -0.122037
    13  N    0.148888
    14  O    0.168400
 Electronic spatial extent (au):  <R**2>=           3084.9486
 Charge=             -0.0000 electrons
 Dipole moment (field-independent basis, Debye):
    X=             -0.5333    Y=             -3.0497    Z=              2.3911  Tot=              3.9118
 Quadrupole moment (field-independent basis, Debye-Ang):
   XX=            -68.0367   YY=            -70.7803   ZZ=            -81.7233
   XY=              2.7633   XZ=             -4.3274   YZ=              0.8736
 Traceless Quadrupole moment (field-independent basis, Debye-Ang):
   XX=              5.4767   YY=              2.7332   ZZ=             -8.2098
   XY=              2.7633   XZ=             -4.3274   YZ=              0.8736
 Octapole moment (field-independent basis, Debye-Ang**2):
  XXX=            -35.5789  YYY=             -7.0820  ZZZ=              1.7744  XYY=             19.9835
  XXY=            -64.5113  XXZ=              5.6651  XZZ=              0.5284  YZZ=             -0.5943
  YYZ=             21.4978  XYZ=              4.4817
 Hexadecapole moment (field-independent basis, Debye-Ang**3):
 XXXX=          -2153.3307 YYYY=           -773.6835 ZZZZ=            -88.3468 XXXY=            -56.8552
 XXXZ=            -94.1570 YYYX=             59.6549 YYYZ=              3.8160 ZZZX=             -1.8980
 ZZZY=             -0.0029 XXYY=           -606.6028 XXZZ=           -464.9155 YYZZ=           -183.6740
 XXYZ=             16.0060 YYXZ=             -7.0904 ZZXY=             -8.6311
 N-N= 8.729606987341D+02 E-N=-3.429404210282D+03  KE= 7.136289445015D+02
  Exact polarizability:   0.000   0.000   0.000   0.000   0.000   0.000
 Approx polarizability: 248.369   2.986 253.011   4.065  -1.324  68.666
 D2PCM: PCM CHGder 2nd derivatives, FixD1E=F FixD2E=F DoIter=F DoCFld=F I1PDM=0
 Calling FoFJK, ICntrl=    100147 FMM=F ISym2X=0 I1Cent= 0 IOpClX= 0 NMat=1 NMatS=1 NMatT=0.
 ***** Axes restored to original set *****
 -------------------------------------------------------------------
 Center     Atomic                   Forces (Hartrees/Bohr)
 Number     Number              X              Y              Z
 -------------------------------------------------------------------
      1        8           0.007155416   -0.006287698   -0.003594875
      2        6          -0.014760360    0.003925687    0.002158796
      3        6           0.003224643    0.013142604    0.001518784
      4        6           0.004361986   -0.004204630   -0.004898298
      5        6          -0.002076436    0.015441607    0.022268931
      6        7          -0.006984783   -0.004458940   -0.012091231
      7        6           0.001935286   -0.013319210   -0.009895798
      8        6           0.009865236   -0.000826644   -0.003417282
      9        8          -0.014535749   -0.008119767   -0.003349821
     10        8           0.002635367   -0.002660650    0.000769662
     11        6          -0.004232345    0.006305706    0.000619370
     12        6           0.002762324   -0.027718718    0.000013927
     13        7           0.007572568    0.010954759   -0.003128959
     14        8           0.010340299    0.001080840    0.001703217
     15        1           0.000050471   -0.002671672   -0.002157217
     16        1           0.000948133   -0.002813759   -0.000604333
     17        1           0.008904323    0.006863353    0.007310640
     18        1           0.001101388    0.009024097    0.002005673
     19        1          -0.000801242    0.003831759    0.000998256
     20        1          -0.009402841   -0.003378564   -0.000134766
     21        1          -0.001611734    0.002218864    0.002236062
     22        1          -0.006451950    0.003670977    0.001669261
 -------------------------------------------------------------------
 Cartesian Forces:  Max     0.027718718 RMS     0.007626987
 FormGI is forming the generalized inverse of G from B-inverse, IUseBI=4.

 GradGradGradGradGradGradGradGradGradGradGradGradGradGradGradGradGradGrad
 Berny optimization.
 Internal  Forces:  Max     0.017128868 RMS     0.005028042
 Search for a local minimum.
 Step number   1 out of a maximum of  108
 All quantities printed in internal units (Hartrees-Bohrs-Radians)
 Mixed Optimization -- RFO/linear search
 Second derivative matrix not updated -- analytic derivatives used.
 ITU=  0
     Eigenvalues ---    0.00054   0.00382   0.00534   0.00742   0.01141
     Eigenvalues ---    0.01380   0.01650   0.01866   0.01926   0.01940
     Eigenvalues ---    0.01954   0.02061   0.02171   0.02308   0.02382
     Eigenvalues ---    0.02919   0.03051   0.06696   0.06737   0.11571
     Eigenvalues ---    0.11924   0.12881   0.13333   0.15510   0.15767
     Eigenvalues ---    0.16103   0.17209   0.18897   0.18922   0.19527
     Eigenvalues ---    0.19703   0.20783   0.21377   0.22777   0.24262
     Eigenvalues ---    0.25320   0.28239   0.32422   0.34884   0.35290
     Eigenvalues ---    0.36399   0.37216   0.38844   0.40435   0.41511
     Eigenvalues ---    0.41716   0.42400   0.43659   0.44115   0.45469
     Eigenvalues ---    0.45666   0.45808   0.45998   0.48307   0.48992
     Eigenvalues ---    0.50240   0.63989   0.83278   0.85171   0.87983
 RFO step:  Lambda=-9.27726810D-03 EMin= 5.38651103D-04
 Linear search not attempted -- first point.
 Iteration  1 RMS(Cart)=  0.06153464 RMS(Int)=  0.00266714
 Iteration  2 RMS(Cart)=  0.00375133 RMS(Int)=  0.00051605
 Iteration  3 RMS(Cart)=  0.00001288 RMS(Int)=  0.00051601
 Iteration  4 RMS(Cart)=  0.00000000 RMS(Int)=  0.00051601
 Variable       Old X    -DE/DX   Delta X   Delta X   Delta X     New X
                                 (Linear)    (Quad)   (Total)
    R1        2.30345   0.00991   0.00000   0.01381   0.01381   2.31727
    R2        2.81164  -0.00257   0.00000  -0.01583  -0.01583   2.79580
    R3        2.54389   0.00611   0.00000   0.00778   0.00778   2.55167
    R4        2.65803  -0.00536   0.00000  -0.01114  -0.01115   2.64688
    R5        2.65938   0.01019   0.00000   0.02961   0.02961   2.68899
    R6        2.64989   0.00041   0.00000  -0.00174  -0.00175   2.64815
    R7        2.05620  -0.00331   0.00000  -0.00778  -0.00778   2.04843
    R8        2.65825  -0.00437   0.00000  -0.02971  -0.02971   2.62854
    R9        2.65889   0.01713   0.00000   0.03058   0.03058   2.68947
   R10        1.91777  -0.00251   0.00000  -0.00627  -0.00627   1.91150
   R11        1.93595  -0.01205   0.00000  -0.02737  -0.02737   1.90858
   R12        2.81054   0.00246   0.00000  -0.00096  -0.00096   2.80958
   R13        2.65867  -0.00509   0.00000  -0.01248  -0.01248   2.64619
   R14        2.54818   0.00997   0.00000   0.01319   0.01319   2.56137
   R15        2.30241   0.00165   0.00000   0.00178   0.00178   2.30419
   R16        1.85524  -0.00585   0.00000  -0.01725  -0.01725   1.83799
   R17        2.64698  -0.00052   0.00000  -0.00245  -0.00244   2.64454
   R18        2.05872  -0.00362   0.00000  -0.00882  -0.00882   2.04990
   R19        2.65580  -0.00892   0.00000  -0.03789  -0.03789   2.61791
   R20        1.93744  -0.00996   0.00000  -0.02406  -0.02406   1.91339
   R21        1.91768  -0.00272   0.00000  -0.00704  -0.00704   1.91064
   R22        1.85242  -0.00576   0.00000  -0.01478  -0.01478   1.83764
    A1        2.20191  -0.00240   0.00000  -0.01265  -0.01265   2.18926
    A2        2.10788   0.00135   0.00000   0.00213   0.00213   2.11002
    A3        1.97338   0.00105   0.00000   0.01052   0.01052   1.98391
    A4        2.09253  -0.00410   0.00000  -0.00849  -0.00858   2.08395
    A5        2.09492   0.00391   0.00000   0.00857   0.00847   2.10339
    A6        2.09535   0.00019   0.00000  -0.00000   0.00018   2.09553
    A7        2.12190   0.00629   0.00000   0.02727   0.02742   2.14932
    A8        2.08665  -0.00390   0.00000  -0.02024  -0.02035   2.06630
    A9        2.07459  -0.00238   0.00000  -0.00693  -0.00704   2.06755
   A10        2.05654  -0.00287   0.00000   0.01930   0.01783   2.07437
   A11        2.06367  -0.00655   0.00000  -0.02519  -0.02653   2.03714
   A12        2.14613   0.00996   0.00000   0.02270   0.02129   2.16742
   A13        2.00381  -0.00486   0.00000  -0.01157  -0.01197   1.99184
   A14        1.95088   0.00906   0.00000   0.05527   0.05487   2.00575
   A15        1.96211  -0.00261   0.00000   0.00460   0.00401   1.96612
   A16        2.16447   0.01347   0.00000   0.02045   0.02035   2.18482
   A17        2.09425  -0.00125   0.00000   0.00109   0.00126   2.09551
   A18        2.02445  -0.01222   0.00000  -0.02149  -0.02159   2.00286
   A19        1.99104   0.00913   0.00000   0.00899   0.00878   1.99982
   A20        2.19147  -0.00835   0.00000  -0.01838  -0.01859   2.17288
   A21        2.09948  -0.00073   0.00000   0.01112   0.01092   2.11040
   A22        1.79511   0.01343   0.00000   0.06841   0.06841   1.86352
   A23        2.12348   0.00629   0.00000   0.02674   0.02690   2.15038
   A24        2.07978  -0.00485   0.00000  -0.02829  -0.02840   2.05138
   A25        2.07987  -0.00143   0.00000   0.00167   0.00156   2.08143
   A26        2.06291  -0.00476   0.00000  -0.02358  -0.02504   2.03786
   A27        2.14278   0.00027   0.00000   0.00505   0.00336   2.14614
   A28        2.06081   0.00511   0.00000   0.03621   0.03466   2.09547
   A29        1.97688   0.00034   0.00000   0.01516   0.01490   1.99178
   A30        2.01152  -0.00326   0.00000  -0.00378  -0.00404   2.00748
   A31        1.96319   0.00131   0.00000   0.02821   0.02784   1.99104
   A32        1.81399   0.00895   0.00000   0.04490   0.04490   1.85889
    D1       -2.89049  -0.00107   0.00000  -0.07431  -0.07437  -2.96486
    D2        0.22129  -0.00104   0.00000  -0.07130  -0.07124   0.15005
    D3        0.24525  -0.00098   0.00000  -0.07244  -0.07250   0.17275
    D4       -2.92616  -0.00095   0.00000  -0.06943  -0.06937  -2.99553
    D5       -0.03012   0.00110   0.00000   0.03350   0.03351   0.00339
    D6        3.11697   0.00103   0.00000   0.03180   0.03179  -3.13443
    D7        3.10650  -0.00026   0.00000  -0.00253  -0.00233   3.10417
    D8       -0.04477   0.00036   0.00000   0.01075   0.01074  -0.03404
    D9       -0.00527  -0.00035   0.00000  -0.00569  -0.00559  -0.01086
   D10        3.12664   0.00026   0.00000   0.00759   0.00748   3.13412
   D11        3.09912   0.00181   0.00000   0.05026   0.04957  -3.13449
   D12        0.15674  -0.00240   0.00000  -0.05804  -0.05706   0.09969
   D13       -0.07233   0.00177   0.00000   0.05313   0.05257  -0.01976
   D14       -3.01471  -0.00244   0.00000  -0.05517  -0.05406  -3.06877
   D15        3.02618   0.00248   0.00000   0.05053   0.04983   3.07602
   D16        0.07484  -0.00169   0.00000  -0.04594  -0.04560   0.02924
   D17       -0.10579   0.00188   0.00000   0.03741   0.03683  -0.06897
   D18       -3.05714  -0.00229   0.00000  -0.05906  -0.05861  -3.11575
   D19        0.61317  -0.00231   0.00000  -0.11444  -0.11550   0.49767
   D20        2.87478  -0.00198   0.00000  -0.06690  -0.06757   2.80721
   D21       -2.72831   0.00006   0.00000  -0.01868  -0.01801  -2.74632
   D22       -0.46671   0.00039   0.00000   0.02886   0.02992  -0.43679
   D23        3.08336   0.00174   0.00000   0.04115   0.04067   3.12403
   D24       -0.06598   0.00213   0.00000   0.04946   0.04896  -0.01702
   D25        0.14243  -0.00105   0.00000  -0.05981  -0.05958   0.08284
   D26       -3.00691  -0.00066   0.00000  -0.05150  -0.05130  -3.05821
   D27        0.30262  -0.00028   0.00000  -0.09708  -0.09702   0.20559
   D28       -2.89174   0.00100   0.00000  -0.05858  -0.05876  -2.95050
   D29       -2.83151  -0.00069   0.00000  -0.10518  -0.10500  -2.93652
   D30        0.25732   0.00059   0.00000  -0.06667  -0.06673   0.19058
   D31       -0.01190  -0.00062   0.00000  -0.00198  -0.00188  -0.01378
   D32        3.11797   0.00010   0.00000   0.01010   0.01027   3.12824
   D33        3.12255  -0.00016   0.00000   0.00585   0.00574   3.12829
   D34       -0.03077   0.00057   0.00000   0.01794   0.01790  -0.01287
   D35        3.12128   0.00062   0.00000   0.02001   0.02026   3.14154
   D36        0.02940  -0.00031   0.00000  -0.01528  -0.01552   0.01387
   D37        0.08133  -0.00136   0.00000  -0.04955  -0.04924   0.03209
   D38        3.03320   0.00216   0.00000   0.05038   0.05074   3.08394
   D39       -3.04854  -0.00206   0.00000  -0.06144  -0.06140  -3.10994
   D40       -0.09667   0.00146   0.00000   0.03849   0.03858  -0.05809
   D41       -0.44029   0.00046   0.00000   0.04708   0.04807  -0.39223
   D42       -2.73597   0.00140   0.00000  -0.00640  -0.00566  -2.74163
   D43        2.90029  -0.00268   0.00000  -0.05465  -0.05540   2.84489
   D44        0.60461  -0.00173   0.00000  -0.10814  -0.10912   0.49549
         Item               Value     Threshold  Converged?
 Maximum Force            0.017129     0.000450     NO 
 RMS     Force            0.005028     0.000300     NO 
 Maximum Displacement     0.272351     0.001800     NO 
 RMS     Displacement     0.061906     0.001200     NO 
 Predicted change in Energy=-5.362689D-03
 GradGradGradGradGradGradGradGradGradGradGradGradGradGradGradGradGradGrad

                          Input orientation:                          
 ---------------------------------------------------------------------
 Center     Atomic      Atomic             Coordinates (Angstroms)
 Number     Number       Type             X           Y           Z
 ---------------------------------------------------------------------
      1          8           0        3.764188    0.068882    0.112655
      2          6           0        2.768817    0.631365    0.555965
      3          6           0        1.368922    0.231457    0.292873
      4          6           0        0.326085    1.081010    0.683546
      5          6           0       -1.024281    0.801213    0.434597
      6          7           0       -1.992034    1.668129    0.931274
      7          6           0       -1.312942   -0.430557   -0.217272
      8          6           0       -2.674898   -0.923895   -0.552189
      9          8           0       -3.657912   -0.000405   -0.417988
     10          8           0       -2.925257   -2.054325   -0.934546
     11          6           0       -0.270240   -1.285385   -0.595282
     12          6           0        1.080323   -0.988775   -0.379841
     13          7           0        2.056138   -1.912082   -0.718151
     14          8           0        2.882261    1.714940    1.353629
     15          1           0        0.576400    2.000306    1.200510
     16          1           0       -1.678302    2.624592    1.030927
     17          1           0       -2.894836    1.599547    0.483731
     18          1           0       -4.490597   -0.439208   -0.663108
     19          1           0       -0.537457   -2.219358   -1.077979
     20          1           0        2.988606   -1.523106   -0.784493
     21          1           0        1.812786   -2.532182   -1.478749
     22          1           0        3.834230    1.887836    1.451076
 ---------------------------------------------------------------------
                    Distance matrix (angstroms):
                    1          2          3          4          5
     1  O    0.000000
     2  C    1.226245   0.000000
     3  C    2.407531   1.479476   0.000000
     4  C    3.629170   2.487046   1.400671   0.000000
     5  C    4.854831   3.798837   2.464169   1.401338   0.000000
     6  N    6.030076   4.886863   3.710473   2.404111   1.390963
     7  C    5.112293   4.287928   2.809076   2.404728   1.423206
     8  C    6.549004   5.768958   4.289692   3.814785   2.583463
     9  O    7.441367   6.530740   5.082140   4.272595   2.881928
    10  O    7.096007   6.469701   5.017104   4.797893   3.693557
    11  C    4.314142   3.772952   2.403431   2.755147   2.446042
    12  C    2.926486   2.520237   1.422954   2.446156   2.880403
    13  N    2.744428   2.932645   2.467628   3.730474   4.263774
    14  O    2.242169   1.350286   2.369836   2.717520   4.115894
    15  H    3.882759   2.663855   2.140263   1.083981   2.141641
    16  H    6.082399   4.896469   3.944287   2.553602   2.026836
    17  H    6.842751   5.746265   4.481935   3.268507   2.034387
    18  H    8.306710   7.438504   5.974751   5.227328   3.841737
    19  H    5.015755   4.661313   3.394114   3.839415   3.413024
    20  H    1.985152   2.546936   2.619653   4.003197   4.794987
    21  H    3.620230   3.880990   3.312606   4.465531   4.777171
    22  H    2.259396   1.874846   3.187910   3.680646   5.081250
                    6          7          8          9         10
     6  N    0.000000
     7  C    2.486927   0.000000
     8  C    3.063586   1.486768   0.000000
     9  O    2.716554   2.392530   1.355419   0.000000
    10  O    4.267184   2.398055   1.219323   2.241028   0.000000
    11  C    3.744088   1.400304   2.432060   3.627524   2.784868
    12  C    4.268201   2.462875   3.759735   4.840372   4.181838
    13  N    5.650328   3.714364   4.835986   6.032825   4.988122
    14  O    4.892783   4.966952   6.440312   6.989628   7.291802
    15  H    2.603782   3.389515   4.711035   4.954975   5.767157
    16  H    1.011523   3.320455   4.011386   3.592884   5.225920
    17  H    1.009976   2.667418   2.736652   1.988776   3.919594
    18  H    3.636721   3.208790   1.882548   0.972623   2.265518
    19  H    4.611448   2.131198   2.554082   3.885432   2.397791
    20  H    6.159108   4.474228   5.699851   6.828554   5.939570
    21  H    6.158529   3.972195   4.856379   6.120756   4.793075
    22  H    5.853530   5.886570   7.368016   7.949279   8.180617
                   11         12         13         14         15
    11  C    0.000000
    12  C    1.399433   0.000000
    13  N    2.412442   1.385339   0.000000
    14  O    4.768486   3.682658   4.257938   0.000000
    15  H    3.838937   3.418487   4.601919   2.328491   0.000000
    16  H    4.462636   4.759905   6.130801   4.661581   2.345672
    17  H    4.046679   4.821521   6.187746   5.843363   3.567053
    18  H    4.304885   5.605124   6.710598   7.941449   5.924421
    19  H    1.084761   2.149173   2.636405   5.752033   4.923185
    20  H    3.272978   2.022572   1.012521   3.881729   4.708865
    21  H    2.583411   2.031307   1.011066   5.215763   5.408376
    22  H    5.577058   4.383052   4.722979   0.972437   3.269386
                   16         17         18         19         20
    16  H    0.000000
    17  H    1.682288   0.000000
    18  H    4.490615   2.831645   0.000000
    19  H    5.404893   4.751865   4.355269   0.000000
    20  H    6.502245   6.780432   7.558310   3.606109   0.000000
    21  H    6.714052   6.563858   6.691670   2.404604   1.697874
    22  H    5.577396   6.804351   8.898744   6.509747   4.165018
                   21         22
    21  H    0.000000
    22  H    5.675091   0.000000
 Stoichiometry    C8H8N2O4
 Framework group  C1[X(C8H8N2O4)]
 Deg. of freedom    60
 Full point group                 C1      NOp   1
 Largest Abelian subgroup         C1      NOp   1
 Largest concise Abelian subgroup C1      NOp   1
                         Standard orientation:                         
 ---------------------------------------------------------------------
 Center     Atomic      Atomic             Coordinates (Angstroms)
 Number     Number       Type             X           Y           Z
 ---------------------------------------------------------------------
      1          8           0        3.695314    0.583013    0.207881
      2          6           0        2.868341   -0.302916    0.021012
      3          6           0        1.401214   -0.114466   -0.008527
      4          6           0        0.563786   -1.237182   -0.018603
      5          6           0       -0.834750   -1.150109   -0.002340
      6          7           0       -1.581236   -2.320208   -0.094027
      7          6           0       -1.394583    0.158332   -0.011519
      8          6           0       -2.848758    0.467850   -0.018650
      9          8           0       -3.652394   -0.593579    0.235709
     10          8           0       -3.318058    1.575574   -0.217276
     11          6           0       -0.556310    1.280000   -0.015095
     12          6           0        0.840266    1.193173    0.006080
     13          7           0        1.608300    2.343738   -0.068001
     14          8           0        3.254745   -1.581483   -0.177052
     15          1           0        1.020000   -2.220316   -0.036778
     16          1           0       -1.115794   -3.137732    0.277720
     17          1           0       -2.537713   -2.240541    0.220385
     18          1           0       -4.567834   -0.266575    0.203573
     19          1           0       -1.026482    2.257369   -0.034963
     20          1           0        2.570238    2.218504    0.222156
     21          1           0        1.169978    3.175193    0.304571
     22          1           0        4.226063   -1.586899   -0.130725
 ---------------------------------------------------------------------
 Rotational constants (GHZ):           1.3871088           0.4296309           0.3294706
 Standard basis: 6-31G(d,p) (6D, 7F)
 There are   250 symmetry adapted cartesian basis functions of A   symmetry.
 There are   250 symmetry adapted basis functions of A   symmetry.
   250 basis functions,   448 primitive gaussians,   250 cartesian basis functions
    51 alpha electrons       51 beta electrons
       nuclear repulsion energy       872.4814032857 Hartrees.
 NAtoms=   22 NActive=   22 NUniq=   22 SFac= 1.00D+00 NAtFMM=   60 NAOKFM=F Big=F
 Integral buffers will be    131072 words long.
 Raffenetti 2 integral format.
 Two-electron integral symmetry is turned on.
 ------------------------------------------------------------------------------
 Polarizable Continuum Model (PCM)
 =================================
 Model                : PCM.
 Atomic radii         : UFF (Universal Force Field).
 Polarization charges : Total charges.
 Charge compensation  : None.
 Solution method      : Matrix inversion.
 Cavity type          : Scaled VdW (van der Waals Surface) (Alpha=1.100).
 Cavity algorithm     : GePol (No added spheres)
                        Default sphere list used, NSphG=   22.
                        Lebedev-Laikov grids with approx.  5.0 points / Ang**2.
                        Smoothing algorithm: York/Karplus (Gamma=1.0000).
                        Polarization charges: spherical gaussians, with
                                              point-specific exponents (IZeta= 3).
                        Self-potential: point-specific (ISelfS= 7).
                        Self-field    : sphere-specific E.n sum rule (ISelfD= 2).
 1st derivatives      : Analytical E(r).r(x)/FMM algorithm (CHGder, D1EAlg=3).
                        Cavity 1st derivative terms included.
 Solvent              : Water, Eps=  78.355300 Eps(inf)=   1.777849
 ------------------------------------------------------------------------------
 One-electron integrals computed using PRISM.
 NBasis=   250 RedAO= T EigKep=  3.09D-04  NBF=   250
 NBsUse=   250 1.00D-06 EigRej= -1.00D+00 NBFU=   250
 Initial guess from the checkpoint file:  "WIOZZYWDYUOMAY-UHFFFAOYSA-N_conf_4_0.chk"
 B after Tr=    -0.000000   -0.000000   -0.000000
         Rot=    0.999998   -0.000142    0.000287   -0.001810 Ang=  -0.21 deg.
 ExpMin= 1.61D-01 ExpMax= 5.48D+03 ExpMxC= 8.25D+02 IAcc=2 IRadAn=         4 AccDes= 0.00D+00
 Harris functional with IExCor=  402 and IRadAn=       4 diagonalized for initial guess.
 HarFok:  IExCor=  402 AccDes= 0.00D+00 IRadAn=         4 IDoV= 1 UseB2=F ITyADJ=14
 ICtDFT=  3500011 ScaDFX=  1.000000  1.000000  1.000000  1.000000
 FoFCou: FMM=F IPFlag=           0 FMFlag=      100000 FMFlg1=           0
         NFxFlg=           0 DoJE=T BraDBF=F KetDBF=T FulRan=T
         wScrn=  0.000000 ICntrl=       500 IOpCl=  0 I1Cent=   200000004 NGrid=           0
         NMat0=    1 NMatS0=      1 NMatT0=    0 NMatD0=    1 NMtDS0=    0 NMtDT0=    0
 Petite list used in FoFCou.
 Keep R1 ints in memory in canonical form, NReq=500119023.
 Requested convergence on RMS density matrix=1.00D-08 within  32 cycles.
 Requested convergence on MAX density matrix=1.00D-06.
 Requested convergence on             energy=1.00D-06.
 No special actions if energy rises.
 Inv3:  Mode=1 IEnd=    10367643.
 Iteration    1 A*A^-1 deviation from unit magnitude is 2.89D-15 for    553.
 Iteration    1 A*A^-1 deviation from orthogonality  is 1.67D-15 for   1673    833.
 Iteration    1 A^-1*A deviation from unit magnitude is 2.78D-15 for   1271.
 Iteration    1 A^-1*A deviation from orthogonality  is 1.91D-15 for    623    436.
 Error on total polarization charges =  0.00511
 SCF Done:  E(RB3LYP) =  -720.145552473     A.U. after   12 cycles
            NFock= 12  Conv=0.36D-08     -V/T= 2.0091
 QCSCF skips out because SCF is already converged.
 D1PCM: PCM CHGder 1st derivatives, ID1Alg=3 FixD1E=F DoIter=F DoCFld=F I1PDM=0.
 Calling FoFJK, ICntrl=      2127 FMM=F ISym2X=0 I1Cent= 0 IOpClX= 0 NMat=1 NMatS=1 NMatT=0.
 ***** Axes restored to original set *****
 -------------------------------------------------------------------
 Center     Atomic                   Forces (Hartrees/Bohr)
 Number     Number              X              Y              Z
 -------------------------------------------------------------------
      1        8           0.000275685   -0.000791038    0.000406370
      2        6          -0.000640332    0.000422113   -0.000095770
      3        6           0.000430561    0.001380540   -0.000727840
      4        6           0.000085308    0.000069679   -0.000716210
      5        6           0.000525778   -0.000742009    0.003437638
      6        7          -0.000523790    0.000496497   -0.001836484
      7        6          -0.000055506   -0.000331220   -0.001497031
      8        6           0.000365843   -0.000397356   -0.000022630
      9        8           0.000023730   -0.000277423    0.000270822
     10        8          -0.000062710   -0.000037176   -0.000497266
     11        6           0.000067470    0.000455943   -0.000284317
     12        6          -0.000917107   -0.002119549    0.002736255
     13        7           0.001037877    0.000647864   -0.001863748
     14        8           0.000270920   -0.000104339   -0.000141080
     15        1           0.000028912    0.000063591   -0.000217238
     16        1           0.000163508   -0.000066283    0.000673420
     17        1          -0.000432474    0.000642251    0.000200569
     18        1          -0.000583867    0.000342640    0.000025050
     19        1          -0.000035282    0.000238023   -0.000172174
     20        1           0.000272830   -0.000016069    0.000019550
     21        1          -0.000331778   -0.000423771    0.000348221
     22        1           0.000034424    0.000547092   -0.000046107
 -------------------------------------------------------------------
 Cartesian Forces:  Max     0.003437638 RMS     0.000824786

 GradGradGradGradGradGradGradGradGradGradGradGradGradGradGradGradGradGrad
 Berny optimization.
 Using GEDIIS/GDIIS optimizer.
 FormGI is forming the generalized inverse of G from B-inverse, IUseBI=4.
 Internal  Forces:  Max     0.001274275 RMS     0.000443442
 Search for a local minimum.
 Step number   2 out of a maximum of  108
 All quantities printed in internal units (Hartrees-Bohrs-Radians)
 Mixed Optimization -- En-DIIS/RFO-DIIS
 Update second derivatives using D2CorX and points    1    2
 DE= -5.32D-03 DEPred=-5.36D-03 R= 9.92D-01
 TightC=F SS=  1.41D+00  RLast= 3.95D-01 DXNew= 5.0454D-01 1.1854D+00
 Trust test= 9.92D-01 RLast= 3.95D-01 DXMaxT set to 5.05D-01
 ITU=  1  0
 Use linear search instead of GDIIS.
     Eigenvalues ---    0.00055   0.00384   0.00535   0.00743   0.01151
     Eigenvalues ---    0.01380   0.01651   0.01865   0.01925   0.01937
     Eigenvalues ---    0.01955   0.02050   0.02171   0.02306   0.02380
     Eigenvalues ---    0.02918   0.03035   0.06717   0.06737   0.11574
     Eigenvalues ---    0.11924   0.12871   0.13319   0.15480   0.15682
     Eigenvalues ---    0.16101   0.17083   0.18709   0.18883   0.19492
     Eigenvalues ---    0.19704   0.20703   0.21400   0.22827   0.24258
     Eigenvalues ---    0.25330   0.28254   0.32409   0.34882   0.35314
     Eigenvalues ---    0.36379   0.37208   0.38901   0.40427   0.41278
     Eigenvalues ---    0.41706   0.42390   0.43962   0.44134   0.45450
     Eigenvalues ---    0.45663   0.45813   0.45986   0.48338   0.49000
     Eigenvalues ---    0.50413   0.63825   0.82741   0.85024   0.87795
 RFO step:  Lambda=-8.62871290D-04 EMin= 5.53368494D-04
 Quartic linear search produced a step of  0.16084.
 Iteration  1 RMS(Cart)=  0.08230338 RMS(Int)=  0.01358386
 Iteration  2 RMS(Cart)=  0.02204781 RMS(Int)=  0.00059068
 Iteration  3 RMS(Cart)=  0.00073960 RMS(Int)=  0.00022709
 Iteration  4 RMS(Cart)=  0.00000081 RMS(Int)=  0.00022709
 Variable       Old X    -DE/DX   Delta X   Delta X   Delta X     New X
                                 (Linear)    (Quad)   (Total)
    R1        2.31727   0.00044   0.00222  -0.00135   0.00088   2.31814
    R2        2.79580  -0.00001  -0.00255   0.00161  -0.00093   2.79487
    R3        2.55167   0.00027   0.00125  -0.00085   0.00040   2.55207
    R4        2.64688   0.00003  -0.00179   0.00051  -0.00129   2.64559
    R5        2.68899   0.00085   0.00476  -0.00172   0.00301   2.69200
    R6        2.64815   0.00018  -0.00028   0.00321   0.00296   2.65111
    R7        2.04843  -0.00004  -0.00125   0.00139   0.00014   2.04856
    R8        2.62854   0.00088  -0.00478  -0.00279  -0.00756   2.62098
    R9        2.68947   0.00127   0.00492   0.00012   0.00508   2.69455
   R10        1.91150   0.00005  -0.00101  -0.00040  -0.00141   1.91009
   R11        1.90858   0.00026  -0.00440   0.00334  -0.00106   1.90752
   R12        2.80958   0.00041  -0.00015  -0.00081  -0.00097   2.80862
   R13        2.64619   0.00012  -0.00201   0.00616   0.00415   2.65035
   R14        2.56137   0.00048   0.00212  -0.00389  -0.00177   2.55960
   R15        2.30419   0.00020   0.00029   0.00290   0.00319   2.30737
   R16        1.83799   0.00034  -0.00277   0.00367   0.00090   1.83889
   R17        2.64454   0.00019  -0.00039  -0.00185  -0.00227   2.64227
   R18        2.04990  -0.00012  -0.00142   0.00112  -0.00030   2.04960
   R19        2.61791   0.00092  -0.00609   0.00365  -0.00244   2.61547
   R20        1.91339   0.00024  -0.00387   0.00410   0.00023   1.91362
   R21        1.91064   0.00008  -0.00113   0.00013  -0.00100   1.90964
   R22        1.83764   0.00013  -0.00238   0.00286   0.00049   1.83813
    A1        2.18926  -0.00026  -0.00203   0.00226   0.00023   2.18948
    A2        2.11002   0.00013   0.00034  -0.00228  -0.00194   2.10807
    A3        1.98391   0.00013   0.00169   0.00002   0.00171   1.98562
    A4        2.08395   0.00003  -0.00138   0.00349   0.00215   2.08610
    A5        2.10339   0.00001   0.00136  -0.00037   0.00103   2.10442
    A6        2.09553  -0.00004   0.00003  -0.00315  -0.00320   2.09233
    A7        2.14932   0.00039   0.00441   0.00052   0.00492   2.15424
    A8        2.06630  -0.00022  -0.00327   0.00138  -0.00189   2.06441
    A9        2.06755  -0.00017  -0.00113  -0.00190  -0.00303   2.06452
   A10        2.07437  -0.00016   0.00287  -0.01111  -0.00880   2.06557
   A11        2.03714  -0.00031  -0.00427   0.00410  -0.00067   2.03647
   A12        2.16742   0.00055   0.00342   0.00957   0.01248   2.17990
   A13        1.99184  -0.00009  -0.00193   0.00990   0.00730   1.99914
   A14        2.00575   0.00118   0.00882   0.01320   0.02136   2.02711
   A15        1.96612  -0.00032   0.00064   0.02154   0.02127   1.98739
   A16        2.18482   0.00021   0.00327   0.01181   0.01502   2.19985
   A17        2.09551  -0.00016   0.00020  -0.00640  -0.00625   2.08926
   A18        2.00286  -0.00005  -0.00347  -0.00540  -0.00893   1.99393
   A19        1.99982  -0.00035   0.00141   0.00896   0.01027   2.01009
   A20        2.17288   0.00027  -0.00299   0.00036  -0.00272   2.17015
   A21        2.11040   0.00008   0.00176  -0.00914  -0.00748   2.10293
   A22        1.86352   0.00107   0.01100  -0.00908   0.00192   1.86544
   A23        2.15038   0.00038   0.00433   0.00216   0.00641   2.15680
   A24        2.05138  -0.00027  -0.00457  -0.00195  -0.00649   2.04489
   A25        2.08143  -0.00011   0.00025  -0.00021   0.00007   2.08149
   A26        2.03786  -0.00024  -0.00403   0.00396  -0.00064   2.03722
   A27        2.14614   0.00005   0.00054   0.00157   0.00171   2.14785
   A28        2.09547   0.00027   0.00557  -0.00383   0.00135   2.09682
   A29        1.99178   0.00031   0.00240   0.00923   0.01122   2.00300
   A30        2.00748  -0.00004  -0.00065   0.00942   0.00837   2.01585
   A31        1.99104   0.00014   0.00448   0.01434   0.01827   2.00930
   A32        1.85889   0.00073   0.00722  -0.00616   0.00106   1.85994
    D1       -2.96486  -0.00063  -0.01196  -0.08577  -0.09775  -3.06262
    D2        0.15005  -0.00058  -0.01146  -0.08737  -0.09880   0.05124
    D3        0.17275  -0.00061  -0.01166  -0.08645  -0.09814   0.07461
    D4       -2.99553  -0.00057  -0.01116  -0.08805  -0.09919  -3.09472
    D5        0.00339   0.00033   0.00539  -0.00060   0.00479   0.00817
    D6       -3.13443   0.00031   0.00511   0.00003   0.00515  -3.12928
    D7        3.10417  -0.00002  -0.00038   0.00525   0.00485   3.10901
    D8       -0.03404   0.00008   0.00173   0.00511   0.00676  -0.02727
    D9       -0.01086  -0.00007  -0.00090   0.00680   0.00582  -0.00504
   D10        3.13412   0.00003   0.00120   0.00666   0.00774  -3.14133
   D11       -3.13449   0.00049   0.00797   0.02364   0.03144  -3.10305
   D12        0.09969  -0.00053  -0.00918   0.00274  -0.00631   0.09338
   D13       -0.01976   0.00053   0.00846   0.02213   0.03047   0.01071
   D14       -3.06877  -0.00049  -0.00869   0.00123  -0.00728  -3.07605
   D15        3.07602   0.00040   0.00802   0.00465   0.01229   3.08831
   D16        0.02924  -0.00050  -0.00733  -0.02438  -0.03161  -0.00238
   D17       -0.06897   0.00030   0.00592   0.00479   0.01038  -0.05859
   D18       -3.11575  -0.00060  -0.00943  -0.02424  -0.03353   3.13391
   D19        0.49767  -0.00116  -0.01858  -0.07258  -0.09161   0.40606
   D20        2.80721  -0.00052  -0.01087  -0.01626  -0.02702   2.78019
   D21       -2.74632  -0.00025  -0.00290  -0.04167  -0.04468  -2.79100
   D22       -0.43679   0.00040   0.00481   0.01465   0.01991  -0.41688
   D23        3.12403   0.00055   0.00654   0.03457   0.04117  -3.11798
   D24       -0.01702   0.00058   0.00787   0.01294   0.02074   0.00372
   D25        0.08284  -0.00036  -0.00958   0.00509  -0.00460   0.07825
   D26       -3.05821  -0.00032  -0.00825  -0.01654  -0.02503  -3.08324
   D27        0.20559  -0.00038  -0.01561  -0.25788  -0.27354  -0.06795
   D28       -2.95050  -0.00041  -0.00945  -0.24336  -0.25289   3.07980
   D29       -2.93652  -0.00042  -0.01689  -0.23727  -0.25408   3.09259
   D30        0.19058  -0.00044  -0.01073  -0.22275  -0.23343  -0.04284
   D31       -0.01378  -0.00012  -0.00030   0.01661   0.01623   0.00244
   D32        3.12824   0.00007   0.00165   0.01122   0.01283   3.14107
   D33        3.12829  -0.00009   0.00092  -0.00286  -0.00190   3.12640
   D34       -0.01287   0.00010   0.00288  -0.00825  -0.00530  -0.01816
   D35        3.14154  -0.00000   0.00326  -0.02293  -0.01965   3.12189
   D36        0.01387   0.00002  -0.00250  -0.03695  -0.03947  -0.02560
   D37        0.03209  -0.00045  -0.00792  -0.03389  -0.04174  -0.00965
   D38        3.08394   0.00053   0.00816  -0.01334  -0.00513   3.07881
   D39       -3.10994  -0.00064  -0.00988  -0.02841  -0.03827   3.13497
   D40       -0.05809   0.00034   0.00621  -0.00786  -0.00166  -0.05975
   D41       -0.39223   0.00052   0.00773   0.02211   0.03015  -0.36208
   D42       -2.74163   0.00001  -0.00091  -0.02052  -0.02146  -2.76308
   D43        2.84489  -0.00050  -0.00891   0.00014  -0.00874   2.83615
   D44        0.49549  -0.00102  -0.01755  -0.04249  -0.06035   0.43514
         Item               Value     Threshold  Converged?
 Maximum Force            0.001274     0.000450     NO 
 RMS     Force            0.000443     0.000300     NO 
 Maximum Displacement     0.598853     0.001800     NO 
 RMS     Displacement     0.098625     0.001200     NO 
 Predicted change in Energy=-6.882694D-04
 GradGradGradGradGradGradGradGradGradGradGradGradGradGradGradGradGradGrad

                          Input orientation:                          
 ---------------------------------------------------------------------
 Center     Atomic      Atomic             Coordinates (Angstroms)
 Number     Number       Type             X           Y           Z
 ---------------------------------------------------------------------
      1          8           0        3.762803   -0.001312    0.222178
      2          6           0        2.767145    0.622618    0.574582
      3          6           0        1.367450    0.225242    0.309369
      4          6           0        0.324454    1.079620    0.686417
[...]
 Traceless Quadrupole moment (field-independent basis, Debye-Ang):
   XX=             -5.2149   YY=             12.0036   ZZ=             -6.7887
   XY=             10.8530   XZ=             -1.0455   YZ=             -0.2200
 Octapole moment (field-independent basis, Debye-Ang**2):
  XXX=            -42.9713  YYY=            -10.8779  ZZZ=              2.5182  XYY=             22.5390
  XXY=            -72.6708  XXZ=              8.8276  XZZ=             -0.2900  YZZ=             -0.4812
  YYZ=             16.1459  XYZ=              7.3002
 Hexadecapole moment (field-independent basis, Debye-Ang**3):
 XXXX=          -2317.4750 YYYY=           -712.9531 ZZZZ=            -76.1103 XXXY=            -18.7978
 XXXZ=            -21.9055 YYYX=            117.3763 YYYZ=              0.6505 ZZZX=             -0.4238
 ZZZY=             -0.2528 XXYY=           -601.3509 XXZZ=           -462.3414 YYZZ=           -180.9912
 XXYZ=             -4.9815 YYXZ=              0.0892 ZZXY=             -4.4066
 N-N= 8.723566138455D+02 E-N=-3.428617936393D+03  KE= 7.137346277794D+02
 Evaluate density.
 Using the total density.
 Monte-Carlo method of calculating molar volume:
 based on  0.001 e/bohr**3 density envelope.
 Number of points per bohr**3 =   20 CutOff= 1.00D-04
 Using the CI density.
 There are       367 points.  Will hold       367 in memory.
 LenV=   805150400 MDV=   805306368.
 Box volume = 6203.226 fraction occupied=0.237
 Integrated density= 1.0388217900768245D+02 error= 1.8821790076824527D+00
 Molar volume = 1470.520 bohr**3/mol (131.228 cm**3/mol)
 Recommended a0 for SCRF calculation =  4.61 angstrom (  8.71 bohr)
 ******************************Gaussian NBO Version 3.1******************************
             N A T U R A L   A T O M I C   O R B I T A L   A N D
          N A T U R A L   B O N D   O R B I T A L   A N A L Y S I S
 ******************************Gaussian NBO Version 3.1******************************
       /RESON  / : Allow strongly delocalized NBO set

 Analyzing the CI density

 Job title: WIOZZYWDYUOMAY-UHFFFAOYSA-N_conf_4                              

 Storage needed:    189224 in NPA ( 805303772 available)


 NATURAL POPULATIONS:  Natural atomic orbital occupancies 
                                                          
   NAO  Atom  No  lang   Type(AO)    Occupancy
 --------------------------------------------
     1    O    1  S      Cor( 1S)     1.99978
     2    O    1  S      Val( 2S)     1.69996
     3    O    1  S      Ryd( 3S)     0.00055
     4    O    1  S      Ryd( 4S)     0.00016
     5    O    1  px     Val( 2p)     1.72759
     6    O    1  px     Ryd( 3p)     0.00082
     7    O    1  py     Val( 2p)     1.70075
     8    O    1  py     Ryd( 3p)     0.00125
     9    O    1  pz     Val( 2p)     1.55661
    10    O    1  pz     Ryd( 3p)     0.00127
    11    O    1  dxy    Ryd( 3d)     0.00425
    12    O    1  dxz    Ryd( 3d)     0.00220
    13    O    1  dyz    Ryd( 3d)     0.00217
    14    O    1  dx2y2  Ryd( 3d)     0.00404
    15    O    1  dz2    Ryd( 3d)     0.00128

    16    C    2  S      Cor( 1S)     1.99936
    17    C    2  S      Val( 2S)     0.76034
    18    C    2  S      Ryd( 3S)     0.00399
    19    C    2  S      Ryd( 4S)     0.00044
    20    C    2  px     Val( 2p)     0.88903
    21    C    2  px     Ryd( 3p)     0.01066
    22    C    2  py     Val( 2p)     0.69087
    23    C    2  py     Ryd( 3p)     0.01666
    24    C    2  pz     Val( 2p)     0.86863
    25    C    2  pz     Ryd( 3p)     0.00181
    26    C    2  dxy    Ryd( 3d)     0.00196
    27    C    2  dxz    Ryd( 3d)     0.00148
    28    C    2  dyz    Ryd( 3d)     0.00240
    29    C    2  dx2y2  Ryd( 3d)     0.00360
    30    C    2  dz2    Ryd( 3d)     0.00045

    31    C    3  S      Cor( 1S)     1.99887
    32    C    3  S      Val( 2S)     0.89671
    33    C    3  S      Ryd( 3S)     0.00080
    34    C    3  S      Ryd( 4S)     0.00005
    35    C    3  px     Val( 2p)     1.09904
    36    C    3  px     Ryd( 3p)     0.00492
    37    C    3  py     Val( 2p)     1.08491
    38    C    3  py     Ryd( 3p)     0.00566
    39    C    3  pz     Val( 2p)     1.11400
    40    C    3  pz     Ryd( 3p)     0.00182
    41    C    3  dxy    Ryd( 3d)     0.00059
    42    C    3  dxz    Ryd( 3d)     0.00074
    43    C    3  dyz    Ryd( 3d)     0.00051
    44    C    3  dx2y2  Ryd( 3d)     0.00081
    45    C    3  dz2    Ryd( 3d)     0.00036

    46    C    4  S      Cor( 1S)     1.99906
    47    C    4  S      Val( 2S)     0.94637
    48    C    4  S      Ryd( 3S)     0.00076
    49    C    4  S      Ryd( 4S)     0.00006
    50    C    4  px     Val( 2p)     1.06935
    51    C    4  px     Ryd( 3p)     0.00407
    52    C    4  py     Val( 2p)     1.18821
    53    C    4  py     Ryd( 3p)     0.00454
    54    C    4  pz     Val( 2p)     1.02999
    55    C    4  pz     Ryd( 3p)     0.00298
    56    C    4  dxy    Ryd( 3d)     0.00058
    57    C    4  dxz    Ryd( 3d)     0.00053
    58    C    4  dyz    Ryd( 3d)     0.00037
    59    C    4  dx2y2  Ryd( 3d)     0.00066
    60    C    4  dz2    Ryd( 3d)     0.00039

    61    C    5  S      Cor( 1S)     1.99895
    62    C    5  S      Val( 2S)     0.83976
    63    C    5  S      Ryd( 3S)     0.00113
    64    C    5  S      Ryd( 4S)     0.00012
    65    C    5  px     Val( 2p)     1.03586
    66    C    5  px     Ryd( 3p)     0.00534
    67    C    5  py     Val( 2p)     0.96108
    68    C    5  py     Ryd( 3p)     0.00545
    69    C    5  pz     Val( 2p)     0.93913
    70    C    5  pz     Ryd( 3p)     0.00133
    71    C    5  dxy    Ryd( 3d)     0.00112
    72    C    5  dxz    Ryd( 3d)     0.00113
    73    C    5  dyz    Ryd( 3d)     0.00129
    74    C    5  dx2y2  Ryd( 3d)     0.00095
    75    C    5  dz2    Ryd( 3d)     0.00039

    76    N    6  S      Cor( 1S)     1.99947
    77    N    6  S      Val( 2S)     1.35809
    78    N    6  S      Ryd( 3S)     0.00015
    79    N    6  S      Ryd( 4S)     0.00001
    80    N    6  px     Val( 2p)     1.42098
    81    N    6  px     Ryd( 3p)     0.00183
    82    N    6  py     Val( 2p)     1.34261
    83    N    6  py     Ryd( 3p)     0.00213
    84    N    6  pz     Val( 2p)     1.59192
    85    N    6  pz     Ryd( 3p)     0.00312
    86    N    6  dxy    Ryd( 3d)     0.00049
    87    N    6  dxz    Ryd( 3d)     0.00077
    88    N    6  dyz    Ryd( 3d)     0.00073
    89    N    6  dx2y2  Ryd( 3d)     0.00038
    90    N    6  dz2    Ryd( 3d)     0.00061

    91    C    7  S      Cor( 1S)     1.99886
    92    C    7  S      Val( 2S)     0.90087
    93    C    7  S      Ryd( 3S)     0.00109
    94    C    7  S      Ryd( 4S)     0.00005
    95    C    7  px     Val( 2p)     1.09875
    96    C    7  px     Ryd( 3p)     0.00515
    97    C    7  py     Val( 2p)     1.08375
    98    C    7  py     Ryd( 3p)     0.00546
    99    C    7  pz     Val( 2p)     1.11743
   100    C    7  pz     Ryd( 3p)     0.00194
   101    C    7  dxy    Ryd( 3d)     0.00060
   102    C    7  dxz    Ryd( 3d)     0.00072
   103    C    7  dyz    Ryd( 3d)     0.00052
   104    C    7  dx2y2  Ryd( 3d)     0.00081
   105    C    7  dz2    Ryd( 3d)     0.00036

   106    C    8  S      Cor( 1S)     1.99938
   107    C    8  S      Val( 2S)     0.75992
   108    C    8  S      Ryd( 3S)     0.00423
   109    C    8  S      Ryd( 4S)     0.00044
   110    C    8  px     Val( 2p)     0.87639
   111    C    8  px     Ryd( 3p)     0.00721
   112    C    8  py     Val( 2p)     0.70236
   113    C    8  py     Ryd( 3p)     0.02113
   114    C    8  pz     Val( 2p)     0.86656
   115    C    8  pz     Ryd( 3p)     0.00165
   116    C    8  dxy    Ryd( 3d)     0.00320
   117    C    8  dxz    Ryd( 3d)     0.00141
   118    C    8  dyz    Ryd( 3d)     0.00240
   119    C    8  dx2y2  Ryd( 3d)     0.00238
   120    C    8  dz2    Ryd( 3d)     0.00045

   121    O    9  S      Cor( 1S)     1.99977
   122    O    9  S      Val( 2S)     1.68030
   123    O    9  S      Ryd( 3S)     0.00098
   124    O    9  S      Ryd( 4S)     0.00011
   125    O    9  px     Val( 2p)     1.49938
   126    O    9  px     Ryd( 3p)     0.00133
   127    O    9  py     Val( 2p)     1.71761
   128    O    9  py     Ryd( 3p)     0.00156
   129    O    9  pz     Val( 2p)     1.84516
   130    O    9  pz     Ryd( 3p)     0.00083
   131    O    9  dxy    Ryd( 3d)     0.00122
   132    O    9  dxz    Ryd( 3d)     0.00014
   133    O    9  dyz    Ryd( 3d)     0.00179
   134    O    9  dx2y2  Ryd( 3d)     0.00109
   135    O    9  dz2    Ryd( 3d)     0.00064

   136    O   10  S      Cor( 1S)     1.99979
   137    O   10  S      Val( 2S)     1.69943
   138    O   10  S      Ryd( 3S)     0.00043
   139    O   10  S      Ryd( 4S)     0.00013
   140    O   10  px     Val( 2p)     1.80000
   141    O   10  px     Ryd( 3p)     0.00123
   142    O   10  py     Val( 2p)     1.62889
   143    O   10  py     Ryd( 3p)     0.00069
   144    O   10  pz     Val( 2p)     1.53649
   145    O   10  pz     Ryd( 3p)     0.00146
   146    O   10  dxy    Ryd( 3d)     0.00433
   147    O   10  dxz    Ryd( 3d)     0.00071
   148    O   10  dyz    Ryd( 3d)     0.00379
   149    O   10  dx2y2  Ryd( 3d)     0.00450
   150    O   10  dz2    Ryd( 3d)     0.00134

   151    C   11  S      Cor( 1S)     1.99906
   152    C   11  S      Val( 2S)     0.94669
   153    C   11  S      Ryd( 3S)     0.00080
   154    C   11  S      Ryd( 4S)     0.00006
   155    C   11  px     Val( 2p)     1.06834
   156    C   11  px     Ryd( 3p)     0.00443
   157    C   11  py     Val( 2p)     1.18815
   158    C   11  py     Ryd( 3p)     0.00470
   159    C   11  pz     Val( 2p)     1.02608
   160    C   11  pz     Ryd( 3p)     0.00318
   161    C   11  dxy    Ryd( 3d)     0.00058
   162    C   11  dxz    Ryd( 3d)     0.00054
   163    C   11  dyz    Ryd( 3d)     0.00038
   164    C   11  dx2y2  Ryd( 3d)     0.00067
   165    C   11  dz2    Ryd( 3d)     0.00039

   166    C   12  S      Cor( 1S)     1.99895
   167    C   12  S      Val( 2S)     0.83774
   168    C   12  S      Ryd( 3S)     0.00115
   169    C   12  S      Ryd( 4S)     0.00012
   170    C   12  px     Val( 2p)     1.03550
   171    C   12  px     Ryd( 3p)     0.00555
   172    C   12  py     Val( 2p)     0.96185
   173    C   12  py     Ryd( 3p)     0.00576
   174    C   12  pz     Val( 2p)     0.93867
   175    C   12  pz     Ryd( 3p)     0.00128
   176    C   12  dxy    Ryd( 3d)     0.00112
   177    C   12  dxz    Ryd( 3d)     0.00117
   178    C   12  dyz    Ryd( 3d)     0.00126
   179    C   12  dx2y2  Ryd( 3d)     0.00095
   180    C   12  dz2    Ryd( 3d)     0.00038

   181    N   13  S      Cor( 1S)     1.99946
   182    N   13  S      Val( 2S)     1.35401
   183    N   13  S      Ryd( 3S)     0.00015
   184    N   13  S      Ryd( 4S)     0.00001
   185    N   13  px     Val( 2p)     1.42523
   186    N   13  px     Ryd( 3p)     0.00170
   187    N   13  py     Val( 2p)     1.34900
   188    N   13  py     Ryd( 3p)     0.00219
   189    N   13  pz     Val( 2p)     1.58083
   190    N   13  pz     Ryd( 3p)     0.00317
   191    N   13  dxy    Ryd( 3d)     0.00049
   192    N   13  dxz    Ryd( 3d)     0.00067
   193    N   13  dyz    Ryd( 3d)     0.00073
   194    N   13  dx2y2  Ryd( 3d)     0.00040
   195    N   13  dz2    Ryd( 3d)     0.00057

   196    O   14  S      Cor( 1S)     1.99978
   197    O   14  S      Val( 2S)     1.68007
   198    O   14  S      Ryd( 3S)     0.00082
   199    O   14  S      Ryd( 4S)     0.00008
   200    O   14  px     Val( 2p)     1.57942
   201    O   14  px     Ryd( 3p)     0.00087
   202    O   14  py     Val( 2p)     1.62771
   203    O   14  py     Ryd( 3p)     0.00171
   204    O   14  pz     Val( 2p)     1.83677
   205    O   14  pz     Ryd( 3p)     0.00109
   206    O   14  dxy    Ryd( 3d)     0.00126
   207    O   14  dxz    Ryd( 3d)     0.00046
   208    O   14  dyz    Ryd( 3d)     0.00168
   209    O   14  dx2y2  Ryd( 3d)     0.00131
   210    O   14  dz2    Ryd( 3d)     0.00070

   211    H   15  S      Val( 1S)     0.73603
   212    H   15  S      Ryd( 2S)     0.00130
   213    H   15  px     Ryd( 2p)     0.00016
   214    H   15  py     Ryd( 2p)     0.00033
   215    H   15  pz     Ryd( 2p)     0.00013

   216    H   16  S      Val( 1S)     0.56663
   217    H   16  S      Ryd( 2S)     0.00105
   218    H   16  px     Ryd( 2p)     0.00026
   219    H   16  py     Ryd( 2p)     0.00049
   220    H   16  pz     Ryd( 2p)     0.00045

   221    H   17  S      Val( 1S)     0.55114
   222    H   17  S      Ryd( 2S)     0.00159
   223    H   17  px     Ryd( 2p)     0.00061
   224    H   17  py     Ryd( 2p)     0.00020
   225    H   17  pz     Ryd( 2p)     0.00042

   226    H   18  S      Val( 1S)     0.47291
   227    H   18  S      Ryd( 2S)     0.00318
   228    H   18  px     Ryd( 2p)     0.00100
   229    H   18  py     Ryd( 2p)     0.00065
   230    H   18  pz     Ryd( 2p)     0.00078

   231    H   19  S      Val( 1S)     0.73527
   232    H   19  S      Ryd( 2S)     0.00210
   233    H   19  px     Ryd( 2p)     0.00017
   234    H   19  py     Ryd( 2p)     0.00032
   235    H   19  pz     Ryd( 2p)     0.00012

   236    H   20  S      Val( 1S)     0.54876
   237    H   20  S      Ryd( 2S)     0.00302
   238    H   20  px     Ryd( 2p)     0.00063
   239    H   20  py     Ryd( 2p)     0.00022
   240    H   20  pz     Ryd( 2p)     0.00038

   241    H   21  S      Val( 1S)     0.56666
   242    H   21  S      Ryd( 2S)     0.00109
   243    H   21  px     Ryd( 2p)     0.00024
   244    H   21  py     Ryd( 2p)     0.00049
   245    H   21  pz     Ryd( 2p)     0.00045

   246    H   22  S      Val( 1S)     0.47851
   247    H   22  S      Ryd( 2S)     0.00293
   248    H   22  px     Ryd( 2p)     0.00114
   249    H   22  py     Ryd( 2p)     0.00055
   250    H   22  pz     Ryd( 2p)     0.00081

 WARNING:  1 low occupancy (<1.9990e) core orbital  found on  C    3
           1 low occupancy (<1.9990e) core orbital  found on  C    5
           1 low occupancy (<1.9990e) core orbital  found on  C    7
           1 low occupancy (<1.9990e) core orbital  found on  C   12


 Summary of Natural Population Analysis:                  
                                                          
                                       Natural Population 
                Natural  -----------------------------------------------
    Atom  No    Charge         Core      Valence    Rydberg      Total
 -----------------------------------------------------------------------
      O    1   -0.70269      1.99978     6.68491    0.01800     8.70269
      C    2    0.74830      1.99936     3.20888    0.04346     5.25170
      C    3   -0.20981      1.99887     4.19467    0.01627     6.20981
      C    4   -0.24791      1.99906     4.23392    0.01493     6.24791
      C    5    0.20697      1.99895     3.77583    0.01825     5.79303
      N    6   -0.72328      1.99947     5.71359    0.01022     7.72328
      C    7   -0.21637      1.99886     4.20081    0.01670     6.21637
      C    8    0.75089      1.99938     3.20523    0.04450     5.24911
      O    9   -0.75190      1.99977     6.74244    0.00969     8.75190
      O   10   -0.68319      1.99979     6.66481    0.01859     8.68319
      C   11   -0.24405      1.99906     4.22926    0.01572     6.24405
      C   12    0.20854      1.99895     3.77377    0.01874     5.79146
      N   13   -0.71860      1.99946     5.70907    0.01007     7.71860
      O   14   -0.73372      1.99978     6.72397    0.00997     8.73372
      H   15    0.26205      0.00000     0.73603    0.00192     0.73795
      H   16    0.43113      0.00000     0.56663    0.00224     0.56887
      H   17    0.44603      0.00000     0.55114    0.00282     0.55397
      H   18    0.52147      0.00000     0.47291    0.00562     0.47853
      H   19    0.26201      0.00000     0.73527    0.00272     0.73799
      H   20    0.44699      0.00000     0.54876    0.00425     0.55301
      H   21    0.43107      0.00000     0.56666    0.00227     0.56893
      H   22    0.51607      0.00000     0.47851    0.00543     0.48393
 =======================================================================
   * Total *    0.00000     27.99052    73.71707    0.29241   102.00000

                                 Natural Population      
 --------------------------------------------------------
   Core                      27.99052 ( 99.9661% of  28)
   Valence                   73.71707 ( 99.6177% of  74)
   Natural Minimal Basis    101.70759 ( 99.7133% of 102)
   Natural Rydberg Basis      0.29241 (  0.2867% of 102)
 --------------------------------------------------------

    Atom  No          Natural Electron Configuration
 ----------------------------------------------------------------------------
      O    1      [core]2S( 1.70)2p( 4.98)3d( 0.01)
      C    2      [core]2S( 0.76)2p( 2.45)3p( 0.03)3d( 0.01)
      C    3      [core]2S( 0.90)2p( 3.30)3p( 0.01)
      C    4      [core]2S( 0.95)2p( 3.29)3p( 0.01)
      C    5      [core]2S( 0.84)2p( 2.94)3p( 0.01)
      N    6      [core]2S( 1.36)2p( 4.36)3p( 0.01)
      C    7      [core]2S( 0.90)2p( 3.30)3p( 0.01)
      C    8      [core]2S( 0.76)2p( 2.45)3p( 0.03)3d( 0.01)
      O    9      [core]2S( 1.68)2p( 5.06)
      O   10      [core]2S( 1.70)2p( 4.97)3d( 0.01)
      C   11      [core]2S( 0.95)2p( 3.28)3p( 0.01)
      C   12      [core]2S( 0.84)2p( 2.94)3p( 0.01)
      N   13      [core]2S( 1.35)2p( 4.36)3p( 0.01)
      O   14      [core]2S( 1.68)2p( 5.04)3d( 0.01)
      H   15            1S( 0.74)
      H   16            1S( 0.57)
      H   17            1S( 0.55)
      H   18            1S( 0.47)
      H   19            1S( 0.74)
      H   20            1S( 0.55)
      H   21            1S( 0.57)
      H   22            1S( 0.48)


 NBO analysis skipped by request.
 1\1\GINC-DRG2-W002\SP\RB3LYP TD-FC\6-31G(d,p)\C8H8N2O4\QDUEZ\19-Jul-20
 24\0\\# TD(NStates=10, Root=1) B3LYP/6-31G** SCRF=(Solvent=water) volu
 me pop=NPA density=current Geom=AllCheck Guess=Read\\WIOZZYWDYUOMAY-UH
 FFFAOYSA-N_conf_4\\0,1\O,0,3.762863916,0.000221224,0.2180137354\C,0,2.
 7668462765,0.6285350444,0.5626428171\C,0,1.3681972454,0.2228699019,0.3
 086058967\C,0,0.3228044212,1.0714172127,0.6952340461\C,0,-1.0287040802
 ,0.785903061,0.4578597121\N,0,-1.9938007297,1.6545999814,0.9494353853\
 C,0,-1.3139832282,-0.4316067515,-0.2271256418\C,0,-2.6703737012,-0.903
 3810411,-0.611680639\O,0,-3.6716470357,-0.0381700592,-0.3164263044\O,0
 ,-2.9044002332,-1.9690172588,-1.1572094728\C,0,-0.2686693426,-1.284569
 257,-0.6022508091\C,0,1.0801476279,-1.0068458894,-0.3512406557\N,0,2.0
 541556733,-1.9277516661,-0.6905354949\O,0,2.8820791237,1.7990897521,1.
 2267490709\H,0,0.5732240053,1.9970387343,1.2005049785\H,0,-1.667484210
 3,2.596924572,1.1149100409\H,0,-2.8980854494,1.6134617318,0.502871529\
 H,0,-4.4998941994,-0.4459814307,-0.6230322588\H,0,-0.5342759322,-2.202
 562223,-1.1151760954\H,0,2.9963986073,-1.5604611126,-0.7274210726\H,0,
 1.810746292,-2.5703397997,-1.4311854507\H,0,3.8338549534,1.9706252734,
 1.3276432791\\Version=ES64L-G16RevA.03\State=1-A\HF=-720.1460422\RMSD=
 3.840e-09\Dipole=-0.4951266,1.5855587,-0.0388007\Quadrupole=-0.3164414
 ,3.5125785,-3.1961371,-9.2630732,-3.6933133,3.8784522\PG=C01 [X(C8H8N2
 O4)]\\@


 THE UNDERLYING PHYSICAL LAWS NECESSARY FOR THE 
 MATHEMATICAL THEORY OF A LARGE PART OF PHYSICS AND THE
 WHOLE OF CHEMISTRY ARE THUS COMPLETELY KNOWN, AND THE
 DIFFICULTY IS ONLY THAT THE EXACT APPLICATION OF THESE
 LAWS LEADS TO EQUATIONS MUCH TOO COMPLICATED 
 TO BE SOLUBLE.

                                        -- P. A. M. DIRAC, 1929
 Job cpu time:       0 days  0 hours 30 minutes 32.3 seconds.
 Elapsed time:       0 days  0 hours 10 minutes 26.6 seconds.
 File lengths (MBytes):  RWF=    587 Int=      0 D2E=      0 Chk=     34 Scr=      1
 Normal termination of Gaussian 16 at Fri Jul 19 10:21:24 2024.
