 Entering Gaussian System, Link 0=g16
 Initial command:
 /opt/sw/arch/manual/gaussian/G16_A03/g16/l1.exe "/scratch/1381407/Gau-250500.inp" -scrdir="/scratch/1381407/"
 Entering Link 1 = /opt/sw/arch/manual/gaussian/G16_A03/g16/l1.exe PID=    250501.
  
 Copyright (c) 1988,1990,1992,1993,1995,1998,2003,2009,2016,
            Gaussian, Inc.  All Rights Reserved.
  
 This is part of the Gaussian(R) 16 program.  It is based on
 the Gaussian(R) 09 system (copyright 2009, Gaussian, Inc.),
 the Gaussian(R) 03 system (copyright 2003, Gaussian, Inc.),
 the Gaussian(R) 98 system (copyright 1998, Gaussian, Inc.),
 the Gaussian(R) 94 system (copyright 1995, Gaussian, Inc.),
 the Gaussian 92(TM) system (copyright 1992, Gaussian, Inc.),
 the Gaussian 90(TM) system (copyright 1990, Gaussian, Inc.),
 the Gaussian 88(TM) system (copyright 1988, Gaussian, Inc.),
 the Gaussian 86(TM) system (copyright 1986, Carnegie Mellon
 University), and the Gaussian 82(TM) system (copyright 1983,
 Carnegie Mellon University). Gaussian is a federally registered
 trademark of Gaussian, Inc.
  
 This software contains proprietary and confidential information,
 including trade secrets, belonging to Gaussian, Inc.
  
 This software is provided under written license and may be
 used, copied, transmitted, or stored only in accord with that
 written license.
  
 The following legend is applicable only to US Government
 contracts under FAR:
  
                    RESTRICTED RIGHTS LEGEND
  
 Use, reproduction and disclosure by the US Government is
 subject to restrictions as set forth in subparagraphs (a)
 and (c) of the Commercial Computer Software - Restricted
 Rights clause in FAR 52.227-19.
  
 Gaussian, Inc.
 340 Quinnipiac St., Bldg. 40, Wallingford CT 06492
  
  
 ---------------------------------------------------------------
 Warning -- This program may not be used in any manner that
 competes with the business of Gaussian, Inc. or will provide
 assistance to any competitor of Gaussian, Inc.  The licensee
 of this program is prohibited from giving any competitor of
 Gaussian, Inc. access to this program.  By using this program,
 the user acknowledges that Gaussian, Inc. is engaged in the
 business of creating and licensing software in the field of
 computational chemistry and represents and warrants to the
 licensee that it is not a competitor of Gaussian, Inc. and that
 it will not use this program in any manner prohibited above.
 ---------------------------------------------------------------
  

 Cite this work as:
 Gaussian 16, Revision A.03,
 M. J. Frisch, G. W. Trucks, H. B. Schlegel, G. E. Scuseria, 
 M. A. Robb, J. R. Cheeseman, G. Scalmani, V. Barone, 
 G. A. Petersson, H. Nakatsuji, X. Li, M. Caricato, A. V. Marenich, 
 J. Bloino, B. G. Janesko, R. Gomperts, B. Mennucci, H. P. Hratchian, 
 J. V. Ortiz, A. F. Izmaylov, J. L. Sonnenberg, D. Williams-Young, 
 F. Ding, F. Lipparini, F. Egidi, J. Goings, B. Peng, A. Petrone, 
 T. Henderson, D. Ranasinghe, V. G. Zakrzewski, J. Gao, N. Rega, 
 G. Zheng, W. Liang, M. Hada, M. Ehara, K. Toyota, R. Fukuda, 
 J. Hasegawa, M. Ishida, T. Nakajima, Y. Honda, O. Kitao, H. Nakai, 
 T. Vreven, K. Throssell, J. A. Montgomery, Jr., J. E. Peralta, 
 F. Ogliaro, M. J. Bearpark, J. J. Heyd, E. N. Brothers, K. N. Kudin, 
 V. N. Staroverov, T. A. Keith, R. Kobayashi, J. Normand, 
 K. Raghavachari, A. P. Rendell, J. C. Burant, S. S. Iyengar, 
 J. Tomasi, M. Cossi, J. M. Millam, M. Klene, C. Adamo, R. Cammi, 
 J. W. Ochterski, R. L. Martin, K. Morokuma, O. Farkas, 
 J. B. Foresman, and D. J. Fox, Gaussian, Inc., Wallingford CT, 2016.
 
 ******************************************
 Gaussian 16:  ES64L-G16RevA.03 25-Dec-2016
                19-Jul-2024 
 ******************************************
 %nprocshared=3
 Will use up to    3 processors via shared memory.
 %mem=6GB
 %Chk=WIOZZYWDYUOMAY-UHFFFAOYSA-N_conf_3_0.chk
 -------------------------------------------------------
 # opt=CalcFc B3LYP/6-31G** SCRF=(Solvent=water) scf=xqc
 -------------------------------------------------------
 1/10=4,18=20,19=15,26=3,38=1/1,3;
 2/9=110,12=2,17=6,18=5,40=1/2;
 3/5=1,6=6,7=101,11=2,25=1,30=1,70=2201,71=2,72=1,74=-5,140=1/1,2,3;
 4//1;
 5/5=2,8=3,13=1,38=5,53=1/2,8;
 8/6=4,10=90,11=11/1;
 11/6=1,8=1,9=11,15=111,16=1/1,2,10;
 10/6=1,13=1/2;
 6/7=2,8=2,9=2,10=2,28=1/1;
 7/10=1,18=20,25=1/1,2,3,16;
 1/10=4,18=20,19=15,26=3/3(2);
 2/9=110/2;
 99//99;
 2/9=110/2;
 3/5=1,6=6,7=101,11=2,25=1,30=1,70=2205,71=1,72=1,74=-5/1,2,3;
 4/5=5,16=3,69=1/1;
 5/5=2,8=3,13=1,38=5,53=1/2,8;
 7//1,2,3,16;
 1/18=20,19=15,26=3/3(-5);
 2/9=110/2;
 6/7=2,8=2,9=2,10=2,19=2,28=1/1;
 99/9=1/99;
 ----------------------------------
 WIOZZYWDYUOMAY-UHFFFAOYSA-N_conf_3
 ----------------------------------
 Symbolic Z-matrix:
 Charge =  0 Multiplicity = 1
 O                     2.80411   0.17744   2.41103 
 C                     2.61576  -0.03779   1.22663 
 C                     1.29681  -0.00058   0.54039 
 C                     0.16547  -0.0057    1.37719 
 C                    -1.13647   0.00264   0.85819 
 N                    -2.20402   0.13703   1.76328 
 C                    -1.29406   0.1148   -0.53476 
 C                    -2.61165   0.20858  -1.21822 
 O                    -3.65445  -0.1845   -0.45921 
 O                    -2.78664   0.5479   -2.3753 
 C                    -0.16229   0.13756  -1.3707 
 C                     1.13731   0.03233  -0.85646 
 N                     2.21223   0.20353  -1.7465 
 O                     3.64027  -0.40406   0.43022 
 H                     0.30606  -0.00466   2.4576 
 H                    -3.09996  -0.11766   1.33718 
 H                    -2.06032  -0.31148   2.66239 
 H                    -4.4197   -0.07442  -1.06418 
 H                    -0.30012   0.25148  -2.44544 
 H                     3.09388  -0.13453  -1.34961 
 H                     2.04928  -0.14707  -2.68498 
 H                     4.40849  -0.39083   1.04126 
 

 GradGradGradGradGradGradGradGradGradGradGradGradGradGradGradGradGradGrad
 Berny optimization.
 Initialization pass.
                           ----------------------------
                           !    Initial Parameters    !
                           ! (Angstroms and Degrees)  !
 --------------------------                            --------------------------
 ! Name  Definition              Value          Derivative Info.                !
 --------------------------------------------------------------------------------
 ! R1    R(1,2)                  1.2184         calculate D2E/DX2 analytically  !
 ! R2    R(2,3)                  1.4873         calculate D2E/DX2 analytically  !
 ! R3    R(2,14)                 1.3483         calculate D2E/DX2 analytically  !
 ! R4    R(3,4)                  1.4072         calculate D2E/DX2 analytically  !
 ! R5    R(3,12)                 1.4063         calculate D2E/DX2 analytically  !
 ! R6    R(4,5)                  1.4016         calculate D2E/DX2 analytically  !
 ! R7    R(4,15)                 1.0895         calculate D2E/DX2 analytically  !
 ! R8    R(5,6)                  1.406          calculate D2E/DX2 analytically  !
 ! R9    R(5,7)                  1.4063         calculate D2E/DX2 analytically  !
 ! R10   R(6,16)                 1.0243         calculate D2E/DX2 analytically  !
 ! R11   R(6,17)                 1.015          calculate D2E/DX2 analytically  !
 ! R12   R(7,8)                  1.4873         calculate D2E/DX2 analytically  !
 ! R13   R(7,11)                 1.4072         calculate D2E/DX2 analytically  !
 ! R14   R(8,9)                  1.3483         calculate D2E/DX2 analytically  !
 ! R15   R(8,10)                 1.2184         calculate D2E/DX2 analytically  !
 ! R16   R(9,18)                 0.9817         calculate D2E/DX2 analytically  !
 ! R17   R(11,12)                1.4016         calculate D2E/DX2 analytically  !
 ! R18   R(11,19)                1.0895         calculate D2E/DX2 analytically  !
 ! R19   R(12,13)                1.406          calculate D2E/DX2 analytically  !
 ! R20   R(13,20)                1.0243         calculate D2E/DX2 analytically  !
 ! R21   R(13,21)                1.015          calculate D2E/DX2 analytically  !
 ! R22   R(14,22)                0.9817         calculate D2E/DX2 analytically  !
 ! A1    A(1,2,3)              125.5345         calculate D2E/DX2 analytically  !
 ! A2    A(1,2,14)             120.3102         calculate D2E/DX2 analytically  !
 ! A3    A(3,2,14)             114.0853         calculate D2E/DX2 analytically  !
 ! A4    A(2,3,4)              116.0088         calculate D2E/DX2 analytically  !
 ! A5    A(2,3,12)             124.0195         calculate D2E/DX2 analytically  !
 ! A6    A(4,3,12)             119.9712         calculate D2E/DX2 analytically  !
 ! A7    A(3,4,5)              121.7746         calculate D2E/DX2 analytically  !
 ! A8    A(3,4,15)             119.0741         calculate D2E/DX2 analytically  !
 ! A9    A(5,4,15)             119.1475         calculate D2E/DX2 analytically  !
 ! A10   A(4,5,6)              117.8709         calculate D2E/DX2 analytically  !
 ! A11   A(4,5,7)              118.1214         calculate D2E/DX2 analytically  !
 ! A12   A(6,5,7)              123.0177         calculate D2E/DX2 analytically  !
 ! A13   A(5,6,16)             111.8752         calculate D2E/DX2 analytically  !
 ! A14   A(5,6,17)             114.866          calculate D2E/DX2 analytically  !
 ! A15   A(16,6,17)            112.4865         calculate D2E/DX2 analytically  !
 ! A16   A(5,7,8)              124.0195         calculate D2E/DX2 analytically  !
 ! A17   A(5,7,11)             119.9712         calculate D2E/DX2 analytically  !
 ! A18   A(8,7,11)             116.0088         calculate D2E/DX2 analytically  !
 ! A19   A(7,8,9)              114.0853         calculate D2E/DX2 analytically  !
 ! A20   A(7,8,10)             125.5345         calculate D2E/DX2 analytically  !
 ! A21   A(9,8,10)             120.3102         calculate D2E/DX2 analytically  !
 ! A22   A(8,9,18)             102.9025         calculate D2E/DX2 analytically  !
 ! A23   A(7,11,12)            121.7746         calculate D2E/DX2 analytically  !
 ! A24   A(7,11,19)            119.0741         calculate D2E/DX2 analytically  !
 ! A25   A(12,11,19)           119.1476         calculate D2E/DX2 analytically  !
 ! A26   A(3,12,11)            118.1214         calculate D2E/DX2 analytically  !
 ! A27   A(3,12,13)            123.0177         calculate D2E/DX2 analytically  !
 ! A28   A(11,12,13)           117.871          calculate D2E/DX2 analytically  !
 ! A29   A(12,13,20)           111.8753         calculate D2E/DX2 analytically  !
 ! A30   A(12,13,21)           114.8661         calculate D2E/DX2 analytically  !
 ! A31   A(20,13,21)           112.4866         calculate D2E/DX2 analytically  !
 ! A32   A(2,14,22)            102.9025         calculate D2E/DX2 analytically  !
 ! D1    D(1,2,3,4)            -14.524          calculate D2E/DX2 analytically  !
 ! D2    D(1,2,3,12)           165.7575         calculate D2E/DX2 analytically  !
 ! D3    D(14,2,3,4)           162.4227         calculate D2E/DX2 analytically  !
 ! D4    D(14,2,3,12)          -17.2959         calculate D2E/DX2 analytically  !
 ! D5    D(1,2,14,22)           -1.804          calculate D2E/DX2 analytically  !
 ! D6    D(3,2,14,22)         -178.926          calculate D2E/DX2 analytically  !
 ! D7    D(2,3,4,5)           -178.8334         calculate D2E/DX2 analytically  !
 ! D8    D(2,3,4,15)             1.8757         calculate D2E/DX2 analytically  !
 ! D9    D(12,3,4,5)             0.8973         calculate D2E/DX2 analytically  !
 ! D10   D(12,3,4,15)         -178.3936         calculate D2E/DX2 analytically  !
 ! D11   D(2,3,12,11)         -176.6588         calculate D2E/DX2 analytically  !
 ! D12   D(2,3,12,13)           -8.2967         calculate D2E/DX2 analytically  !
 ! D13   D(4,3,12,11)            3.6331         calculate D2E/DX2 analytically  !
 ! D14   D(4,3,12,13)          171.9953         calculate D2E/DX2 analytically  !
 ! D15   D(3,4,5,6)           -173.5177         calculate D2E/DX2 analytically  !
 ! D16   D(3,4,5,7)             -4.5489         calculate D2E/DX2 analytically  !
 ! D17   D(15,4,5,6)             5.7727         calculate D2E/DX2 analytically  !
 ! D18   D(15,4,5,7)           174.7416         calculate D2E/DX2 analytically  !
 ! D19   D(4,5,6,16)          -164.5998         calculate D2E/DX2 analytically  !
 ! D20   D(4,5,6,17)           -34.7833         calculate D2E/DX2 analytically  !
 ! D21   D(7,5,6,16)            27.0108         calculate D2E/DX2 analytically  !
 ! D22   D(7,5,6,17)           156.8273         calculate D2E/DX2 analytically  !
 ! D23   D(4,5,7,8)           -176.659          calculate D2E/DX2 analytically  !
 ! D24   D(4,5,7,11)             3.6331         calculate D2E/DX2 analytically  !
 ! D25   D(6,5,7,8)             -8.2969         calculate D2E/DX2 analytically  !
 ! D26   D(6,5,7,11)           171.9951         calculate D2E/DX2 analytically  !
 ! D27   D(5,7,8,9)            -17.2955         calculate D2E/DX2 analytically  !
 ! D28   D(5,7,8,10)           165.7577         calculate D2E/DX2 analytically  !
 ! D29   D(11,7,8,9)           162.423          calculate D2E/DX2 analytically  !
 ! D30   D(11,7,8,10)          -14.5238         calculate D2E/DX2 analytically  !
 ! D31   D(5,7,11,12)            0.8974         calculate D2E/DX2 analytically  !
 ! D32   D(5,7,11,19)         -178.3935         calculate D2E/DX2 analytically  !
 ! D33   D(8,7,11,12)         -178.8333         calculate D2E/DX2 analytically  !
 ! D34   D(8,7,11,19)            1.8759         calculate D2E/DX2 analytically  !
 ! D35   D(7,8,9,18)          -178.9262         calculate D2E/DX2 analytically  !
 ! D36   D(10,8,9,18)           -1.804          calculate D2E/DX2 analytically  !
 ! D37   D(7,11,12,3)           -4.5489         calculate D2E/DX2 analytically  !
 ! D38   D(7,11,12,13)        -173.5178         calculate D2E/DX2 analytically  !
 ! D39   D(19,11,12,3)         174.7414         calculate D2E/DX2 analytically  !
 ! D40   D(19,11,12,13)          5.7725         calculate D2E/DX2 analytically  !
 ! D41   D(3,12,13,20)          27.0106         calculate D2E/DX2 analytically  !
 ! D42   D(3,12,13,21)         156.8273         calculate D2E/DX2 analytically  !
 ! D43   D(11,12,13,20)       -164.5999         calculate D2E/DX2 analytically  !
 ! D44   D(11,12,13,21)        -34.7831         calculate D2E/DX2 analytically  !
 --------------------------------------------------------------------------------
 Trust Radius=3.00D-01 FncErr=1.00D-07 GrdErr=1.00D-06 EigMax=2.50D+02 EigMin=1.00D-04
 Number of steps in this run=    108 maximum allowed number of steps=    132.
 GradGradGradGradGradGradGradGradGradGradGradGradGradGradGradGradGradGrad

                          Input orientation:                          
 ---------------------------------------------------------------------
 Center     Atomic      Atomic             Coordinates (Angstroms)
 Number     Number       Type             X           Y           Z
 ---------------------------------------------------------------------
      1          8           0        2.804110    0.177436    2.411027
      2          6           0        2.615759   -0.037792    1.226632
      3          6           0        1.296810   -0.000583    0.540390
      4          6           0        0.165472   -0.005705    1.377194
      5          6           0       -1.136471    0.002639    0.858185
      6          7           0       -2.204024    0.137027    1.763276
      7          6           0       -1.294059    0.114799   -0.534765
      8          6           0       -2.611645    0.208581   -1.218219
      9          8           0       -3.654449   -0.184496   -0.459211
     10          8           0       -2.786637    0.547904   -2.375296
     11          6           0       -0.162295    0.137559   -1.370699
     12          6           0        1.137314    0.032326   -0.856464
     13          7           0        2.212230    0.203528   -1.746500
     14          8           0        3.640270   -0.404058    0.430220
     15          1           0        0.306064   -0.004661    2.457599
     16          1           0       -3.099959   -0.117665    1.337185
     17          1           0       -2.060323   -0.311478    2.662388
     18          1           0       -4.419700   -0.074417   -1.064176
     19          1           0       -0.300118    0.251478   -2.445440
     20          1           0        3.093885   -0.134530   -1.349609
     21          1           0        2.049277   -0.147066   -2.684979
     22          1           0        4.408490   -0.390826    1.041262
 ---------------------------------------------------------------------
                    Distance matrix (angstroms):
                    1          2          3          4          5
     1  O    0.000000
     2  C    1.218438   0.000000
     3  C    2.408926   1.487259   0.000000
     4  C    2.839853   2.455119   1.407194   0.000000
     5  C    4.239110   3.770494   2.453949   1.401604   0.000000
     6  N    5.050012   4.852717   3.710826   2.404982   1.406029
     7  C    5.047435   4.290977   2.807467   2.408389   1.406316
     8  C    6.519418   5.776137   4.290977   3.807160   2.555388
     9  O    7.076881   6.494544   5.054503   4.242186   2.847941
    10  O    7.369029   6.519419   5.047436   4.806518   3.670935
    11  C    4.806517   3.807160   2.408388   2.771078   2.436216
    12  C    3.670935   2.555388   1.406316   2.436216   2.847982
    13  N    4.199528   3.010081   2.471745   3.740383   4.247180
    14  O    2.227306   1.348349   2.380489   3.623488   4.813087
    15  H    2.505107   2.617455   2.158074   1.089514   2.153853
    16  H    6.008183   5.717346   4.469919   3.267595   2.024648
    17  H    4.895399   4.899188   3.983701   2.588317   2.051175
    18  H    8.020218   7.399110   5.937893   5.195075   3.805391
    19  H    5.764286   4.697886   3.395423   3.859462   3.416921
    20  H    3.784663   2.622019   2.611420   4.003455   4.773791
    21  H    5.161816   3.953927   3.315217   4.479950   4.767118
    22  H    2.184768   1.836539   3.175801   4.273684   5.561917
                    6          7          8          9         10
     6  N    0.000000
     7  C    2.471744   0.000000
     8  C    3.010081   1.487259   0.000000
     9  O    2.673304   2.380490   1.348349   0.000000
    10  O    4.199528   2.408927   1.218437   2.227306   0.000000
    11  C    3.740382   1.407194   2.455119   3.623489   2.839854
    12  C    4.247180   2.453949   3.770494   4.813088   4.239111
    13  N    5.641475   3.710826   4.852718   6.018771   5.050015
    14  O    6.018769   5.054503   6.494545   7.352021   7.076884
    15  H    2.608199   3.395424   4.697887   4.921969   5.764287
    16  H    1.024267   2.611419   2.622018   1.881213   3.784662
    17  H    1.014993   3.315216   3.953926   3.507384   5.161815
    18  H    3.598390   3.175801   1.836540   0.981687   2.184769
    19  H    4.620741   2.158073   2.617454   3.922591   2.505108
    20  H    6.150742   4.469920   5.717347   6.807005   6.008185
    21  H    6.161026   3.983703   4.899190   6.122740   4.895401
    22  H    6.672726   5.937893   7.399111   8.203961   8.020220
                   11         12         13         14         15
    11  C    0.000000
    12  C    1.401604   0.000000
    13  N    2.404983   1.406029   0.000000
    14  O    4.242188   2.847942   2.673307   0.000000
    15  H    3.859463   3.416922   4.620742   3.922589   0.000000
    16  H    4.003455   4.773790   6.150742   6.807003   3.587352
    17  H    4.479949   4.767117   6.161025   6.122736   2.394966
    18  H    4.273685   5.561919   6.672729   8.203962   5.894116
    19  H    1.089514   2.153853   2.608200   4.921972   4.947004
    20  H    3.267596   2.024649   1.024266   1.881216   4.720555
    21  H    2.588318   2.051176   1.014993   3.507387   5.431866
    22  H    5.195076   3.805392   3.598393   0.981687   4.357181
                   16         17         18         19         20
    16  H    0.000000
    17  H    1.695456   0.000000
    18  H    2.740459   4.417028   0.000000
    19  H    4.720554   5.431864   4.357184   0.000000
    20  H    6.751507   6.534010   7.519245   3.587353   0.000000
    21  H    6.534011   6.746123   6.669329   2.394969   1.695457
    22  H    7.519242   6.669324   9.081295   5.894119   2.740463
                   21         22
    21  H    0.000000
    22  H    4.417032   0.000000
 Stoichiometry    C8H8N2O4
 Framework group  C1[X(C8H8N2O4)]
 Deg. of freedom    60
 Full point group                 C1      NOp   1
 Largest Abelian subgroup         C1      NOp   1
 Largest concise Abelian subgroup C1      NOp   1
                         Standard orientation:                         
 ---------------------------------------------------------------------
 Center     Atomic      Atomic             Coordinates (Angstroms)
 Number     Number       Type             X           Y           Z
 ---------------------------------------------------------------------
      1          8           0       -3.330567   -1.575743   -0.311571
      2          6           0       -2.845681   -0.492987   -0.033878
      3          6           0       -1.392353   -0.178388   -0.005548
      4          6           0       -0.521451   -1.283669   -0.014379
      5          6           0        0.870516   -1.126921    0.034138
      6          7           0        1.667026   -2.275430   -0.118887
      7          6           0        1.392353    0.178389   -0.005548
      8          6           0        2.845682    0.492987   -0.033876
      9          8           0        3.637617   -0.529902    0.346363
     10          8           0        3.330568    1.575743   -0.311568
     11          6           0        0.521450    1.283670   -0.014382
     12          6           0       -0.870516    1.126922    0.034136
     13          7           0       -1.667027    2.275431   -0.118888
     14          8           0       -3.637618    0.529899    0.346367
     15          1           0       -0.940722   -2.287631   -0.071945
     16          1           0        2.633596   -2.111842    0.177933
     17          1           0        1.276111   -3.122351    0.281263
     18          1           0        4.538349   -0.144445    0.284614
     19          1           0        0.940722    2.287631   -0.071951
     20          1           0       -2.633597    2.111843    0.177931
     21          1           0       -1.276112    3.122353    0.281261
     22          1           0       -4.538349    0.144440    0.284619
 ---------------------------------------------------------------------
 Rotational constants (GHZ):           1.4166030           0.4246085           0.3300108
 Standard basis: 6-31G(d,p) (6D, 7F)
 There are   250 symmetry adapted cartesian basis functions of A   symmetry.
 There are   250 symmetry adapted basis functions of A   symmetry.
   250 basis functions,   448 primitive gaussians,   250 cartesian basis functions
    51 alpha electrons       51 beta electrons
       nuclear repulsion energy       873.1081184804 Hartrees.
 NAtoms=   22 NActive=   22 NUniq=   22 SFac= 1.00D+00 NAtFMM=   60 NAOKFM=F Big=F
 Integral buffers will be    131072 words long.
 Raffenetti 2 integral format.
 Two-electron integral symmetry is turned on.
 Force inversion solution in PCM.
 ------------------------------------------------------------------------------
 Polarizable Continuum Model (PCM)
 =================================
 Model                : PCM.
 Atomic radii         : UFF (Universal Force Field).
 Polarization charges : Total charges.
 Charge compensation  : None.
 Solution method      : Matrix inversion.
 Cavity type          : Scaled VdW (van der Waals Surface) (Alpha=1.100).
 Cavity algorithm     : GePol (No added spheres)
                        Default sphere list used, NSphG=   22.
                        Lebedev-Laikov grids with approx.  5.0 points / Ang**2.
                        Smoothing algorithm: York/Karplus (Gamma=1.0000).
                        Polarization charges: spherical gaussians, with
                                              point-specific exponents (IZeta= 3).
                        Self-potential: point-specific (ISelfS= 7).
                        Self-field    : sphere-specific E.n sum rule (ISelfD= 2).
 1st derivatives      : Analytical E(r).r(x)/FMM algorithm (CHGder, D1EAlg=3).
                        Cavity 1st derivative terms included.
 2nd derivatives      : Analytical E(r).r(xy)/FMM algorithm (CHGder, D2EAlg=3).
                        Cavity 2nd derivative terms included.
 Solvent              : Water, Eps=  78.355300 Eps(inf)=   1.777849
 ------------------------------------------------------------------------------
 One-electron integrals computed using PRISM.
 NBasis=   250 RedAO= T EigKep=  3.46D-04  NBF=   250
 NBsUse=   250 1.00D-06 EigRej= -1.00D+00 NBFU=   250
 ExpMin= 1.61D-01 ExpMax= 5.48D+03 ExpMxC= 8.25D+02 IAcc=3 IRadAn=         5 AccDes= 0.00D+00
 Harris functional with IExCor=  402 and IRadAn=       5 diagonalized for initial guess.
 HarFok:  IExCor=  402 AccDes= 0.00D+00 IRadAn=         5 IDoV= 1 UseB2=F ITyADJ=14
 ICtDFT=  3500011 ScaDFX=  1.000000  1.000000  1.000000  1.000000
 FoFCou: FMM=F IPFlag=           0 FMFlag=      100000 FMFlg1=           0
         NFxFlg=           0 DoJE=T BraDBF=F KetDBF=T FulRan=T
         wScrn=  0.000000 ICntrl=       500 IOpCl=  0 I1Cent=   200000004 NGrid=           0
         NMat0=    1 NMatS0=      1 NMatT0=    0 NMatD0=    1 NMtDS0=    0 NMtDT0=    0
 Petite list used in FoFCou.
 Keep R1 ints in memory in canonical form, NReq=500119023.
 Requested convergence on RMS density matrix=1.00D-08 within  32 cycles.
 Requested convergence on MAX density matrix=1.00D-06.
 Requested convergence on             energy=1.00D-06.
 No special actions if energy rises.
 Inv3:  Mode=1 IEnd=    10068672.
 Iteration    1 A*A^-1 deviation from unit magnitude is 2.89D-15 for    183.
 Iteration    1 A*A^-1 deviation from orthogonality  is 1.78D-15 for   1697    254.
 Iteration    1 A^-1*A deviation from unit magnitude is 3.11D-15 for    183.
 Iteration    1 A^-1*A deviation from orthogonality  is 2.21D-15 for   1534    466.
 Error on total polarization charges =  0.00504
 SCF Done:  E(RB3LYP) =  -720.136654908     A.U. after   12 cycles
            NFock= 12  Conv=0.55D-08     -V/T= 2.0091
 QCSCF skips out because SCF is already converged.
 DoSCS=F DFT=T ScalE2(SS,OS)=  1.000000  1.000000
 Range of M.O.s used for correlation:     1   250
 NBasis=   250 NAE=    51 NBE=    51 NFC=     0 NFV=     0
 NROrb=    250 NOA=    51 NOB=    51 NVA=   199 NVB=   199
 Symmetrizing basis deriv contribution to polar:
 IMax=3 JMax=2 DiffMx= 0.00D+00
 G2DrvN: will do    23 centers at a time, making    1 passes.
 Calling FoFCou, ICntrl=  3107 FMM=F I1Cent=   0 AccDes= 0.00D+00.
 NEqPCM:  Using equilibrium solvation (IEInf=0, Eps=  78.3553, EpsInf=   1.7778)
 G2PCM: DoFxE=T DoFxN=T DoGrad=T DoDP/DQ/DG/TGxP=FFFF NFrqRd=   0 IEInf=0 SqF1=F DoCFld=F IF1Alg=4.
 End of G2Drv F.D. properties file   721 does not exist.
 End of G2Drv F.D. properties file   722 does not exist.
 End of G2Drv F.D. properties file   788 does not exist.
          IDoAtm=1111111111111111111111
 NEqPCM:  Using equilibrium solvation (IEInf=0, Eps=  78.3553, EpsInf=   1.7778)
          Differentiating once with respect to nuclear coordinates.
 Keep R1 ints in memory in canonical form, NReq=501097342.
          There are    69 degrees of freedom in the 1st order CPHF.  IDoFFX=6 NUNeed=     0.
     63 vectors produced by pass  0 Test12= 1.47D-14 1.45D-09 XBig12= 1.87D-01 1.57D-01.
 AX will form    63 AO Fock derivatives at one time.
     63 vectors produced by pass  1 Test12= 1.47D-14 1.45D-09 XBig12= 2.60D-02 4.35D-02.
     63 vectors produced by pass  2 Test12= 1.47D-14 1.45D-09 XBig12= 3.19D-04 3.05D-03.
     63 vectors produced by pass  3 Test12= 1.47D-14 1.45D-09 XBig12= 1.04D-06 1.69D-04.
     63 vectors produced by pass  4 Test12= 1.47D-14 1.45D-09 XBig12= 2.37D-09 5.61D-06.
     54 vectors produced by pass  5 Test12= 1.47D-14 1.45D-09 XBig12= 3.23D-12 2.21D-07.
     16 vectors produced by pass  6 Test12= 1.47D-14 1.45D-09 XBig12= 3.08D-15 6.85D-09.
 InvSVY:  IOpt=1 It=  1 EMax= 5.13D-16
 Solved reduced A of dimension   385 with    69 vectors.
 End of Minotr F.D. properties file   721 does not exist.
 End of Minotr F.D. properties file   722 does not exist.
 End of Minotr F.D. properties file   788 does not exist.

 **********************************************************************

            Population analysis using the SCF density.

 **********************************************************************

 Orbital symmetries:
       Occupied  (A) (A) (A) (A) (A) (A) (A) (A) (A) (A) (A) (A)
                 (A) (A) (A) (A) (A) (A) (A) (A) (A) (A) (A) (A)
                 (A) (A) (A) (A) (A) (A) (A) (A) (A) (A) (A) (A)
                 (A) (A) (A) (A) (A) (A) (A) (A) (A) (A) (A) (A)
                 (A) (A) (A)
       Virtual   (A) (A) (A) (A) (A) (A) (A) (A) (A) (A) (A) (A)
                 (A) (A) (A) (A) (A) (A) (A) (A) (A) (A) (A) (A)
                 (A) (A) (A) (A) (A) (A) (A) (A) (A) (A) (A) (A)
                 (A) (A) (A) (A) (A) (A) (A) (A) (A) (A) (A) (A)
                 (A) (A) (A) (A) (A) (A) (A) (A) (A) (A) (A) (A)
                 (A) (A) (A) (A) (A) (A) (A) (A) (A) (A) (A) (A)
                 (A) (A) (A) (A) (A) (A) (A) (A) (A) (A) (A) (A)
                 (A) (A) (A) (A) (A) (A) (A) (A) (A) (A) (A) (A)
                 (A) (A) (A) (A) (A) (A) (A) (A) (A) (A) (A) (A)
                 (A) (A) (A) (A) (A) (A) (A) (A) (A) (A) (A) (A)
                 (A) (A) (A) (A) (A) (A) (A) (A) (A) (A) (A) (A)
                 (A) (A) (A) (A) (A) (A) (A) (A) (A) (A) (A) (A)
                 (A) (A) (A) (A) (A) (A) (A) (A) (A) (A) (A) (A)
                 (A) (A) (A) (A) (A) (A) (A) (A) (A) (A) (A) (A)
                 (A) (A) (A) (A) (A) (A) (A) (A) (A) (A) (A) (A)
                 (A) (A) (A) (A) (A) (A) (A) (A) (A) (A) (A) (A)
                 (A) (A) (A) (A) (A) (A) (A)
 The electronic state is 1-A.
 Alpha  occ. eigenvalues --  -19.20973 -19.20973 -19.14694 -19.14694 -14.33510
 Alpha  occ. eigenvalues --  -14.33510 -10.33253 -10.33253 -10.24002 -10.24001
 Alpha  occ. eigenvalues --  -10.21490 -10.21490 -10.20074 -10.20073  -1.12077
 Alpha  occ. eigenvalues --   -1.12074  -1.02146  -1.02145  -0.92425  -0.90985
 Alpha  occ. eigenvalues --   -0.83536  -0.78620  -0.72500  -0.69906  -0.63197
 Alpha  occ. eigenvalues --   -0.61703  -0.58929  -0.54555  -0.53351  -0.51538
 Alpha  occ. eigenvalues --   -0.51365  -0.48442  -0.48021  -0.47257  -0.45913
 Alpha  occ. eigenvalues --   -0.45527  -0.44106  -0.43746  -0.42663  -0.40040
 Alpha  occ. eigenvalues --   -0.40034  -0.38054  -0.36351  -0.34789  -0.33127
 Alpha  occ. eigenvalues --   -0.33023  -0.29211  -0.28925  -0.27262  -0.26733
 Alpha  occ. eigenvalues --   -0.19298
 Alpha virt. eigenvalues --   -0.07067   0.00558   0.00639   0.07287   0.08012
 Alpha virt. eigenvalues --    0.08755   0.10392   0.12021   0.12897   0.15710
 Alpha virt. eigenvalues --    0.17571   0.18239   0.19589   0.22679   0.23052
 Alpha virt. eigenvalues --    0.24533   0.27141   0.29501   0.30011   0.31588
 Alpha virt. eigenvalues --    0.32151   0.36884   0.38380   0.41710   0.43161
 Alpha virt. eigenvalues --    0.49557   0.49876   0.50856   0.51323   0.52477
 Alpha virt. eigenvalues --    0.53173   0.56076   0.56838   0.58397   0.58986
 Alpha virt. eigenvalues --    0.59907   0.61707   0.61736   0.63671   0.64458
 Alpha virt. eigenvalues --    0.67502   0.68318   0.69018   0.69234   0.70118
 Alpha virt. eigenvalues --    0.72722   0.73010   0.74794   0.75151   0.77635
 Alpha virt. eigenvalues --    0.80133   0.81073   0.81263   0.83198   0.83727
 Alpha virt. eigenvalues --    0.85003   0.86609   0.86846   0.87941   0.89087
 Alpha virt. eigenvalues --    0.91095   0.91759   0.93009   0.95376   0.97450
 Alpha virt. eigenvalues --    0.98005   0.99454   1.01108   1.01956   1.02162
 Alpha virt. eigenvalues --    1.03199   1.04682   1.07435   1.11418   1.11753
 Alpha virt. eigenvalues --    1.13890   1.15651   1.22187   1.24066   1.25584
 Alpha virt. eigenvalues --    1.26312   1.28575   1.30218   1.31296   1.33381
 Alpha virt. eigenvalues --    1.34446   1.36288   1.36915   1.38680   1.40882
 Alpha virt. eigenvalues --    1.40930   1.44292   1.49930   1.50860   1.54663
 Alpha virt. eigenvalues --    1.56346   1.56559   1.61446   1.66040   1.67027
 Alpha virt. eigenvalues --    1.72097   1.72828   1.72852   1.73296   1.75190
 Alpha virt. eigenvalues --    1.76887   1.78501   1.79578   1.80599   1.83432
 Alpha virt. eigenvalues --    1.85108   1.85968   1.86125   1.87716   1.89528
 Alpha virt. eigenvalues --    1.90449   1.93258   1.94500   1.96072   1.99023
 Alpha virt. eigenvalues --    2.00533   2.02262   2.05567   2.05776   2.09850
 Alpha virt. eigenvalues --    2.10115   2.16364   2.19389   2.21054   2.22305
 Alpha virt. eigenvalues --    2.22628   2.24330   2.26854   2.28225   2.29097
 Alpha virt. eigenvalues --    2.30602   2.32309   2.33067   2.36945   2.39959
 Alpha virt. eigenvalues --    2.41311   2.42310   2.43917   2.45859   2.48360
 Alpha virt. eigenvalues --    2.49579   2.49826   2.50986   2.53329   2.55532
 Alpha virt. eigenvalues --    2.56269   2.56514   2.60050   2.61239   2.64768
 Alpha virt. eigenvalues --    2.65801   2.67311   2.68715   2.70391   2.72179
 Alpha virt. eigenvalues --    2.72523   2.75307   2.79379   2.81149   2.88002
 Alpha virt. eigenvalues --    2.89309   2.90277   2.93166   2.99332   3.00518
 Alpha virt. eigenvalues --    3.02853   3.04899   3.11231   3.17036   3.18363
 Alpha virt. eigenvalues --    3.21364   3.30384   3.30920   3.35114   3.39821
 Alpha virt. eigenvalues --    3.41228   3.46293   3.48003   3.54323   3.69527
 Alpha virt. eigenvalues --    3.95097   3.96830   4.03879   4.09984   4.10848
 Alpha virt. eigenvalues --    4.12290   4.16046   4.24379   4.33256   4.43148
 Alpha virt. eigenvalues --    4.45521   4.50205   4.62073   4.85308
          Condensed to atoms (all electrons):
               1          2          3          4          5          6
     1  O    8.089615   0.574766  -0.088205   0.001755   0.001006  -0.000002
     2  C    0.574766   4.417716   0.300773  -0.046599   0.007136  -0.000136
     3  C   -0.088205   0.300773   5.056040   0.493086  -0.024362   0.004305
     4  C    0.001755  -0.046599   0.493086   5.084128   0.449370  -0.072690
     5  C    0.001006   0.007136  -0.024362   0.449370   4.769003   0.304254
     6  N   -0.000002  -0.000136   0.004305  -0.072690   0.304254   6.884848
     7  C   -0.000001   0.000242  -0.029363  -0.031504   0.460928  -0.065132
     8  C   -0.000000   0.000003   0.000242   0.005645  -0.036267  -0.013443
     9  O    0.000000  -0.000000  -0.000006   0.000107   0.001909  -0.024921
    10  O   -0.000000  -0.000000  -0.000001  -0.000063   0.003329  -0.000076
    11  C   -0.000063   0.005645  -0.031503  -0.060417  -0.039313   0.005410
    12  C    0.003329  -0.036267   0.460928  -0.039312  -0.036561   0.000544
    13  N   -0.000076  -0.013443  -0.065132   0.005410   0.000544   0.000001
    14  O   -0.093472   0.244661  -0.080267   0.003352  -0.000049   0.000000
    15  H    0.013445  -0.009311  -0.038461   0.362705  -0.035996  -0.006009
    16  H   -0.000000   0.000002  -0.000138   0.005752  -0.022899   0.328553
    17  H   -0.000003  -0.000005   0.000120  -0.010262  -0.023977   0.340984
    18  H    0.000000   0.000000   0.000001   0.000010  -0.000522   0.000588
    19  H    0.000000  -0.000123   0.004325   0.000573   0.004548  -0.000072
    20  H    0.000279   0.002429  -0.012749  -0.000356  -0.000011  -0.000000
    21  H    0.000001  -0.000022   0.005590  -0.000085  -0.000023  -0.000000
    22  H    0.011907  -0.009644   0.010834  -0.000260  -0.000000  -0.000000
               7          8          9         10         11         12
     1  O   -0.000001  -0.000000   0.000000  -0.000000  -0.000063   0.003329
     2  C    0.000242   0.000003  -0.000000  -0.000000   0.005645  -0.036267
     3  C   -0.029363   0.000242  -0.000006  -0.000001  -0.031503   0.460928
     4  C   -0.031504   0.005645   0.000107  -0.000063  -0.060417  -0.039312
     5  C    0.460928  -0.036267   0.001909   0.003329  -0.039313  -0.036561
     6  N   -0.065132  -0.013443  -0.024921  -0.000076   0.005410   0.000544
     7  C    5.056040   0.300773  -0.080267  -0.088205   0.493086  -0.024362
     8  C    0.300773   4.417715   0.244661   0.574766  -0.046599   0.007136
     9  O   -0.080267   0.244661   8.158244  -0.093472   0.003352  -0.000049
    10  O   -0.088205   0.574766  -0.093472   8.089615   0.001755   0.001006
    11  C    0.493086  -0.046599   0.003352   0.001755   5.084128   0.449370
    12  C   -0.024362   0.007136  -0.000049   0.001006   0.449370   4.769002
    13  N    0.004305  -0.000136   0.000000  -0.000002  -0.072690   0.304254
    14  O   -0.000006  -0.000000  -0.000000   0.000000   0.000107   0.001909
    15  H    0.004325  -0.000123   0.000003   0.000000   0.000573   0.004548
    16  H   -0.012749   0.002429   0.023873   0.000279  -0.000356  -0.000011
    17  H    0.005590  -0.000022   0.000568   0.000001  -0.000085  -0.000023
    18  H    0.010834  -0.009644   0.270433   0.011907  -0.000260  -0.000000
    19  H   -0.038462  -0.009311   0.000356   0.013445   0.362705  -0.035996
    20  H   -0.000138   0.000002  -0.000000  -0.000000   0.005752  -0.022899
    21  H    0.000120  -0.000005  -0.000000  -0.000003  -0.010262  -0.023977
    22  H    0.000001   0.000000  -0.000000   0.000000   0.000010  -0.000522
              13         14         15         16         17         18
     1  O   -0.000076  -0.093472   0.013445  -0.000000  -0.000003   0.000000
     2  C   -0.013443   0.244661  -0.009311   0.000002  -0.000005   0.000000
     3  C   -0.065132  -0.080267  -0.038461  -0.000138   0.000120   0.000001
     4  C    0.005410   0.003352   0.362705   0.005752  -0.010262   0.000010
     5  C    0.000544  -0.000049  -0.035996  -0.022899  -0.023977  -0.000522
     6  N    0.000001   0.000000  -0.006009   0.328553   0.340984   0.000588
     7  C    0.004305  -0.000006   0.004325  -0.012749   0.005590   0.010834
     8  C   -0.000136  -0.000000  -0.000123   0.002429  -0.000022  -0.009644
     9  O    0.000000  -0.000000   0.000003   0.023873   0.000568   0.270433
    10  O   -0.000002   0.000000   0.000000   0.000279   0.000001   0.011907
    11  C   -0.072690   0.000107   0.000573  -0.000356  -0.000085  -0.000260
    12  C    0.304254   0.001909   0.004548  -0.000011  -0.000023  -0.000000
    13  N    6.884847  -0.024921  -0.000072  -0.000000  -0.000000  -0.000000
    14  O   -0.024921   8.158243   0.000356  -0.000000  -0.000000  -0.000000
    15  H   -0.000072   0.000356   0.582772  -0.000029   0.003701  -0.000000
    16  H   -0.000000  -0.000000  -0.000029   0.403917  -0.023828   0.000095
    17  H   -0.000000  -0.000000   0.003701  -0.023828   0.428547  -0.000019
    18  H   -0.000000  -0.000000  -0.000000   0.000095  -0.000019   0.365706
    19  H   -0.006009   0.000003   0.000015  -0.000012   0.000003  -0.000036
    20  H    0.328553   0.023873  -0.000012  -0.000000   0.000000   0.000000
    21  H    0.340984   0.000568   0.000003   0.000000  -0.000000   0.000000
    22  H    0.000588   0.270433  -0.000036   0.000000   0.000000   0.000000
              19         20         21         22
     1  O    0.000000   0.000279   0.000001   0.011907
     2  C   -0.000123   0.002429  -0.000022  -0.009644
     3  C    0.004325  -0.012749   0.005590   0.010834
     4  C    0.000573  -0.000356  -0.000085  -0.000260
     5  C    0.004548  -0.000011  -0.000023  -0.000000
     6  N   -0.000072  -0.000000  -0.000000  -0.000000
     7  C   -0.038462  -0.000138   0.000120   0.000001
     8  C   -0.009311   0.000002  -0.000005   0.000000
     9  O    0.000356  -0.000000  -0.000000  -0.000000
    10  O    0.013445  -0.000000  -0.000003   0.000000
    11  C    0.362705   0.005752  -0.010262   0.000010
    12  C   -0.035996  -0.022899  -0.023977  -0.000522
    13  N   -0.006009   0.328553   0.340984   0.000588
    14  O    0.000003   0.023873   0.000568   0.270433
    15  H    0.000015  -0.000012   0.000003  -0.000036
    16  H   -0.000012  -0.000000   0.000000   0.000000
    17  H    0.000003   0.000000  -0.000000   0.000000
    18  H   -0.000036   0.000000   0.000000   0.000000
    19  H    0.582772  -0.000029   0.003701  -0.000000
    20  H   -0.000029   0.403917  -0.023828   0.000095
    21  H    0.003701  -0.023828   0.428546  -0.000019
    22  H   -0.000000   0.000095  -0.000019   0.365706
 Mulliken charges:
               1
     1  O   -0.514280
     2  C    0.562178
     3  C    0.033943
     4  C   -0.150345
     5  C    0.217952
     6  N   -0.687005
     7  C    0.033943
     8  C    0.562178
     9  O   -0.504791
    10  O   -0.514280
    11  C   -0.150345
    12  C    0.217953
    13  N   -0.687006
    14  O   -0.504791
    15  H    0.117607
    16  H    0.295122
    17  H    0.278711
    18  H    0.350909
    19  H    0.117606
    20  H    0.295122
    21  H    0.278711
    22  H    0.350909
 Sum of Mulliken charges =  -0.00000
 Mulliken charges with hydrogens summed into heavy atoms:
               1
     1  O   -0.514280
     2  C    0.562178
     3  C    0.033943
     4  C   -0.032739
     5  C    0.217952
     6  N   -0.113172
     7  C    0.033943
     8  C    0.562178
     9  O   -0.153882
    10  O   -0.514280
    11  C   -0.032739
    12  C    0.217953
    13  N   -0.113173
    14  O   -0.153882
 APT charges:
               1
     1  O    0.311508
     2  C   -0.323810
     3  C   -0.212557
     4  C   -0.490547
     5  C   -0.097652
     6  N   -1.168306
     7  C   -0.212558
     8  C   -0.323810
     9  O   -0.965724
    10  O    0.311509
    11  C   -0.490547
    12  C   -0.097653
    13  N   -1.168308
    14  O   -0.965722
    15  H    0.499803
    16  H    0.632835
    17  H    0.684158
    18  H    1.130292
    19  H    0.499802
    20  H    0.632835
    21  H    0.684160
    22  H    1.130291
 Sum of APT charges =  -0.00000
 APT charges with hydrogens summed into heavy atoms:
               1
     1  O    0.311508
     2  C   -0.323810
     3  C   -0.212557
     4  C    0.009255
     5  C   -0.097652
     6  N    0.148687
     7  C   -0.212558
     8  C   -0.323810
     9  O    0.164568
    10  O    0.311509
    11  C    0.009255
    12  C   -0.097653
    13  N    0.148688
    14  O    0.164569
 Electronic spatial extent (au):  <R**2>=           3088.3487
 Charge=             -0.0000 electrons
 Dipole moment (field-independent basis, Debye):
    X=             -0.0000    Y=              0.0000    Z=              3.3126  Tot=              3.3126
 Quadrupole moment (field-independent basis, Debye-Ang):
   XX=            -62.3885   YY=            -75.6592   ZZ=            -81.9155
   XY=            -16.6992   XZ=             -0.0000   YZ=             -0.0000
 Traceless Quadrupole moment (field-independent basis, Debye-Ang):
   XX=             10.9326   YY=             -2.3382   ZZ=             -8.5944
   XY=            -16.6992   XZ=             -0.0000   YZ=             -0.0000
 Octapole moment (field-independent basis, Debye-Ang**2):
  XXX=             -0.0000  YYY=              0.0001  ZZZ=              2.5812  XYY=             -0.0001
  XXY=             -0.0001  XXZ=             26.7543  XZZ=              0.0000  YZZ=             -0.0000
  YYZ=             22.7575  XYZ=             -1.1915
 Hexadecapole moment (field-independent basis, Debye-Ang**3):
 XXXX=          -1931.0893 YYYY=           -780.9240 ZZZZ=            -90.7211 XXXY=           -218.9182
 XXXZ=             -0.0006 YYYX=           -100.8459 YYYZ=             -0.0002 ZZZX=             -0.0000
 ZZZY=              0.0000 XXYY=           -697.8508 XXZZ=           -468.3988 YYZZ=           -183.1026
 XXYZ=             -0.0003 YYXZ=             -0.0000 ZZXY=              7.1236
 N-N= 8.731081184804D+02 E-N=-3.429633593840D+03  KE= 7.136458775034D+02
  Exact polarizability:   0.000   0.000   0.000   0.000   0.000   0.000
 Approx polarizability: 243.385   7.618 257.621  -0.000  -0.000  69.187
 D2PCM: PCM CHGder 2nd derivatives, FixD1E=F FixD2E=F DoIter=F DoCFld=F I1PDM=0
 Calling FoFJK, ICntrl=    100147 FMM=F ISym2X=0 I1Cent= 0 IOpClX= 0 NMat=1 NMatS=1 NMatT=0.
 ***** Axes restored to original set *****
 -------------------------------------------------------------------
 Center     Atomic                   Forces (Hartrees/Bohr)
 Number     Number              X              Y              Z
 -------------------------------------------------------------------
      1        8          -0.002734981    0.001808780    0.001821714
      2        6          -0.010081183   -0.002985489    0.001392474
      3        6          -0.003337874   -0.003366136    0.016539146
      4        6           0.004689773   -0.002150783   -0.006188758
      5        6          -0.003256965    0.011889350    0.024719990
      6        7          -0.006729784   -0.007917260   -0.010190718
      7        6           0.003211330   -0.001881818   -0.016797743
      8        6           0.009929372   -0.003314670   -0.001702487
      9        8          -0.013471747    0.002221794   -0.009753987
     10        8           0.002823111    0.001845378   -0.001641900
     11        6          -0.004802279   -0.002520522    0.005958826
     12        6           0.003883210    0.014089670   -0.023440541
     13        7           0.006316922   -0.009193708    0.009347990
     14        8           0.013539929    0.000603318    0.009893214
     15        1           0.001047051   -0.000717580   -0.003853424
     16        1           0.008085640    0.002305418    0.010214604
     17        1           0.001234970    0.000837072   -0.002870638
     18        1           0.000131148   -0.002844474    0.008773922
     19        1          -0.001089398   -0.001041582    0.003766454
     20        1          -0.007941154    0.003683169   -0.009919430
     21        1          -0.001200134    0.000609358    0.002942045
     22        1          -0.000246958   -0.001959285   -0.009010752
 -------------------------------------------------------------------
 Cartesian Forces:  Max     0.024719990 RMS     0.007845030
 FormGI is forming the generalized inverse of G from B-inverse, IUseBI=4.

 GradGradGradGradGradGradGradGradGradGradGradGradGradGradGradGradGradGrad
 Berny optimization.
 Internal  Forces:  Max     0.016163101 RMS     0.005841263
 Search for a local minimum.
 Step number   1 out of a maximum of  108
 All quantities printed in internal units (Hartrees-Bohrs-Radians)
 Mixed Optimization -- RFO/linear search
 Second derivative matrix not updated -- analytic derivatives used.
 ITU=  0
     Eigenvalues ---    0.00020   0.00053   0.00547   0.00562   0.01015
     Eigenvalues ---    0.01329   0.01690   0.01853   0.01905   0.01929
     Eigenvalues ---    0.01986   0.02052   0.02072   0.02210   0.02371
     Eigenvalues ---    0.02857   0.03019   0.06683   0.06703   0.11519
     Eigenvalues ---    0.11736   0.13294   0.13404   0.15395   0.15576
     Eigenvalues ---    0.17063   0.17350   0.18895   0.18903   0.19484
     Eigenvalues ---    0.19611   0.20855   0.21228   0.22744   0.24230
     Eigenvalues ---    0.25333   0.28130   0.32960   0.34918   0.34942
     Eigenvalues ---    0.36293   0.36534   0.39667   0.40156   0.41435
     Eigenvalues ---    0.41812   0.42088   0.42561   0.44089   0.45508
     Eigenvalues ---    0.45565   0.45759   0.46093   0.48269   0.48330
     Eigenvalues ---    0.50302   0.81827   0.83522   0.86995   0.88365
 RFO step:  Lambda=-1.06538117D-02 EMin= 1.99667960D-04
 Linear search not attempted -- first point.
 Iteration  1 RMS(Cart)=  0.06190723 RMS(Int)=  0.00272046
 Iteration  2 RMS(Cart)=  0.00351856 RMS(Int)=  0.00048392
 Iteration  3 RMS(Cart)=  0.00001188 RMS(Int)=  0.00048388
 Iteration  4 RMS(Cart)=  0.00000000 RMS(Int)=  0.00048388
 Variable       Old X    -DE/DX   Delta X   Delta X   Delta X     New X
                                 (Linear)    (Quad)   (Total)
    R1        2.30251   0.00167   0.00000   0.00172   0.00172   2.30423
    R2        2.81051   0.00238   0.00000  -0.00156  -0.00156   2.80895
    R3        2.54801   0.00995   0.00000   0.01357   0.01357   2.56158
    R4        2.65921  -0.00584   0.00000  -0.01347  -0.01347   2.64574
    R5        2.65755   0.01616   0.00000   0.03058   0.03057   2.68812
    R6        2.64865  -0.00027   0.00000  -0.00256  -0.00256   2.64609
    R7        2.05888  -0.00369   0.00000  -0.00872  -0.00872   2.05016
    R8        2.65701  -0.00426   0.00000  -0.02928  -0.02928   2.62773
    R9        2.65755   0.01616   0.00000   0.03058   0.03057   2.68812
   R10        1.93558  -0.01190   0.00000  -0.02683  -0.02683   1.90875
   R11        1.91806  -0.00274   0.00000  -0.00667  -0.00667   1.91139
   R12        2.81051   0.00238   0.00000  -0.00156  -0.00156   2.80895
   R13        2.65921  -0.00584   0.00000  -0.01347  -0.01347   2.64574
   R14        2.54801   0.00995   0.00000   0.01357   0.01357   2.56158
   R15        2.30251   0.00167   0.00000   0.00172   0.00172   2.30423
   R16        1.85512  -0.00583   0.00000  -0.01704  -0.01704   1.83807
   R17        2.64865  -0.00027   0.00000  -0.00256  -0.00256   2.64609
   R18        2.05888  -0.00369   0.00000  -0.00872  -0.00872   2.05016
   R19        2.65701  -0.00426   0.00000  -0.02928  -0.02928   2.62773
   R20        1.93558  -0.01190   0.00000  -0.02683  -0.02683   1.90875
   R21        1.91806  -0.00274   0.00000  -0.00667  -0.00667   1.91139
   R22        1.85512  -0.00583   0.00000  -0.01705  -0.01705   1.83807
    A1        2.19099  -0.00807   0.00000  -0.01700  -0.01720   2.17379
    A2        2.09981  -0.00069   0.00000   0.01111   0.01091   2.11072
    A3        1.99116   0.00882   0.00000   0.00761   0.00741   1.99857
    A4        2.02473  -0.01191   0.00000  -0.02004  -0.02013   2.00460
    A5        2.16455   0.01334   0.00000   0.02072   0.02062   2.18517
    A6        2.09389  -0.00142   0.00000  -0.00065  -0.00048   2.09341
    A7        2.12537   0.00841   0.00000   0.03061   0.03078   2.15615
    A8        2.07824  -0.00578   0.00000  -0.02954  -0.02965   2.04859
    A9        2.07952  -0.00262   0.00000  -0.00096  -0.00107   2.07845
   A10        2.05724  -0.00243   0.00000   0.02083   0.01942   2.07666
   A11        2.06161  -0.00687   0.00000  -0.02710  -0.02836   2.03325
   A12        2.14706   0.00987   0.00000   0.02286   0.02151   2.16858
   A13        1.95259   0.00894   0.00000   0.05352   0.05316   2.00575
   A14        2.00479  -0.00491   0.00000  -0.01201  -0.01237   1.99242
   A15        1.96326  -0.00255   0.00000   0.00396   0.00344   1.96670
   A16        2.16455   0.01334   0.00000   0.02072   0.02062   2.18517
   A17        2.09389  -0.00142   0.00000  -0.00065  -0.00048   2.09341
   A18        2.02474  -0.01191   0.00000  -0.02004  -0.02013   2.00460
   A19        1.99116   0.00882   0.00000   0.00761   0.00741   1.99857
   A20        2.19099  -0.00807   0.00000  -0.01700  -0.01720   2.17379
   A21        2.09981  -0.00069   0.00000   0.01111   0.01091   2.11072
   A22        1.79599   0.01327   0.00000   0.06729   0.06729   1.86327
   A23        2.12537   0.00841   0.00000   0.03061   0.03078   2.15615
   A24        2.07823  -0.00578   0.00000  -0.02954  -0.02965   2.04859
   A25        2.07952  -0.00262   0.00000  -0.00096  -0.00107   2.07845
   A26        2.06161  -0.00687   0.00000  -0.02710  -0.02836   2.03325
   A27        2.14706   0.00987   0.00000   0.02286   0.02151   2.16858
   A28        2.05724  -0.00243   0.00000   0.02083   0.01942   2.07666
   A29        1.95259   0.00894   0.00000   0.05352   0.05316   2.00575
   A30        2.00479  -0.00491   0.00000  -0.01202  -0.01237   1.99242
   A31        1.96326  -0.00255   0.00000   0.00396   0.00344   1.96670
   A32        1.79599   0.01327   0.00000   0.06729   0.06729   1.86327
    D1       -0.25349  -0.00065   0.00000   0.05888   0.05899  -0.19451
    D2        2.89301  -0.00098   0.00000   0.05251   0.05262   2.94564
    D3        2.83481   0.00071   0.00000   0.09687   0.09676   2.93157
    D4       -0.30187   0.00037   0.00000   0.09050   0.09040  -0.21147
    D5       -0.03149   0.00038   0.00000   0.01476   0.01499  -0.01649
    D6       -3.12285  -0.00063   0.00000  -0.02010  -0.02033   3.14000
    D7       -3.12123   0.00013   0.00000  -0.00541  -0.00526  -3.12650
    D8        0.03274  -0.00059   0.00000  -0.01663  -0.01640   0.01634
    D9        0.01566   0.00050   0.00000   0.00075   0.00080   0.01646
   D10       -3.11356  -0.00022   0.00000  -0.01047  -0.01033  -3.12389
   D11       -3.08328  -0.00182   0.00000  -0.03955  -0.03899  -3.12227
   D12       -0.14480   0.00110   0.00000   0.05893   0.05872  -0.08608
   D13        0.06341  -0.00215   0.00000  -0.04611  -0.04561   0.01780
   D14        3.00188   0.00077   0.00000   0.05237   0.05211   3.05399
   D15       -3.02845  -0.00257   0.00000  -0.04835  -0.04775  -3.07620
   D16       -0.07939   0.00169   0.00000   0.04561   0.04520  -0.03419
   D17        0.10075  -0.00187   0.00000  -0.03731  -0.03662   0.06413
   D18        3.04982   0.00239   0.00000   0.05665   0.05633   3.10614
   D19       -2.87281   0.00199   0.00000   0.06151   0.06223  -2.81058
   D20       -0.60708   0.00227   0.00000   0.10645   0.10752  -0.49957
   D21        0.47143  -0.00043   0.00000  -0.03150  -0.03257   0.43886
   D22        2.73715  -0.00015   0.00000   0.01344   0.01272   2.74987
   D23       -3.08328  -0.00182   0.00000  -0.03955  -0.03899  -3.12227
   D24        0.06341  -0.00215   0.00000  -0.04611  -0.04561   0.01780
   D25       -0.14481   0.00110   0.00000   0.05894   0.05872  -0.08608
   D26        3.00188   0.00077   0.00000   0.05238   0.05211   3.05399
   D27       -0.30186   0.00037   0.00000   0.09050   0.09039  -0.21147
   D28        2.89302  -0.00098   0.00000   0.05251   0.05262   2.94564
   D29        2.83482   0.00071   0.00000   0.09687   0.09676   2.93157
   D30       -0.25349  -0.00065   0.00000   0.05888   0.05899  -0.19450
   D31        0.01566   0.00050   0.00000   0.00075   0.00080   0.01646
   D32       -3.11355  -0.00022   0.00000  -0.01047  -0.01033  -3.12389
   D33       -3.12123   0.00013   0.00000  -0.00541  -0.00527  -3.12650
   D34        0.03274  -0.00059   0.00000  -0.01663  -0.01640   0.01634
   D35       -3.12285  -0.00063   0.00000  -0.02010  -0.02033   3.14000
   D36       -0.03149   0.00038   0.00000   0.01476   0.01499  -0.01649
   D37       -0.07939   0.00169   0.00000   0.04561   0.04521  -0.03419
   D38       -3.02846  -0.00257   0.00000  -0.04835  -0.04774  -3.07620
   D39        3.04981   0.00239   0.00000   0.05665   0.05633   3.10614
   D40        0.10075  -0.00187   0.00000  -0.03731  -0.03662   0.06413
   D41        0.47142  -0.00043   0.00000  -0.03150  -0.03256   0.43886
   D42        2.73715  -0.00015   0.00000   0.01344   0.01272   2.74987
   D43       -2.87281   0.00199   0.00000   0.06151   0.06223  -2.81058
   D44       -0.60708   0.00227   0.00000   0.10645   0.10751  -0.49957
         Item               Value     Threshold  Converged?
 Maximum Force            0.016163     0.000450     NO 
 RMS     Force            0.005841     0.000300     NO 
 Maximum Displacement     0.186974     0.001800     NO 
 RMS     Displacement     0.062437     0.001200     NO 
 Predicted change in Energy=-6.132962D-03
 GradGradGradGradGradGradGradGradGradGradGradGradGradGradGradGradGradGrad

                          Input orientation:                          
 ---------------------------------------------------------------------
 Center     Atomic      Atomic             Coordinates (Angstroms)
 Number     Number       Type             X           Y           Z
 ---------------------------------------------------------------------
      1          8           0        2.726484    0.086379    2.466077
      2          6           0        2.596867   -0.056865    1.262129
      3          6           0        1.298617    0.004543    0.540838
      4          6           0        0.166784    0.000376    1.364922
      5          6           0       -1.145353    0.035215    0.877290
      6          7           0       -2.198765    0.107073    1.782135
      7          6           0       -1.295616    0.120025   -0.534701
      8          6           0       -2.593606    0.192203   -1.255462
      9          8           0       -3.677736   -0.085553   -0.490622
     10          8           0       -2.713343    0.459073   -2.439207
     11          6           0       -0.163343    0.142460   -1.357886
     12          6           0        1.147796    0.066157   -0.872296
     13          7           0        2.205581    0.175860   -1.768197
     14          8           0        3.668208   -0.309913    0.471141
     15          1           0        0.330372   -0.030571    2.436970
     16          1           0       -3.097298   -0.168400    1.412016
     17          1           0       -2.001763   -0.312901    2.680949
     18          1           0       -4.456360   -0.004871   -1.067957
     19          1           0       -0.325691    0.224863   -2.427399
     20          1           0        3.088965   -0.177482   -1.429054
     21          1           0        1.990759   -0.143843   -2.703449
     22          1           0        4.448440   -0.323828    1.051765
 ---------------------------------------------------------------------
                    Distance matrix (angstroms):
                    1          2          3          4          5
     1  O    0.000000
     2  C    1.219348   0.000000
     3  C    2.398343   1.486434   0.000000
     4  C    2.787831   2.432929   1.400064   0.000000
     5  C    4.185450   3.763083   2.467211   1.400251   0.000000
     6  N    4.972553   4.826527   3.712548   2.404428   1.390534
     7  C    5.018275   4.290840   2.810723   2.400312   1.422494
     8  C    6.493413   5.774193   4.290840   3.810901   2.582772
     9  O    7.055896   6.514875   5.082924   4.269750   2.880752
    10  O    7.334333   6.493413   5.018275   4.793427   3.692885
    11  C    4.793426   3.810901   2.400312   2.746426   2.443738
    12  C    3.692885   2.582772   1.422494   2.443738   2.884535
    13  N    4.267132   3.064333   2.486680   3.742182   4.271668
    14  O    2.241352   1.355532   2.391381   3.626995   4.842979
    15  H    2.399141   2.553026   2.129330   1.084898   2.148184
    16  H    5.923884   5.697229   4.484744   3.268782   2.034079
    17  H    4.749939   4.819336   3.946309   2.555908   2.026773
    18  H    8.005684   7.428325   5.975622   5.224212   3.840359
    19  H    5.768973   4.715223   3.390773   3.830747   3.410099
    20  H    3.920849   2.738462   2.668137   4.046861   4.826377
    21  H    5.226690   4.012572   3.320614   4.460866   4.763292
    22  H    2.265762   1.882511   3.207844   4.305317   5.608020
                    6          7          8          9         10
     6  N    0.000000
     7  C    2.486680   0.000000
     8  C    3.064333   1.486434   0.000000
     9  O    2.718434   2.391381   1.355532   0.000000
    10  O    4.267133   2.398343   1.219348   2.241352   0.000000
    11  C    3.742182   1.400064   2.432929   3.626996   2.787831
    12  C    4.271668   2.467211   3.763083   4.842979   4.185449
    13  N    5.657549   3.712548   4.826527   6.026107   4.972553
    14  O    6.026106   5.082924   6.514875   7.412032   7.055896
    15  H    2.616159   3.390773   4.715223   4.963743   5.768974
    16  H    1.010067   2.668137   2.738462   1.990930   3.920850
    17  H    1.011462   3.320614   4.012572   3.594361   5.226690
    18  H    3.637621   3.207844   1.882511   0.972667   2.265762
    19  H    4.608954   2.129330   2.553026   3.883770   2.399141
    20  H    6.192964   4.484744   5.697229   6.832083   5.923883
    21  H    6.142926   3.946309   4.819336   6.085379   4.749938
    22  H    6.701079   5.975622   7.428325   8.274689   8.005684
                   11         12         13         14         15
    11  C    0.000000
    12  C    1.400251   0.000000
    13  N    2.404428   1.390534   0.000000
    14  O    4.269750   2.880752   2.718435   0.000000
    15  H    3.830747   3.410099   4.608954   3.883769   0.000000
    16  H    4.046861   4.826377   6.192963   6.832082   3.580286
    17  H    4.460866   4.763292   6.142925   6.085378   2.361798
    18  H    4.305318   5.608020   6.701079   8.274689   5.932788
    19  H    1.084898   2.148184   2.616159   4.963743   4.915053
    20  H    3.268782   2.034079   1.010067   1.990930   4.751585
    21  H    2.555908   2.026773   1.011462   3.594362   5.403112
    22  H    5.224212   3.840359   3.637622   0.972667   4.354685
                   16         17         18         19         20
    16  H    0.000000
    17  H    1.682638   0.000000
    18  H    2.832676   4.491572   0.000000
    19  H    4.751585   5.403112   4.354685   0.000000
    20  H    6.807467   6.544156   7.555933   3.580286   0.000000
    21  H    6.544156   6.705263   6.652781   2.361798   1.682638
    22  H    7.555932   6.652780   9.159172   5.932788   2.832677
                   21         22
    21  H    0.000000
    22  H    4.491573   0.000000
 Stoichiometry    C8H8N2O4
 Framework group  C1[X(C8H8N2O4)]
 Deg. of freedom    60
 Full point group                 C1      NOp   1
 Largest Abelian subgroup         C1      NOp   1
 Largest concise Abelian subgroup C1      NOp   1
                         Standard orientation:                         
 ---------------------------------------------------------------------
 Center     Atomic      Atomic             Coordinates (Angstroms)
 Number     Number       Type             X           Y           Z
 ---------------------------------------------------------------------
      1          8           0       -3.292734   -1.614313   -0.221412
      2          6           0       -2.843564   -0.499468   -0.016046
      3          6           0       -1.396030   -0.161681   -0.010652
      4          6           0       -0.534228   -1.265036   -0.019799
      5          6           0        0.861663   -1.156578    0.000964
      6          7           0        1.628760   -2.312814   -0.089953
      7          6           0        1.396030    0.161681   -0.010652
      8          6           0        2.843564    0.499468   -0.016045
      9          8           0        3.665727   -0.544977    0.249754
     10          8           0        3.292734    1.614314   -0.221409
     11          6           0        0.534228    1.265036   -0.019801
     12          6           0       -0.861663    1.156578    0.000962
     13          7           0       -1.628760    2.312813   -0.089954
     14          8           0       -3.665727    0.544976    0.249757
     15          1           0       -0.986291   -2.250926   -0.045565
     16          1           0        2.583591   -2.215955    0.224927
     17          1           0        1.177788   -3.138941    0.280442
     18          1           0        4.575147   -0.201585    0.216320
     19          1           0        0.986291    2.250926   -0.045568
     20          1           0       -2.583592    2.215955    0.224925
     21          1           0       -1.177788    3.138942    0.280439
     22          1           0       -4.575147    0.201584    0.216323
 ---------------------------------------------------------------------
 Rotational constants (GHZ):           1.3895642           0.4277877           0.3288607
 Standard basis: 6-31G(d,p) (6D, 7F)
 There are   250 symmetry adapted cartesian basis functions of A   symmetry.
 There are   250 symmetry adapted basis functions of A   symmetry.
   250 basis functions,   448 primitive gaussians,   250 cartesian basis functions
    51 alpha electrons       51 beta electrons
       nuclear repulsion energy       871.7869583856 Hartrees.
 NAtoms=   22 NActive=   22 NUniq=   22 SFac= 1.00D+00 NAtFMM=   60 NAOKFM=F Big=F
 Integral buffers will be    131072 words long.
 Raffenetti 2 integral format.
 Two-electron integral symmetry is turned on.
 ------------------------------------------------------------------------------
 Polarizable Continuum Model (PCM)
 =================================
 Model                : PCM.
 Atomic radii         : UFF (Universal Force Field).
 Polarization charges : Total charges.
 Charge compensation  : None.
 Solution method      : Matrix inversion.
 Cavity type          : Scaled VdW (van der Waals Surface) (Alpha=1.100).
 Cavity algorithm     : GePol (No added spheres)
                        Default sphere list used, NSphG=   22.
                        Lebedev-Laikov grids with approx.  5.0 points / Ang**2.
                        Smoothing algorithm: York/Karplus (Gamma=1.0000).
                        Polarization charges: spherical gaussians, with
                                              point-specific exponents (IZeta= 3).
                        Self-potential: point-specific (ISelfS= 7).
                        Self-field    : sphere-specific E.n sum rule (ISelfD= 2).
 1st derivatives      : Analytical E(r).r(x)/FMM algorithm (CHGder, D1EAlg=3).
                        Cavity 1st derivative terms included.
 Solvent              : Water, Eps=  78.355300 Eps(inf)=   1.777849
 ------------------------------------------------------------------------------
 One-electron integrals computed using PRISM.
 NBasis=   250 RedAO= T EigKep=  3.10D-04  NBF=   250
 NBsUse=   250 1.00D-06 EigRej= -1.00D+00 NBFU=   250
 Initial guess from the checkpoint file:  "WIOZZYWDYUOMAY-UHFFFAOYSA-N_conf_3_0.chk"
 B after Tr=    -0.000000    0.000000    0.000000
         Rot=    0.999999    0.000000   -0.000000    0.001665 Ang=   0.19 deg.
 ExpMin= 1.61D-01 ExpMax= 5.48D+03 ExpMxC= 8.25D+02 IAcc=2 IRadAn=         4 AccDes= 0.00D+00
 Harris functional with IExCor=  402 and IRadAn=       4 diagonalized for initial guess.
 HarFok:  IExCor=  402 AccDes= 0.00D+00 IRadAn=         4 IDoV= 1 UseB2=F ITyADJ=14
 ICtDFT=  3500011 ScaDFX=  1.000000  1.000000  1.000000  1.000000
 FoFCou: FMM=F IPFlag=           0 FMFlag=      100000 FMFlg1=           0
         NFxFlg=           0 DoJE=T BraDBF=F KetDBF=T FulRan=T
         wScrn=  0.000000 ICntrl=       500 IOpCl=  0 I1Cent=   200000004 NGrid=           0
         NMat0=    1 NMatS0=      1 NMatT0=    0 NMatD0=    1 NMtDS0=    0 NMtDT0=    0
 Petite list used in FoFCou.
 Keep R1 ints in memory in canonical form, NReq=500119023.
 Requested convergence on RMS density matrix=1.00D-08 within  32 cycles.
 Requested convergence on MAX density matrix=1.00D-06.
 Requested convergence on             energy=1.00D-06.
 No special actions if energy rises.
 Inv3:  Mode=1 IEnd=    10245312.
 Iteration    1 A*A^-1 deviation from unit magnitude is 3.00D-15 for    377.
 Iteration    1 A*A^-1 deviation from orthogonality  is 1.79D-15 for   1218    349.
 Iteration    1 A^-1*A deviation from unit magnitude is 2.78D-15 for    377.
 Iteration    1 A^-1*A deviation from orthogonality  is 1.98D-15 for   1617   1228.
 Error on total polarization charges =  0.00508
 SCF Done:  E(RB3LYP) =  -720.142727033     A.U. after   11 cycles
            NFock= 11  Conv=0.62D-08     -V/T= 2.0091
 QCSCF skips out because SCF is already converged.
 D1PCM: PCM CHGder 1st derivatives, ID1Alg=3 FixD1E=F DoIter=F DoCFld=F I1PDM=0.
 Calling FoFJK, ICntrl=      2127 FMM=F ISym2X=0 I1Cent= 0 IOpClX= 0 NMat=1 NMatS=1 NMatT=0.
 ***** Axes restored to original set *****
 -------------------------------------------------------------------
 Center     Atomic                   Forces (Hartrees/Bohr)
 Number     Number              X              Y              Z
 -------------------------------------------------------------------
      1        8           0.000064085   -0.000406716    0.000240629
      2        6          -0.000503020    0.000035586    0.000317051
      3        6           0.000114753   -0.001273649    0.001000467
      4        6          -0.000119254   -0.000634872   -0.000364596
      5        6           0.000671006    0.003621616    0.001252341
      6        7          -0.000646630   -0.002016077   -0.000622185
      7        6          -0.000173448   -0.001162268   -0.001120467
      8        6           0.000504889    0.000042459   -0.000313193
      9        8          -0.000008968    0.000471720   -0.000193843
     10        8          -0.000082989   -0.000377581   -0.000279263
     11        6           0.000087760   -0.000672594    0.000300184
     12        6          -0.000493301    0.003755074   -0.000888935
     13        7           0.000547613   -0.002096067    0.000419619
     14        8           0.000031147    0.000449450    0.000239183
     15        1           0.000023235   -0.000285532   -0.000121329
     16        1          -0.000459342   -0.000091130    0.000636685
     17        1           0.000228935    0.000610264    0.000308749
     18        1          -0.000603401   -0.000137464    0.000308302
     19        1          -0.000037208   -0.000294663    0.000092747
     20        1           0.000455909   -0.000050133   -0.000643645
     21        1          -0.000198620    0.000647912   -0.000246759
     22        1           0.000596849   -0.000135334   -0.000321742
 -------------------------------------------------------------------
 Cartesian Forces:  Max     0.003755074 RMS     0.000883394

 GradGradGradGradGradGradGradGradGradGradGradGradGradGradGradGradGradGrad
 Berny optimization.
 Using GEDIIS/GDIIS optimizer.
 FormGI is forming the generalized inverse of G from B-inverse, IUseBI=4.
 Internal  Forces:  Max     0.001271111 RMS     0.000498811
 Search for a local minimum.
 Step number   2 out of a maximum of  108
 All quantities printed in internal units (Hartrees-Bohrs-Radians)
 Mixed Optimization -- En-DIIS/RFO-DIIS
 Update second derivatives using D2CorX and points    1    2
 DE= -6.07D-03 DEPred=-6.13D-03 R= 9.90D-01
 TightC=F SS=  1.41D+00  RLast= 3.89D-01 DXNew= 5.0454D-01 1.1671D+00
 Trust test= 9.90D-01 RLast= 3.89D-01 DXMaxT set to 5.05D-01
 ITU=  1  0
 Use linear search instead of GDIIS.
     Eigenvalues ---    0.00020   0.00056   0.00548   0.00562   0.01022
     Eigenvalues ---    0.01328   0.01694   0.01852   0.01904   0.01929
     Eigenvalues ---    0.01985   0.02052   0.02057   0.02205   0.02371
     Eigenvalues ---    0.02855   0.03011   0.06700   0.06719   0.11535
     Eigenvalues ---    0.11735   0.13284   0.13388   0.15393   0.15465
     Eigenvalues ---    0.16881   0.17346   0.18588   0.18862   0.19444
     Eigenvalues ---    0.19621   0.20768   0.21225   0.22902   0.24224
     Eigenvalues ---    0.25353   0.28124   0.32951   0.34909   0.34992
     Eigenvalues ---    0.36251   0.36525   0.39701   0.40151   0.41434
     Eigenvalues ---    0.41556   0.42123   0.42557   0.44316   0.45514
     Eigenvalues ---    0.45556   0.45779   0.46077   0.48269   0.48378
     Eigenvalues ---    0.50420   0.80547   0.83485   0.86864   0.88289
 RFO step:  Lambda=-1.22275102D-03 EMin= 1.99662950D-04
 Quartic linear search produced a step of  0.15142.
 Iteration  1 RMS(Cart)=  0.10242861 RMS(Int)=  0.01851802
 Iteration  2 RMS(Cart)=  0.03106821 RMS(Int)=  0.00080932
 Iteration  3 RMS(Cart)=  0.00103645 RMS(Int)=  0.00024979
 Iteration  4 RMS(Cart)=  0.00000123 RMS(Int)=  0.00024979
 Iteration  5 RMS(Cart)=  0.00000000 RMS(Int)=  0.00024979
 Variable       Old X    -DE/DX   Delta X   Delta X   Delta X     New X
                                 (Linear)    (Quad)   (Total)
    R1        2.30423   0.00020   0.00026   0.00279   0.00305   2.30729
    R2        2.80895   0.00040  -0.00024  -0.00027  -0.00051   2.80845
    R3        2.56158   0.00049   0.00206  -0.00470  -0.00265   2.55894
    R4        2.64574   0.00012  -0.00204   0.00440   0.00236   2.64810
    R5        2.68812   0.00127   0.00463  -0.00021   0.00441   2.69254
    R6        2.64609   0.00016  -0.00039   0.00079   0.00040   2.64649
    R7        2.05016  -0.00011  -0.00132   0.00145   0.00013   2.05029
    R8        2.62773   0.00080  -0.00443  -0.00199  -0.00643   2.62130
    R9        2.68812   0.00127   0.00463  -0.00021   0.00441   2.69254
   R10        1.90875   0.00020  -0.00406   0.00356  -0.00051   1.90824
   R11        1.91139   0.00007  -0.00101  -0.00018  -0.00119   1.91020
   R12        2.80895   0.00040  -0.00024  -0.00027  -0.00051   2.80845
   R13        2.64574   0.00012  -0.00204   0.00440   0.00236   2.64810
   R14        2.56158   0.00049   0.00206  -0.00470  -0.00265   2.55894
   R15        2.30423   0.00020   0.00026   0.00279   0.00305   2.30729
   R16        1.83807   0.00029  -0.00258   0.00380   0.00122   1.83929
   R17        2.64609   0.00016  -0.00039   0.00079   0.00040   2.64649
   R18        2.05016  -0.00011  -0.00132   0.00145   0.00013   2.05029
   R19        2.62773   0.00080  -0.00443  -0.00199  -0.00643   2.62130
   R20        1.90875   0.00020  -0.00406   0.00356  -0.00051   1.90824
   R21        1.91139   0.00007  -0.00101  -0.00018  -0.00119   1.91020
   R22        1.83807   0.00029  -0.00258   0.00380   0.00122   1.83929
    A1        2.17379   0.00026  -0.00260   0.00034  -0.00236   2.17143
    A2        2.11072   0.00004   0.00165  -0.00897  -0.00742   2.10330
    A3        1.99857  -0.00029   0.00112   0.00884   0.00987   2.00844
    A4        2.00460  -0.00008  -0.00305  -0.00472  -0.00783   1.99677
    A5        2.18517   0.00032   0.00312   0.01223   0.01529   2.20047
    A6        2.09341  -0.00024  -0.00007  -0.00748  -0.00764   2.08577
    A7        2.15615   0.00056   0.00466   0.00411   0.00875   2.16489
    A8        2.04859  -0.00033  -0.00449  -0.00188  -0.00636   2.04222
    A9        2.07845  -0.00023  -0.00016  -0.00223  -0.00239   2.07606
   A10        2.07666  -0.00023   0.00294  -0.01040  -0.00798   2.06868
   A11        2.03325  -0.00031  -0.00429   0.00410  -0.00075   2.03250
   A12        2.16858   0.00064   0.00326   0.00925   0.01202   2.18059
   A13        2.00575   0.00121   0.00805   0.01240   0.01985   2.02560
   A14        1.99242  -0.00014  -0.00187   0.00923   0.00675   1.99917
   A15        1.96670  -0.00030   0.00052   0.02157   0.02127   1.98797
   A16        2.18517   0.00032   0.00312   0.01223   0.01529   2.20047
   A17        2.09341  -0.00024  -0.00007  -0.00748  -0.00764   2.08577
   A18        2.00460  -0.00008  -0.00305  -0.00472  -0.00783   1.99677
   A19        1.99857  -0.00029   0.00112   0.00884   0.00987   2.00844
   A20        2.17379   0.00026  -0.00260   0.00034  -0.00236   2.17143
   A21        2.11072   0.00004   0.00165  -0.00897  -0.00742   2.10330
   A22        1.86327   0.00116   0.01019  -0.01001   0.00018   1.86345
   A23        2.15615   0.00056   0.00466   0.00411   0.00875   2.16489
   A24        2.04859  -0.00033  -0.00449  -0.00188  -0.00636   2.04222
   A25        2.07845  -0.00023  -0.00016  -0.00223  -0.00239   2.07606
   A26        2.03325  -0.00031  -0.00429   0.00410  -0.00075   2.03250
   A27        2.16858   0.00064   0.00326   0.00925   0.01202   2.18059
   A28        2.07666  -0.00023   0.00294  -0.01040  -0.00798   2.06868
   A29        2.00575   0.00121   0.00805   0.01240   0.01985   2.02560
   A30        1.99242  -0.00014  -0.00187   0.00923   0.00675   1.99917
   A31        1.96670  -0.00030   0.00052   0.02157   0.02127   1.98797
   A32        1.86327   0.00116   0.01019  -0.01001   0.00018   1.86345
    D1       -0.19451   0.00043   0.00893   0.22087   0.22976   0.03525
    D2        2.94564   0.00040   0.00797   0.24372   0.25175  -3.08579
    D3        2.93157   0.00047   0.01465   0.23588   0.25046  -3.10115
    D4       -0.21147   0.00044   0.01369   0.25872   0.27246   0.06099
    D5       -0.01649   0.00003   0.00227   0.03602   0.03830   0.02181
    D6        3.14000  -0.00001  -0.00308   0.02152   0.01843  -3.12475
    D7       -3.12650   0.00009  -0.00080  -0.00206  -0.00287  -3.12936
    D8        0.01634  -0.00009  -0.00248   0.00226  -0.00022   0.01612
    D9        0.01646   0.00012   0.00012  -0.02363  -0.02332  -0.00685
   D10       -3.12389  -0.00006  -0.00156  -0.01930  -0.02066   3.13863
   D11       -3.12227  -0.00058  -0.00590  -0.03367  -0.03958   3.12133
   D12       -0.08608   0.00043   0.00889  -0.00128   0.00773  -0.07835
   D13        0.01780  -0.00061  -0.00691  -0.00974  -0.01656   0.00124
   D14        3.05399   0.00040   0.00789   0.02265   0.03075   3.08474
   D15       -3.07620  -0.00051  -0.00723   0.00119  -0.00571  -3.08191
   D16       -0.03419   0.00050   0.00684   0.03297   0.03968   0.00549
   D17        0.06413  -0.00033  -0.00555  -0.00321  -0.00841   0.05572
   D18        3.10614   0.00069   0.00853   0.02858   0.03698  -3.14007
   D19       -2.81058   0.00058   0.00942   0.02097   0.03029  -2.78028
   D20       -0.49957   0.00124   0.01628   0.07593   0.09263  -0.40694
   D21        0.43886  -0.00046  -0.00493  -0.01301  -0.01836   0.42050
   D22        2.74987   0.00021   0.00193   0.04195   0.04397   2.79385
   D23       -3.12227  -0.00058  -0.00590  -0.03367  -0.03958   3.12133
   D24        0.01780  -0.00061  -0.00691  -0.00974  -0.01656   0.00124
   D25       -0.08608   0.00043   0.00889  -0.00128   0.00773  -0.07835
   D26        3.05399   0.00040   0.00789   0.02265   0.03075   3.08474
   D27       -0.21147   0.00044   0.01369   0.25872   0.27246   0.06099
   D28        2.94564   0.00040   0.00797   0.24372   0.25175  -3.08579
   D29        2.93157   0.00047   0.01465   0.23588   0.25046  -3.10115
   D30       -0.19450   0.00043   0.00893   0.22087   0.22975   0.03525
   D31        0.01646   0.00012   0.00012  -0.02363  -0.02332  -0.00685
   D32       -3.12389  -0.00006  -0.00156  -0.01930  -0.02067   3.13863
   D33       -3.12650   0.00009  -0.00080  -0.00206  -0.00287  -3.12936
   D34        0.01634  -0.00009  -0.00248   0.00226  -0.00022   0.01612
   D35        3.14000  -0.00001  -0.00308   0.02153   0.01843  -3.12475
   D36       -0.01649   0.00003   0.00227   0.03602   0.03830   0.02181
   D37       -0.03419   0.00050   0.00684   0.03298   0.03968   0.00549
   D38       -3.07620  -0.00051  -0.00723   0.00119  -0.00571  -3.08191
   D39        3.10614   0.00069   0.00853   0.02858   0.03698  -3.14007
   D40        0.06413  -0.00033  -0.00554  -0.00320  -0.00841   0.05572
   D41        0.43886  -0.00046  -0.00493  -0.01301  -0.01836   0.42050
   D42        2.74987   0.00021   0.00193   0.04195   0.04397   2.79385
   D43       -2.81058   0.00058   0.00942   0.02097   0.03029  -2.78029
   D44       -0.49957   0.00124   0.01628   0.07593   0.09263  -0.40694
         Item               Value     Threshold  Converged?
 Maximum Force            0.001271     0.000450     NO 
 RMS     Force            0.000499     0.000300     NO 
 Maximum Displacement     0.571717     0.001800     NO 
 RMS     Displacement     0.129088     0.001200     NO 
 Predicted change in Energy=-1.064011D-03
 GradGradGradGradGradGradGradGradGradGradGradGradGradGradGradGradGradGrad

                          Input orientation:                          
 ---------------------------------------------------------------------
 Center     Atomic      Atomic             Coordinates (Angstroms)
 Number     Number       Type             X           Y           Z
 ---------------------------------------------------------------------
      1          8           0        2.689913   -0.216160    2.486332
      2          6           0        2.593077   -0.099159    1.274851
      3          6           0        1.304392   -0.010751    0.539893
[...]
    X=             -0.0000    Y=              0.0000    Z=              2.1487  Tot=              2.1487
 Quadrupole moment (field-independent basis, Debye-Ang):
   XX=            -72.6570   YY=            -68.0400   ZZ=            -81.1704
   XY=            -27.2871   XZ=              0.0001   YZ=              0.0002
 Traceless Quadrupole moment (field-independent basis, Debye-Ang):
   XX=              1.2988   YY=              5.9158   ZZ=             -7.2146
   XY=            -27.2871   XZ=              0.0001   YZ=              0.0002
 Octapole moment (field-independent basis, Debye-Ang**2):
  XXX=             -0.0002  YYY=              0.0000  ZZZ=              2.5047  XYY=              0.0001
  XXY=             -0.0002  XXZ=             13.8246  XZZ=             -0.0000  YZZ=              0.0001
  YYZ=             16.1392  XYZ=             -8.5547
 Hexadecapole moment (field-independent basis, Debye-Ang**3):
 XXXX=          -2049.7643 YYYY=           -732.6927 ZZZZ=            -76.0402 XXXY=           -293.3271
 XXXZ=              0.0022 YYYX=           -171.0757 YYYZ=              0.0009 ZZZX=              0.0001
 ZZZY=             -0.0001 XXYY=           -701.1056 XXZZ=           -463.5804 YYZZ=           -180.2847
 XXYZ=              0.0012 YYXZ=              0.0002 ZZXY=              2.5880
 N-N= 8.716002291082D+02 E-N=-3.427082643025D+03  KE= 7.137311180976D+02
 Evaluate density.
 Using the total density.
 Monte-Carlo method of calculating molar volume:
 based on  0.001 e/bohr**3 density envelope.
 Number of points per bohr**3 =   20 CutOff= 1.00D-04
 Using the CI density.
 There are       366 points.  Will hold       366 in memory.
 LenV=   805150654 MDV=   805306368.
 Box volume = 6156.262 fraction occupied=0.230
 Integrated density= 8.3029354528253293D+01 error=-1.8970645471746707D+01
 Molar volume = 1412.913 bohr**3/mol (126.087 cm**3/mol)
 Recommended a0 for SCRF calculation =  4.55 angstrom (  8.61 bohr)
 ******************************Gaussian NBO Version 3.1******************************
             N A T U R A L   A T O M I C   O R B I T A L   A N D
          N A T U R A L   B O N D   O R B I T A L   A N A L Y S I S
 ******************************Gaussian NBO Version 3.1******************************
       /RESON  / : Allow strongly delocalized NBO set

 Analyzing the CI density

 Job title: WIOZZYWDYUOMAY-UHFFFAOYSA-N_conf_3                              

 Storage needed:    189224 in NPA ( 805303772 available)


 NATURAL POPULATIONS:  Natural atomic orbital occupancies 
                                                          
   NAO  Atom  No  lang   Type(AO)    Occupancy
 --------------------------------------------
     1    O    1  S      Cor( 1S)     1.99979
     2    O    1  S      Val( 2S)     1.69938
     3    O    1  S      Ryd( 3S)     0.00043
     4    O    1  S      Ryd( 4S)     0.00013
     5    O    1  px     Val( 2p)     1.80341
     6    O    1  px     Ryd( 3p)     0.00125
     7    O    1  py     Val( 2p)     1.62544
     8    O    1  py     Ryd( 3p)     0.00067
     9    O    1  pz     Val( 2p)     1.53746
    10    O    1  pz     Ryd( 3p)     0.00148
    11    O    1  dxy    Ryd( 3d)     0.00432
    12    O    1  dxz    Ryd( 3d)     0.00065
    13    O    1  dyz    Ryd( 3d)     0.00384
    14    O    1  dx2y2  Ryd( 3d)     0.00449
    15    O    1  dz2    Ryd( 3d)     0.00134

    16    C    2  S      Cor( 1S)     1.99938
    17    C    2  S      Val( 2S)     0.75956
    18    C    2  S      Ryd( 3S)     0.00422
    19    C    2  S      Ryd( 4S)     0.00044
    20    C    2  px     Val( 2p)     0.87409
    21    C    2  px     Ryd( 3p)     0.00708
    22    C    2  py     Val( 2p)     0.70464
    23    C    2  py     Ryd( 3p)     0.02127
    24    C    2  pz     Val( 2p)     0.86888
    25    C    2  pz     Ryd( 3p)     0.00168
    26    C    2  dxy    Ryd( 3d)     0.00327
    27    C    2  dxz    Ryd( 3d)     0.00141
    28    C    2  dyz    Ryd( 3d)     0.00239
    29    C    2  dx2y2  Ryd( 3d)     0.00231
    30    C    2  dz2    Ryd( 3d)     0.00045

    31    C    3  S      Cor( 1S)     1.99886
    32    C    3  S      Val( 2S)     0.90087
    33    C    3  S      Ryd( 3S)     0.00110
    34    C    3  S      Ryd( 4S)     0.00005
    35    C    3  px     Val( 2p)     1.09958
    36    C    3  px     Ryd( 3p)     0.00520
    37    C    3  py     Val( 2p)     1.08327
    38    C    3  py     Ryd( 3p)     0.00546
    39    C    3  pz     Val( 2p)     1.11608
    40    C    3  pz     Ryd( 3p)     0.00198
    41    C    3  dxy    Ryd( 3d)     0.00060
    42    C    3  dxz    Ryd( 3d)     0.00073
    43    C    3  dyz    Ryd( 3d)     0.00051
    44    C    3  dx2y2  Ryd( 3d)     0.00081
    45    C    3  dz2    Ryd( 3d)     0.00036

    46    C    4  S      Cor( 1S)     1.99906
    47    C    4  S      Val( 2S)     0.94693
    48    C    4  S      Ryd( 3S)     0.00082
    49    C    4  S      Ryd( 4S)     0.00006
    50    C    4  px     Val( 2p)     1.06551
    51    C    4  px     Ryd( 3p)     0.00439
    52    C    4  py     Val( 2p)     1.19039
    53    C    4  py     Ryd( 3p)     0.00475
    54    C    4  pz     Val( 2p)     1.02433
    55    C    4  pz     Ryd( 3p)     0.00323
    56    C    4  dxy    Ryd( 3d)     0.00058
    57    C    4  dxz    Ryd( 3d)     0.00055
    58    C    4  dyz    Ryd( 3d)     0.00037
    59    C    4  dx2y2  Ryd( 3d)     0.00067
    60    C    4  dz2    Ryd( 3d)     0.00039

    61    C    5  S      Cor( 1S)     1.99894
    62    C    5  S      Val( 2S)     0.83925
    63    C    5  S      Ryd( 3S)     0.00111
    64    C    5  S      Ryd( 4S)     0.00012
    65    C    5  px     Val( 2p)     1.03450
    66    C    5  px     Ryd( 3p)     0.00537
    67    C    5  py     Val( 2p)     0.96394
    68    C    5  py     Ryd( 3p)     0.00537
    69    C    5  pz     Val( 2p)     0.93980
    70    C    5  pz     Ryd( 3p)     0.00131
    71    C    5  dxy    Ryd( 3d)     0.00113
    72    C    5  dxz    Ryd( 3d)     0.00115
    73    C    5  dyz    Ryd( 3d)     0.00127
    74    C    5  dx2y2  Ryd( 3d)     0.00094
    75    C    5  dz2    Ryd( 3d)     0.00039

    76    N    6  S      Cor( 1S)     1.99946
    77    N    6  S      Val( 2S)     1.35734
    78    N    6  S      Ryd( 3S)     0.00016
    79    N    6  S      Ryd( 4S)     0.00001
    80    N    6  px     Val( 2p)     1.41912
    81    N    6  px     Ryd( 3p)     0.00184
    82    N    6  py     Val( 2p)     1.34526
    83    N    6  py     Ryd( 3p)     0.00213
    84    N    6  pz     Val( 2p)     1.58948
    85    N    6  pz     Ryd( 3p)     0.00314
    86    N    6  dxy    Ryd( 3d)     0.00049
    87    N    6  dxz    Ryd( 3d)     0.00076
    88    N    6  dyz    Ryd( 3d)     0.00073
    89    N    6  dx2y2  Ryd( 3d)     0.00038
    90    N    6  dz2    Ryd( 3d)     0.00060

    91    C    7  S      Cor( 1S)     1.99886
    92    C    7  S      Val( 2S)     0.90087
    93    C    7  S      Ryd( 3S)     0.00110
    94    C    7  S      Ryd( 4S)     0.00005
    95    C    7  px     Val( 2p)     1.09958
    96    C    7  px     Ryd( 3p)     0.00520
    97    C    7  py     Val( 2p)     1.08327
    98    C    7  py     Ryd( 3p)     0.00546
    99    C    7  pz     Val( 2p)     1.11608
   100    C    7  pz     Ryd( 3p)     0.00198
   101    C    7  dxy    Ryd( 3d)     0.00060
   102    C    7  dxz    Ryd( 3d)     0.00073
   103    C    7  dyz    Ryd( 3d)     0.00051
   104    C    7  dx2y2  Ryd( 3d)     0.00081
   105    C    7  dz2    Ryd( 3d)     0.00036

   106    C    8  S      Cor( 1S)     1.99938
   107    C    8  S      Val( 2S)     0.75956
   108    C    8  S      Ryd( 3S)     0.00422
   109    C    8  S      Ryd( 4S)     0.00044
   110    C    8  px     Val( 2p)     0.87409
   111    C    8  px     Ryd( 3p)     0.00708
   112    C    8  py     Val( 2p)     0.70463
   113    C    8  py     Ryd( 3p)     0.02127
   114    C    8  pz     Val( 2p)     0.86888
   115    C    8  pz     Ryd( 3p)     0.00168
   116    C    8  dxy    Ryd( 3d)     0.00327
   117    C    8  dxz    Ryd( 3d)     0.00141
   118    C    8  dyz    Ryd( 3d)     0.00239
   119    C    8  dx2y2  Ryd( 3d)     0.00231
   120    C    8  dz2    Ryd( 3d)     0.00045

   121    O    9  S      Cor( 1S)     1.99977
   122    O    9  S      Val( 2S)     1.68031
   123    O    9  S      Ryd( 3S)     0.00098
   124    O    9  S      Ryd( 4S)     0.00011
   125    O    9  px     Val( 2p)     1.49563
   126    O    9  px     Ryd( 3p)     0.00135
   127    O    9  py     Val( 2p)     1.72119
   128    O    9  py     Ryd( 3p)     0.00153
   129    O    9  pz     Val( 2p)     1.84568
   130    O    9  pz     Ryd( 3p)     0.00083
   131    O    9  dxy    Ryd( 3d)     0.00123
   132    O    9  dxz    Ryd( 3d)     0.00014
   133    O    9  dyz    Ryd( 3d)     0.00179
   134    O    9  dx2y2  Ryd( 3d)     0.00108
   135    O    9  dz2    Ryd( 3d)     0.00064

   136    O   10  S      Cor( 1S)     1.99979
   137    O   10  S      Val( 2S)     1.69938
   138    O   10  S      Ryd( 3S)     0.00043
   139    O   10  S      Ryd( 4S)     0.00013
   140    O   10  px     Val( 2p)     1.80340
   141    O   10  px     Ryd( 3p)     0.00125
   142    O   10  py     Val( 2p)     1.62544
   143    O   10  py     Ryd( 3p)     0.00067
   144    O   10  pz     Val( 2p)     1.53746
   145    O   10  pz     Ryd( 3p)     0.00148
   146    O   10  dxy    Ryd( 3d)     0.00432
   147    O   10  dxz    Ryd( 3d)     0.00065
   148    O   10  dyz    Ryd( 3d)     0.00384
   149    O   10  dx2y2  Ryd( 3d)     0.00449
   150    O   10  dz2    Ryd( 3d)     0.00134

   151    C   11  S      Cor( 1S)     1.99906
   152    C   11  S      Val( 2S)     0.94693
   153    C   11  S      Ryd( 3S)     0.00082
   154    C   11  S      Ryd( 4S)     0.00006
   155    C   11  px     Val( 2p)     1.06551
   156    C   11  px     Ryd( 3p)     0.00439
   157    C   11  py     Val( 2p)     1.19039
   158    C   11  py     Ryd( 3p)     0.00475
   159    C   11  pz     Val( 2p)     1.02434
   160    C   11  pz     Ryd( 3p)     0.00323
   161    C   11  dxy    Ryd( 3d)     0.00058
   162    C   11  dxz    Ryd( 3d)     0.00055
   163    C   11  dyz    Ryd( 3d)     0.00037
   164    C   11  dx2y2  Ryd( 3d)     0.00067
   165    C   11  dz2    Ryd( 3d)     0.00039

   166    C   12  S      Cor( 1S)     1.99894
   167    C   12  S      Val( 2S)     0.83925
   168    C   12  S      Ryd( 3S)     0.00111
   169    C   12  S      Ryd( 4S)     0.00012
   170    C   12  px     Val( 2p)     1.03450
   171    C   12  px     Ryd( 3p)     0.00537
   172    C   12  py     Val( 2p)     0.96394
   173    C   12  py     Ryd( 3p)     0.00537
   174    C   12  pz     Val( 2p)     0.93980
   175    C   12  pz     Ryd( 3p)     0.00131
   176    C   12  dxy    Ryd( 3d)     0.00113
   177    C   12  dxz    Ryd( 3d)     0.00115
   178    C   12  dyz    Ryd( 3d)     0.00127
   179    C   12  dx2y2  Ryd( 3d)     0.00094
   180    C   12  dz2    Ryd( 3d)     0.00039

   181    N   13  S      Cor( 1S)     1.99946
   182    N   13  S      Val( 2S)     1.35734
   183    N   13  S      Ryd( 3S)     0.00016
   184    N   13  S      Ryd( 4S)     0.00001
   185    N   13  px     Val( 2p)     1.41912
   186    N   13  px     Ryd( 3p)     0.00184
   187    N   13  py     Val( 2p)     1.34526
   188    N   13  py     Ryd( 3p)     0.00213
   189    N   13  pz     Val( 2p)     1.58948
   190    N   13  pz     Ryd( 3p)     0.00314
   191    N   13  dxy    Ryd( 3d)     0.00049
   192    N   13  dxz    Ryd( 3d)     0.00076
   193    N   13  dyz    Ryd( 3d)     0.00073
   194    N   13  dx2y2  Ryd( 3d)     0.00038
   195    N   13  dz2    Ryd( 3d)     0.00060

   196    O   14  S      Cor( 1S)     1.99977
   197    O   14  S      Val( 2S)     1.68031
   198    O   14  S      Ryd( 3S)     0.00098
   199    O   14  S      Ryd( 4S)     0.00011
   200    O   14  px     Val( 2p)     1.49563
   201    O   14  px     Ryd( 3p)     0.00135
   202    O   14  py     Val( 2p)     1.72119
   203    O   14  py     Ryd( 3p)     0.00153
   204    O   14  pz     Val( 2p)     1.84568
   205    O   14  pz     Ryd( 3p)     0.00083
   206    O   14  dxy    Ryd( 3d)     0.00123
   207    O   14  dxz    Ryd( 3d)     0.00014
   208    O   14  dyz    Ryd( 3d)     0.00179
   209    O   14  dx2y2  Ryd( 3d)     0.00108
   210    O   14  dz2    Ryd( 3d)     0.00064

   211    H   15  S      Val( 1S)     0.73589
   212    H   15  S      Ryd( 2S)     0.00209
   213    H   15  px     Ryd( 2p)     0.00016
   214    H   15  py     Ryd( 2p)     0.00033
   215    H   15  pz     Ryd( 2p)     0.00012

   216    H   16  S      Val( 1S)     0.55109
   217    H   16  S      Ryd( 2S)     0.00160
   218    H   16  px     Ryd( 2p)     0.00061
   219    H   16  py     Ryd( 2p)     0.00020
   220    H   16  pz     Ryd( 2p)     0.00042

   221    H   17  S      Val( 1S)     0.56615
   222    H   17  S      Ryd( 2S)     0.00104
   223    H   17  px     Ryd( 2p)     0.00026
   224    H   17  py     Ryd( 2p)     0.00049
   225    H   17  pz     Ryd( 2p)     0.00044

   226    H   18  S      Val( 1S)     0.47309
   227    H   18  S      Ryd( 2S)     0.00319
   228    H   18  px     Ryd( 2p)     0.00099
   229    H   18  py     Ryd( 2p)     0.00066
   230    H   18  pz     Ryd( 2p)     0.00079

   231    H   19  S      Val( 1S)     0.73589
   232    H   19  S      Ryd( 2S)     0.00209
   233    H   19  px     Ryd( 2p)     0.00016
   234    H   19  py     Ryd( 2p)     0.00033
   235    H   19  pz     Ryd( 2p)     0.00012

   236    H   20  S      Val( 1S)     0.55109
   237    H   20  S      Ryd( 2S)     0.00160
   238    H   20  px     Ryd( 2p)     0.00061
   239    H   20  py     Ryd( 2p)     0.00020
   240    H   20  pz     Ryd( 2p)     0.00042

   241    H   21  S      Val( 1S)     0.56615
   242    H   21  S      Ryd( 2S)     0.00104
   243    H   21  px     Ryd( 2p)     0.00026
   244    H   21  py     Ryd( 2p)     0.00049
   245    H   21  pz     Ryd( 2p)     0.00044

   246    H   22  S      Val( 1S)     0.47309
   247    H   22  S      Ryd( 2S)     0.00319
   248    H   22  px     Ryd( 2p)     0.00099
   249    H   22  py     Ryd( 2p)     0.00066
   250    H   22  pz     Ryd( 2p)     0.00079

 WARNING:  1 low occupancy (<1.9990e) core orbital  found on  C    3
           1 low occupancy (<1.9990e) core orbital  found on  C    5
           1 low occupancy (<1.9990e) core orbital  found on  C    7
           1 low occupancy (<1.9990e) core orbital  found on  C   12


 Summary of Natural Population Analysis:                  
                                                          
                                       Natural Population 
                Natural  -----------------------------------------------
    Atom  No    Charge         Core      Valence    Rydberg      Total
 -----------------------------------------------------------------------
      O    1   -0.68406      1.99979     6.66568    0.01859     8.68406
      C    2    0.74894      1.99938     3.20716    0.04452     5.25106
      C    3   -0.21545      1.99886     4.19979    0.01680     6.21545
      C    4   -0.24203      1.99906     4.22717    0.01580     6.24203
      C    5    0.20539      1.99894     3.77750    0.01817     5.79461
      N    6   -0.72090      1.99946     5.71120    0.01024     7.72090
      C    7   -0.21545      1.99886     4.19979    0.01680     6.21545
      C    8    0.74894      1.99938     3.20716    0.04452     5.25106
      O    9   -0.75227      1.99977     6.74281    0.00969     8.75227
      O   10   -0.68406      1.99979     6.66568    0.01859     8.68406
      C   11   -0.24203      1.99906     4.22717    0.01580     6.24203
      C   12    0.20539      1.99894     3.77750    0.01817     5.79461
      N   13   -0.72090      1.99946     5.71120    0.01024     7.72090
      O   14   -0.75227      1.99977     6.74281    0.00969     8.75227
      H   15    0.26141      0.00000     0.73589    0.00270     0.73859
      H   16    0.44607      0.00000     0.55109    0.00283     0.55393
      H   17    0.43161      0.00000     0.56615    0.00223     0.56839
      H   18    0.52128      0.00000     0.47309    0.00563     0.47872
      H   19    0.26141      0.00000     0.73589    0.00270     0.73859
      H   20    0.44607      0.00000     0.55109    0.00283     0.55393
      H   21    0.43161      0.00000     0.56615    0.00223     0.56839
      H   22    0.52128      0.00000     0.47309    0.00563     0.47872
 =======================================================================
   * Total *   -0.00000     27.99052    73.71507    0.29441   102.00000

                                 Natural Population      
 --------------------------------------------------------
   Core                      27.99052 ( 99.9662% of  28)
   Valence                   73.71507 ( 99.6150% of  74)
   Natural Minimal Basis    101.70559 ( 99.7114% of 102)
   Natural Rydberg Basis      0.29441 (  0.2886% of 102)
 --------------------------------------------------------

    Atom  No          Natural Electron Configuration
 ----------------------------------------------------------------------------
      O    1      [core]2S( 1.70)2p( 4.97)3d( 0.01)
      C    2      [core]2S( 0.76)2p( 2.45)3p( 0.03)3d( 0.01)
      C    3      [core]2S( 0.90)2p( 3.30)3p( 0.01)
      C    4      [core]2S( 0.95)2p( 3.28)3p( 0.01)
      C    5      [core]2S( 0.84)2p( 2.94)3p( 0.01)
      N    6      [core]2S( 1.36)2p( 4.35)3p( 0.01)
      C    7      [core]2S( 0.90)2p( 3.30)3p( 0.01)
      C    8      [core]2S( 0.76)2p( 2.45)3p( 0.03)3d( 0.01)
      O    9      [core]2S( 1.68)2p( 5.06)
      O   10      [core]2S( 1.70)2p( 4.97)3d( 0.01)
      C   11      [core]2S( 0.95)2p( 3.28)3p( 0.01)
      C   12      [core]2S( 0.84)2p( 2.94)3p( 0.01)
      N   13      [core]2S( 1.36)2p( 4.35)3p( 0.01)
      O   14      [core]2S( 1.68)2p( 5.06)
      H   15            1S( 0.74)
      H   16            1S( 0.55)
      H   17            1S( 0.57)
      H   18            1S( 0.47)
      H   19            1S( 0.74)
      H   20            1S( 0.55)
      H   21            1S( 0.57)
      H   22            1S( 0.47)


 NBO analysis skipped by request.
 1\1\GINC-DRG2-W002\SP\RB3LYP TD-FC\6-31G(d,p)\C8H8N2O4\QDUEZ\19-Jul-20
 24\0\\# TD(NStates=10, Root=1) B3LYP/6-31G** SCRF=(Solvent=water) volu
 me pop=NPA density=current Geom=AllCheck Guess=Read\\WIOZZYWDYUOMAY-UH
 FFFAOYSA-N_conf_3\\0,1\O,0,2.705531119,-0.1299439163,2.485074237\C,0,2
 .5919729274,-0.1009130542,1.270836155\C,0,1.2989216639,-0.0008867633,0
 .545165034\C,0,0.1629074201,-0.0086004257,1.3636612698\C,0,-1.14866650
 89,0.0534374952,0.8764393582\N,0,-2.1998094251,0.1147389718,1.78014395
 63\C,0,-1.2961705678,0.1150527958,-0.5395432418\C,0,-2.5908149041,0.14
 90066586,-1.2684666481\O,0,-3.6852085159,0.0536084386,-0.4735579348\O,
 0,-2.7027662911,0.2448694304,-2.4794122727\C,0,-0.159905523,0.13319691
 75,-1.357525942\C,0,1.1519784689,0.084010968,-0.8696708988\N,0,2.20698
 61348,0.1831991717,-1.7654725633\O,0,3.682402056,-0.1702211093,0.46781
 7644\H,0,0.3247705941,-0.0689357425,2.4345891627\H,0,-3.105132028,-0.1
 626441035,1.4305373296\H,0,-1.9894204827,-0.251851146,2.6982637514\H,0
 ,-4.4634526123,0.0732939642,-1.0568525816\H,0,-0.3219456951,0.18617024
 55,-2.4288165513\H,0,3.0971107369,-0.1703399464,-1.4469396293\H,0,1.98
 14019793,-0.0809240799,-2.7146545415\H,0,4.4593094537,-0.2453247702,1.
 0483849072\\Version=ES64L-G16RevA.03\State=1-A\HF=-720.1432963\RMSD=7.
 197e-10\Dipole=-0.020332,-0.8440778,-0.0415727\Quadrupole=12.0390715,-
 5.399741,-6.6393304,0.4708121,-18.0704143,0.4982631\PG=C01 [X(C8H8N2O4
 )]\\@


 THOSE WHO ARE UNABLE TO LEARN FROM PAST MEETINGS
 ARE CONDEMNED TO REPEAT THEM.
 Job cpu time:       0 days  0 hours 30 minutes 45.9 seconds.
 Elapsed time:       0 days  0 hours 10 minutes 28.7 seconds.
 File lengths (MBytes):  RWF=    586 Int=      0 D2E=      0 Chk=     34 Scr=      1
 Normal termination of Gaussian 16 at Fri Jul 19 10:24:09 2024.
