 Entering Gaussian System, Link 0=g16
 Initial command:
 /opt/sw/arch/manual/gaussian/G16_A03/g16/l1.exe "/scratch/1381405/Gau-248227.inp" -scrdir="/scratch/1381405/"
 Entering Link 1 = /opt/sw/arch/manual/gaussian/G16_A03/g16/l1.exe PID=    248228.
  
 Copyright (c) 1988,1990,1992,1993,1995,1998,2003,2009,2016,
            Gaussian, Inc.  All Rights Reserved.
  
 This is part of the Gaussian(R) 16 program.  It is based on
 the Gaussian(R) 09 system (copyright 2009, Gaussian, Inc.),
 the Gaussian(R) 03 system (copyright 2003, Gaussian, Inc.),
 the Gaussian(R) 98 system (copyright 1998, Gaussian, Inc.),
 the Gaussian(R) 94 system (copyright 1995, Gaussian, Inc.),
 the Gaussian 92(TM) system (copyright 1992, Gaussian, Inc.),
 the Gaussian 90(TM) system (copyright 1990, Gaussian, Inc.),
 the Gaussian 88(TM) system (copyright 1988, Gaussian, Inc.),
 the Gaussian 86(TM) system (copyright 1986, Carnegie Mellon
 University), and the Gaussian 82(TM) system (copyright 1983,
 Carnegie Mellon University). Gaussian is a federally registered
 trademark of Gaussian, Inc.
  
 This software contains proprietary and confidential information,
 including trade secrets, belonging to Gaussian, Inc.
  
 This software is provided under written license and may be
 used, copied, transmitted, or stored only in accord with that
 written license.
  
 The following legend is applicable only to US Government
 contracts under FAR:
  
                    RESTRICTED RIGHTS LEGEND
  
 Use, reproduction and disclosure by the US Government is
 subject to restrictions as set forth in subparagraphs (a)
 and (c) of the Commercial Computer Software - Restricted
 Rights clause in FAR 52.227-19.
  
 Gaussian, Inc.
 340 Quinnipiac St., Bldg. 40, Wallingford CT 06492
  
  
 ---------------------------------------------------------------
 Warning -- This program may not be used in any manner that
 competes with the business of Gaussian, Inc. or will provide
 assistance to any competitor of Gaussian, Inc.  The licensee
 of this program is prohibited from giving any competitor of
 Gaussian, Inc. access to this program.  By using this program,
 the user acknowledges that Gaussian, Inc. is engaged in the
 business of creating and licensing software in the field of
 computational chemistry and represents and warrants to the
 licensee that it is not a competitor of Gaussian, Inc. and that
 it will not use this program in any manner prohibited above.
 ---------------------------------------------------------------
  

 Cite this work as:
 Gaussian 16, Revision A.03,
 M. J. Frisch, G. W. Trucks, H. B. Schlegel, G. E. Scuseria, 
 M. A. Robb, J. R. Cheeseman, G. Scalmani, V. Barone, 
 G. A. Petersson, H. Nakatsuji, X. Li, M. Caricato, A. V. Marenich, 
 J. Bloino, B. G. Janesko, R. Gomperts, B. Mennucci, H. P. Hratchian, 
 J. V. Ortiz, A. F. Izmaylov, J. L. Sonnenberg, D. Williams-Young, 
 F. Ding, F. Lipparini, F. Egidi, J. Goings, B. Peng, A. Petrone, 
 T. Henderson, D. Ranasinghe, V. G. Zakrzewski, J. Gao, N. Rega, 
 G. Zheng, W. Liang, M. Hada, M. Ehara, K. Toyota, R. Fukuda, 
 J. Hasegawa, M. Ishida, T. Nakajima, Y. Honda, O. Kitao, H. Nakai, 
 T. Vreven, K. Throssell, J. A. Montgomery, Jr., J. E. Peralta, 
 F. Ogliaro, M. J. Bearpark, J. J. Heyd, E. N. Brothers, K. N. Kudin, 
 V. N. Staroverov, T. A. Keith, R. Kobayashi, J. Normand, 
 K. Raghavachari, A. P. Rendell, J. C. Burant, S. S. Iyengar, 
 J. Tomasi, M. Cossi, J. M. Millam, M. Klene, C. Adamo, R. Cammi, 
 J. W. Ochterski, R. L. Martin, K. Morokuma, O. Farkas, 
 J. B. Foresman, and D. J. Fox, Gaussian, Inc., Wallingford CT, 2016.
 
 ******************************************
 Gaussian 16:  ES64L-G16RevA.03 25-Dec-2016
                19-Jul-2024 
 ******************************************
 %nprocshared=3
 Will use up to    3 processors via shared memory.
 %mem=6GB
 %Chk=WIOZZYWDYUOMAY-UHFFFAOYSA-N_conf_1_0.chk
 -------------------------------------------------------
 # opt=CalcFc B3LYP/6-31G** SCRF=(Solvent=water) scf=xqc
 -------------------------------------------------------
 1/10=4,18=20,19=15,26=3,38=1/1,3;
 2/9=110,12=2,17=6,18=5,40=1/2;
 3/5=1,6=6,7=101,11=2,25=1,30=1,70=2201,71=2,72=1,74=-5,140=1/1,2,3;
 4//1;
 5/5=2,8=3,13=1,38=5,53=1/2,8;
 8/6=4,10=90,11=11/1;
 11/6=1,8=1,9=11,15=111,16=1/1,2,10;
 10/6=1,13=1/2;
 6/7=2,8=2,9=2,10=2,28=1/1;
 7/10=1,18=20,25=1/1,2,3,16;
 1/10=4,18=20,19=15,26=3/3(2);
 2/9=110/2;
 99//99;
 2/9=110/2;
 3/5=1,6=6,7=101,11=2,25=1,30=1,70=2205,71=1,72=1,74=-5/1,2,3;
 4/5=5,16=3,69=1/1;
 5/5=2,8=3,13=1,38=5,53=1/2,8;
 7//1,2,3,16;
 1/18=20,19=15,26=3/3(-5);
 2/9=110/2;
 6/7=2,8=2,9=2,10=2,19=2,28=1/1;
 99/9=1/99;
 ----------------------------------
 WIOZZYWDYUOMAY-UHFFFAOYSA-N_conf_1
 ----------------------------------
 Symbolic Z-matrix:
 Charge =  0 Multiplicity = 1
 O                     1.49684  -2.1709   -2.59156 
 C                     1.69868  -1.09101  -2.06449 
 C                     0.85139  -0.47463  -1.00984 
 C                    -0.04331  -1.33978  -0.35374 
 C                    -0.9236   -0.87864   0.63435 
 N                    -1.67238  -1.83293   1.34665 
 C                    -0.85139   0.47463   1.00983 
 C                    -1.69868   1.09101   2.06449 
 O                    -2.79172   0.36925   2.38367 
 O                    -1.49684   2.1709    2.59156 
 C                     0.0433    1.33978   0.35374 
 C                     0.9236    0.87864  -0.63435 
 N                     1.67238   1.83293  -1.34665 
 O                     2.79172  -0.36925  -2.38367 
 H                    -0.04916  -2.39627  -0.6196 
 H                    -2.46123  -1.40294   1.83916 
 H                    -1.95658  -2.6396    0.79928 
 H                    -3.23396   0.92668   3.05994 
 H                     0.04915   2.39627   0.6196 
 H                     1.95658   2.6396   -0.79928 
 H                     2.46122   1.40295  -1.83916 
 H                     3.23396  -0.92669  -3.05994 
 

 GradGradGradGradGradGradGradGradGradGradGradGradGradGradGradGradGradGrad
 Berny optimization.
 Initialization pass.
                           ----------------------------
                           !    Initial Parameters    !
                           ! (Angstroms and Degrees)  !
 --------------------------                            --------------------------
 ! Name  Definition              Value          Derivative Info.                !
 --------------------------------------------------------------------------------
 ! R1    R(1,2)                  1.2185         calculate D2E/DX2 analytically  !
 ! R2    R(2,3)                  1.4866         calculate D2E/DX2 analytically  !
 ! R3    R(2,14)                 1.3482         calculate D2E/DX2 analytically  !
 ! R4    R(3,4)                  1.4069         calculate D2E/DX2 analytically  !
 ! R5    R(3,12)                 1.4062         calculate D2E/DX2 analytically  !
 ! R6    R(4,5)                  1.4014         calculate D2E/DX2 analytically  !
 ! R7    R(4,15)                 1.0894         calculate D2E/DX2 analytically  !
 ! R8    R(5,6)                  1.4067         calculate D2E/DX2 analytically  !
 ! R9    R(5,7)                  1.4062         calculate D2E/DX2 analytically  !
 ! R10   R(6,16)                 1.0246         calculate D2E/DX2 analytically  !
 ! R11   R(6,17)                 1.0154         calculate D2E/DX2 analytically  !
 ! R12   R(7,8)                  1.4866         calculate D2E/DX2 analytically  !
 ! R13   R(7,11)                 1.4069         calculate D2E/DX2 analytically  !
 ! R14   R(8,9)                  1.3482         calculate D2E/DX2 analytically  !
 ! R15   R(8,10)                 1.2185         calculate D2E/DX2 analytically  !
 ! R16   R(9,18)                 0.9817         calculate D2E/DX2 analytically  !
 ! R17   R(11,12)                1.4014         calculate D2E/DX2 analytically  !
 ! R18   R(11,19)                1.0894         calculate D2E/DX2 analytically  !
 ! R19   R(12,13)                1.4067         calculate D2E/DX2 analytically  !
 ! R20   R(13,20)                1.0154         calculate D2E/DX2 analytically  !
 ! R21   R(13,21)                1.0246         calculate D2E/DX2 analytically  !
 ! R22   R(14,22)                0.9817         calculate D2E/DX2 analytically  !
 ! A1    A(1,2,3)              125.4444         calculate D2E/DX2 analytically  !
 ! A2    A(1,2,14)             120.4215         calculate D2E/DX2 analytically  !
 ! A3    A(3,2,14)             114.0836         calculate D2E/DX2 analytically  !
 ! A4    A(2,3,4)              115.9955         calculate D2E/DX2 analytically  !
 ! A5    A(2,3,12)             123.997          calculate D2E/DX2 analytically  !
 ! A6    A(4,3,12)             119.9932         calculate D2E/DX2 analytically  !
 ! A7    A(3,4,5)              121.7297         calculate D2E/DX2 analytically  !
 ! A8    A(3,4,15)             119.0744         calculate D2E/DX2 analytically  !
 ! A9    A(5,4,15)             119.1957         calculate D2E/DX2 analytically  !
 ! A10   A(4,5,6)              117.9155         calculate D2E/DX2 analytically  !
 ! A11   A(4,5,7)              118.208          calculate D2E/DX2 analytically  !
 ! A12   A(6,5,7)              123.0228         calculate D2E/DX2 analytically  !
 ! A13   A(5,6,16)             111.6259         calculate D2E/DX2 analytically  !
 ! A14   A(5,6,17)             114.5164         calculate D2E/DX2 analytically  !
 ! A15   A(16,6,17)            112.1494         calculate D2E/DX2 analytically  !
 ! A16   A(5,7,8)              123.997          calculate D2E/DX2 analytically  !
 ! A17   A(5,7,11)             119.9933         calculate D2E/DX2 analytically  !
 ! A18   A(8,7,11)             115.9955         calculate D2E/DX2 analytically  !
 ! A19   A(7,8,9)              114.0836         calculate D2E/DX2 analytically  !
 ! A20   A(7,8,10)             125.4445         calculate D2E/DX2 analytically  !
 ! A21   A(9,8,10)             120.4214         calculate D2E/DX2 analytically  !
 ! A22   A(8,9,18)             102.9643         calculate D2E/DX2 analytically  !
 ! A23   A(7,11,12)            121.7297         calculate D2E/DX2 analytically  !
 ! A24   A(7,11,19)            119.0744         calculate D2E/DX2 analytically  !
 ! A25   A(12,11,19)           119.1957         calculate D2E/DX2 analytically  !
 ! A26   A(3,12,11)            118.208          calculate D2E/DX2 analytically  !
 ! A27   A(3,12,13)            123.0228         calculate D2E/DX2 analytically  !
 ! A28   A(11,12,13)           117.9154         calculate D2E/DX2 analytically  !
 ! A29   A(12,13,20)           114.5164         calculate D2E/DX2 analytically  !
 ! A30   A(12,13,21)           111.626          calculate D2E/DX2 analytically  !
 ! A31   A(20,13,21)           112.1495         calculate D2E/DX2 analytically  !
 ! A32   A(2,14,22)            102.9645         calculate D2E/DX2 analytically  !
 ! D1    D(1,2,3,4)             16.3113         calculate D2E/DX2 analytically  !
 ! D2    D(1,2,3,12)          -165.0673         calculate D2E/DX2 analytically  !
 ! D3    D(14,2,3,4)          -161.0993         calculate D2E/DX2 analytically  !
 ! D4    D(14,2,3,12)           17.5221         calculate D2E/DX2 analytically  !
 ! D5    D(1,2,14,22)            0.9303         calculate D2E/DX2 analytically  !
 ! D6    D(3,2,14,22)          178.484          calculate D2E/DX2 analytically  !
 ! D7    D(2,3,4,5)           -178.2411         calculate D2E/DX2 analytically  !
 ! D8    D(2,3,4,15)             1.9339         calculate D2E/DX2 analytically  !
 ! D9    D(12,3,4,5)             3.0785         calculate D2E/DX2 analytically  !
 ! D10   D(12,3,4,15)         -176.7464         calculate D2E/DX2 analytically  !
 ! D11   D(2,3,12,11)          178.4594         calculate D2E/DX2 analytically  !
 ! D12   D(2,3,12,13)            9.2706         calculate D2E/DX2 analytically  !
 ! D13   D(4,3,12,11)           -2.9713         calculate D2E/DX2 analytically  !
 ! D14   D(4,3,12,13)         -172.16           calculate D2E/DX2 analytically  !
 ! D15   D(3,4,5,6)           -172.7733         calculate D2E/DX2 analytically  !
 ! D16   D(3,4,5,7)             -3.0255         calculate D2E/DX2 analytically  !
 ! D17   D(15,4,5,6)             7.0514         calculate D2E/DX2 analytically  !
 ! D18   D(15,4,5,7)           176.7992         calculate D2E/DX2 analytically  !
 ! D19   D(4,5,6,16)          -163.6271         calculate D2E/DX2 analytically  !
 ! D20   D(4,5,6,17)           -34.8296         calculate D2E/DX2 analytically  !
 ! D21   D(7,5,6,16)            27.1543         calculate D2E/DX2 analytically  !
 ! D22   D(7,5,6,17)           155.9518         calculate D2E/DX2 analytically  !
 ! D23   D(4,5,7,8)           -178.4595         calculate D2E/DX2 analytically  !
 ! D24   D(4,5,7,11)             2.9712         calculate D2E/DX2 analytically  !
 ! D25   D(6,5,7,8)             -9.2706         calculate D2E/DX2 analytically  !
 ! D26   D(6,5,7,11)           172.1601         calculate D2E/DX2 analytically  !
 ! D27   D(5,7,8,9)            -17.5221         calculate D2E/DX2 analytically  !
 ! D28   D(5,7,8,10)           165.0673         calculate D2E/DX2 analytically  !
 ! D29   D(11,7,8,9)           161.0993         calculate D2E/DX2 analytically  !
 ! D30   D(11,7,8,10)          -16.3113         calculate D2E/DX2 analytically  !
 ! D31   D(5,7,11,12)           -3.0787         calculate D2E/DX2 analytically  !
 ! D32   D(5,7,11,19)          176.7464         calculate D2E/DX2 analytically  !
 ! D33   D(8,7,11,12)          178.241          calculate D2E/DX2 analytically  !
 ! D34   D(8,7,11,19)           -1.9339         calculate D2E/DX2 analytically  !
 ! D35   D(7,8,9,18)          -178.4842         calculate D2E/DX2 analytically  !
 ! D36   D(10,8,9,18)           -0.9304         calculate D2E/DX2 analytically  !
 ! D37   D(7,11,12,3)            3.0257         calculate D2E/DX2 analytically  !
 ! D38   D(7,11,12,13)         172.7735         calculate D2E/DX2 analytically  !
 ! D39   D(19,11,12,3)        -176.7992         calculate D2E/DX2 analytically  !
 ! D40   D(19,11,12,13)         -7.0514         calculate D2E/DX2 analytically  !
 ! D41   D(3,12,13,20)        -155.9516         calculate D2E/DX2 analytically  !
 ! D42   D(3,12,13,21)         -27.1538         calculate D2E/DX2 analytically  !
 ! D43   D(11,12,13,20)         34.8299         calculate D2E/DX2 analytically  !
 ! D44   D(11,12,13,21)        163.6277         calculate D2E/DX2 analytically  !
 --------------------------------------------------------------------------------
 Trust Radius=3.00D-01 FncErr=1.00D-07 GrdErr=1.00D-06 EigMax=2.50D+02 EigMin=1.00D-04
 Number of steps in this run=    108 maximum allowed number of steps=    132.
 GradGradGradGradGradGradGradGradGradGradGradGradGradGradGradGradGradGrad

                          Input orientation:                          
 ---------------------------------------------------------------------
 Center     Atomic      Atomic             Coordinates (Angstroms)
 Number     Number       Type             X           Y           Z
 ---------------------------------------------------------------------
      1          8           0        1.496837   -2.170902   -2.591557
      2          6           0        1.698676   -1.091007   -2.064487
      3          6           0        0.851394   -0.474626   -1.009835
      4          6           0       -0.043305   -1.339782   -0.353745
      5          6           0       -0.923601   -0.878636    0.634353
      6          7           0       -1.672376   -1.832927    1.346652
      7          6           0       -0.851394    0.474627    1.009834
      8          6           0       -1.698676    1.091007    2.064487
      9          8           0       -2.791720    0.369248    2.383674
     10          8           0       -1.496839    2.170901    2.591558
     11          6           0        0.043303    1.339783    0.353743
     12          6           0        0.923601    0.878637   -0.634353
     13          7           0        1.672377    1.832928   -1.346651
     14          8           0        2.791721   -0.369251   -2.383673
     15          1           0       -0.049155   -2.396272   -0.619600
     16          1           0       -2.461228   -1.402943    1.839157
     17          1           0       -1.956576   -2.639597    0.799281
     18          1           0       -3.233955    0.926684    3.059941
     19          1           0        0.049153    2.396273    0.619598
     20          1           0        1.956580    2.639596   -0.799279
     21          1           0        2.461225    1.402946   -1.839162
     22          1           0        3.233961   -0.926686   -3.059938
 ---------------------------------------------------------------------
                    Distance matrix (angstroms):
                    1          2          3          4          5
     1  O    0.000000
     2  C    1.218488   0.000000
     3  C    2.407444   1.486642   0.000000
     4  C    2.840880   2.454185   1.406924   0.000000
     5  C    4.234969   3.768975   2.452995   1.401397   0.000000
     6  N    5.066322   4.852865   3.710448   2.405912   1.406664
     7  C    5.048071   4.290165   2.807068   2.409239   1.406244
     8  C    6.521510   5.775085   4.290165   3.807470   2.554510
     9  O    7.042514   6.487075   5.049783   4.238871   2.847316
    10  O    7.394459   6.521512   5.048074   4.807542   3.668642
    11  C    4.807541   3.807471   2.409240   2.772743   2.436192
    12  C    3.668642   2.554510   1.406244   2.436192   2.847768
    13  N    4.196577   3.010877   2.472300   3.741058   4.244532
    14  O    2.228427   1.348169   2.379791   3.619380   4.813686
    15  H    2.515849   2.616549   2.157776   1.089443   2.154129
    16  H    5.990598   5.713190   4.466765   3.264837   2.022560
    17  H    4.862460   4.894912   3.980539   2.584491   2.048223
    18  H    7.994677   7.393354   5.934376   5.193300   3.805312
    19  H    5.767702   4.699613   3.397162   3.861872   3.416358
    20  H    5.154077   3.947742   3.311216   4.475878   4.767463
    21  H    3.777370   2.617643   2.608566   4.000211   4.772938
    22  H    2.187476   1.837123   3.175516   4.270199   5.561961
                    6          7          8          9         10
     6  N    0.000000
     7  C    2.472299   0.000000
     8  C    3.010875   1.486642   0.000000
     9  O    2.679165   2.379791   1.348170   0.000000
    10  O    4.196575   2.407446   1.218488   2.228427   0.000000
    11  C    3.741057   1.406923   2.454185   3.619381   2.840882
    12  C    4.244532   2.452995   3.768975   4.813686   4.234971
    13  N    5.646215   3.710447   4.852865   5.998820   5.066324
    14  O    5.998819   5.049783   6.487075   7.378875   7.042517
    15  H    2.611197   3.397162   4.699613   4.918274   5.767703
    16  H    1.024566   2.608565   2.617641   1.883185   3.777369
    17  H    1.015431   3.311216   3.947741   3.501559   5.154076
    18  H    3.604073   3.175514   1.837121   0.981653   2.187471
    19  H    4.623679   2.157775   2.616549   3.910416   2.515852
    20  H    6.146365   3.980540   4.894913   6.150774   4.862464
    21  H    6.140598   4.466766   5.713191   6.818674   5.990602
    22  H    6.656684   5.934378   7.393356   8.223210   7.994681
                   11         12         13         14         15
    11  C    0.000000
    12  C    1.401397   0.000000
    13  N    2.405912   1.406664   0.000000
    14  O    4.238873   2.847317   2.679167   0.000000
    15  H    3.861872   3.416358   4.623679   3.910416   0.000000
    16  H    4.000209   4.772937   6.140596   6.818672   3.584729
    17  H    4.475878   4.767462   6.146364   6.150772   2.389704
    18  H    4.270197   5.561959   6.656682   8.223208   5.892708
    19  H    1.089443   2.154129   2.611196   4.918276   4.951138
    20  H    2.584492   2.048224   1.015431   3.501560   5.423581
    21  H    3.264838   2.022561   1.024565   1.883189   4.714170
    22  H    5.193303   3.805314   3.604076   0.981654   4.346698
                   16         17         18         19         20
    16  H    0.000000
    17  H    1.692728   0.000000
    18  H    2.741274   4.411421   0.000000
    19  H    4.714168   5.423580   4.346696   0.000000
    20  H    6.543737   6.762992   6.690986   2.389706   0.000000
    21  H    6.755264   6.543737   7.527491   3.584730   1.692728
    22  H    7.527491   6.690987   9.095154   5.892711   4.411423
                   21         22
    21  H    0.000000
    22  H    2.741277   0.000000
 Stoichiometry    C8H8N2O4
 Framework group  C1[X(C8H8N2O4)]
 Deg. of freedom    60
 Full point group                 C1      NOp   1
 Largest Abelian subgroup         C1      NOp   1
 Largest concise Abelian subgroup C1      NOp   1
                         Standard orientation:                         
 ---------------------------------------------------------------------
 Center     Atomic      Atomic             Coordinates (Angstroms)
 Number     Number       Type             X           Y           Z
 ---------------------------------------------------------------------
      1          8           0        3.328871   -1.587473   -0.260852
      2          6           0        2.844785   -0.494454   -0.024882
      3          6           0        1.391964   -0.179376   -0.012979
      4          6           0        0.522157   -1.283067    0.055832
      5          6           0       -0.870325   -1.126308    0.037541
      6          7           0       -1.664266   -2.264839    0.265816
      7          6           0       -1.391964    0.179377    0.012978
      8          6           0       -2.844784    0.494454    0.024882
      9          8           0       -3.635824   -0.544596   -0.310070
     10          8           0       -3.328874    1.587472    0.260852
     11          6           0       -0.522157    1.283067   -0.055835
     12          6           0        0.870325    1.126309   -0.037541
     13          7           0        1.664265    2.264840   -0.265815
     14          8           0        3.635825    0.544594    0.310072
     15          1           0        0.943214   -2.285257    0.128034
     16          1           0       -2.634006   -2.114141   -0.028514
     17          1           0       -1.280620   -3.127778   -0.107348
     18          1           0       -4.536600   -0.156031   -0.274523
     19          1           0       -0.943214    2.285257   -0.128037
     20          1           0        1.280621    3.127779    0.107352
     21          1           0        2.634007    2.114143    0.028508
     22          1           0        4.536602    0.156030    0.274530
 ---------------------------------------------------------------------
 Rotational constants (GHZ):           1.4159801           0.4251025           0.3301767
 Standard basis: 6-31G(d,p) (6D, 7F)
 There are   250 symmetry adapted cartesian basis functions of A   symmetry.
 There are   250 symmetry adapted basis functions of A   symmetry.
   250 basis functions,   448 primitive gaussians,   250 cartesian basis functions
    51 alpha electrons       51 beta electrons
       nuclear repulsion energy       873.1801698979 Hartrees.
 NAtoms=   22 NActive=   22 NUniq=   22 SFac= 1.00D+00 NAtFMM=   60 NAOKFM=F Big=F
 Integral buffers will be    131072 words long.
 Raffenetti 2 integral format.
 Two-electron integral symmetry is turned on.
 Force inversion solution in PCM.
 ------------------------------------------------------------------------------
 Polarizable Continuum Model (PCM)
 =================================
 Model                : PCM.
 Atomic radii         : UFF (Universal Force Field).
 Polarization charges : Total charges.
 Charge compensation  : None.
 Solution method      : Matrix inversion.
 Cavity type          : Scaled VdW (van der Waals Surface) (Alpha=1.100).
 Cavity algorithm     : GePol (No added spheres)
                        Default sphere list used, NSphG=   22.
                        Lebedev-Laikov grids with approx.  5.0 points / Ang**2.
                        Smoothing algorithm: York/Karplus (Gamma=1.0000).
                        Polarization charges: spherical gaussians, with
                                              point-specific exponents (IZeta= 3).
                        Self-potential: point-specific (ISelfS= 7).
                        Self-field    : sphere-specific E.n sum rule (ISelfD= 2).
 1st derivatives      : Analytical E(r).r(x)/FMM algorithm (CHGder, D1EAlg=3).
                        Cavity 1st derivative terms included.
 2nd derivatives      : Analytical E(r).r(xy)/FMM algorithm (CHGder, D2EAlg=3).
                        Cavity 2nd derivative terms included.
 Solvent              : Water, Eps=  78.355300 Eps(inf)=   1.777849
 ------------------------------------------------------------------------------
 One-electron integrals computed using PRISM.
 NBasis=   250 RedAO= T EigKep=  3.64D-04  NBF=   250
 NBsUse=   250 1.00D-06 EigRej= -1.00D+00 NBFU=   250
 ExpMin= 1.61D-01 ExpMax= 5.48D+03 ExpMxC= 8.25D+02 IAcc=3 IRadAn=         5 AccDes= 0.00D+00
 Harris functional with IExCor=  402 and IRadAn=       5 diagonalized for initial guess.
 HarFok:  IExCor=  402 AccDes= 0.00D+00 IRadAn=         5 IDoV= 1 UseB2=F ITyADJ=14
 ICtDFT=  3500011 ScaDFX=  1.000000  1.000000  1.000000  1.000000
 FoFCou: FMM=F IPFlag=           0 FMFlag=      100000 FMFlg1=           0
         NFxFlg=           0 DoJE=T BraDBF=F KetDBF=T FulRan=T
         wScrn=  0.000000 ICntrl=       500 IOpCl=  0 I1Cent=   200000004 NGrid=           0
         NMat0=    1 NMatS0=      1 NMatT0=    0 NMatD0=    1 NMtDS0=    0 NMtDT0=    0
 Petite list used in FoFCou.
 Keep R1 ints in memory in canonical form, NReq=500119023.
 Requested convergence on RMS density matrix=1.00D-08 within  32 cycles.
 Requested convergence on MAX density matrix=1.00D-06.
 Requested convergence on             energy=1.00D-06.
 No special actions if energy rises.
 Inv3:  Mode=1 IEnd=    10002828.
 Iteration    1 A*A^-1 deviation from unit magnitude is 3.11D-15 for    390.
 Iteration    1 A*A^-1 deviation from orthogonality  is 1.57D-15 for   1597   1320.
 Iteration    1 A^-1*A deviation from unit magnitude is 2.66D-15 for   1529.
 Iteration    1 A^-1*A deviation from orthogonality  is 1.92D-15 for   1084     42.
 Error on total polarization charges =  0.00503
 SCF Done:  E(RB3LYP) =  -720.136899137     A.U. after   12 cycles
            NFock= 12  Conv=0.55D-08     -V/T= 2.0091
 QCSCF skips out because SCF is already converged.
 DoSCS=F DFT=T ScalE2(SS,OS)=  1.000000  1.000000
 Range of M.O.s used for correlation:     1   250
 NBasis=   250 NAE=    51 NBE=    51 NFC=     0 NFV=     0
 NROrb=    250 NOA=    51 NOB=    51 NVA=   199 NVB=   199
 Symmetrizing basis deriv contribution to polar:
 IMax=3 JMax=2 DiffMx= 0.00D+00
 G2DrvN: will do    23 centers at a time, making    1 passes.
 Calling FoFCou, ICntrl=  3107 FMM=F I1Cent=   0 AccDes= 0.00D+00.
 NEqPCM:  Using equilibrium solvation (IEInf=0, Eps=  78.3553, EpsInf=   1.7778)
 G2PCM: DoFxE=T DoFxN=T DoGrad=T DoDP/DQ/DG/TGxP=FFFF NFrqRd=   0 IEInf=0 SqF1=F DoCFld=F IF1Alg=4.
 End of G2Drv F.D. properties file   721 does not exist.
 End of G2Drv F.D. properties file   722 does not exist.
 End of G2Drv F.D. properties file   788 does not exist.
          IDoAtm=1111111111111111111111
 NEqPCM:  Using equilibrium solvation (IEInf=0, Eps=  78.3553, EpsInf=   1.7778)
          Differentiating once with respect to nuclear coordinates.
 Keep R1 ints in memory in canonical form, NReq=501050739.
          There are    69 degrees of freedom in the 1st order CPHF.  IDoFFX=6 NUNeed=     0.
     63 vectors produced by pass  0 Test12= 1.47D-14 1.45D-09 XBig12= 1.89D-01 1.56D-01.
 AX will form    63 AO Fock derivatives at one time.
     63 vectors produced by pass  1 Test12= 1.47D-14 1.45D-09 XBig12= 2.84D-02 4.07D-02.
     63 vectors produced by pass  2 Test12= 1.47D-14 1.45D-09 XBig12= 3.26D-04 3.08D-03.
     63 vectors produced by pass  3 Test12= 1.47D-14 1.45D-09 XBig12= 1.04D-06 1.85D-04.
     63 vectors produced by pass  4 Test12= 1.47D-14 1.45D-09 XBig12= 2.36D-09 4.86D-06.
     52 vectors produced by pass  5 Test12= 1.47D-14 1.45D-09 XBig12= 3.20D-12 2.04D-07.
     15 vectors produced by pass  6 Test12= 1.47D-14 1.45D-09 XBig12= 3.25D-15 7.00D-09.
 InvSVY:  IOpt=1 It=  1 EMax= 5.83D-16
 Solved reduced A of dimension   382 with    69 vectors.
 End of Minotr F.D. properties file   721 does not exist.
 End of Minotr F.D. properties file   722 does not exist.
 End of Minotr F.D. properties file   788 does not exist.

 **********************************************************************

            Population analysis using the SCF density.

 **********************************************************************

 Orbital symmetries:
       Occupied  (A) (A) (A) (A) (A) (A) (A) (A) (A) (A) (A) (A)
                 (A) (A) (A) (A) (A) (A) (A) (A) (A) (A) (A) (A)
                 (A) (A) (A) (A) (A) (A) (A) (A) (A) (A) (A) (A)
                 (A) (A) (A) (A) (A) (A) (A) (A) (A) (A) (A) (A)
                 (A) (A) (A)
       Virtual   (A) (A) (A) (A) (A) (A) (A) (A) (A) (A) (A) (A)
                 (A) (A) (A) (A) (A) (A) (A) (A) (A) (A) (A) (A)
                 (A) (A) (A) (A) (A) (A) (A) (A) (A) (A) (A) (A)
                 (A) (A) (A) (A) (A) (A) (A) (A) (A) (A) (A) (A)
                 (A) (A) (A) (A) (A) (A) (A) (A) (A) (A) (A) (A)
                 (A) (A) (A) (A) (A) (A) (A) (A) (A) (A) (A) (A)
                 (A) (A) (A) (A) (A) (A) (A) (A) (A) (A) (A) (A)
                 (A) (A) (A) (A) (A) (A) (A) (A) (A) (A) (A) (A)
                 (A) (A) (A) (A) (A) (A) (A) (A) (A) (A) (A) (A)
                 (A) (A) (A) (A) (A) (A) (A) (A) (A) (A) (A) (A)
                 (A) (A) (A) (A) (A) (A) (A) (A) (A) (A) (A) (A)
                 (A) (A) (A) (A) (A) (A) (A) (A) (A) (A) (A) (A)
                 (A) (A) (A) (A) (A) (A) (A) (A) (A) (A) (A) (A)
                 (A) (A) (A) (A) (A) (A) (A) (A) (A) (A) (A) (A)
                 (A) (A) (A) (A) (A) (A) (A) (A) (A) (A) (A) (A)
                 (A) (A) (A) (A) (A) (A) (A) (A) (A) (A) (A) (A)
                 (A) (A) (A) (A) (A) (A) (A)
 The electronic state is 1-A.
 Alpha  occ. eigenvalues --  -19.20984 -19.20984 -19.14711 -19.14710 -14.33521
 Alpha  occ. eigenvalues --  -14.33521 -10.33252 -10.33252 -10.24006 -10.24005
 Alpha  occ. eigenvalues --  -10.21491 -10.21491 -10.20092 -10.20092  -1.12080
 Alpha  occ. eigenvalues --   -1.12076  -1.02164  -1.02163  -0.92443  -0.91004
 Alpha  occ. eigenvalues --   -0.83556  -0.78648  -0.72506  -0.69928  -0.63211
 Alpha  occ. eigenvalues --   -0.61719  -0.58937  -0.54543  -0.53308  -0.51536
 Alpha  occ. eigenvalues --   -0.51328  -0.48587  -0.48016  -0.47149  -0.45916
 Alpha  occ. eigenvalues --   -0.45667  -0.44065  -0.43729  -0.42653  -0.40074
 Alpha  occ. eigenvalues --   -0.39242  -0.38935  -0.36415  -0.34574  -0.33155
 Alpha  occ. eigenvalues --   -0.32987  -0.29311  -0.28855  -0.27353  -0.26738
 Alpha  occ. eigenvalues --   -0.19358
 Alpha virt. eigenvalues --   -0.07079   0.00532   0.00619   0.07373   0.08056
 Alpha virt. eigenvalues --    0.08643   0.10475   0.11808   0.12826   0.15906
 Alpha virt. eigenvalues --    0.17025   0.18548   0.19587   0.22769   0.23465
 Alpha virt. eigenvalues --    0.24582   0.26949   0.29354   0.30169   0.31134
 Alpha virt. eigenvalues --    0.32097   0.36853   0.38541   0.41920   0.43440
 Alpha virt. eigenvalues --    0.49309   0.49544   0.51067   0.51301   0.51684
 Alpha virt. eigenvalues --    0.53108   0.56202   0.57172   0.58197   0.59363
 Alpha virt. eigenvalues --    0.59752   0.61662   0.61822   0.64034   0.64853
 Alpha virt. eigenvalues --    0.67678   0.68028   0.69021   0.69199   0.69357
 Alpha virt. eigenvalues --    0.71956   0.73095   0.74722   0.75907   0.78587
 Alpha virt. eigenvalues --    0.79607   0.79948   0.80996   0.81719   0.83893
 Alpha virt. eigenvalues --    0.84859   0.86422   0.86502   0.88087   0.89680
 Alpha virt. eigenvalues --    0.92134   0.92718   0.93044   0.95733   0.95739
 Alpha virt. eigenvalues --    0.98426   0.99264   1.00750   1.01227   1.01713
 Alpha virt. eigenvalues --    1.03557   1.05055   1.07006   1.11533   1.11641
 Alpha virt. eigenvalues --    1.13802   1.15511   1.22110   1.22269   1.25511
 Alpha virt. eigenvalues --    1.27574   1.27616   1.29635   1.30325   1.34086
 Alpha virt. eigenvalues --    1.34707   1.35714   1.38363   1.39583   1.40746
 Alpha virt. eigenvalues --    1.41613   1.43231   1.50388   1.50545   1.54890
 Alpha virt. eigenvalues --    1.56342   1.56504   1.61127   1.66647   1.67438
 Alpha virt. eigenvalues --    1.71843   1.73015   1.73030   1.73858   1.74908
 Alpha virt. eigenvalues --    1.76236   1.76503   1.79713   1.81680   1.83555
 Alpha virt. eigenvalues --    1.84925   1.85596   1.85921   1.87664   1.89661
 Alpha virt. eigenvalues --    1.91295   1.92352   1.94716   1.95989   1.97673
 Alpha virt. eigenvalues --    2.00758   2.02103   2.05162   2.07000   2.08835
 Alpha virt. eigenvalues --    2.10590   2.17800   2.17969   2.21077   2.23240
 Alpha virt. eigenvalues --    2.23267   2.23581   2.26493   2.28686   2.29657
 Alpha virt. eigenvalues --    2.30099   2.31646   2.34304   2.36110   2.37869
 Alpha virt. eigenvalues --    2.38829   2.44496   2.44714   2.46971   2.47582
 Alpha virt. eigenvalues --    2.48492   2.51008   2.51962   2.53298   2.54473
 Alpha virt. eigenvalues --    2.55623   2.56236   2.59280   2.62960   2.63556
 Alpha virt. eigenvalues --    2.67186   2.67945   2.68648   2.69892   2.71383
 Alpha virt. eigenvalues --    2.73178   2.74647   2.79086   2.81183   2.87902
 Alpha virt. eigenvalues --    2.89236   2.90769   2.92937   2.98573   3.00650
 Alpha virt. eigenvalues --    3.02760   3.04717   3.11152   3.17031   3.18512
 Alpha virt. eigenvalues --    3.21354   3.30259   3.30529   3.35262   3.39765
 Alpha virt. eigenvalues --    3.41245   3.46268   3.48264   3.53463   3.69503
 Alpha virt. eigenvalues --    3.94483   3.96661   4.04877   4.08158   4.11223
 Alpha virt. eigenvalues --    4.12112   4.15876   4.24057   4.33401   4.43212
 Alpha virt. eigenvalues --    4.45338   4.48990   4.61936   4.85311
          Condensed to atoms (all electrons):
               1          2          3          4          5          6
     1  O    8.089833   0.573225  -0.087488   0.001808   0.000820  -0.000003
     2  C    0.573225   4.421365   0.299699  -0.044723   0.006846  -0.000143
     3  C   -0.087488   0.299699   5.064812   0.492189  -0.024410   0.004144
     4  C    0.001808  -0.044723   0.492189   5.075608   0.452861  -0.071672
     5  C    0.000820   0.006846  -0.024410   0.452861   4.774198   0.301588
     6  N   -0.000003  -0.000143   0.004144  -0.071672   0.301588   6.887196
     7  C    0.000007   0.000379  -0.030454  -0.031524   0.455440  -0.065525
     8  C   -0.000000   0.000005   0.000379   0.005441  -0.036145  -0.013273
     9  O    0.000000  -0.000000  -0.000008   0.000136   0.002242  -0.024755
    10  O   -0.000000  -0.000000   0.000007  -0.000077   0.003517  -0.000070
    11  C   -0.000077   0.005441  -0.031524  -0.058956  -0.038161   0.005337
    12  C    0.003517  -0.036145   0.455440  -0.038161  -0.038471   0.000618
    13  N   -0.000070  -0.013273  -0.065525   0.005337   0.000618   0.000001
    14  O   -0.093250   0.244728  -0.081354   0.003148  -0.000049   0.000000
    15  H    0.013002  -0.009045  -0.038799   0.362650  -0.035315  -0.006308
    16  H   -0.000000   0.000002  -0.000175   0.005768  -0.023231   0.328367
    17  H   -0.000004  -0.000003  -0.000107  -0.010499  -0.023587   0.339879
    18  H    0.000000   0.000000   0.000001   0.000010  -0.000536   0.000584
    19  H    0.000000  -0.000126   0.004401   0.000619   0.004364  -0.000076
    20  H    0.000001  -0.000026   0.005934  -0.000100  -0.000006  -0.000000
    21  H    0.000275   0.002651  -0.012635  -0.000380   0.000011  -0.000000
    22  H    0.011762  -0.009514   0.010814  -0.000254   0.000001  -0.000000
               7          8          9         10         11         12
     1  O    0.000007  -0.000000   0.000000  -0.000000  -0.000077   0.003517
     2  C    0.000379   0.000005  -0.000000  -0.000000   0.005441  -0.036145
     3  C   -0.030454   0.000379  -0.000008   0.000007  -0.031524   0.455440
     4  C   -0.031524   0.005441   0.000136  -0.000077  -0.058956  -0.038161
     5  C    0.455440  -0.036145   0.002242   0.003517  -0.038161  -0.038471
     6  N   -0.065525  -0.013273  -0.024755  -0.000070   0.005337   0.000618
     7  C    5.064811   0.299699  -0.081353  -0.087488   0.492189  -0.024410
     8  C    0.299699   4.421366   0.244728   0.573225  -0.044723   0.006846
     9  O   -0.081353   0.244728   8.157956  -0.093250   0.003148  -0.000049
    10  O   -0.087488   0.573225  -0.093250   8.089833   0.001808   0.000820
    11  C    0.492189  -0.044723   0.003148   0.001808   5.075608   0.452861
    12  C   -0.024410   0.006846  -0.000049   0.000820   0.452861   4.774198
    13  N    0.004144  -0.000143   0.000000  -0.000003  -0.071672   0.301588
    14  O   -0.000008  -0.000000   0.000000   0.000000   0.000136   0.002243
    15  H    0.004401  -0.000126   0.000003   0.000000   0.000619   0.004364
    16  H   -0.012635   0.002651   0.023933   0.000275  -0.000380   0.000011
    17  H    0.005934  -0.000026   0.000560   0.000001  -0.000100  -0.000006
    18  H    0.010814  -0.009514   0.270440   0.011762  -0.000254   0.000001
    19  H   -0.038799  -0.009045   0.000346   0.013002   0.362650  -0.035315
    20  H   -0.000107  -0.000003  -0.000000  -0.000004  -0.010499  -0.023586
    21  H   -0.000175   0.000002  -0.000000  -0.000000   0.005768  -0.023231
    22  H    0.000001   0.000000  -0.000000   0.000000   0.000010  -0.000536
              13         14         15         16         17         18
     1  O   -0.000070  -0.093250   0.013002  -0.000000  -0.000004   0.000000
     2  C   -0.013273   0.244728  -0.009045   0.000002  -0.000003   0.000000
     3  C   -0.065525  -0.081354  -0.038799  -0.000175  -0.000107   0.000001
     4  C    0.005337   0.003148   0.362650   0.005768  -0.010499   0.000010
     5  C    0.000618  -0.000049  -0.035315  -0.023231  -0.023587  -0.000536
     6  N    0.000001   0.000000  -0.006308   0.328367   0.339879   0.000584
     7  C    0.004144  -0.000008   0.004401  -0.012635   0.005934   0.010814
     8  C   -0.000143  -0.000000  -0.000126   0.002651  -0.000026  -0.009514
     9  O    0.000000   0.000000   0.000003   0.023933   0.000560   0.270440
    10  O   -0.000003   0.000000   0.000000   0.000275   0.000001   0.011762
    11  C   -0.071672   0.000136   0.000619  -0.000380  -0.000100  -0.000254
    12  C    0.301588   0.002243   0.004364   0.000011  -0.000006   0.000001
    13  N    6.887195  -0.024755  -0.000076  -0.000000  -0.000000  -0.000000
    14  O   -0.024755   8.157955   0.000346  -0.000000  -0.000000  -0.000000
    15  H   -0.000076   0.000346   0.582742  -0.000012   0.004046  -0.000000
    16  H   -0.000000  -0.000000  -0.000012   0.404563  -0.023994   0.000103
    17  H   -0.000000  -0.000000   0.004046  -0.023994   0.429416  -0.000019
    18  H   -0.000000  -0.000000  -0.000000   0.000103  -0.000019   0.365631
    19  H   -0.006308   0.000003   0.000015  -0.000013   0.000003  -0.000037
    20  H    0.339879   0.000560   0.000003   0.000000   0.000000  -0.000000
    21  H    0.328367   0.023933  -0.000013   0.000000   0.000000   0.000000
    22  H    0.000584   0.270440  -0.000037   0.000000  -0.000000   0.000000
              19         20         21         22
     1  O    0.000000   0.000001   0.000275   0.011762
     2  C   -0.000126  -0.000026   0.002651  -0.009514
     3  C    0.004401   0.005934  -0.012635   0.010814
     4  C    0.000619  -0.000100  -0.000380  -0.000254
     5  C    0.004364  -0.000006   0.000011   0.000001
     6  N   -0.000076  -0.000000  -0.000000  -0.000000
     7  C   -0.038799  -0.000107  -0.000175   0.000001
     8  C   -0.009045  -0.000003   0.000002   0.000000
     9  O    0.000346  -0.000000  -0.000000  -0.000000
    10  O    0.013002  -0.000004  -0.000000   0.000000
    11  C    0.362650  -0.010499   0.005768   0.000010
    12  C   -0.035315  -0.023586  -0.023231  -0.000536
    13  N   -0.006308   0.339879   0.328367   0.000584
    14  O    0.000003   0.000560   0.023933   0.270440
    15  H    0.000015   0.000003  -0.000013  -0.000037
    16  H   -0.000013   0.000000   0.000000   0.000000
    17  H    0.000003   0.000000   0.000000  -0.000000
    18  H   -0.000037  -0.000000   0.000000   0.000000
    19  H    0.582742   0.004046  -0.000012  -0.000000
    20  H    0.004046   0.429416  -0.023994  -0.000019
    21  H   -0.000012  -0.023994   0.404563   0.000103
    22  H   -0.000000  -0.000019   0.000103   0.365631
 Mulliken charges:
               1
     1  O   -0.513357
     2  C    0.558658
     3  C    0.034661
     4  C   -0.149229
     5  C    0.217404
     6  N   -0.685888
     7  C    0.034662
     8  C    0.558658
     9  O   -0.504075
    10  O   -0.513358
    11  C   -0.149229
    12  C    0.217404
    13  N   -0.685888
    14  O   -0.504075
    15  H    0.117538
    16  H    0.294766
    17  H    0.278506
    18  H    0.351016
    19  H    0.117538
    20  H    0.278506
    21  H    0.294766
    22  H    0.351016
 Sum of Mulliken charges =  -0.00000
 Mulliken charges with hydrogens summed into heavy atoms:
               1
     1  O   -0.513357
     2  C    0.558658
     3  C    0.034661
     4  C   -0.031692
     5  C    0.217404
     6  N   -0.112615
     7  C    0.034662
     8  C    0.558658
     9  O   -0.153059
    10  O   -0.513358
    11  C   -0.031692
    12  C    0.217404
    13  N   -0.112615
    14  O   -0.153059
 APT charges:
               1
     1  O    0.310419
     2  C   -0.326426
     3  C   -0.207879
     4  C   -0.490953
     5  C   -0.094903
     6  N   -1.165652
     7  C   -0.207879
     8  C   -0.326426
     9  O   -0.966433
    10  O    0.310420
    11  C   -0.490953
    12  C   -0.094903
    13  N   -1.165654
    14  O   -0.966434
    15  H    0.501045
    16  H    0.629509
    17  H    0.680216
    18  H    1.131056
    19  H    0.501045
    20  H    0.680217
    21  H    0.629511
    22  H    1.131059
 Sum of APT charges =  -0.00000
 APT charges with hydrogens summed into heavy atoms:
               1
     1  O    0.310419
     2  C   -0.326426
     3  C   -0.207879
     4  C    0.010092
     5  C   -0.094903
     6  N    0.144073
     7  C   -0.207879
     8  C   -0.326426
     9  O    0.164624
    10  O    0.310420
    11  C    0.010092
    12  C   -0.094903
    13  N    0.144074
    14  O    0.164625
 Electronic spatial extent (au):  <R**2>=           3086.4429
 Charge=             -0.0000 electrons
 Dipole moment (field-independent basis, Debye):
    X=              0.0000    Y=              0.0000    Z=              0.0000  Tot=              0.0000
 Quadrupole moment (field-independent basis, Debye-Ang):
   XX=            -62.1873   YY=            -75.4352   ZZ=            -82.4540
   XY=             17.0275   XZ=              7.7708   YZ=              3.0027
 Traceless Quadrupole moment (field-independent basis, Debye-Ang):
   XX=             11.1716   YY=             -2.0764   ZZ=             -9.0952
   XY=             17.0275   XZ=              7.7708   YZ=              3.0027
 Octapole moment (field-independent basis, Debye-Ang**2):
  XXX=              0.0006  YYY=              0.0001  ZZZ=              0.0000  XYY=              0.0001
  XXY=              0.0001  XXZ=              0.0002  XZZ=              0.0000  YZZ=              0.0000
  YYZ=              0.0000  XYZ=             -0.0000
 Hexadecapole moment (field-independent basis, Debye-Ang**3):
 XXXX=          -1927.0814 YYYY=           -775.4161 ZZZZ=            -91.7681 XXXY=            222.8477
 XXXZ=             98.2516 YYYX=            106.4818 YYYZ=             40.0401 ZZZX=              7.8631
 ZZZY=              9.7256 XXYY=           -697.5794 XXZZ=           -467.6857 YYZZ=           -188.1676
 XXYZ=            -10.4693 YYXZ=             39.9309 ZZXY=            -11.2530
 N-N= 8.731801698979D+02 E-N=-3.429759549611D+03  KE= 7.136507020252D+02
  Exact polarizability:   0.000   0.000   0.000   0.000   0.000   0.000
 Approx polarizability: 243.434  -7.920 257.497  -3.598   1.161  69.081
 D2PCM: PCM CHGder 2nd derivatives, FixD1E=F FixD2E=F DoIter=F DoCFld=F I1PDM=0
 Calling FoFJK, ICntrl=    100147 FMM=F ISym2X=0 I1Cent= 0 IOpClX= 0 NMat=1 NMatS=1 NMatT=0.
 ***** Axes restored to original set *****
 -------------------------------------------------------------------
 Center     Atomic                   Forces (Hartrees/Bohr)
 Number     Number              X              Y              Z
 -------------------------------------------------------------------
      1        8          -0.002832719   -0.001468771    0.000773495
      2        6          -0.005628364   -0.002335011    0.008122601
      3        6          -0.002745996   -0.016628781    0.001070945
      4        6           0.000652235    0.007288317   -0.005516800
      5        6           0.003770191   -0.026233201    0.007326337
      6        7          -0.009418898    0.011085657    0.000348108
      7        6           0.002745576    0.016628863   -0.001070683
      8        6           0.005628130    0.002334944   -0.008122395
      9        8          -0.008137876    0.009139096    0.011624608
     10        8           0.002832836    0.001468376   -0.000773868
     11        6          -0.000651669   -0.007288301    0.005516726
     12        6          -0.003770253    0.026233144   -0.007326532
     13        7           0.009418341   -0.011085228   -0.000347878
     14        8           0.008138589   -0.009138753   -0.011624829
     15        1           0.000442563    0.003907858   -0.000663655
     16        1           0.006666032   -0.010149243   -0.005106529
     17        1           0.001851506    0.002609024    0.000415822
     18        1          -0.002320133   -0.008327552   -0.003067788
     19        1          -0.000442560   -0.003907728    0.000663658
     20        1          -0.001851533   -0.002609146   -0.000415936
     21        1          -0.006665556    0.010148793    0.005106466
     22        1           0.002319557    0.008327643    0.003068128
 -------------------------------------------------------------------
 Cartesian Forces:  Max     0.026233201 RMS     0.007823258
 FormGI is forming the generalized inverse of G from B-inverse, IUseBI=4.

 GradGradGradGradGradGradGradGradGradGradGradGradGradGradGradGradGradGrad
 Berny optimization.
 Internal  Forces:  Max     0.015904083 RMS     0.005751509
 Search for a local minimum.
 Step number   1 out of a maximum of  108
 All quantities printed in internal units (Hartrees-Bohrs-Radians)
 Mixed Optimization -- RFO/linear search
 Second derivative matrix not updated -- analytic derivatives used.
 ITU=  0
     Eigenvalues ---    0.00045   0.00081   0.00545   0.00569   0.01000
     Eigenvalues ---    0.01393   0.01684   0.01898   0.01908   0.01935
     Eigenvalues ---    0.02016   0.02035   0.02169   0.02274   0.02384
     Eigenvalues ---    0.02887   0.03033   0.06697   0.06711   0.11553
     Eigenvalues ---    0.11771   0.13391   0.13501   0.15357   0.15537
     Eigenvalues ---    0.17099   0.17417   0.18921   0.18937   0.19517
     Eigenvalues ---    0.19586   0.20921   0.21277   0.22788   0.24266
     Eigenvalues ---    0.25358   0.28100   0.33004   0.34888   0.34948
     Eigenvalues ---    0.36268   0.36585   0.39594   0.40030   0.41464
     Eigenvalues ---    0.41759   0.42036   0.42485   0.44069   0.45469
     Eigenvalues ---    0.45508   0.45666   0.46018   0.48284   0.48348
     Eigenvalues ---    0.50274   0.81102   0.83151   0.86673   0.87660
 RFO step:  Lambda=-1.02520594D-02 EMin= 4.47777586D-04
 Linear search not attempted -- first point.
 Iteration  1 RMS(Cart)=  0.06572790 RMS(Int)=  0.00284102
 Iteration  2 RMS(Cart)=  0.00356732 RMS(Int)=  0.00045305
 Iteration  3 RMS(Cart)=  0.00001141 RMS(Int)=  0.00045301
 Iteration  4 RMS(Cart)=  0.00000000 RMS(Int)=  0.00045301
 Variable       Old X    -DE/DX   Delta X   Delta X   Delta X     New X
                                 (Linear)    (Quad)   (Total)
    R1        2.30261   0.00143   0.00000   0.00155   0.00155   2.30416
    R2        2.80935   0.00281   0.00000  -0.00031  -0.00031   2.80904
    R3        2.54767   0.01008   0.00000   0.01392   0.01392   2.56159
    R4        2.65870  -0.00557   0.00000  -0.01303  -0.01303   2.64567
    R5        2.65742   0.01590   0.00000   0.03053   0.03053   2.68795
    R6        2.64826  -0.00014   0.00000  -0.00217  -0.00217   2.64609
    R7        2.05875  -0.00363   0.00000  -0.00869  -0.00869   2.05006
    R8        2.65821  -0.00413   0.00000  -0.02971  -0.02971   2.62850
    R9        2.65742   0.01590   0.00000   0.03053   0.03053   2.68795
   R10        1.93615  -0.01185   0.00000  -0.02712  -0.02712   1.90903
   R11        1.91889  -0.00281   0.00000  -0.00725  -0.00725   1.91163
   R12        2.80935   0.00281   0.00000  -0.00031  -0.00031   2.80904
   R13        2.65870  -0.00557   0.00000  -0.01303  -0.01303   2.64567
   R14        2.54767   0.01008   0.00000   0.01392   0.01392   2.56159
   R15        2.30261   0.00143   0.00000   0.00155   0.00155   2.30416
   R16        1.85506  -0.00580   0.00000  -0.01700  -0.01700   1.83806
   R17        2.64826  -0.00014   0.00000  -0.00217  -0.00217   2.64609
   R18        2.05875  -0.00363   0.00000  -0.00869  -0.00869   2.05006
   R19        2.65821  -0.00413   0.00000  -0.02971  -0.02971   2.62850
   R20        1.91889  -0.00281   0.00000  -0.00725  -0.00725   1.91163
   R21        1.93615  -0.01185   0.00000  -0.02711  -0.02711   1.90903
   R22        1.85506  -0.00580   0.00000  -0.01700  -0.01700   1.83805
    A1        2.18942  -0.00776   0.00000  -0.01600  -0.01613   2.17329
    A2        2.10175  -0.00104   0.00000   0.00973   0.00960   2.11135
    A3        1.99113   0.00883   0.00000   0.00744   0.00731   1.99845
    A4        2.02450  -0.01148   0.00000  -0.02000  -0.02014   2.00437
    A5        2.16416   0.01302   0.00000   0.02127   0.02114   2.18530
    A6        2.09428  -0.00153   0.00000  -0.00092  -0.00078   2.09350
    A7        2.12458   0.00852   0.00000   0.03148   0.03169   2.15627
    A8        2.07824  -0.00571   0.00000  -0.02979  -0.02990   2.04834
    A9        2.08036  -0.00281   0.00000  -0.00168  -0.00179   2.07857
   A10        2.05801  -0.00225   0.00000   0.02006   0.01897   2.07698
   A11        2.06312  -0.00693   0.00000  -0.02898  -0.02985   2.03326
   A12        2.14715   0.00959   0.00000   0.02211   0.02112   2.16827
   A13        1.94824   0.00903   0.00000   0.05527   0.05475   2.00299
   A14        1.99869  -0.00449   0.00000  -0.00810  -0.00863   1.99006
   A15        1.95738  -0.00254   0.00000   0.00746   0.00669   1.96407
   A16        2.16416   0.01302   0.00000   0.02127   0.02114   2.18530
   A17        2.09428  -0.00153   0.00000  -0.00092  -0.00078   2.09350
   A18        2.02450  -0.01148   0.00000  -0.02000  -0.02014   2.00437
   A19        1.99113   0.00883   0.00000   0.00744   0.00731   1.99845
   A20        2.18942  -0.00776   0.00000  -0.01600  -0.01613   2.17329
   A21        2.10175  -0.00104   0.00000   0.00973   0.00960   2.11135
   A22        1.79707   0.01317   0.00000   0.06703   0.06703   1.86410
   A23        2.12458   0.00852   0.00000   0.03148   0.03169   2.15627
   A24        2.07824  -0.00571   0.00000  -0.02979  -0.02990   2.04834
   A25        2.08036  -0.00281   0.00000  -0.00168  -0.00179   2.07857
   A26        2.06312  -0.00693   0.00000  -0.02898  -0.02985   2.03326
   A27        2.14715   0.00959   0.00000   0.02211   0.02112   2.16827
   A28        2.05801  -0.00225   0.00000   0.02006   0.01897   2.07698
   A29        1.99869  -0.00449   0.00000  -0.00810  -0.00863   1.99006
   A30        1.94824   0.00902   0.00000   0.05527   0.05475   2.00299
   A31        1.95738  -0.00254   0.00000   0.00746   0.00669   1.96407
   A32        1.79707   0.01317   0.00000   0.06703   0.06703   1.86410
    D1        0.28469   0.00016   0.00000  -0.07315  -0.07317   0.21152
    D2       -2.88097   0.00070   0.00000  -0.05617  -0.05631  -2.93728
    D3       -2.81171  -0.00059   0.00000  -0.10366  -0.10352  -2.91523
    D4        0.30582  -0.00006   0.00000  -0.08669  -0.08667   0.21915
    D5        0.01624   0.00015   0.00000  -0.00456  -0.00473   0.01150
    D6        3.11513   0.00065   0.00000   0.02353   0.02370   3.13883
    D7       -3.11089  -0.00055   0.00000  -0.01763  -0.01829  -3.12919
    D8        0.03375  -0.00064   0.00000  -0.02112  -0.02135   0.01241
    D9        0.05373  -0.00128   0.00000  -0.03421  -0.03453   0.01920
   D10       -3.08481  -0.00137   0.00000  -0.03770  -0.03758  -3.12239
   D11        3.11470   0.00127   0.00000   0.01746   0.01655   3.13126
   D12        0.16180  -0.00094   0.00000  -0.06712  -0.06713   0.09467
   D13       -0.05186   0.00171   0.00000   0.03484   0.03397  -0.01788
   D14       -3.00476  -0.00051   0.00000  -0.04973  -0.04971  -3.05447
   D15       -3.01546  -0.00203   0.00000  -0.04636  -0.04548  -3.06094
   D16       -0.05280   0.00141   0.00000   0.03442   0.03421  -0.01859
   D17        0.12307  -0.00194   0.00000  -0.04291  -0.04242   0.08065
   D18        3.08573   0.00150   0.00000   0.03786   0.03727   3.12300
   D19       -2.85583   0.00149   0.00000   0.05469   0.05511  -2.80072
   D20       -0.60789   0.00215   0.00000   0.10804   0.10898  -0.49891
   D21        0.47393  -0.00023   0.00000  -0.02466  -0.02560   0.44833
   D22        2.72187   0.00042   0.00000   0.02869   0.02827   2.75014
   D23       -3.11471  -0.00127   0.00000  -0.01745  -0.01655  -3.13126
   D24        0.05186  -0.00171   0.00000  -0.03484  -0.03397   0.01788
   D25       -0.16180   0.00094   0.00000   0.06712   0.06713  -0.09467
   D26        3.00476   0.00051   0.00000   0.04973   0.04971   3.05447
   D27       -0.30582   0.00006   0.00000   0.08669   0.08667  -0.21915
   D28        2.88097  -0.00070   0.00000   0.05618   0.05632   2.93728
   D29        2.81171   0.00059   0.00000   0.10366   0.10352   2.91523
   D30       -0.28469  -0.00016   0.00000   0.07315   0.07317  -0.21152
   D31       -0.05373   0.00128   0.00000   0.03422   0.03453  -0.01920
   D32        3.08481   0.00137   0.00000   0.03770   0.03758   3.12239
   D33        3.11089   0.00055   0.00000   0.01763   0.01829   3.12919
   D34       -0.03375   0.00064   0.00000   0.02112   0.02135  -0.01241
   D35       -3.11514  -0.00065   0.00000  -0.02353  -0.02370  -3.13883
   D36       -0.01624  -0.00015   0.00000   0.00457   0.00474  -0.01150
   D37        0.05281  -0.00141   0.00000  -0.03442  -0.03422   0.01859
   D38        3.01547   0.00203   0.00000   0.04636   0.04548   3.06095
   D39       -3.08573  -0.00150   0.00000  -0.03786  -0.03727  -3.12300
   D40       -0.12307   0.00194   0.00000   0.04292   0.04242  -0.08065
   D41       -2.72187  -0.00042   0.00000  -0.02869  -0.02827  -2.75014
   D42       -0.47392   0.00023   0.00000   0.02466   0.02560  -0.44832
   D43        0.60790  -0.00215   0.00000  -0.10804  -0.10898   0.49891
   D44        2.85584  -0.00149   0.00000  -0.05469  -0.05512   2.80073
         Item               Value     Threshold  Converged?
 Maximum Force            0.015904     0.000450     NO 
 RMS     Force            0.005752     0.000300     NO 
 Maximum Displacement     0.214418     0.001800     NO 
 RMS     Displacement     0.066279     0.001200     NO 
 Predicted change in Energy=-5.922915D-03
 GradGradGradGradGradGradGradGradGradGradGradGradGradGradGradGradGradGrad

                          Input orientation:                          
 ---------------------------------------------------------------------
 Center     Atomic      Atomic             Coordinates (Angstroms)
 Number     Number       Type             X           Y           Z
 ---------------------------------------------------------------------
      1          8           0        1.505379   -2.254469   -2.478094
      2          6           0        1.699571   -1.133181   -2.040234
      3          6           0        0.861014   -0.476958   -1.003018
      4          6           0       -0.036456   -1.328116   -0.347154
      5          6           0       -0.921651   -0.899487    0.649542
      6          7           0       -1.704625   -1.842482    1.307143
      7          6           0       -0.861014    0.476958    1.003018
      8          6           0       -1.699571    1.133181    2.040234
      9          8           0       -2.744382    0.386268    2.473785
     10          8           0       -1.505380    2.254469    2.478093
     11          6           0        0.036455    1.328117    0.347153
     12          6           0        0.921651    0.899488   -0.649542
     13          7           0        1.704625    1.842482   -1.307142
     14          8           0        2.744383   -0.386269   -2.473784
     15          1           0       -0.034778   -2.373474   -0.637167
     16          1           0       -2.517885   -1.466140    1.773527
     17          1           0       -1.920252   -2.659108    0.750415
     18          1           0       -3.212759    0.917899    3.140157
     19          1           0        0.034776    2.373475    0.637166
     20          1           0        1.920254    2.659108   -0.750414
     21          1           0        2.517883    1.466141   -1.773530
     22          1           0        3.212762   -0.917900   -3.140155
 ---------------------------------------------------------------------
                    Distance matrix (angstroms):
                    1          2          3          4          5
     1  O    0.000000
     2  C    1.219310   0.000000
     3  C    2.398041   1.486480   0.000000
     4  C    2.788600   2.432758   1.400029   0.000000
     5  C    4.184323   3.763019   2.467262   1.400248   0.000000
     6  N    4.980148   4.826654   3.712682   2.405007   1.390944
     7  C    5.017833   4.290749   2.810608   2.400240   1.422400
     8  C    6.493317   5.774148   4.290749   3.810979   2.582813
     9  O    7.039536   6.514124   5.082539   4.269622   2.881558
    10  O    7.345678   6.493317   5.017833   4.793191   3.692124
    11  C    4.793191   3.810979   2.400240   2.746444   2.443691
    12  C    3.692124   2.582813   1.422400   2.443691   2.884734
    13  N    4.265657   3.064640   2.486759   3.742410   4.271339
    14  O    2.241723   1.355535   2.391329   3.625286   4.843383
    15  H    2.403176   2.552428   2.129100   1.084843   2.148209
    16  H    5.906302   5.695838   4.483821   3.267083   2.032831
    17  H    4.724611   4.818640   3.946106   2.554385   2.025746
    18  H    7.993090   7.427946   5.975547   5.224445   3.841255
    19  H    5.769348   4.715575   3.390846   3.830892   3.409866
    20  H    5.224962   4.011706   3.319744   4.459741   4.764441
    21  H    3.919759   2.738109   2.667309   4.045624   4.826787
    22  H    2.267134   1.883061   3.208192   4.304248   5.608521
                    6          7          8          9         10
     6  N    0.000000
     7  C    2.486759   0.000000
     8  C    3.064640   1.486480   0.000000
     9  O    2.722035   2.391329   1.355535   0.000000
    10  O    4.265657   2.398041   1.219310   2.241723   0.000000
    11  C    3.742410   1.400029   2.432758   3.625286   2.788600
    12  C    4.271339   2.467262   3.763019   4.843384   4.184323
    13  N    5.660073   3.712681   4.826654   6.017444   4.980148
    14  O    6.017444   5.082539   6.514124   7.429791   7.039536
    15  H    2.617381   3.390846   4.715575   4.963482   5.769348
    16  H    1.010217   2.667309   2.738109   1.993258   3.919760
    17  H    1.011592   3.319744   4.011706   3.594928   5.224962
    18  H    3.640620   3.208192   1.883060   0.972657   2.267133
    19  H    4.609628   2.129100   2.552428   3.878902   2.403176
    20  H    6.134948   3.946106   4.818641   6.109017   4.724612
    21  H    6.186041   4.483821   5.695839   6.848157   5.906303
    22  H    6.694326   5.975547   7.427946   8.288832   7.993091
                   11         12         13         14         15
    11  C    0.000000
    12  C    1.400249   0.000000
    13  N    2.405006   1.390944   0.000000
    14  O    4.269622   2.881558   2.722036   0.000000
    15  H    3.830892   3.409866   4.609628   3.878902   0.000000
    16  H    4.045624   4.826787   6.186041   6.848156   3.577782
    17  H    4.459740   4.764441   6.134948   6.109016   2.358386
    18  H    4.304247   5.608521   6.694326   8.288832   5.933034
    19  H    1.084843   2.148209   2.617381   4.963483   4.915515
    20  H    2.554386   2.025746   1.011592   3.594928   5.400171
    21  H    3.267083   2.032831   1.010217   1.993258   4.748689
    22  H    5.224446   3.841255   3.640621   0.972657   4.350880
                   16         17         18         19         20
    16  H    0.000000
    17  H    1.681397   0.000000
    18  H    2.834462   4.491818   0.000000
    19  H    4.748689   5.400171   4.350880   0.000000
    20  H    6.563919   6.729442   6.672044   2.358387   0.000000
    21  H    6.821939   6.563918   7.568696   3.577783   1.681397
    22  H    7.568696   6.672044   9.170594   5.933034   4.491817
                   21         22
    21  H    0.000000
    22  H    2.834461   0.000000
 Stoichiometry    C8H8N2O4
 Framework group  C1[X(C8H8N2O4)]
 Deg. of freedom    60
 Full point group                 C1      NOp   1
 Largest Abelian subgroup         C1      NOp   1
 Largest concise Abelian subgroup C1      NOp   1
                         Standard orientation:                         
 ---------------------------------------------------------------------
 Center     Atomic      Atomic             Coordinates (Angstroms)
 Number     Number       Type             X           Y           Z
 ---------------------------------------------------------------------
      1          8           0        3.290067   -1.621919   -0.185954
      2          6           0        2.843319   -0.500546   -0.013748
      3          6           0        1.395906   -0.162032   -0.008530
      4          6           0        0.534299   -1.264160    0.046503
      5          6           0       -0.861745   -1.155736    0.045732
      6          7           0       -1.627623   -2.306425    0.200885
      7          6           0       -1.395906    0.162032    0.008530
      8          6           0       -2.843319    0.500546    0.013748
      9          8           0       -3.667623   -0.551879   -0.210749
     10          8           0       -3.290068    1.621919    0.185953
     11          6           0       -0.534299    1.264160   -0.046504
     12          6           0        0.861745    1.155736   -0.045732
     13          7           0        1.627623    2.306425   -0.200885
     14          8           0        3.667623    0.551879    0.210751
     15          1           0        0.986856   -2.249055    0.091850
     16          1           0       -2.585125   -2.222549   -0.110074
     17          1           0       -1.181270   -3.147392   -0.140966
     18          1           0       -4.576835   -0.207232   -0.185970
     19          1           0       -0.986856    2.249055   -0.091852
     20          1           0        1.181271    3.147392    0.140968
     21          1           0        2.585126    2.222549    0.110071
     22          1           0        4.576835    0.207232    0.185973
 ---------------------------------------------------------------------
 Rotational constants (GHZ):           1.3894424           0.4279436           0.3288383
 Standard basis: 6-31G(d,p) (6D, 7F)
 There are   250 symmetry adapted cartesian basis functions of A   symmetry.
 There are   250 symmetry adapted basis functions of A   symmetry.
   250 basis functions,   448 primitive gaussians,   250 cartesian basis functions
    51 alpha electrons       51 beta electrons
       nuclear repulsion energy       871.7556531580 Hartrees.
 NAtoms=   22 NActive=   22 NUniq=   22 SFac= 1.00D+00 NAtFMM=   60 NAOKFM=F Big=F
 Integral buffers will be    131072 words long.
 Raffenetti 2 integral format.
 Two-electron integral symmetry is turned on.
 ------------------------------------------------------------------------------
 Polarizable Continuum Model (PCM)
 =================================
 Model                : PCM.
 Atomic radii         : UFF (Universal Force Field).
 Polarization charges : Total charges.
 Charge compensation  : None.
 Solution method      : Matrix inversion.
 Cavity type          : Scaled VdW (van der Waals Surface) (Alpha=1.100).
 Cavity algorithm     : GePol (No added spheres)
                        Default sphere list used, NSphG=   22.
                        Lebedev-Laikov grids with approx.  5.0 points / Ang**2.
                        Smoothing algorithm: York/Karplus (Gamma=1.0000).
                        Polarization charges: spherical gaussians, with
                                              point-specific exponents (IZeta= 3).
                        Self-potential: point-specific (ISelfS= 7).
                        Self-field    : sphere-specific E.n sum rule (ISelfD= 2).
 1st derivatives      : Analytical E(r).r(x)/FMM algorithm (CHGder, D1EAlg=3).
                        Cavity 1st derivative terms included.
 Solvent              : Water, Eps=  78.355300 Eps(inf)=   1.777849
 ------------------------------------------------------------------------------
 One-electron integrals computed using PRISM.
 NBasis=   250 RedAO= T EigKep=  3.16D-04  NBF=   250
 NBsUse=   250 1.00D-06 EigRej= -1.00D+00 NBFU=   250
 Initial guess from the checkpoint file:  "WIOZZYWDYUOMAY-UHFFFAOYSA-N_conf_1_0.chk"
 B after Tr=    -0.000000    0.000000    0.000000
         Rot=    0.999999    0.000325   -0.000642   -0.001493 Ang=   0.19 deg.
 ExpMin= 1.61D-01 ExpMax= 5.48D+03 ExpMxC= 8.25D+02 IAcc=2 IRadAn=         4 AccDes= 0.00D+00
 Harris functional with IExCor=  402 and IRadAn=       4 diagonalized for initial guess.
 HarFok:  IExCor=  402 AccDes= 0.00D+00 IRadAn=         4 IDoV= 1 UseB2=F ITyADJ=14
 ICtDFT=  3500011 ScaDFX=  1.000000  1.000000  1.000000  1.000000
 FoFCou: FMM=F IPFlag=           0 FMFlag=      100000 FMFlg1=           0
         NFxFlg=           0 DoJE=T BraDBF=F KetDBF=T FulRan=T
         wScrn=  0.000000 ICntrl=       500 IOpCl=  0 I1Cent=   200000004 NGrid=           0
         NMat0=    1 NMatS0=      1 NMatT0=    0 NMatD0=    1 NMtDS0=    0 NMtDT0=    0
 Petite list used in FoFCou.
 Keep R1 ints in memory in canonical form, NReq=500119023.
 Requested convergence on RMS density matrix=1.00D-08 within  32 cycles.
 Requested convergence on MAX density matrix=1.00D-06.
 Requested convergence on             energy=1.00D-06.
 No special actions if energy rises.
 Inv3:  Mode=1 IEnd=    10090668.
 Iteration    1 A*A^-1 deviation from unit magnitude is 2.66D-15 for    183.
 Iteration    1 A*A^-1 deviation from orthogonality  is 1.78D-15 for   1677    789.
 Iteration    1 A^-1*A deviation from unit magnitude is 2.78D-15 for    400.
 Iteration    1 A^-1*A deviation from orthogonality  is 1.44D-15 for    541    408.
 Error on total polarization charges =  0.00507
 SCF Done:  E(RB3LYP) =  -720.142723689     A.U. after   11 cycles
            NFock= 11  Conv=0.60D-08     -V/T= 2.0091
 QCSCF skips out because SCF is already converged.
 D1PCM: PCM CHGder 1st derivatives, ID1Alg=3 FixD1E=F DoIter=F DoCFld=F I1PDM=0.
 Calling FoFJK, ICntrl=      2127 FMM=F ISym2X=0 I1Cent= 0 IOpClX= 0 NMat=1 NMatS=1 NMatT=0.
 ***** Axes restored to original set *****
 -------------------------------------------------------------------
 Center     Atomic                   Forces (Hartrees/Bohr)
 Number     Number              X              Y              Z
 -------------------------------------------------------------------
      1        8           0.000443898   -0.000344442    0.000272292
      2        6          -0.000489562   -0.000232235    0.000119488
      3        6           0.000890628   -0.001271258    0.000635929
      4        6          -0.001563036    0.000762104   -0.001372017
      5        6           0.002988138   -0.001743595    0.001990777
      6        7          -0.001831514    0.001020055   -0.000921210
      7        6          -0.000890684    0.001271286   -0.000635975
      8        6           0.000489587    0.000232210   -0.000119469
      9        8           0.000257750    0.000103437    0.000201114
     10        8          -0.000443903    0.000344436   -0.000272298
     11        6           0.001563126   -0.000762127    0.001372086
     12        6          -0.002988175    0.001743585   -0.001990815
     13        7           0.001831537   -0.001020065    0.000921120
     14        8          -0.000257718   -0.000103349   -0.000201087
     15        1          -0.000172663    0.000127656   -0.000186645
     16        1          -0.000429932   -0.000646588    0.000268495
     17        1           0.000619924   -0.000459946    0.000318674
     18        1          -0.000449764   -0.000294609    0.000336133
     19        1           0.000172660   -0.000127658    0.000186645
     20        1          -0.000619927    0.000459944   -0.000318672
     21        1           0.000429918    0.000646579   -0.000268424
     22        1           0.000449713    0.000294581   -0.000336142
 -------------------------------------------------------------------
 Cartesian Forces:  Max     0.002988175 RMS     0.000978048

 GradGradGradGradGradGradGradGradGradGradGradGradGradGradGradGradGradGrad
 Berny optimization.
 Using GEDIIS/GDIIS optimizer.
 FormGI is forming the generalized inverse of G from B-inverse, IUseBI=4.
 Internal  Forces:  Max     0.001289540 RMS     0.000472743
 Search for a local minimum.
 Step number   2 out of a maximum of  108
 All quantities printed in internal units (Hartrees-Bohrs-Radians)
 Mixed Optimization -- En-DIIS/RFO-DIIS
 Update second derivatives using D2CorX and points    1    2
 DE= -5.82D-03 DEPred=-5.92D-03 R= 9.83D-01
 TightC=F SS=  1.41D+00  RLast= 3.94D-01 DXNew= 5.0454D-01 1.1829D+00
 Trust test= 9.83D-01 RLast= 3.94D-01 DXMaxT set to 5.05D-01
 ITU=  1  0
 Use linear search instead of GDIIS.
     Eigenvalues ---    0.00045   0.00086   0.00545   0.00571   0.01000
     Eigenvalues ---    0.01413   0.01684   0.01893   0.01898   0.01934
     Eigenvalues ---    0.02015   0.02039   0.02168   0.02250   0.02384
     Eigenvalues ---    0.02899   0.03030   0.06696   0.06743   0.11570
     Eigenvalues ---    0.11771   0.13378   0.13473   0.15356   0.15437
     Eigenvalues ---    0.16904   0.17414   0.18581   0.18913   0.19487
     Eigenvalues ---    0.19595   0.20829   0.21274   0.22953   0.24261
     Eigenvalues ---    0.25369   0.28096   0.32996   0.34945   0.34957
     Eigenvalues ---    0.36211   0.36581   0.39634   0.40025   0.41463
     Eigenvalues ---    0.41473   0.42061   0.42483   0.44332   0.45465
     Eigenvalues ---    0.45510   0.45690   0.46007   0.48283   0.48392
     Eigenvalues ---    0.50389   0.80033   0.83118   0.86624   0.87614
 RFO step:  Lambda=-1.12140745D-03 EMin= 4.47768008D-04
 Quartic linear search produced a step of  0.14481.
 Iteration  1 RMS(Cart)=  0.09566695 RMS(Int)=  0.01063046
 Iteration  2 RMS(Cart)=  0.01548655 RMS(Int)=  0.00029884
 Iteration  3 RMS(Cart)=  0.00027198 RMS(Int)=  0.00023013
 Iteration  4 RMS(Cart)=  0.00000008 RMS(Int)=  0.00023013
 Variable       Old X    -DE/DX   Delta X   Delta X   Delta X     New X
                                 (Linear)    (Quad)   (Total)
    R1        2.30416   0.00015   0.00023   0.00250   0.00272   2.30689
    R2        2.80904   0.00035  -0.00004  -0.00044  -0.00048   2.80856
    R3        2.56159   0.00043   0.00202  -0.00439  -0.00238   2.55921
    R4        2.64567   0.00015  -0.00189   0.00415   0.00226   2.64793
    R5        2.68795   0.00117   0.00442  -0.00008   0.00434   2.69228
    R6        2.64609   0.00016  -0.00031   0.00062   0.00030   2.64639
    R7        2.05006  -0.00007  -0.00126   0.00133   0.00007   2.05013
    R8        2.62850   0.00082  -0.00430  -0.00177  -0.00608   2.62243
    R9        2.68795   0.00117   0.00442  -0.00008   0.00434   2.69228
   R10        1.90903   0.00023  -0.00393   0.00328  -0.00065   1.90839
   R11        1.91163   0.00007  -0.00105  -0.00032  -0.00137   1.91026
   R12        2.80904   0.00035  -0.00004  -0.00044  -0.00048   2.80856
   R13        2.64567   0.00015  -0.00189   0.00415   0.00226   2.64793
   R14        2.56159   0.00043   0.00202  -0.00439  -0.00238   2.55921
   R15        2.30416   0.00015   0.00023   0.00250   0.00272   2.30689
   R16        1.83806   0.00029  -0.00246   0.00363   0.00117   1.83923
   R17        2.64609   0.00016  -0.00031   0.00062   0.00030   2.64639
   R18        2.05006  -0.00007  -0.00126   0.00133   0.00007   2.05013
   R19        2.62850   0.00082  -0.00430  -0.00177  -0.00607   2.62243
   R20        1.91163   0.00007  -0.00105  -0.00032  -0.00137   1.91026
   R21        1.90903   0.00023  -0.00393   0.00328  -0.00065   1.90839
   R22        1.83805   0.00029  -0.00246   0.00363   0.00117   1.83923
    A1        2.17329   0.00038  -0.00234   0.00136  -0.00104   2.17225
    A2        2.11135   0.00001   0.00139  -0.00828  -0.00695   2.10440
    A3        1.99845  -0.00039   0.00106   0.00708   0.00808   2.00653
    A4        2.00437   0.00012  -0.00292  -0.00432  -0.00729   1.99707
    A5        2.18530   0.00008   0.00306   0.01082   0.01383   2.19913
    A6        2.09350  -0.00020  -0.00011  -0.00657  -0.00661   2.08689
    A7        2.15627   0.00048   0.00459   0.00305   0.00772   2.16399
    A8        2.04834  -0.00026  -0.00433  -0.00203  -0.00640   2.04195
    A9        2.07857  -0.00021  -0.00026  -0.00102  -0.00132   2.07725
   A10        2.07698  -0.00011   0.00275  -0.00956  -0.00720   2.06978
   A11        2.03326  -0.00027  -0.00432   0.00361  -0.00098   2.03228
   A12        2.16827   0.00045   0.00306   0.00819   0.01090   2.17917
   A13        2.00299   0.00129   0.00793   0.01238   0.01970   2.02269
   A14        1.99006  -0.00003  -0.00125   0.00905   0.00718   1.99724
   A15        1.96407  -0.00030   0.00097   0.02130   0.02141   1.98548
   A16        2.18530   0.00008   0.00306   0.01083   0.01383   2.19913
   A17        2.09350  -0.00020  -0.00011  -0.00657  -0.00661   2.08689
   A18        2.00437   0.00012  -0.00292  -0.00432  -0.00730   1.99707
   A19        1.99845  -0.00039   0.00106   0.00708   0.00808   2.00653
   A20        2.17329   0.00038  -0.00234   0.00136  -0.00104   2.17225
   A21        2.11135   0.00001   0.00139  -0.00829  -0.00695   2.10440
   A22        1.86410   0.00103   0.00971  -0.00932   0.00039   1.86448
   A23        2.15627   0.00048   0.00459   0.00305   0.00772   2.16399
   A24        2.04834  -0.00026  -0.00433  -0.00203  -0.00640   2.04195
   A25        2.07857  -0.00021  -0.00026  -0.00102  -0.00132   2.07725
   A26        2.03326  -0.00027  -0.00432   0.00361  -0.00098   2.03228
   A27        2.16827   0.00045   0.00306   0.00819   0.01090   2.17917
   A28        2.07698  -0.00011   0.00275  -0.00956  -0.00720   2.06978
   A29        1.99006  -0.00003  -0.00125   0.00905   0.00718   1.99724
   A30        2.00299   0.00129   0.00793   0.01238   0.01970   2.02269
   A31        1.96407  -0.00030   0.00097   0.02130   0.02141   1.98548
   A32        1.86410   0.00103   0.00971  -0.00932   0.00039   1.86449
    D1        0.21152  -0.00056  -0.01060  -0.20078  -0.21131   0.00021
    D2       -2.93728  -0.00045  -0.00816  -0.21109  -0.21931   3.12659
    D3       -2.91523  -0.00049  -0.01499  -0.21211  -0.22703   3.14092
    D4        0.21915  -0.00038  -0.01255  -0.22241  -0.23502  -0.01587
    D5        0.01150   0.00011  -0.00069  -0.03203  -0.03273  -0.02122
    D6        3.13883   0.00005   0.00343  -0.02106  -0.01763   3.12121
    D7       -3.12919  -0.00037  -0.00265  -0.01597  -0.01873   3.13526
    D8        0.01241  -0.00025  -0.00309  -0.01517  -0.01823  -0.00582
    D9        0.01920  -0.00047  -0.00500  -0.00633  -0.01139   0.00782
   D10       -3.12239  -0.00035  -0.00544  -0.00553  -0.01088  -3.13327
   D11        3.13126   0.00033   0.00240   0.01668   0.01901  -3.13291
   D12        0.09467  -0.00043  -0.00972  -0.00791  -0.01776   0.07691
   D13       -0.01788   0.00045   0.00492   0.00590   0.01065  -0.00724
   D14       -3.05447  -0.00032  -0.00720  -0.01869  -0.02612  -3.08060
   D15       -3.06094  -0.00031  -0.00659  -0.01829  -0.02448  -3.08543
   D16       -0.01859   0.00045   0.00495   0.00603   0.01100  -0.00759
   D17        0.08065  -0.00043  -0.00614  -0.01910  -0.02499   0.05565
   D18        3.12300   0.00033   0.00540   0.00521   0.01049   3.13349
   D19       -2.80072   0.00038   0.00798   0.02070   0.02854  -2.77218
   D20       -0.49891   0.00121   0.01578   0.07432   0.09049  -0.40842
   D21        0.44833  -0.00040  -0.00371  -0.00523  -0.00934   0.43899
   D22        2.75014   0.00043   0.00409   0.04838   0.05261   2.80275
   D23       -3.13126  -0.00033  -0.00240  -0.01668  -0.01901   3.13291
   D24        0.01788  -0.00045  -0.00492  -0.00590  -0.01064   0.00724
   D25       -0.09467   0.00043   0.00972   0.00791   0.01776  -0.07691
   D26        3.05447   0.00032   0.00720   0.01869   0.02613   3.08060
   D27       -0.21915   0.00038   0.01255   0.22243   0.23504   0.01589
   D28        2.93728   0.00045   0.00816   0.21110   0.21932  -3.12658
   D29        2.91523   0.00049   0.01499   0.21212   0.22704  -3.14091
   D30       -0.21152   0.00056   0.01060   0.20079   0.21133  -0.00019
   D31       -0.01920   0.00047   0.00500   0.00633   0.01139  -0.00782
   D32        3.12239   0.00035   0.00544   0.00553   0.01088   3.13327
   D33        3.12919   0.00037   0.00265   0.01597   0.01873  -3.13527
   D34       -0.01241   0.00025   0.00309   0.01517   0.01823   0.00582
   D35       -3.13883  -0.00005  -0.00343   0.02107   0.01763  -3.12121
   D36       -0.01150  -0.00011   0.00069   0.03204   0.03273   0.02123
   D37        0.01859  -0.00046  -0.00495  -0.00603  -0.01100   0.00759
   D38        3.06095   0.00031   0.00659   0.01829   0.02448   3.08543
   D39       -3.12300  -0.00033  -0.00540  -0.00521  -0.01049  -3.13349
   D40       -0.08065   0.00043   0.00614   0.01910   0.02499  -0.05565
   D41       -2.75014  -0.00043  -0.00409  -0.04838  -0.05262  -2.80275
   D42       -0.44832   0.00040   0.00371   0.00523   0.00933  -0.43899
   D43        0.49891  -0.00121  -0.01578  -0.07432  -0.09049   0.40842
   D44        2.80073  -0.00038  -0.00798  -0.02071  -0.02855   2.77218
         Item               Value     Threshold  Converged?
 Maximum Force            0.001290     0.000450     NO 
 RMS     Force            0.000473     0.000300     NO 
 Maximum Displacement     0.363297     0.001800     NO 
 RMS     Displacement     0.107610     0.001200     NO 
 Predicted change in Energy=-9.149887D-04
 GradGradGradGradGradGradGradGradGradGradGradGradGradGradGradGradGradGrad

                          Input orientation:                          
 ---------------------------------------------------------------------
 Center     Atomic      Atomic             Coordinates (Angstroms)
 Number     Number       Type             X           Y           Z
 ---------------------------------------------------------------------
      1          8           0        1.658713   -2.344526   -2.285857
      2          6           0        1.726166   -1.157492   -2.009025
      3          6           0        0.874790   -0.480433   -0.996296
      4          6           0       -0.043998   -1.322313   -0.355591
[...]
 Quadrupole moment (field-independent basis, Debye-Ang):
   XX=            -72.5494   YY=            -67.9719   ZZ=            -81.2300
   XY=             27.3708   XZ=              4.6222   YZ=              4.7746
 Traceless Quadrupole moment (field-independent basis, Debye-Ang):
   XX=              1.3677   YY=              5.9452   ZZ=             -7.3129
   XY=             27.3708   XZ=              4.6222   YZ=              4.7746
 Octapole moment (field-independent basis, Debye-Ang**2):
  XXX=              0.0003  YYY=              0.0007  ZZZ=             -0.0002  XYY=             -0.0002
  XXY=             -0.0007  XXZ=             -0.0027  XZZ=              0.0002  YZZ=              0.0000
  YYZ=             -0.0004  XYZ=              0.0017
 Hexadecapole moment (field-independent basis, Debye-Ang**3):
 XXXX=          -2048.1150 YYYY=           -731.5841 ZZZZ=            -75.7206 XXXY=            293.9515
 XXXZ=             41.0699 YYYX=            172.0515 YYYZ=             44.8065 ZZZX=              3.8903
 ZZZY=              4.8883 XXYY=           -700.3473 XXZZ=           -464.4181 YYZZ=           -180.4129
 XXYZ=             13.8375 YYXZ=             28.7617 ZZXY=             -2.6335
 N-N= 8.715948541672D+02 E-N=-3.427078084925D+03  KE= 7.137318974648D+02
 Evaluate density.
 Using the total density.
 Monte-Carlo method of calculating molar volume:
 based on  0.001 e/bohr**3 density envelope.
 Number of points per bohr**3 =   20 CutOff= 1.00D-04
 Using the CI density.
 There are       366 points.  Will hold       366 in memory.
 LenV=   805150654 MDV=   805306368.
 Box volume = 6153.081 fraction occupied=0.227
 Integrated density= 7.4697041337333559D+01 error=-2.7302958662666441D+01
 Molar volume = 1395.371 bohr**3/mol (124.521 cm**3/mol)
 Recommended a0 for SCRF calculation =  4.54 angstrom (  8.57 bohr)
 ******************************Gaussian NBO Version 3.1******************************
             N A T U R A L   A T O M I C   O R B I T A L   A N D
          N A T U R A L   B O N D   O R B I T A L   A N A L Y S I S
 ******************************Gaussian NBO Version 3.1******************************
       /RESON  / : Allow strongly delocalized NBO set

 Analyzing the CI density

 Job title: WIOZZYWDYUOMAY-UHFFFAOYSA-N_conf_1                              

 Storage needed:    189224 in NPA ( 805303772 available)


 NATURAL POPULATIONS:  Natural atomic orbital occupancies 
                                                          
   NAO  Atom  No  lang   Type(AO)    Occupancy
 --------------------------------------------
     1    O    1  S      Cor( 1S)     1.99979
     2    O    1  S      Val( 2S)     1.69938
     3    O    1  S      Ryd( 3S)     0.00043
     4    O    1  S      Ryd( 4S)     0.00013
     5    O    1  px     Val( 2p)     1.80389
     6    O    1  px     Ryd( 3p)     0.00125
     7    O    1  py     Val( 2p)     1.62541
     8    O    1  py     Ryd( 3p)     0.00067
     9    O    1  pz     Val( 2p)     1.53704
    10    O    1  pz     Ryd( 3p)     0.00148
    11    O    1  dxy    Ryd( 3d)     0.00432
    12    O    1  dxz    Ryd( 3d)     0.00065
    13    O    1  dyz    Ryd( 3d)     0.00384
    14    O    1  dx2y2  Ryd( 3d)     0.00449
    15    O    1  dz2    Ryd( 3d)     0.00134

    16    C    2  S      Cor( 1S)     1.99938
    17    C    2  S      Val( 2S)     0.75955
    18    C    2  S      Ryd( 3S)     0.00422
    19    C    2  S      Ryd( 4S)     0.00044
    20    C    2  px     Val( 2p)     0.87404
    21    C    2  px     Ryd( 3p)     0.00708
    22    C    2  py     Val( 2p)     0.70465
    23    C    2  py     Ryd( 3p)     0.02127
    24    C    2  pz     Val( 2p)     0.86890
    25    C    2  pz     Ryd( 3p)     0.00169
    26    C    2  dxy    Ryd( 3d)     0.00327
    27    C    2  dxz    Ryd( 3d)     0.00141
    28    C    2  dyz    Ryd( 3d)     0.00239
    29    C    2  dx2y2  Ryd( 3d)     0.00231
    30    C    2  dz2    Ryd( 3d)     0.00045

    31    C    3  S      Cor( 1S)     1.99886
    32    C    3  S      Val( 2S)     0.90085
    33    C    3  S      Ryd( 3S)     0.00110
    34    C    3  S      Ryd( 4S)     0.00005
    35    C    3  px     Val( 2p)     1.09958
    36    C    3  px     Ryd( 3p)     0.00520
    37    C    3  py     Val( 2p)     1.08321
    38    C    3  py     Ryd( 3p)     0.00546
    39    C    3  pz     Val( 2p)     1.11611
    40    C    3  pz     Ryd( 3p)     0.00198
    41    C    3  dxy    Ryd( 3d)     0.00060
    42    C    3  dxz    Ryd( 3d)     0.00073
    43    C    3  dyz    Ryd( 3d)     0.00051
    44    C    3  dx2y2  Ryd( 3d)     0.00081
    45    C    3  dz2    Ryd( 3d)     0.00036

    46    C    4  S      Cor( 1S)     1.99906
    47    C    4  S      Val( 2S)     0.94691
    48    C    4  S      Ryd( 3S)     0.00082
    49    C    4  S      Ryd( 4S)     0.00006
    50    C    4  px     Val( 2p)     1.06550
    51    C    4  px     Ryd( 3p)     0.00440
    52    C    4  py     Val( 2p)     1.19030
    53    C    4  py     Ryd( 3p)     0.00476
    54    C    4  pz     Val( 2p)     1.02459
    55    C    4  pz     Ryd( 3p)     0.00322
    56    C    4  dxy    Ryd( 3d)     0.00058
    57    C    4  dxz    Ryd( 3d)     0.00054
    58    C    4  dyz    Ryd( 3d)     0.00037
    59    C    4  dx2y2  Ryd( 3d)     0.00067
    60    C    4  dz2    Ryd( 3d)     0.00039

    61    C    5  S      Cor( 1S)     1.99894
    62    C    5  S      Val( 2S)     0.83932
    63    C    5  S      Ryd( 3S)     0.00112
    64    C    5  S      Ryd( 4S)     0.00012
    65    C    5  px     Val( 2p)     1.03462
    66    C    5  px     Ryd( 3p)     0.00536
    67    C    5  py     Val( 2p)     0.96398
    68    C    5  py     Ryd( 3p)     0.00536
    69    C    5  pz     Val( 2p)     0.93974
    70    C    5  pz     Ryd( 3p)     0.00131
    71    C    5  dxy    Ryd( 3d)     0.00113
    72    C    5  dxz    Ryd( 3d)     0.00115
    73    C    5  dyz    Ryd( 3d)     0.00128
    74    C    5  dx2y2  Ryd( 3d)     0.00094
    75    C    5  dz2    Ryd( 3d)     0.00039

    76    N    6  S      Cor( 1S)     1.99947
    77    N    6  S      Val( 2S)     1.35764
    78    N    6  S      Ryd( 3S)     0.00016
    79    N    6  S      Ryd( 4S)     0.00001
    80    N    6  px     Val( 2p)     1.41867
    81    N    6  px     Ryd( 3p)     0.00183
    82    N    6  py     Val( 2p)     1.34483
    83    N    6  py     Ryd( 3p)     0.00212
    84    N    6  pz     Val( 2p)     1.58980
    85    N    6  pz     Ryd( 3p)     0.00315
    86    N    6  dxy    Ryd( 3d)     0.00048
    87    N    6  dxz    Ryd( 3d)     0.00075
    88    N    6  dyz    Ryd( 3d)     0.00073
    89    N    6  dx2y2  Ryd( 3d)     0.00039
    90    N    6  dz2    Ryd( 3d)     0.00061

    91    C    7  S      Cor( 1S)     1.99886
    92    C    7  S      Val( 2S)     0.90085
    93    C    7  S      Ryd( 3S)     0.00110
    94    C    7  S      Ryd( 4S)     0.00005
    95    C    7  px     Val( 2p)     1.09958
    96    C    7  px     Ryd( 3p)     0.00520
    97    C    7  py     Val( 2p)     1.08321
    98    C    7  py     Ryd( 3p)     0.00546
    99    C    7  pz     Val( 2p)     1.11611
   100    C    7  pz     Ryd( 3p)     0.00198
   101    C    7  dxy    Ryd( 3d)     0.00060
   102    C    7  dxz    Ryd( 3d)     0.00073
   103    C    7  dyz    Ryd( 3d)     0.00051
   104    C    7  dx2y2  Ryd( 3d)     0.00081
   105    C    7  dz2    Ryd( 3d)     0.00036

   106    C    8  S      Cor( 1S)     1.99938
   107    C    8  S      Val( 2S)     0.75955
   108    C    8  S      Ryd( 3S)     0.00422
   109    C    8  S      Ryd( 4S)     0.00044
   110    C    8  px     Val( 2p)     0.87404
   111    C    8  px     Ryd( 3p)     0.00708
   112    C    8  py     Val( 2p)     0.70465
   113    C    8  py     Ryd( 3p)     0.02127
   114    C    8  pz     Val( 2p)     0.86890
   115    C    8  pz     Ryd( 3p)     0.00169
   116    C    8  dxy    Ryd( 3d)     0.00327
   117    C    8  dxz    Ryd( 3d)     0.00141
   118    C    8  dyz    Ryd( 3d)     0.00239
   119    C    8  dx2y2  Ryd( 3d)     0.00231
   120    C    8  dz2    Ryd( 3d)     0.00045

   121    O    9  S      Cor( 1S)     1.99977
   122    O    9  S      Val( 2S)     1.68033
   123    O    9  S      Ryd( 3S)     0.00098
   124    O    9  S      Ryd( 4S)     0.00011
   125    O    9  px     Val( 2p)     1.49496
   126    O    9  px     Ryd( 3p)     0.00135
   127    O    9  py     Val( 2p)     1.72124
   128    O    9  py     Ryd( 3p)     0.00153
   129    O    9  pz     Val( 2p)     1.84624
   130    O    9  pz     Ryd( 3p)     0.00083
   131    O    9  dxy    Ryd( 3d)     0.00123
   132    O    9  dxz    Ryd( 3d)     0.00014
   133    O    9  dyz    Ryd( 3d)     0.00179
   134    O    9  dx2y2  Ryd( 3d)     0.00109
   135    O    9  dz2    Ryd( 3d)     0.00064

   136    O   10  S      Cor( 1S)     1.99979
   137    O   10  S      Val( 2S)     1.69938
   138    O   10  S      Ryd( 3S)     0.00043
   139    O   10  S      Ryd( 4S)     0.00013
   140    O   10  px     Val( 2p)     1.80389
   141    O   10  px     Ryd( 3p)     0.00125
   142    O   10  py     Val( 2p)     1.62541
   143    O   10  py     Ryd( 3p)     0.00067
   144    O   10  pz     Val( 2p)     1.53704
   145    O   10  pz     Ryd( 3p)     0.00148
   146    O   10  dxy    Ryd( 3d)     0.00432
   147    O   10  dxz    Ryd( 3d)     0.00065
   148    O   10  dyz    Ryd( 3d)     0.00384
   149    O   10  dx2y2  Ryd( 3d)     0.00449
   150    O   10  dz2    Ryd( 3d)     0.00134

   151    C   11  S      Cor( 1S)     1.99906
   152    C   11  S      Val( 2S)     0.94691
   153    C   11  S      Ryd( 3S)     0.00082
   154    C   11  S      Ryd( 4S)     0.00006
   155    C   11  px     Val( 2p)     1.06550
   156    C   11  px     Ryd( 3p)     0.00440
   157    C   11  py     Val( 2p)     1.19030
   158    C   11  py     Ryd( 3p)     0.00476
   159    C   11  pz     Val( 2p)     1.02460
   160    C   11  pz     Ryd( 3p)     0.00322
   161    C   11  dxy    Ryd( 3d)     0.00058
   162    C   11  dxz    Ryd( 3d)     0.00054
   163    C   11  dyz    Ryd( 3d)     0.00037
   164    C   11  dx2y2  Ryd( 3d)     0.00067
   165    C   11  dz2    Ryd( 3d)     0.00039

   166    C   12  S      Cor( 1S)     1.99894
   167    C   12  S      Val( 2S)     0.83932
   168    C   12  S      Ryd( 3S)     0.00112
   169    C   12  S      Ryd( 4S)     0.00012
   170    C   12  px     Val( 2p)     1.03462
   171    C   12  px     Ryd( 3p)     0.00536
   172    C   12  py     Val( 2p)     0.96398
   173    C   12  py     Ryd( 3p)     0.00536
   174    C   12  pz     Val( 2p)     0.93974
   175    C   12  pz     Ryd( 3p)     0.00131
   176    C   12  dxy    Ryd( 3d)     0.00113
   177    C   12  dxz    Ryd( 3d)     0.00115
   178    C   12  dyz    Ryd( 3d)     0.00128
   179    C   12  dx2y2  Ryd( 3d)     0.00094
   180    C   12  dz2    Ryd( 3d)     0.00039

   181    N   13  S      Cor( 1S)     1.99947
   182    N   13  S      Val( 2S)     1.35763
   183    N   13  S      Ryd( 3S)     0.00016
   184    N   13  S      Ryd( 4S)     0.00001
   185    N   13  px     Val( 2p)     1.41867
   186    N   13  px     Ryd( 3p)     0.00183
   187    N   13  py     Val( 2p)     1.34483
   188    N   13  py     Ryd( 3p)     0.00212
   189    N   13  pz     Val( 2p)     1.58980
   190    N   13  pz     Ryd( 3p)     0.00315
   191    N   13  dxy    Ryd( 3d)     0.00048
   192    N   13  dxz    Ryd( 3d)     0.00075
   193    N   13  dyz    Ryd( 3d)     0.00073
   194    N   13  dx2y2  Ryd( 3d)     0.00039
   195    N   13  dz2    Ryd( 3d)     0.00061

   196    O   14  S      Cor( 1S)     1.99977
   197    O   14  S      Val( 2S)     1.68033
   198    O   14  S      Ryd( 3S)     0.00098
   199    O   14  S      Ryd( 4S)     0.00011
   200    O   14  px     Val( 2p)     1.49495
   201    O   14  px     Ryd( 3p)     0.00135
   202    O   14  py     Val( 2p)     1.72124
   203    O   14  py     Ryd( 3p)     0.00153
   204    O   14  pz     Val( 2p)     1.84624
   205    O   14  pz     Ryd( 3p)     0.00083
   206    O   14  dxy    Ryd( 3d)     0.00123
   207    O   14  dxz    Ryd( 3d)     0.00014
   208    O   14  dyz    Ryd( 3d)     0.00179
   209    O   14  dx2y2  Ryd( 3d)     0.00109
   210    O   14  dz2    Ryd( 3d)     0.00064

   211    H   15  S      Val( 1S)     0.73586
   212    H   15  S      Ryd( 2S)     0.00208
   213    H   15  px     Ryd( 2p)     0.00016
   214    H   15  py     Ryd( 2p)     0.00033
   215    H   15  pz     Ryd( 2p)     0.00012

   216    H   16  S      Val( 1S)     0.55110
   217    H   16  S      Ryd( 2S)     0.00160
   218    H   16  px     Ryd( 2p)     0.00061
   219    H   16  py     Ryd( 2p)     0.00020
   220    H   16  pz     Ryd( 2p)     0.00042

   221    H   17  S      Val( 1S)     0.56616
   222    H   17  S      Ryd( 2S)     0.00104
   223    H   17  px     Ryd( 2p)     0.00026
   224    H   17  py     Ryd( 2p)     0.00049
   225    H   17  pz     Ryd( 2p)     0.00044

   226    H   18  S      Val( 1S)     0.47315
   227    H   18  S      Ryd( 2S)     0.00319
   228    H   18  px     Ryd( 2p)     0.00099
   229    H   18  py     Ryd( 2p)     0.00066
   230    H   18  pz     Ryd( 2p)     0.00079

   231    H   19  S      Val( 1S)     0.73586
   232    H   19  S      Ryd( 2S)     0.00208
   233    H   19  px     Ryd( 2p)     0.00016
   234    H   19  py     Ryd( 2p)     0.00033
   235    H   19  pz     Ryd( 2p)     0.00012

   236    H   20  S      Val( 1S)     0.56616
   237    H   20  S      Ryd( 2S)     0.00104
   238    H   20  px     Ryd( 2p)     0.00026
   239    H   20  py     Ryd( 2p)     0.00049
   240    H   20  pz     Ryd( 2p)     0.00044

   241    H   21  S      Val( 1S)     0.55110
   242    H   21  S      Ryd( 2S)     0.00160
   243    H   21  px     Ryd( 2p)     0.00061
   244    H   21  py     Ryd( 2p)     0.00020
   245    H   21  pz     Ryd( 2p)     0.00042

   246    H   22  S      Val( 1S)     0.47315
   247    H   22  S      Ryd( 2S)     0.00319
   248    H   22  px     Ryd( 2p)     0.00099
   249    H   22  py     Ryd( 2p)     0.00066
   250    H   22  pz     Ryd( 2p)     0.00079

 WARNING:  1 low occupancy (<1.9990e) core orbital  found on  C    3
           1 low occupancy (<1.9990e) core orbital  found on  C    5
           1 low occupancy (<1.9990e) core orbital  found on  C    7
           1 low occupancy (<1.9990e) core orbital  found on  C   12


 Summary of Natural Population Analysis:                  
                                                          
                                       Natural Population 
                Natural  -----------------------------------------------
    Atom  No    Charge         Core      Valence    Rydberg      Total
 -----------------------------------------------------------------------
      O    1   -0.68410      1.99979     6.66572    0.01859     8.68410
      C    2    0.74896      1.99938     3.20714    0.04452     5.25104
      C    3   -0.21541      1.99886     4.19975    0.01680     6.21541
      C    4   -0.24217      1.99906     4.22730    0.01580     6.24217
      C    5    0.20524      1.99894     3.77767    0.01816     5.79476
      N    6   -0.72064      1.99947     5.71093    0.01024     7.72064
      C    7   -0.21541      1.99886     4.19975    0.01680     6.21541
      C    8    0.74896      1.99938     3.20714    0.04452     5.25104
      O    9   -0.75223      1.99977     6.74277    0.00970     8.75223
      O   10   -0.68410      1.99979     6.66571    0.01859     8.68410
      C   11   -0.24217      1.99906     4.22731    0.01580     6.24217
      C   12    0.20524      1.99894     3.77766    0.01816     5.79476
      N   13   -0.72064      1.99947     5.71093    0.01024     7.72064
      O   14   -0.75223      1.99977     6.74277    0.00970     8.75223
      H   15    0.26145      0.00000     0.73586    0.00270     0.73855
      H   16    0.44607      0.00000     0.55110    0.00283     0.55393
      H   17    0.43161      0.00000     0.56616    0.00223     0.56839
      H   18    0.52122      0.00000     0.47315    0.00563     0.47878
      H   19    0.26145      0.00000     0.73586    0.00270     0.73855
      H   20    0.43161      0.00000     0.56616    0.00223     0.56839
      H   21    0.44607      0.00000     0.55110    0.00283     0.55393
      H   22    0.52122      0.00000     0.47315    0.00563     0.47878
 =======================================================================
   * Total *   -0.00000     27.99053    73.71508    0.29439   102.00000

                                 Natural Population      
 --------------------------------------------------------
   Core                      27.99053 ( 99.9662% of  28)
   Valence                   73.71508 ( 99.6150% of  74)
   Natural Minimal Basis    101.70561 ( 99.7114% of 102)
   Natural Rydberg Basis      0.29439 (  0.2886% of 102)
 --------------------------------------------------------

    Atom  No          Natural Electron Configuration
 ----------------------------------------------------------------------------
      O    1      [core]2S( 1.70)2p( 4.97)3d( 0.01)
      C    2      [core]2S( 0.76)2p( 2.45)3p( 0.03)3d( 0.01)
      C    3      [core]2S( 0.90)2p( 3.30)3p( 0.01)
      C    4      [core]2S( 0.95)2p( 3.28)3p( 0.01)
      C    5      [core]2S( 0.84)2p( 2.94)3p( 0.01)
      N    6      [core]2S( 1.36)2p( 4.35)3p( 0.01)
      C    7      [core]2S( 0.90)2p( 3.30)3p( 0.01)
      C    8      [core]2S( 0.76)2p( 2.45)3p( 0.03)3d( 0.01)
      O    9      [core]2S( 1.68)2p( 5.06)
      O   10      [core]2S( 1.70)2p( 4.97)3d( 0.01)
      C   11      [core]2S( 0.95)2p( 3.28)3p( 0.01)
      C   12      [core]2S( 0.84)2p( 2.94)3p( 0.01)
      N   13      [core]2S( 1.36)2p( 4.35)3p( 0.01)
      O   14      [core]2S( 1.68)2p( 5.06)
      H   15            1S( 0.74)
      H   16            1S( 0.55)
      H   17            1S( 0.57)
      H   18            1S( 0.47)
      H   19            1S( 0.74)
      H   20            1S( 0.57)
      H   21            1S( 0.55)
      H   22            1S( 0.47)


 NBO analysis skipped by request.
 1\1\GINC-DRG2-W002\SP\RB3LYP TD-FC\6-31G(d,p)\C8H8N2O4\QDUEZ\19-Jul-20
 24\0\\# TD(NStates=10, Root=1) B3LYP/6-31G** SCRF=(Solvent=water) volu
 me pop=NPA density=current Geom=AllCheck Guess=Read\\WIOZZYWDYUOMAY-UH
 FFFAOYSA-N_conf_1\\0,1\O,0,1.6161950789,-2.3199450962,-2.3483952254\C,
 0,1.7173810695,-1.1499820524,-2.0181463182\C,0,0.8659301114,-0.4828609
 872,-0.9990609677\C,0,-0.0509054227,-1.3238523562,-0.3566418873\C,0,-0
 .9316604566,-0.8957084513,0.6445718689\N,0,-1.7451402422,-1.8304055873
 ,1.2692246574\C,0,-0.8659200346,0.4828620916,0.9990655235\C,0,-1.71737
 9746,1.1499768241,2.0181487094\O,0,-2.6593594147,0.348625497,2.5740939
 104\O,0,-1.6161494254,2.3199174703,2.3484606473\C,0,0.0509182322,1.323
 8522906,0.3566531243\C,0,0.9316729188,0.8957089513,-0.6445638711\N,0,1
 .7451545201,1.8304096956,-1.2692046893\O,0,2.6592919377,-0.3486133636,
 -2.5741823341\H,0,-0.0610082385,-2.3662528347,-0.6566711039\H,0,-2.564
 5373076,-1.4683181299,1.7342011146\H,0,-1.921359368,-2.6655473778,0.72
 78946323\H,0,-3.157583813,0.8925269549,3.2083098294\H,0,0.0610243638,2
 .3662523542,0.656684348\H,0,1.9213637404,2.6655516104,-0.7278720241\H,
 0,2.5645522118,1.4683294919,-1.7341846362\H,0,3.1575192846,-0.89252699
 53,-3.2083853083\\Version=ES64L-G16RevA.03\State=1-A\HF=-720.1432829\R
 MSD=7.353e-09\Dipole=-0.0000279,0.0000196,-0.0000352\Quadrupole=11.742
 8243,-6.4848765,-5.2579478,14.1739924,-7.2262863,-10.3277045\PG=C01 [X
 (C8H8N2O4)]\\@


 GROWING OLD ISN'T SO BAD -- WHEN YOU CONSIDER THE ALTERNATIVE.

                     -- MAURICE CHEVALIER
 Job cpu time:       0 days  0 hours 30 minutes 14.8 seconds.
 Elapsed time:       0 days  0 hours 10 minutes 17.8 seconds.
 File lengths (MBytes):  RWF=    587 Int=      0 D2E=      0 Chk=     34 Scr=      1
 Normal termination of Gaussian 16 at Fri Jul 19 10:08:52 2024.
