 Entering Gaussian System, Link 0=g16
 Initial command:
 /opt/sw/arch/manual/gaussian/G16_A03/g16/l1.exe "/scratch/1381406/Gau-248250.inp" -scrdir="/scratch/1381406/"
 Entering Link 1 = /opt/sw/arch/manual/gaussian/G16_A03/g16/l1.exe PID=    248253.
  
 Copyright (c) 1988,1990,1992,1993,1995,1998,2003,2009,2016,
            Gaussian, Inc.  All Rights Reserved.
  
 This is part of the Gaussian(R) 16 program.  It is based on
 the Gaussian(R) 09 system (copyright 2009, Gaussian, Inc.),
 the Gaussian(R) 03 system (copyright 2003, Gaussian, Inc.),
 the Gaussian(R) 98 system (copyright 1998, Gaussian, Inc.),
 the Gaussian(R) 94 system (copyright 1995, Gaussian, Inc.),
 the Gaussian 92(TM) system (copyright 1992, Gaussian, Inc.),
 the Gaussian 90(TM) system (copyright 1990, Gaussian, Inc.),
 the Gaussian 88(TM) system (copyright 1988, Gaussian, Inc.),
 the Gaussian 86(TM) system (copyright 1986, Carnegie Mellon
 University), and the Gaussian 82(TM) system (copyright 1983,
 Carnegie Mellon University). Gaussian is a federally registered
 trademark of Gaussian, Inc.
  
 This software contains proprietary and confidential information,
 including trade secrets, belonging to Gaussian, Inc.
  
 This software is provided under written license and may be
 used, copied, transmitted, or stored only in accord with that
 written license.
  
 The following legend is applicable only to US Government
 contracts under FAR:
  
                    RESTRICTED RIGHTS LEGEND
  
 Use, reproduction and disclosure by the US Government is
 subject to restrictions as set forth in subparagraphs (a)
 and (c) of the Commercial Computer Software - Restricted
 Rights clause in FAR 52.227-19.
  
 Gaussian, Inc.
 340 Quinnipiac St., Bldg. 40, Wallingford CT 06492
  
  
 ---------------------------------------------------------------
 Warning -- This program may not be used in any manner that
 competes with the business of Gaussian, Inc. or will provide
 assistance to any competitor of Gaussian, Inc.  The licensee
 of this program is prohibited from giving any competitor of
 Gaussian, Inc. access to this program.  By using this program,
 the user acknowledges that Gaussian, Inc. is engaged in the
 business of creating and licensing software in the field of
 computational chemistry and represents and warrants to the
 licensee that it is not a competitor of Gaussian, Inc. and that
 it will not use this program in any manner prohibited above.
 ---------------------------------------------------------------
  

 Cite this work as:
 Gaussian 16, Revision A.03,
 M. J. Frisch, G. W. Trucks, H. B. Schlegel, G. E. Scuseria, 
 M. A. Robb, J. R. Cheeseman, G. Scalmani, V. Barone, 
 G. A. Petersson, H. Nakatsuji, X. Li, M. Caricato, A. V. Marenich, 
 J. Bloino, B. G. Janesko, R. Gomperts, B. Mennucci, H. P. Hratchian, 
 J. V. Ortiz, A. F. Izmaylov, J. L. Sonnenberg, D. Williams-Young, 
 F. Ding, F. Lipparini, F. Egidi, J. Goings, B. Peng, A. Petrone, 
 T. Henderson, D. Ranasinghe, V. G. Zakrzewski, J. Gao, N. Rega, 
 G. Zheng, W. Liang, M. Hada, M. Ehara, K. Toyota, R. Fukuda, 
 J. Hasegawa, M. Ishida, T. Nakajima, Y. Honda, O. Kitao, H. Nakai, 
 T. Vreven, K. Throssell, J. A. Montgomery, Jr., J. E. Peralta, 
 F. Ogliaro, M. J. Bearpark, J. J. Heyd, E. N. Brothers, K. N. Kudin, 
 V. N. Staroverov, T. A. Keith, R. Kobayashi, J. Normand, 
 K. Raghavachari, A. P. Rendell, J. C. Burant, S. S. Iyengar, 
 J. Tomasi, M. Cossi, J. M. Millam, M. Klene, C. Adamo, R. Cammi, 
 J. W. Ochterski, R. L. Martin, K. Morokuma, O. Farkas, 
 J. B. Foresman, and D. J. Fox, Gaussian, Inc., Wallingford CT, 2016.
 
 ******************************************
 Gaussian 16:  ES64L-G16RevA.03 25-Dec-2016
                19-Jul-2024 
 ******************************************
 %nprocshared=3
 Will use up to    3 processors via shared memory.
 %mem=6GB
 %Chk=WIOZZYWDYUOMAY-UHFFFAOYSA-N_conf_2_0.chk
 -------------------------------------------------------
 # opt=CalcFc B3LYP/6-31G** SCRF=(Solvent=water) scf=xqc
 -------------------------------------------------------
 1/10=4,18=20,19=15,26=3,38=1/1,3;
 2/9=110,12=2,17=6,18=5,40=1/2;
 3/5=1,6=6,7=101,11=2,25=1,30=1,70=2201,71=2,72=1,74=-5,140=1/1,2,3;
 4//1;
 5/5=2,8=3,13=1,38=5,53=1/2,8;
 8/6=4,10=90,11=11/1;
 11/6=1,8=1,9=11,15=111,16=1/1,2,10;
 10/6=1,13=1/2;
 6/7=2,8=2,9=2,10=2,28=1/1;
 7/10=1,18=20,25=1/1,2,3,16;
 1/10=4,18=20,19=15,26=3/3(2);
 2/9=110/2;
 99//99;
 2/9=110/2;
 3/5=1,6=6,7=101,11=2,25=1,30=1,70=2205,71=1,72=1,74=-5/1,2,3;
 4/5=5,16=3,69=1/1;
 5/5=2,8=3,13=1,38=5,53=1/2,8;
 7//1,2,3,16;
 1/18=20,19=15,26=3/3(-5);
 2/9=110/2;
 6/7=2,8=2,9=2,10=2,19=2,28=1/1;
 99/9=1/99;
 ----------------------------------
 WIOZZYWDYUOMAY-UHFFFAOYSA-N_conf_2
 ----------------------------------
 Symbolic Z-matrix:
 Charge =  0 Multiplicity = 1
 O                     2.93659   1.42675  -1.78771 
 C                     2.67115   0.66514  -0.8745 
 C                     1.30225   0.31596  -0.40958 
 C                     0.24983   0.6597   -1.27772 
 C                    -1.08432   0.36577  -0.96844 
 N                    -2.08544   0.85906  -1.82259 
 C                    -1.36638  -0.19948   0.28909 
 C                    -2.77432  -0.47779   0.68148 
 O                    -2.9104   -0.76453   1.9897 
 O                    -3.74256  -0.46846  -0.05894 
 C                    -0.31589  -0.53534   1.16207 
 C                     1.02564  -0.32711   0.81094 
 N                     2.00515  -0.55742   1.79393 
 O                     3.65568   0.00633  -0.23033 
 H                     0.47739   1.17715  -2.20902 
 H                    -3.00095   0.42467  -1.66678 
 H                    -1.83599   0.89666  -2.80553 
 H                    -3.87476  -0.89917   2.10277 
 H                    -0.54374  -0.95898   2.13807 
 H                     1.80125  -1.32403   2.42688 
 H                     2.94303  -0.62531   1.38736 
 H                     4.46678   0.34043  -0.67117 
 

 GradGradGradGradGradGradGradGradGradGradGradGradGradGradGradGradGradGrad
 Berny optimization.
 Initialization pass.
                           ----------------------------
                           !    Initial Parameters    !
                           ! (Angstroms and Degrees)  !
 --------------------------                            --------------------------
 ! Name  Definition              Value          Derivative Info.                !
 --------------------------------------------------------------------------------
 ! R1    R(1,2)                  1.2184         calculate D2E/DX2 analytically  !
 ! R2    R(2,3)                  1.4873         calculate D2E/DX2 analytically  !
 ! R3    R(2,14)                 1.3484         calculate D2E/DX2 analytically  !
 ! R4    R(3,4)                  1.4069         calculate D2E/DX2 analytically  !
 ! R5    R(3,12)                 1.407          calculate D2E/DX2 analytically  !
 ! R6    R(4,5)                  1.4007         calculate D2E/DX2 analytically  !
 ! R7    R(4,15)                 1.0894         calculate D2E/DX2 analytically  !
 ! R8    R(5,6)                  1.4054         calculate D2E/DX2 analytically  !
 ! R9    R(5,7)                  1.4073         calculate D2E/DX2 analytically  !
 ! R10   R(6,16)                 1.0253         calculate D2E/DX2 analytically  !
 ! R11   R(6,17)                 1.0148         calculate D2E/DX2 analytically  !
 ! R12   R(7,8)                  1.4879         calculate D2E/DX2 analytically  !
 ! R13   R(7,11)                 1.4066         calculate D2E/DX2 analytically  !
 ! R14   R(8,9)                  1.3462         calculate D2E/DX2 analytically  !
 ! R15   R(8,10)                 1.2189         calculate D2E/DX2 analytically  !
 ! R16   R(9,18)                 0.9803         calculate D2E/DX2 analytically  !
 ! R17   R(11,12)                1.4023         calculate D2E/DX2 analytically  !
 ! R18   R(11,19)                1.0881         calculate D2E/DX2 analytically  !
 ! R19   R(12,13)                1.4067         calculate D2E/DX2 analytically  !
 ! R20   R(13,20)                1.0148         calculate D2E/DX2 analytically  !
 ! R21   R(13,21)                1.0245         calculate D2E/DX2 analytically  !
 ! R22   R(14,22)                0.9818         calculate D2E/DX2 analytically  !
 ! A1    A(1,2,3)              125.5619         calculate D2E/DX2 analytically  !
 ! A2    A(1,2,14)             120.2915         calculate D2E/DX2 analytically  !
 ! A3    A(3,2,14)             114.078          calculate D2E/DX2 analytically  !
 ! A4    A(2,3,4)              115.9922         calculate D2E/DX2 analytically  !
 ! A5    A(2,3,12)             124.015          calculate D2E/DX2 analytically  !
 ! A6    A(4,3,12)             119.9915         calculate D2E/DX2 analytically  !
 ! A7    A(3,4,5)              121.6664         calculate D2E/DX2 analytically  !
 ! A8    A(3,4,15)             119.1626         calculate D2E/DX2 analytically  !
 ! A9    A(5,4,15)             119.1677         calculate D2E/DX2 analytically  !
 ! A10   A(4,5,6)              118.0758         calculate D2E/DX2 analytically  !
 ! A11   A(4,5,7)              118.1958         calculate D2E/DX2 analytically  !
 ! A12   A(6,5,7)              122.7724         calculate D2E/DX2 analytically  !
 ! A13   A(5,6,16)             113.2666         calculate D2E/DX2 analytically  !
 ! A14   A(5,6,17)             115.2516         calculate D2E/DX2 analytically  !
 ! A15   A(16,6,17)            112.4825         calculate D2E/DX2 analytically  !
 ! A16   A(5,7,8)              120.0302         calculate D2E/DX2 analytically  !
 ! A17   A(5,7,11)             120.0545         calculate D2E/DX2 analytically  !
 ! A18   A(8,7,11)             119.8932         calculate D2E/DX2 analytically  !
 ! A19   A(7,8,9)              113.0665         calculate D2E/DX2 analytically  !
 ! A20   A(7,8,10)             126.1599         calculate D2E/DX2 analytically  !
 ! A21   A(9,8,10)             120.7728         calculate D2E/DX2 analytically  !
 ! A22   A(8,9,18)             103.934          calculate D2E/DX2 analytically  !
 ! A23   A(7,11,12)            121.5759         calculate D2E/DX2 analytically  !
 ! A24   A(7,11,19)            119.5563         calculate D2E/DX2 analytically  !
 ! A25   A(12,11,19)           118.8655         calculate D2E/DX2 analytically  !
 ! A26   A(3,12,11)            118.2394         calculate D2E/DX2 analytically  !
 ! A27   A(3,12,13)            122.964          calculate D2E/DX2 analytically  !
 ! A28   A(11,12,13)           117.8313         calculate D2E/DX2 analytically  !
 ! A29   A(12,13,20)           114.8099         calculate D2E/DX2 analytically  !
 ! A30   A(12,13,21)           111.7772         calculate D2E/DX2 analytically  !
 ! A31   A(20,13,21)           112.4207         calculate D2E/DX2 analytically  !
 ! A32   A(2,14,22)            102.8522         calculate D2E/DX2 analytically  !
 ! D1    D(1,2,3,4)             14.743          calculate D2E/DX2 analytically  !
 ! D2    D(1,2,3,12)          -165.6849         calculate D2E/DX2 analytically  !
 ! D3    D(14,2,3,4)          -162.2336         calculate D2E/DX2 analytically  !
 ! D4    D(14,2,3,12)           17.3386         calculate D2E/DX2 analytically  !
 ! D5    D(1,2,14,22)            1.6842         calculate D2E/DX2 analytically  !
 ! D6    D(3,2,14,22)          178.8359         calculate D2E/DX2 analytically  !
 ! D7    D(2,3,4,5)            178.9085         calculate D2E/DX2 analytically  !
 ! D8    D(2,3,4,15)            -1.763          calculate D2E/DX2 analytically  !
 ! D9    D(12,3,4,5)            -0.682          calculate D2E/DX2 analytically  !
 ! D10   D(12,3,4,15)          178.6465         calculate D2E/DX2 analytically  !
 ! D11   D(2,3,12,11)          176.6635         calculate D2E/DX2 analytically  !
 ! D12   D(2,3,12,13)            8.1605         calculate D2E/DX2 analytically  !
 ! D13   D(4,3,12,11)           -3.7805         calculate D2E/DX2 analytically  !
 ! D14   D(4,3,12,13)         -172.2835         calculate D2E/DX2 analytically  !
 ! D15   D(3,4,5,6)            173.7896         calculate D2E/DX2 analytically  !
 ! D16   D(3,4,5,7)              4.66           calculate D2E/DX2 analytically  !
 ! D17   D(15,4,5,6)            -5.5388         calculate D2E/DX2 analytically  !
 ! D18   D(15,4,5,7)          -174.6684         calculate D2E/DX2 analytically  !
 ! D19   D(4,5,6,16)           166.1739         calculate D2E/DX2 analytically  !
 ! D20   D(4,5,6,17)            34.6421         calculate D2E/DX2 analytically  !
 ! D21   D(7,5,6,16)           -25.2271         calculate D2E/DX2 analytically  !
 ! D22   D(7,5,6,17)          -156.7589         calculate D2E/DX2 analytically  !
 ! D23   D(4,5,7,8)            177.5668         calculate D2E/DX2 analytically  !
 ! D24   D(4,5,7,11)            -4.1442         calculate D2E/DX2 analytically  !
 ! D25   D(6,5,7,8)              8.9808         calculate D2E/DX2 analytically  !
 ! D26   D(6,5,7,11)          -172.7302         calculate D2E/DX2 analytically  !
 ! D27   D(5,7,8,9)           -167.6572         calculate D2E/DX2 analytically  !
 ! D28   D(5,7,8,10)            12.6781         calculate D2E/DX2 analytically  !
 ! D29   D(11,7,8,9)            14.051          calculate D2E/DX2 analytically  !
 ! D30   D(11,7,8,10)         -165.6136         calculate D2E/DX2 analytically  !
 ! D31   D(5,7,11,12)           -0.3022         calculate D2E/DX2 analytically  !
 ! D32   D(5,7,11,19)          179.1433         calculate D2E/DX2 analytically  !
 ! D33   D(8,7,11,12)          177.9892         calculate D2E/DX2 analytically  !
 ! D34   D(8,7,11,19)           -2.5653         calculate D2E/DX2 analytically  !
 ! D35   D(7,8,9,18)           178.5892         calculate D2E/DX2 analytically  !
 ! D36   D(10,8,9,18)           -1.7259         calculate D2E/DX2 analytically  !
 ! D37   D(7,11,12,3)            4.2882         calculate D2E/DX2 analytically  !
 ! D38   D(7,11,12,13)         173.3877         calculate D2E/DX2 analytically  !
 ! D39   D(19,11,12,3)        -175.161          calculate D2E/DX2 analytically  !
 ! D40   D(19,11,12,13)         -6.0615         calculate D2E/DX2 analytically  !
 ! D41   D(3,12,13,20)        -156.3207         calculate D2E/DX2 analytically  !
 ! D42   D(3,12,13,21)         -26.7403         calculate D2E/DX2 analytically  !
 ! D43   D(11,12,13,20)         35.1322         calculate D2E/DX2 analytically  !
 ! D44   D(11,12,13,21)        164.7126         calculate D2E/DX2 analytically  !
 --------------------------------------------------------------------------------
 Trust Radius=3.00D-01 FncErr=1.00D-07 GrdErr=1.00D-06 EigMax=2.50D+02 EigMin=1.00D-04
 Number of steps in this run=    108 maximum allowed number of steps=    132.
 GradGradGradGradGradGradGradGradGradGradGradGradGradGradGradGradGradGrad

                          Input orientation:                          
 ---------------------------------------------------------------------
 Center     Atomic      Atomic             Coordinates (Angstroms)
 Number     Number       Type             X           Y           Z
 ---------------------------------------------------------------------
      1          8           0        2.936590    1.426748   -1.787707
      2          6           0        2.671152    0.665140   -0.874498
      3          6           0        1.302245    0.315959   -0.409582
      4          6           0        0.249834    0.659697   -1.277719
      5          6           0       -1.084325    0.365770   -0.968443
      6          7           0       -2.085436    0.859060   -1.822589
      7          6           0       -1.366379   -0.199482    0.289088
      8          6           0       -2.774315   -0.477787    0.681480
      9          8           0       -2.910400   -0.764530    1.989697
     10          8           0       -3.742559   -0.468460   -0.058936
     11          6           0       -0.315886   -0.535340    1.162072
     12          6           0        1.025638   -0.327106    0.810940
     13          7           0        2.005152   -0.557420    1.793933
     14          8           0        3.655684    0.006335   -0.230325
     15          1           0        0.477390    1.177149   -2.209019
     16          1           0       -3.000949    0.424666   -1.666777
     17          1           0       -1.835992    0.896662   -2.805528
     18          1           0       -3.874760   -0.899171    2.102767
     19          1           0       -0.543737   -0.958978    2.138067
     20          1           0        1.801247   -1.324034    2.426882
     21          1           0        2.943027   -0.625307    1.387364
     22          1           0        4.466779    0.340428   -0.671167
 ---------------------------------------------------------------------
                    Distance matrix (angstroms):
                    1          2          3          4          5
     1  O    0.000000
     2  C    1.218382   0.000000
     3  C    2.409184   1.487273   0.000000
     4  C    2.840266   2.454668   1.406907   0.000000
     5  C    4.238470   3.768561   2.451637   1.400723   0.000000
     6  N    5.054131   4.854031   3.710517   2.406266   1.405391
     7  C    5.047103   4.289890   2.806310   2.409402   1.407284
     8  C    6.506810   5.777583   4.294042   3.778599   2.507968
     9  O    7.297793   6.434384   4.966929   4.763561   3.655506
    10  O    7.154823   6.563984   5.117452   4.324046   2.930760
    11  C    4.809323   3.809352   2.411048   2.775019   2.437538
    12  C    3.671609   2.555968   1.407025   2.436832   2.845738
    13  N    4.199125   3.009773   2.472316   3.741331   4.245924
    14  O    2.227130   1.348439   2.380477   3.622669   4.810581
    15  H    2.507483   2.618338   2.158706   1.089430   2.153211
    16  H    6.022720   5.732213   4.484399   3.282407   2.040732
    17  H    4.908614   4.908852   3.990778   2.596348   2.054685
    18  H    8.181698   7.359358   5.881311   5.556081   4.338080
    19  H    5.763338   4.695617   3.394647   3.862313   3.420175
    20  H    5.159318   3.951286   3.314228   4.479524   4.765521
    21  H    3.780483   2.618242   2.609053   4.000899   4.769866
    22  H    2.183628   1.836045   3.175421   4.272290   5.559116
                    6          7          8          9         10
     6  N    0.000000
     7  C    2.469157   0.000000
     8  C    2.920972   1.487854   0.000000
     9  O    4.224943   2.365450   1.346170   0.000000
    10  O    2.760224   2.416548   1.218934   2.230930   0.000000
    11  C    3.739500   1.406569   2.505625   2.732947   3.638327
    12  C    4.245144   2.451604   3.805142   4.131974   4.848955
    13  N    5.640794   3.709434   4.907871   4.923806   6.039637
    14  O    6.018547   5.053045   6.512346   6.973966   7.415444
    15  H    2.611243   3.396342   4.654824   5.733800   5.013866
    16  H    1.025250   2.624269   2.525886   3.846062   1.983132
    17  H    1.014793   3.316431   3.863779   5.187302   3.611415
    18  H    4.658484   3.173480   1.846239   0.980256   2.208155
    19  H    4.622651   2.161550   2.707151   2.379269   3.911508
    20  H    6.158751   3.983545   4.969741   4.764850   6.135559
    21  H    6.147567   4.467495   5.762641   5.885983   6.842035
    22  H    6.672802   5.936272   7.411652   7.919843   8.271781
                   11         12         13         14         15
    11  C    0.000000
    12  C    1.402263   0.000000
    13  N    2.405608   1.406687   0.000000
    14  O    4.243294   2.848255   2.672021   0.000000
    15  H    3.863439   3.418116   4.622382   3.922702   0.000000
    16  H    4.016660   4.787237   6.164580   6.822694   3.599875
    17  H    4.483659   4.771308   6.166343   6.130486   2.405459
    18  H    3.699036   5.099998   5.897926   7.935417   6.468680
    19  H    1.088096   2.150224   2.603173   4.916934   4.950041
    20  H    2.589215   2.051025   1.014839   3.502794   5.431399
    21  H    3.267929   2.024245   1.024459   1.877171   4.718282
    22  H    5.196308   3.805745   3.597563   0.981751   4.356641
                   16         17         18         19         20
    16  H    0.000000
    17  H    1.696071   0.000000
    18  H    4.089688   5.610076   0.000000
    19  H    4.735948   5.436217   3.331747   0.000000
    20  H    6.548059   6.748267   5.701107   2.390738   0.000000
    21  H    6.764692   6.537259   6.860686   3.582235   1.694838
    22  H    7.534275   6.677561   8.877646   5.889442   4.412868
                   21         22
    21  H    0.000000
    22  H    2.737155   0.000000
 Stoichiometry    C8H8N2O4
 Framework group  C1[X(C8H8N2O4)]
 Deg. of freedom    60
 Full point group                 C1      NOp   1
 Largest Abelian subgroup         C1      NOp   1
 Largest concise Abelian subgroup C1      NOp   1
                         Standard orientation:                         
 ---------------------------------------------------------------------
 Center     Atomic      Atomic             Coordinates (Angstroms)
 Number     Number       Type             X           Y           Z
 ---------------------------------------------------------------------
      1          8           0       -3.354967    1.531423   -0.331244
      2          6           0       -2.849794    0.459834   -0.046726
      3          6           0       -1.390564    0.175492   -0.004538
      4          6           0       -0.543314    1.298681   -0.003294
      5          6           0        0.850050    1.168652    0.057155
      6          7           0        1.629310    2.330168   -0.079809
      7          6           0        1.399383   -0.126360    0.016834
      8          6           0        2.875918   -0.309402    0.023734
      9          8           0        3.253161   -1.565021   -0.281684
     10          8           0        3.705612    0.546828    0.277271
     11          6           0        0.553718   -1.250272    0.006303
     12          6           0       -0.841978   -1.119365    0.041475
     13          7           0       -1.615001   -2.284131   -0.115117
     14          8           0       -3.623726   -0.578791    0.328207
     15          1           0       -0.981623    2.294339   -0.061677
     16          1           0        2.607689    2.196297    0.195859
     17          1           0        1.225618    3.171759    0.318390
     18          1           0        4.232536   -1.528819   -0.261240
     19          1           0        0.986803   -2.247432   -0.039089
     20          1           0       -1.213444   -3.120269    0.296616
     21          1           0       -2.587543   -2.136139    0.170848
     22          1           0       -4.531354   -0.211070    0.258726
 ---------------------------------------------------------------------
 Rotational constants (GHZ):           1.4060561           0.4266148           0.3301891
 Standard basis: 6-31G(d,p) (6D, 7F)
 There are   250 symmetry adapted cartesian basis functions of A   symmetry.
 There are   250 symmetry adapted basis functions of A   symmetry.
   250 basis functions,   448 primitive gaussians,   250 cartesian basis functions
    51 alpha electrons       51 beta electrons
       nuclear repulsion energy       872.9606883271 Hartrees.
 NAtoms=   22 NActive=   22 NUniq=   22 SFac= 1.00D+00 NAtFMM=   60 NAOKFM=F Big=F
 Integral buffers will be    131072 words long.
 Raffenetti 2 integral format.
 Two-electron integral symmetry is turned on.
 Force inversion solution in PCM.
 ------------------------------------------------------------------------------
 Polarizable Continuum Model (PCM)
 =================================
 Model                : PCM.
 Atomic radii         : UFF (Universal Force Field).
 Polarization charges : Total charges.
 Charge compensation  : None.
 Solution method      : Matrix inversion.
 Cavity type          : Scaled VdW (van der Waals Surface) (Alpha=1.100).
 Cavity algorithm     : GePol (No added spheres)
                        Default sphere list used, NSphG=   22.
                        Lebedev-Laikov grids with approx.  5.0 points / Ang**2.
                        Smoothing algorithm: York/Karplus (Gamma=1.0000).
                        Polarization charges: spherical gaussians, with
                                              point-specific exponents (IZeta= 3).
                        Self-potential: point-specific (ISelfS= 7).
                        Self-field    : sphere-specific E.n sum rule (ISelfD= 2).
 1st derivatives      : Analytical E(r).r(x)/FMM algorithm (CHGder, D1EAlg=3).
                        Cavity 1st derivative terms included.
 2nd derivatives      : Analytical E(r).r(xy)/FMM algorithm (CHGder, D2EAlg=3).
                        Cavity 2nd derivative terms included.
 Solvent              : Water, Eps=  78.355300 Eps(inf)=   1.777849
 ------------------------------------------------------------------------------
 One-electron integrals computed using PRISM.
 NBasis=   250 RedAO= T EigKep=  3.46D-04  NBF=   250
 NBsUse=   250 1.00D-06 EigRej= -1.00D+00 NBFU=   250
 ExpMin= 1.61D-01 ExpMax= 5.48D+03 ExpMxC= 8.25D+02 IAcc=3 IRadAn=         5 AccDes= 0.00D+00
 Harris functional with IExCor=  402 and IRadAn=       5 diagonalized for initial guess.
 HarFok:  IExCor=  402 AccDes= 0.00D+00 IRadAn=         5 IDoV= 1 UseB2=F ITyADJ=14
 ICtDFT=  3500011 ScaDFX=  1.000000  1.000000  1.000000  1.000000
 FoFCou: FMM=F IPFlag=           0 FMFlag=      100000 FMFlg1=           0
         NFxFlg=           0 DoJE=T BraDBF=F KetDBF=T FulRan=T
         wScrn=  0.000000 ICntrl=       500 IOpCl=  0 I1Cent=   200000004 NGrid=           0
         NMat0=    1 NMatS0=      1 NMatT0=    0 NMatD0=    1 NMtDS0=    0 NMtDT0=    0
 Petite list used in FoFCou.
 Keep R1 ints in memory in canonical form, NReq=500119023.
 Requested convergence on RMS density matrix=1.00D-08 within  32 cycles.
 Requested convergence on MAX density matrix=1.00D-06.
 Requested convergence on             energy=1.00D-06.
 No special actions if energy rises.
 Inv3:  Mode=1 IEnd=     9991875.
 Iteration    1 A*A^-1 deviation from unit magnitude is 3.00D-15 for    192.
 Iteration    1 A*A^-1 deviation from orthogonality  is 2.20D-15 for    744    181.
 Iteration    1 A^-1*A deviation from unit magnitude is 2.78D-15 for    192.
 Iteration    1 A^-1*A deviation from orthogonality  is 1.50D-12 for    765    744.
 Error on total polarization charges =  0.00508
 SCF Done:  E(RB3LYP) =  -720.140231419     A.U. after   13 cycles
            NFock= 13  Conv=0.56D-08     -V/T= 2.0091
 QCSCF skips out because SCF is already converged.
 DoSCS=F DFT=T ScalE2(SS,OS)=  1.000000  1.000000
 Range of M.O.s used for correlation:     1   250
 NBasis=   250 NAE=    51 NBE=    51 NFC=     0 NFV=     0
 NROrb=    250 NOA=    51 NOB=    51 NVA=   199 NVB=   199
 Symmetrizing basis deriv contribution to polar:
 IMax=3 JMax=2 DiffMx= 0.00D+00
 G2DrvN: will do    23 centers at a time, making    1 passes.
 Calling FoFCou, ICntrl=  3107 FMM=F I1Cent=   0 AccDes= 0.00D+00.
 NEqPCM:  Using equilibrium solvation (IEInf=0, Eps=  78.3553, EpsInf=   1.7778)
 G2PCM: DoFxE=T DoFxN=T DoGrad=T DoDP/DQ/DG/TGxP=FFFF NFrqRd=   0 IEInf=0 SqF1=F DoCFld=F IF1Alg=4.
 End of G2Drv F.D. properties file   721 does not exist.
 End of G2Drv F.D. properties file   722 does not exist.
 End of G2Drv F.D. properties file   788 does not exist.
          IDoAtm=1111111111111111111111
 NEqPCM:  Using equilibrium solvation (IEInf=0, Eps=  78.3553, EpsInf=   1.7778)
          Differentiating once with respect to nuclear coordinates.
 Keep R1 ints in memory in canonical form, NReq=501042706.
          There are    69 degrees of freedom in the 1st order CPHF.  IDoFFX=6 NUNeed=     0.
     63 vectors produced by pass  0 Test12= 1.47D-14 1.45D-09 XBig12= 1.63D-01 1.57D-01.
 AX will form    63 AO Fock derivatives at one time.
     63 vectors produced by pass  1 Test12= 1.47D-14 1.45D-09 XBig12= 2.54D-02 4.17D-02.
     63 vectors produced by pass  2 Test12= 1.47D-14 1.45D-09 XBig12= 2.52D-04 2.68D-03.
     63 vectors produced by pass  3 Test12= 1.47D-14 1.45D-09 XBig12= 1.02D-06 1.63D-04.
     63 vectors produced by pass  4 Test12= 1.47D-14 1.45D-09 XBig12= 2.33D-09 5.41D-06.
     55 vectors produced by pass  5 Test12= 1.47D-14 1.45D-09 XBig12= 3.20D-12 1.41D-07.
     14 vectors produced by pass  6 Test12= 1.47D-14 1.45D-09 XBig12= 2.80D-15 4.69D-09.
 InvSVY:  IOpt=1 It=  1 EMax= 4.44D-16
 Solved reduced A of dimension   384 with    69 vectors.
 End of Minotr F.D. properties file   721 does not exist.
 End of Minotr F.D. properties file   722 does not exist.
 End of Minotr F.D. properties file   788 does not exist.

 **********************************************************************

            Population analysis using the SCF density.

 **********************************************************************

 Orbital symmetries:
       Occupied  (A) (A) (A) (A) (A) (A) (A) (A) (A) (A) (A) (A)
                 (A) (A) (A) (A) (A) (A) (A) (A) (A) (A) (A) (A)
                 (A) (A) (A) (A) (A) (A) (A) (A) (A) (A) (A) (A)
                 (A) (A) (A) (A) (A) (A) (A) (A) (A) (A) (A) (A)
                 (A) (A) (A)
       Virtual   (A) (A) (A) (A) (A) (A) (A) (A) (A) (A) (A) (A)
                 (A) (A) (A) (A) (A) (A) (A) (A) (A) (A) (A) (A)
                 (A) (A) (A) (A) (A) (A) (A) (A) (A) (A) (A) (A)
                 (A) (A) (A) (A) (A) (A) (A) (A) (A) (A) (A) (A)
                 (A) (A) (A) (A) (A) (A) (A) (A) (A) (A) (A) (A)
                 (A) (A) (A) (A) (A) (A) (A) (A) (A) (A) (A) (A)
                 (A) (A) (A) (A) (A) (A) (A) (A) (A) (A) (A) (A)
                 (A) (A) (A) (A) (A) (A) (A) (A) (A) (A) (A) (A)
                 (A) (A) (A) (A) (A) (A) (A) (A) (A) (A) (A) (A)
                 (A) (A) (A) (A) (A) (A) (A) (A) (A) (A) (A) (A)
                 (A) (A) (A) (A) (A) (A) (A) (A) (A) (A) (A) (A)
                 (A) (A) (A) (A) (A) (A) (A) (A) (A) (A) (A) (A)
                 (A) (A) (A) (A) (A) (A) (A) (A) (A) (A) (A) (A)
                 (A) (A) (A) (A) (A) (A) (A) (A) (A) (A) (A) (A)
                 (A) (A) (A) (A) (A) (A) (A) (A) (A) (A) (A) (A)
                 (A) (A) (A) (A) (A) (A) (A) (A) (A) (A) (A) (A)
                 (A) (A) (A) (A) (A) (A) (A)
 The electronic state is 1-A.
 Alpha  occ. eigenvalues --  -19.20978 -19.20268 -19.15113 -19.14704 -14.33494
 Alpha  occ. eigenvalues --  -14.33461 -10.33301 -10.33260 -10.24012 -10.23935
 Alpha  occ. eigenvalues --  -10.21501 -10.21456 -10.20145 -10.20038  -1.12085
 Alpha  occ. eigenvalues --   -1.11711  -1.02347  -1.02153  -0.92322  -0.90839
 Alpha  occ. eigenvalues --   -0.83529  -0.78673  -0.72450  -0.69658  -0.63585
 Alpha  occ. eigenvalues --   -0.61442  -0.58795  -0.54498  -0.52701  -0.51418
 Alpha  occ. eigenvalues --   -0.50445  -0.49497  -0.47915  -0.47037  -0.45936
 Alpha  occ. eigenvalues --   -0.45612  -0.44510  -0.43739  -0.41437  -0.40567
 Alpha  occ. eigenvalues --   -0.39967  -0.38167  -0.37059  -0.34846  -0.33100
 Alpha  occ. eigenvalues --   -0.32694  -0.29132  -0.28872  -0.27276  -0.26815
 Alpha  occ. eigenvalues --   -0.19237
 Alpha virt. eigenvalues --   -0.07079   0.00542   0.00731   0.07500   0.08316
 Alpha virt. eigenvalues --    0.08766   0.10226   0.11789   0.13234   0.15477
 Alpha virt. eigenvalues --    0.17507   0.18035   0.19593   0.22503   0.23396
 Alpha virt. eigenvalues --    0.24707   0.27606   0.29213   0.30644   0.31165
 Alpha virt. eigenvalues --    0.32397   0.36676   0.39482   0.41108   0.43150
 Alpha virt. eigenvalues --    0.49132   0.49589   0.51053   0.51330   0.52677
 Alpha virt. eigenvalues --    0.54375   0.56190   0.56774   0.58082   0.58540
 Alpha virt. eigenvalues --    0.59818   0.61199   0.62099   0.63468   0.64508
 Alpha virt. eigenvalues --    0.67522   0.68508   0.68774   0.69153   0.69910
 Alpha virt. eigenvalues --    0.72417   0.73282   0.74891   0.76129   0.78052
 Alpha virt. eigenvalues --    0.79814   0.80955   0.81468   0.83280   0.83677
 Alpha virt. eigenvalues --    0.85234   0.86411   0.86935   0.88946   0.89396
 Alpha virt. eigenvalues --    0.90549   0.92375   0.93417   0.94503   0.97744
 Alpha virt. eigenvalues --    0.98999   0.99439   1.01426   1.02125   1.02417
 Alpha virt. eigenvalues --    1.03038   1.04950   1.05944   1.09760   1.13802
 Alpha virt. eigenvalues --    1.14478   1.18229   1.21770   1.22854   1.25825
 Alpha virt. eigenvalues --    1.28030   1.28549   1.30520   1.31673   1.32122
 Alpha virt. eigenvalues --    1.33966   1.35543   1.37123   1.38288   1.40534
 Alpha virt. eigenvalues --    1.41679   1.46479   1.48692   1.50249   1.55236
 Alpha virt. eigenvalues --    1.56150   1.57261   1.61542   1.65959   1.66870
 Alpha virt. eigenvalues --    1.71944   1.72341   1.72898   1.73580   1.75798
 Alpha virt. eigenvalues --    1.76945   1.78226   1.81016   1.81317   1.82363
 Alpha virt. eigenvalues --    1.83730   1.85307   1.86103   1.87412   1.89665
 Alpha virt. eigenvalues --    1.90460   1.90967   1.94121   1.95627   1.98832
 Alpha virt. eigenvalues --    2.00168   2.04108   2.05303   2.05580   2.09423
 Alpha virt. eigenvalues --    2.09945   2.16590   2.19515   2.20877   2.22158
 Alpha virt. eigenvalues --    2.22672   2.24339   2.26218   2.28215   2.29595
 Alpha virt. eigenvalues --    2.31268   2.32585   2.34429   2.36009   2.39548
 Alpha virt. eigenvalues --    2.41255   2.42164   2.43356   2.46100   2.48528
 Alpha virt. eigenvalues --    2.49723   2.51610   2.52070   2.54060   2.55063
 Alpha virt. eigenvalues --    2.56104   2.57187   2.58659   2.59703   2.64624
 Alpha virt. eigenvalues --    2.66821   2.67661   2.69875   2.70420   2.71537
 Alpha virt. eigenvalues --    2.72947   2.74778   2.79439   2.81330   2.87965
 Alpha virt. eigenvalues --    2.88928   2.90470   2.94923   2.98035   2.98841
 Alpha virt. eigenvalues --    3.01868   3.07299   3.10750   3.14709   3.20631
 Alpha virt. eigenvalues --    3.21406   3.30612   3.31045   3.33988   3.40122
 Alpha virt. eigenvalues --    3.41976   3.45651   3.48307   3.54747   3.69609
 Alpha virt. eigenvalues --    3.94299   3.97024   4.03990   4.09958   4.11035
 Alpha virt. eigenvalues --    4.12840   4.16128   4.23873   4.33630   4.42901
 Alpha virt. eigenvalues --    4.43583   4.55596   4.58833   4.85000
          Condensed to atoms (all electrons):
               1          2          3          4          5          6
     1  O    8.089297   0.574752  -0.088036   0.001841   0.001001  -0.000002
     2  C    0.574752   4.418372   0.300917  -0.046919   0.007209  -0.000137
     3  C   -0.088036   0.300917   5.055608   0.489907  -0.021858   0.004298
     4  C    0.001841  -0.046919   0.489907   5.095780   0.440350  -0.073210
     5  C    0.001001   0.007209  -0.021858   0.440350   4.756134   0.305324
     6  N   -0.000002  -0.000137   0.004298  -0.073210   0.305324   6.885040
     7  C   -0.000003   0.000220  -0.029195  -0.033662   0.489679  -0.059685
     8  C   -0.000000   0.000003   0.000187   0.008117  -0.046351  -0.014962
     9  O   -0.000000  -0.000000   0.000002  -0.000052   0.002869  -0.000092
    10  O    0.000000  -0.000000  -0.000014   0.000454  -0.000898  -0.022963
    11  C   -0.000063   0.005667  -0.031762  -0.060646  -0.043168   0.005347
    12  C    0.003297  -0.036471   0.462569  -0.037272  -0.037355   0.000533
    13  N   -0.000078  -0.013607  -0.064749   0.005507   0.000471   0.000001
    14  O   -0.093482   0.244470  -0.080264   0.003354  -0.000050   0.000000
    15  H    0.013282  -0.009256  -0.038539   0.362252  -0.036606  -0.005743
    16  H   -0.000000   0.000002  -0.000157   0.005845  -0.019817   0.320968
    17  H   -0.000003  -0.000004   0.000085  -0.009760  -0.025001   0.340754
    18  H    0.000000   0.000000   0.000001   0.000002  -0.000140   0.000013
    19  H    0.000000  -0.000120   0.004110   0.000578   0.004217  -0.000078
    20  H    0.000001  -0.000027   0.005627  -0.000083  -0.000023  -0.000000
    21  H    0.000284   0.002498  -0.012913  -0.000369  -0.000004  -0.000000
    22  H    0.011946  -0.009654   0.010833  -0.000262  -0.000000  -0.000000
               7          8          9         10         11         12
     1  O   -0.000003  -0.000000  -0.000000   0.000000  -0.000063   0.003297
     2  C    0.000220   0.000003  -0.000000  -0.000000   0.005667  -0.036471
     3  C   -0.029195   0.000187   0.000002  -0.000014  -0.031762   0.462569
     4  C   -0.033662   0.008117  -0.000052   0.000454  -0.060646  -0.037272
     5  C    0.489679  -0.046351   0.002869  -0.000898  -0.043168  -0.037355
     6  N   -0.059685  -0.014962  -0.000092  -0.022963   0.005347   0.000533
     7  C    5.028835   0.310667  -0.093464  -0.075748   0.479401  -0.018361
     8  C    0.310667   4.409472   0.286276   0.531744  -0.039754   0.004388
     9  O   -0.093464   0.286276   8.104307  -0.089743  -0.000548   0.000420
    10  O   -0.075748   0.531744  -0.089743   8.129926   0.003237  -0.000053
    11  C    0.479401  -0.039754  -0.000548   0.003237   5.083724   0.463140
    12  C   -0.018361   0.004388   0.000420  -0.000053   0.463140   4.749876
    13  N    0.004148  -0.000100  -0.000003   0.000000  -0.072590   0.304903
    14  O   -0.000004  -0.000000   0.000000   0.000000   0.000106   0.001981
    15  H    0.004526  -0.000139   0.000000   0.000005   0.000580   0.004578
    16  H   -0.016787   0.001746   0.000403   0.037370  -0.000257   0.000004
    17  H    0.005648  -0.000014   0.000002   0.000587  -0.000075  -0.000021
    18  H    0.011266  -0.013756   0.274925   0.009169  -0.000538   0.000004
    19  H   -0.030552  -0.010109   0.009495   0.000142   0.364655  -0.037319
    20  H    0.000108  -0.000003  -0.000005  -0.000000  -0.010585  -0.023799
    21  H   -0.000131   0.000001   0.000000  -0.000000   0.005773  -0.023130
    22  H    0.000001   0.000000  -0.000000  -0.000000   0.000010  -0.000516
              13         14         15         16         17         18
     1  O   -0.000078  -0.093482   0.013282  -0.000000  -0.000003   0.000000
     2  C   -0.013607   0.244470  -0.009256   0.000002  -0.000004   0.000000
     3  C   -0.064749  -0.080264  -0.038539  -0.000157   0.000085   0.000001
     4  C    0.005507   0.003354   0.362252   0.005845  -0.009760   0.000002
     5  C    0.000471  -0.000050  -0.036606  -0.019817  -0.025001  -0.000140
     6  N    0.000001   0.000000  -0.005743   0.320968   0.340754   0.000013
     7  C    0.004148  -0.000004   0.004526  -0.016787   0.005648   0.011266
     8  C   -0.000100  -0.000000  -0.000139   0.001746  -0.000014  -0.013756
     9  O   -0.000003   0.000000   0.000000   0.000403   0.000002   0.274925
    10  O    0.000000   0.000000   0.000005   0.037370   0.000587   0.009169
    11  C   -0.072590   0.000106   0.000580  -0.000257  -0.000075  -0.000538
    12  C    0.304903   0.001981   0.004578   0.000004  -0.000021   0.000004
    13  N    6.884228  -0.025143  -0.000070  -0.000000  -0.000000  -0.000000
    14  O   -0.025143   8.158680   0.000355  -0.000000  -0.000000  -0.000000
    15  H   -0.000070   0.000355   0.583749   0.000019   0.003857  -0.000000
    16  H   -0.000000  -0.000000   0.000019   0.405591  -0.023595  -0.000019
    17  H   -0.000000  -0.000000   0.003857  -0.023595   0.430105  -0.000001
    18  H   -0.000000  -0.000000  -0.000000  -0.000019  -0.000001   0.371803
    19  H   -0.005953   0.000003   0.000014  -0.000009   0.000003  -0.000230
    20  H    0.340823   0.000575   0.000003   0.000000  -0.000000   0.000000
    21  H    0.328821   0.023928  -0.000012  -0.000000  -0.000000   0.000000
    22  H    0.000594   0.270393  -0.000036   0.000000   0.000000  -0.000000
              19         20         21         22
     1  O    0.000000   0.000001   0.000284   0.011946
     2  C   -0.000120  -0.000027   0.002498  -0.009654
     3  C    0.004110   0.005627  -0.012913   0.010833
     4  C    0.000578  -0.000083  -0.000369  -0.000262
     5  C    0.004217  -0.000023  -0.000004  -0.000000
     6  N   -0.000078  -0.000000  -0.000000  -0.000000
     7  C   -0.030552   0.000108  -0.000131   0.000001
     8  C   -0.010109  -0.000003   0.000001   0.000000
     9  O    0.009495  -0.000005   0.000000  -0.000000
    10  O    0.000142  -0.000000  -0.000000  -0.000000
    11  C    0.364655  -0.010585   0.005773   0.000010
    12  C   -0.037319  -0.023799  -0.023130  -0.000516
    13  N   -0.005953   0.340823   0.328821   0.000594
    14  O    0.000003   0.000575   0.023928   0.270393
    15  H    0.000014   0.000003  -0.000012  -0.000036
    16  H   -0.000009   0.000000  -0.000000   0.000000
    17  H    0.000003  -0.000000  -0.000000   0.000000
    18  H   -0.000230   0.000000   0.000000  -0.000000
    19  H    0.573580   0.003796  -0.000019  -0.000000
    20  H    0.003796   0.428991  -0.023854  -0.000020
    21  H   -0.000019  -0.023854   0.403783   0.000102
    22  H   -0.000000  -0.000020   0.000102   0.365702
 Mulliken charges:
               1
     1  O   -0.514033
     2  C    0.562087
     3  C    0.033343
     4  C   -0.151755
     5  C    0.224017
     6  N   -0.685404
     7  C    0.023091
     8  C    0.572587
     9  O   -0.494794
    10  O   -0.523213
    11  C   -0.151655
    12  C    0.218605
    13  N   -0.687202
    14  O   -0.504901
    15  H    0.117182
    16  H    0.288693
    17  H    0.277433
    18  H    0.347501
    19  H    0.123795
    20  H    0.278475
    21  H    0.295241
    22  H    0.350908
 Sum of Mulliken charges =  -0.00000
 Mulliken charges with hydrogens summed into heavy atoms:
               1
     1  O   -0.514033
     2  C    0.562087
     3  C    0.033343
     4  C   -0.034573
     5  C    0.224017
     6  N   -0.119278
     7  C    0.023091
     8  C    0.572587
     9  O   -0.147292
    10  O   -0.523213
    11  C   -0.027860
    12  C    0.218605
    13  N   -0.113486
    14  O   -0.153994
 APT charges:
               1
     1  O    0.317572
     2  C   -0.328152
     3  C   -0.213684
     4  C   -0.485407
     5  C   -0.122036
     6  N   -1.184507
     7  C   -0.242150
     8  C   -0.319048
     9  O   -0.972413
    10  O    0.314469
    11  C   -0.456354
    12  C   -0.105924
    13  N   -1.166459
    14  O   -0.968430
    15  H    0.502233
    16  H    0.639597
    17  H    0.693797
    18  H    1.140813
    19  H    0.513246
    20  H    0.680910
    21  H    0.631673
    22  H    1.130255
 Sum of APT charges =  -0.00000
 APT charges with hydrogens summed into heavy atoms:
               1
     1  O    0.317572
     2  C   -0.328152
     3  C   -0.213684
     4  C    0.016825
     5  C   -0.122036
     6  N    0.148886
     7  C   -0.242150
     8  C   -0.319048
     9  O    0.168400
    10  O    0.314469
    11  C    0.056892
    12  C   -0.105924
    13  N    0.146124
    14  O    0.161825
 Electronic spatial extent (au):  <R**2>=           3084.9488
 Charge=             -0.0000 electrons
 Dipole moment (field-independent basis, Debye):
    X=             -0.5333    Y=             -3.0497    Z=              2.3912  Tot=              3.9119
 Quadrupole moment (field-independent basis, Debye-Ang):
   XX=            -68.0368   YY=            -70.7804   ZZ=            -81.7232
   XY=              2.7632   XZ=             -4.3273   YZ=              0.8737
 Traceless Quadrupole moment (field-independent basis, Debye-Ang):
   XX=              5.4767   YY=              2.7331   ZZ=             -8.2098
   XY=              2.7632   XZ=             -4.3273   YZ=              0.8737
 Octapole moment (field-independent basis, Debye-Ang**2):
  XXX=            -35.5787  YYY=             -7.0823  ZZZ=              1.7745  XYY=             19.9833
  XXY=            -64.5114  XXZ=              5.6660  XZZ=              0.5284  YZZ=             -0.5942
  YYZ=             21.4981  XYZ=              4.4819
 Hexadecapole moment (field-independent basis, Debye-Ang**3):
 XXXX=          -2153.3308 YYYY=           -773.6861 ZZZZ=            -88.3464 XXXY=            -56.8561
 XXXZ=            -94.1568 YYYX=             59.6540 YYYZ=              3.8164 ZZZX=             -1.8980
 ZZZY=             -0.0029 XXYY=           -606.6038 XXZZ=           -464.9150 YYZZ=           -183.6739
 XXYZ=             16.0058 YYXZ=             -7.0900 ZZXY=             -8.6310
 N-N= 8.729606883271D+02 E-N=-3.429404180857D+03  KE= 7.136289437884D+02
  Exact polarizability:   0.000   0.000   0.000   0.000   0.000   0.000
 Approx polarizability: 248.369   2.986 253.011   4.065  -1.324  68.666
 D2PCM: PCM CHGder 2nd derivatives, FixD1E=F FixD2E=F DoIter=F DoCFld=F I1PDM=0
 Calling FoFJK, ICntrl=    100147 FMM=F ISym2X=0 I1Cent= 0 IOpClX= 0 NMat=1 NMatS=1 NMatT=0.
 ***** Axes restored to original set *****
 -------------------------------------------------------------------
 Center     Atomic                   Forces (Hartrees/Bohr)
 Number     Number              X              Y              Z
 -------------------------------------------------------------------
      1        8          -0.002839044    0.002309706   -0.001105342
      2        6          -0.009548794   -0.002382476   -0.003582803
      3        6          -0.001782002    0.004397076   -0.016017551
      4        6           0.004506704   -0.004201380    0.004482516
      5        6          -0.004304183    0.021689296   -0.016941316
      6        7          -0.006632566   -0.011312909    0.003892946
      7        6          -0.002605044   -0.009814873    0.009072651
      8        6           0.014703434   -0.000344682    0.004651385
      9        8          -0.010374119   -0.000855925    0.001620542
     10        8          -0.007144886    0.002104992   -0.006941337
     11        6          -0.004133007   -0.000052934   -0.006604214
     12        6           0.000928296    0.001388455    0.027127009
     13        7           0.007782868   -0.003058093   -0.012039376
     14        8           0.014299677    0.005855588   -0.007048320
     15        1           0.000921934   -0.002354457    0.003151260
     16        1           0.009171679    0.003527735   -0.001808340
     17        1           0.001525907   -0.000250581    0.003183252
     18        1           0.006471152   -0.001262161    0.003797019
     19        1          -0.000006042    0.000811873   -0.003337067
     20        1          -0.001046425    0.001770623   -0.002225190
     21        1          -0.009126542   -0.001916158    0.009637187
     22        1          -0.000768997   -0.006048717    0.007035088
 -------------------------------------------------------------------
 Cartesian Forces:  Max     0.027127009 RMS     0.007626989
 FormGI is forming the generalized inverse of G from B-inverse, IUseBI=4.

 GradGradGradGradGradGradGradGradGradGradGradGradGradGradGradGradGradGrad
 Berny optimization.
 Internal  Forces:  Max     0.017128832 RMS     0.005028058
 Search for a local minimum.
 Step number   1 out of a maximum of  108
 All quantities printed in internal units (Hartrees-Bohrs-Radians)
 Mixed Optimization -- RFO/linear search
 Second derivative matrix not updated -- analytic derivatives used.
 ITU=  0
     Eigenvalues ---    0.00054   0.00382   0.00534   0.00742   0.01141
     Eigenvalues ---    0.01380   0.01650   0.01866   0.01926   0.01940
     Eigenvalues ---    0.01954   0.02061   0.02171   0.02308   0.02382
     Eigenvalues ---    0.02919   0.03051   0.06696   0.06737   0.11571
     Eigenvalues ---    0.11924   0.12881   0.13333   0.15510   0.15767
     Eigenvalues ---    0.16104   0.17209   0.18897   0.18922   0.19527
     Eigenvalues ---    0.19703   0.20783   0.21377   0.22777   0.24262
     Eigenvalues ---    0.25320   0.28239   0.32422   0.34884   0.35289
     Eigenvalues ---    0.36399   0.37216   0.38844   0.40435   0.41511
     Eigenvalues ---    0.41716   0.42400   0.43659   0.44115   0.45469
     Eigenvalues ---    0.45666   0.45808   0.45998   0.48307   0.48992
     Eigenvalues ---    0.50240   0.63990   0.83278   0.85171   0.87983
 RFO step:  Lambda=-9.27726749D-03 EMin= 5.38601016D-04
 Linear search not attempted -- first point.
 Iteration  1 RMS(Cart)=  0.06153384 RMS(Int)=  0.00266713
 Iteration  2 RMS(Cart)=  0.00375133 RMS(Int)=  0.00051605
 Iteration  3 RMS(Cart)=  0.00001288 RMS(Int)=  0.00051601
 Iteration  4 RMS(Cart)=  0.00000000 RMS(Int)=  0.00051601
 Variable       Old X    -DE/DX   Delta X   Delta X   Delta X     New X
                                 (Linear)    (Quad)   (Total)
    R1        2.30241   0.00165   0.00000   0.00178   0.00178   2.30419
    R2        2.81054   0.00246   0.00000  -0.00095  -0.00095   2.80958
    R3        2.54818   0.00997   0.00000   0.01319   0.01319   2.56137
    R4        2.65867  -0.00509   0.00000  -0.01248  -0.01248   2.64619
    R5        2.65889   0.01713   0.00000   0.03058   0.03058   2.68947
    R6        2.64698  -0.00052   0.00000  -0.00245  -0.00244   2.64454
    R7        2.05873  -0.00362   0.00000  -0.00882  -0.00882   2.04990
    R8        2.65581  -0.00892   0.00000  -0.03789  -0.03789   2.61791
    R9        2.65938   0.01019   0.00000   0.02961   0.02961   2.68899
   R10        1.93744  -0.00996   0.00000  -0.02405  -0.02405   1.91339
   R11        1.91768  -0.00272   0.00000  -0.00704  -0.00704   1.91064
   R12        2.81164  -0.00257   0.00000  -0.01583  -0.01583   2.79580
   R13        2.65803  -0.00536   0.00000  -0.01114  -0.01115   2.64688
   R14        2.54389   0.00611   0.00000   0.00778   0.00778   2.55167
   R15        2.30345   0.00991   0.00000   0.01381   0.01381   2.31727
   R16        1.85242  -0.00575   0.00000  -0.01478  -0.01478   1.83764
   R17        2.64989   0.00041   0.00000  -0.00174  -0.00175   2.64815
   R18        2.05620  -0.00331   0.00000  -0.00778  -0.00778   2.04843
   R19        2.65825  -0.00437   0.00000  -0.02971  -0.02971   2.62854
   R20        1.91777  -0.00251   0.00000  -0.00627  -0.00627   1.91150
   R21        1.93595  -0.01205   0.00000  -0.02737  -0.02737   1.90858
   R22        1.85524  -0.00585   0.00000  -0.01725  -0.01725   1.83799
    A1        2.19147  -0.00835   0.00000  -0.01838  -0.01859   2.17288
    A2        2.09948  -0.00073   0.00000   0.01112   0.01092   2.11040
    A3        1.99104   0.00913   0.00000   0.00899   0.00878   1.99982
    A4        2.02444  -0.01222   0.00000  -0.02149  -0.02159   2.00286
    A5        2.16447   0.01347   0.00000   0.02045   0.02035   2.18482
    A6        2.09425  -0.00125   0.00000   0.00109   0.00126   2.09551
    A7        2.12348   0.00629   0.00000   0.02674   0.02690   2.15038
    A8        2.07978  -0.00485   0.00000  -0.02829  -0.02840   2.05138
    A9        2.07987  -0.00143   0.00000   0.00167   0.00156   2.08143
   A10        2.06081   0.00511   0.00000   0.03621   0.03466   2.09547
   A11        2.06291  -0.00476   0.00000  -0.02358  -0.02504   2.03786
   A12        2.14278   0.00027   0.00000   0.00505   0.00336   2.14614
   A13        1.97688   0.00034   0.00000   0.01516   0.01490   1.99178
   A14        2.01152  -0.00326   0.00000  -0.00378  -0.00404   2.00748
   A15        1.96319   0.00131   0.00000   0.02822   0.02785   1.99104
   A16        2.09492   0.00391   0.00000   0.00857   0.00847   2.10339
   A17        2.09535   0.00019   0.00000  -0.00000   0.00018   2.09553
   A18        2.09253  -0.00410   0.00000  -0.00849  -0.00858   2.08395
   A19        1.97338   0.00105   0.00000   0.01052   0.01052   1.98391
   A20        2.20191  -0.00239   0.00000  -0.01265  -0.01265   2.18926
   A21        2.10788   0.00135   0.00000   0.00213   0.00213   2.11002
   A22        1.81399   0.00895   0.00000   0.04490   0.04490   1.85889
   A23        2.12190   0.00629   0.00000   0.02727   0.02743   2.14932
   A24        2.08665  -0.00390   0.00000  -0.02024  -0.02035   2.06630
   A25        2.07459  -0.00238   0.00000  -0.00693  -0.00704   2.06755
   A26        2.06367  -0.00655   0.00000  -0.02519  -0.02653   2.03714
   A27        2.14613   0.00996   0.00000   0.02270   0.02129   2.16742
   A28        2.05654  -0.00287   0.00000   0.01930   0.01783   2.07437
   A29        2.00381  -0.00486   0.00000  -0.01157  -0.01197   1.99184
   A30        1.95088   0.00906   0.00000   0.05527   0.05487   2.00575
   A31        1.96211  -0.00261   0.00000   0.00460   0.00401   1.96612
   A32        1.79511   0.01343   0.00000   0.06841   0.06841   1.86352
    D1        0.25731   0.00059   0.00000  -0.06667  -0.06673   0.19058
    D2       -2.89175   0.00100   0.00000  -0.05858  -0.05875  -2.95050
    D3       -2.83151  -0.00069   0.00000  -0.10518  -0.10501  -2.93652
    D4        0.30261  -0.00028   0.00000  -0.09709  -0.09703   0.20559
    D5        0.02939  -0.00031   0.00000  -0.01528  -0.01552   0.01387
    D6        3.12128   0.00062   0.00000   0.02002   0.02026   3.14154
    D7        3.12254  -0.00016   0.00000   0.00586   0.00575   3.12829
    D8       -0.03077   0.00057   0.00000   0.01794   0.01790  -0.01287
    D9       -0.01190  -0.00062   0.00000  -0.00198  -0.00188  -0.01378
   D10        3.11797   0.00010   0.00000   0.01010   0.01027   3.12824
   D11        3.08336   0.00174   0.00000   0.04115   0.04067   3.12403
   D12        0.14243  -0.00105   0.00000  -0.05981  -0.05958   0.08284
   D13       -0.06598   0.00213   0.00000   0.04946   0.04896  -0.01702
   D14       -3.00692  -0.00066   0.00000  -0.05150  -0.05130  -3.05821
   D15        3.03320   0.00216   0.00000   0.05038   0.05074   3.08394
   D16        0.08133  -0.00136   0.00000  -0.04955  -0.04924   0.03209
   D17       -0.09667   0.00146   0.00000   0.03849   0.03858  -0.05809
   D18       -3.04854  -0.00206   0.00000  -0.06144  -0.06140  -3.10994
   D19        2.90028  -0.00268   0.00000  -0.05465  -0.05539   2.84489
   D20        0.60462  -0.00174   0.00000  -0.10814  -0.10912   0.49550
   D21       -0.44030   0.00046   0.00000   0.04708   0.04807  -0.39223
   D22       -2.73596   0.00140   0.00000  -0.00641  -0.00566  -2.74162
   D23        3.09913   0.00181   0.00000   0.05026   0.04957  -3.13449
   D24       -0.07233   0.00177   0.00000   0.05313   0.05257  -0.01976
   D25        0.15674  -0.00240   0.00000  -0.05804  -0.05706   0.09969
   D26       -3.01471  -0.00244   0.00000  -0.05517  -0.05406  -3.06877
   D27       -2.92617  -0.00095   0.00000  -0.06942  -0.06936  -2.99553
   D28        0.22128  -0.00104   0.00000  -0.07130  -0.07123   0.15004
   D29        0.24524  -0.00098   0.00000  -0.07243  -0.07249   0.17274
   D30       -2.89050  -0.00107   0.00000  -0.07431  -0.07436  -2.96487
   D31       -0.00527  -0.00035   0.00000  -0.00569  -0.00559  -0.01086
   D32        3.12664   0.00026   0.00000   0.00759   0.00748   3.13412
   D33        3.10650  -0.00026   0.00000  -0.00253  -0.00233   3.10417
   D34       -0.04477   0.00036   0.00000   0.01075   0.01074  -0.03404
   D35        3.11697   0.00103   0.00000   0.03180   0.03179  -3.13443
   D36       -0.03012   0.00110   0.00000   0.03350   0.03351   0.00338
   D37        0.07484  -0.00169   0.00000  -0.04594  -0.04560   0.02924
   D38        3.02619   0.00248   0.00000   0.05053   0.04983   3.07602
   D39       -3.05714  -0.00229   0.00000  -0.05906  -0.05861  -3.11575
   D40       -0.10579   0.00188   0.00000   0.03740   0.03683  -0.06897
   D41       -2.72831   0.00006   0.00000  -0.01868  -0.01801  -2.74632
   D42       -0.46671   0.00039   0.00000   0.02886   0.02992  -0.43679
   D43        0.61317  -0.00231   0.00000  -0.11444  -0.11550   0.49767
   D44        2.87478  -0.00198   0.00000  -0.06690  -0.06757   2.80721
         Item               Value     Threshold  Converged?
 Maximum Force            0.017129     0.000450     NO 
 RMS     Force            0.005028     0.000300     NO 
 Maximum Displacement     0.230447     0.001800     NO 
 RMS     Displacement     0.061905     0.001200     NO 
 Predicted change in Energy=-5.362684D-03
 GradGradGradGradGradGradGradGradGradGradGradGradGradGradGradGradGradGrad

                          Input orientation:                          
 ---------------------------------------------------------------------
 Center     Atomic      Atomic             Coordinates (Angstroms)
 Number     Number       Type             X           Y           Z
 ---------------------------------------------------------------------
      1          8           0        2.880427    1.334981   -1.906093
      2          6           0        2.660539    0.645082   -0.925054
      3          6           0        1.303825    0.320943   -0.410527
      4          6           0        0.253022    0.666886   -1.269007
      5          6           0       -1.092658    0.427731   -0.968401
      6          7           0       -2.084365    0.858462   -1.834514
      7          6           0       -1.371651   -0.162201    0.296091
      8          6           0       -2.764872   -0.459366    0.695436
      9          8           0       -2.888609   -0.848426    1.982523
     10          8           0       -3.746325   -0.379610   -0.035361
     11          6           0       -0.322149   -0.496324    1.161415
     12          6           0        1.027292   -0.290691    0.844443
     13          7           0        1.993571   -0.582168    1.801587
     14          8           0        3.677777    0.091980   -0.220452
     15          1           0        0.509729    1.142416   -2.209581
     16          1           0       -2.983772    0.417901   -1.685608
     17          1           0       -1.808769    0.915626   -2.805613
     18          1           0       -3.834272   -1.021118    2.129264
     19          1           0       -0.565956   -0.937913    2.120879
     20          1           0        1.726335   -1.310845    2.450272
     21          1           0        2.927696   -0.707849    1.438728
     22          1           0        4.503186    0.374503   -0.650424
 ---------------------------------------------------------------------
                    Distance matrix (angstroms):
                    1          2          3          4          5
     1  O    0.000000
     2  C    1.219323   0.000000
     3  C    2.398055   1.486768   0.000000
     4  C    2.784868   2.432060   1.400304   0.000000
     5  C    4.181838   3.759735   2.462876   1.399433   0.000000
     6  N    4.988122   4.835986   3.714364   2.412442   1.385339
     7  C    5.017104   4.289692   2.809076   2.403431   1.422954
     8  C    6.469702   5.768958   4.287928   3.772952   2.520238
     9  O    7.291802   6.440312   4.966952   4.768487   3.682658
    10  O    7.096007   6.549004   5.112293   4.314141   2.926485
    11  C    4.797893   3.814785   2.404728   2.755146   2.446156
    12  C    3.693557   2.583464   1.423206   2.446042   2.880403
    13  N    4.267185   3.063586   2.486927   3.744088   4.268201
    14  O    2.241027   1.355419   2.392530   3.627524   4.840372
    15  H    2.397790   2.554082   2.131198   1.084761   2.149173
    16  H    5.939569   5.699851   4.474228   3.272978   2.022571
    17  H    4.793074   4.856379   3.972195   2.583411   2.031306
    18  H    8.180617   7.368016   5.886570   5.577059   4.383052
    19  H    5.767158   4.711035   3.389515   3.838936   3.418487
    20  H    5.225921   4.011386   3.320455   4.462635   4.759905
    21  H    3.919594   2.736652   2.667417   4.046679   4.821520
    22  H    2.265518   1.882547   3.208790   4.304885   5.605124
                    6          7          8          9         10
     6  N    0.000000
     7  C    2.467629   0.000000
     8  C    2.932645   1.479476   0.000000
     9  O    4.257939   2.369836   1.350286   0.000000
    10  O    2.744428   2.407531   1.226245   2.242169   0.000000
    11  C    3.730475   1.400671   2.487046   2.717519   3.629170
    12  C    4.263775   2.464169   3.798837   4.115894   4.854831
    13  N    5.650328   3.710473   4.886863   4.892782   6.030076
    14  O    6.032825   5.082140   6.530740   6.989627   7.441368
    15  H    2.636404   3.394114   4.661313   5.752034   5.015755
    16  H    1.012522   2.619653   2.546936   3.881729   1.985151
    17  H    1.011066   3.312605   3.880990   5.215763   3.620229
    18  H    4.722980   3.187910   1.874846   0.972437   2.259396
    19  H    4.601919   2.140263   2.663855   2.328490   3.882759
    20  H    6.130801   3.944287   4.896469   4.661580   6.082399
    21  H    6.187746   4.481934   5.746264   5.843362   6.842751
    22  H    6.710598   5.974751   7.438505   7.941449   8.306710
                   11         12         13         14         15
    11  C    0.000000
    12  C    1.401338   0.000000
    13  N    2.404111   1.390963   0.000000
    14  O    4.272595   2.881928   2.716554   0.000000
    15  H    3.839415   3.413024   4.611448   3.885432   0.000000
    16  H    4.003196   4.794986   6.159108   6.828553   3.606108
    17  H    4.465530   4.777170   6.158528   6.120755   2.404604
    18  H    3.680645   5.081250   5.853529   7.949279   6.509747
    19  H    1.083981   2.141641   2.603782   4.954976   4.923185
    20  H    2.553602   2.026836   1.011523   3.592884   5.404892
    21  H    3.268507   2.034387   1.009976   1.988776   4.751864
    22  H    5.227328   3.841738   3.636722   0.972623   4.355269
                   16         17         18         19         20
    16  H    0.000000
    17  H    1.697873   0.000000
    18  H    4.165018   5.675091   0.000000
    19  H    4.708864   5.408375   3.269386   0.000000
    20  H    6.502244   6.714050   5.577395   2.345672   0.000000
    21  H    6.780431   6.563856   6.804351   3.567052   1.682288
    22  H    7.558309   6.691669   8.898744   5.924421   4.490615
                   21         22
    21  H    0.000000
    22  H    2.831645   0.000000
 Stoichiometry    C8H8N2O4
 Framework group  C1[X(C8H8N2O4)]
 Deg. of freedom    60
 Full point group                 C1      NOp   1
 Largest Abelian subgroup         C1      NOp   1
 Largest concise Abelian subgroup C1      NOp   1
                         Standard orientation:                         
 ---------------------------------------------------------------------
 Center     Atomic      Atomic             Coordinates (Angstroms)
 Number     Number       Type             X           Y           Z
 ---------------------------------------------------------------------
      1          8           0       -3.318058    1.575575   -0.217273
      2          6           0       -2.848758    0.467849   -0.018649
      3          6           0       -1.394583    0.158332   -0.011520
      4          6           0       -0.556311    1.280000   -0.015096
      5          6           0        0.840266    1.193174    0.006080
      6          7           0        1.608300    2.343738   -0.068001
      7          6           0        1.401214   -0.114466   -0.008528
      8          6           0        2.868341   -0.302916    0.021011
      9          8           0        3.254746   -1.581484   -0.177046
     10          8           0        3.695314    0.583014    0.207877
     11          6           0        0.563786   -1.237182   -0.018605
     12          6           0       -0.834750   -1.150109   -0.002341
     13          7           0       -1.581235   -2.320208   -0.094028
     14          8           0       -3.652394   -0.593580    0.235708
     15          1           0       -1.026482    2.257369   -0.034964
     16          1           0        2.570238    2.218504    0.222156
     17          1           0        1.169978    3.175191    0.304576
     18          1           0        4.226063   -1.586900   -0.130720
     19          1           0        1.020000   -2.220316   -0.036780
     20          1           0       -1.115793   -3.137732    0.277721
     21          1           0       -2.537713   -2.240541    0.220385
     22          1           0       -4.567834   -0.266575    0.203575
 ---------------------------------------------------------------------
 Rotational constants (GHZ):           1.3871086           0.4296309           0.3294706
 Standard basis: 6-31G(d,p) (6D, 7F)
 There are   250 symmetry adapted cartesian basis functions of A   symmetry.
 There are   250 symmetry adapted basis functions of A   symmetry.
   250 basis functions,   448 primitive gaussians,   250 cartesian basis functions
    51 alpha electrons       51 beta electrons
       nuclear repulsion energy       872.4813984688 Hartrees.
 NAtoms=   22 NActive=   22 NUniq=   22 SFac= 1.00D+00 NAtFMM=   60 NAOKFM=F Big=F
 Integral buffers will be    131072 words long.
 Raffenetti 2 integral format.
 Two-electron integral symmetry is turned on.
 ------------------------------------------------------------------------------
 Polarizable Continuum Model (PCM)
 =================================
 Model                : PCM.
 Atomic radii         : UFF (Universal Force Field).
 Polarization charges : Total charges.
 Charge compensation  : None.
 Solution method      : Matrix inversion.
 Cavity type          : Scaled VdW (van der Waals Surface) (Alpha=1.100).
 Cavity algorithm     : GePol (No added spheres)
                        Default sphere list used, NSphG=   22.
                        Lebedev-Laikov grids with approx.  5.0 points / Ang**2.
                        Smoothing algorithm: York/Karplus (Gamma=1.0000).
                        Polarization charges: spherical gaussians, with
                                              point-specific exponents (IZeta= 3).
                        Self-potential: point-specific (ISelfS= 7).
                        Self-field    : sphere-specific E.n sum rule (ISelfD= 2).
 1st derivatives      : Analytical E(r).r(x)/FMM algorithm (CHGder, D1EAlg=3).
                        Cavity 1st derivative terms included.
 Solvent              : Water, Eps=  78.355300 Eps(inf)=   1.777849
 ------------------------------------------------------------------------------
 One-electron integrals computed using PRISM.
 NBasis=   250 RedAO= T EigKep=  3.09D-04  NBF=   250
 NBsUse=   250 1.00D-06 EigRej= -1.00D+00 NBFU=   250
 Initial guess from the checkpoint file:  "WIOZZYWDYUOMAY-UHFFFAOYSA-N_conf_2_0.chk"
 B after Tr=     0.000000    0.000000   -0.000000
         Rot=    0.999998   -0.000142    0.000287   -0.001810 Ang=  -0.21 deg.
 ExpMin= 1.61D-01 ExpMax= 5.48D+03 ExpMxC= 8.25D+02 IAcc=2 IRadAn=         4 AccDes= 0.00D+00
 Harris functional with IExCor=  402 and IRadAn=       4 diagonalized for initial guess.
 HarFok:  IExCor=  402 AccDes= 0.00D+00 IRadAn=         4 IDoV= 1 UseB2=F ITyADJ=14
 ICtDFT=  3500011 ScaDFX=  1.000000  1.000000  1.000000  1.000000
 FoFCou: FMM=F IPFlag=           0 FMFlag=      100000 FMFlg1=           0
         NFxFlg=           0 DoJE=T BraDBF=F KetDBF=T FulRan=T
         wScrn=  0.000000 ICntrl=       500 IOpCl=  0 I1Cent=   200000004 NGrid=           0
         NMat0=    1 NMatS0=      1 NMatT0=    0 NMatD0=    1 NMtDS0=    0 NMtDT0=    0
 Petite list used in FoFCou.
 Keep R1 ints in memory in canonical form, NReq=500119023.
 Requested convergence on RMS density matrix=1.00D-08 within  32 cycles.
 Requested convergence on MAX density matrix=1.00D-06.
 Requested convergence on             energy=1.00D-06.
 No special actions if energy rises.
 Inv3:  Mode=1 IEnd=    10367643.
 Iteration    1 A*A^-1 deviation from unit magnitude is 2.89D-15 for   1275.
 Iteration    1 A*A^-1 deviation from orthogonality  is 1.93D-15 for    739    179.
 Iteration    1 A^-1*A deviation from unit magnitude is 2.89D-15 for   1275.
 Iteration    1 A^-1*A deviation from orthogonality  is 1.91D-15 for   1450   1419.
 Error on total polarization charges =  0.00511
 SCF Done:  E(RB3LYP) =  -720.145552482     A.U. after   12 cycles
            NFock= 12  Conv=0.36D-08     -V/T= 2.0091
 QCSCF skips out because SCF is already converged.
 D1PCM: PCM CHGder 1st derivatives, ID1Alg=3 FixD1E=F DoIter=F DoCFld=F I1PDM=0.
 Calling FoFJK, ICntrl=      2127 FMM=F ISym2X=0 I1Cent= 0 IOpClX= 0 NMat=1 NMatS=1 NMatT=0.
 ***** Axes restored to original set *****
 -------------------------------------------------------------------
 Center     Atomic                   Forces (Hartrees/Bohr)
 Number     Number              X              Y              Z
 -------------------------------------------------------------------
      1        8           0.000105004   -0.000263835   -0.000414653
      2        6          -0.000384069    0.000264812   -0.000273227
      3        6           0.000171256   -0.000633906   -0.001386638
      4        6          -0.000015903   -0.000539055    0.000049109
      5        6           0.000546801    0.003417968    0.000916321
      6        7          -0.000828022   -0.001738812   -0.001123364
      7        6          -0.000285168   -0.001574619    0.000245713
      8        6           0.000669064   -0.000328455    0.000204630
      9        8          -0.000262581   -0.000029189   -0.000185469
     10        8          -0.000355115    0.000843927   -0.000168867
     11        6          -0.000016466   -0.000495083   -0.000528911
     12        6          -0.000873756    0.002606136    0.002255864
     13        7           0.000713945   -0.001447446   -0.001135247
     14        8          -0.000063528    0.000380469    0.000045305
     15        1           0.000063939   -0.000288755    0.000009431
     16        1          -0.000273956   -0.000002516   -0.000004434
     17        1           0.000274814    0.000578376    0.000031021
     18        1           0.000000642   -0.000464517    0.000294696
     19        1          -0.000005635   -0.000184075   -0.000134732
     20        1          -0.000226889    0.000441910    0.000487732
     21        1           0.000448062   -0.000344983    0.000565693
     22        1           0.000597561   -0.000198352    0.000250026
 -------------------------------------------------------------------
 Cartesian Forces:  Max     0.003417968 RMS     0.000824799

 GradGradGradGradGradGradGradGradGradGradGradGradGradGradGradGradGradGrad
 Berny optimization.
 Using GEDIIS/GDIIS optimizer.
 FormGI is forming the generalized inverse of G from B-inverse, IUseBI=4.
 Internal  Forces:  Max     0.001274242 RMS     0.000443442
 Search for a local minimum.
 Step number   2 out of a maximum of  108
 All quantities printed in internal units (Hartrees-Bohrs-Radians)
 Mixed Optimization -- En-DIIS/RFO-DIIS
 Update second derivatives using D2CorX and points    1    2
 DE= -5.32D-03 DEPred=-5.36D-03 R= 9.92D-01
 TightC=F SS=  1.41D+00  RLast= 3.95D-01 DXNew= 5.0454D-01 1.1854D+00
 Trust test= 9.92D-01 RLast= 3.95D-01 DXMaxT set to 5.05D-01
 ITU=  1  0
 Use linear search instead of GDIIS.
     Eigenvalues ---    0.00055   0.00384   0.00535   0.00744   0.01151
     Eigenvalues ---    0.01380   0.01651   0.01865   0.01925   0.01937
     Eigenvalues ---    0.01955   0.02050   0.02171   0.02306   0.02380
     Eigenvalues ---    0.02918   0.03036   0.06717   0.06737   0.11574
     Eigenvalues ---    0.11924   0.12871   0.13319   0.15480   0.15682
     Eigenvalues ---    0.16101   0.17083   0.18709   0.18883   0.19492
     Eigenvalues ---    0.19704   0.20704   0.21400   0.22827   0.24258
     Eigenvalues ---    0.25330   0.28254   0.32409   0.34882   0.35313
     Eigenvalues ---    0.36379   0.37208   0.38901   0.40427   0.41278
     Eigenvalues ---    0.41706   0.42390   0.43962   0.44134   0.45450
     Eigenvalues ---    0.45663   0.45813   0.45986   0.48338   0.49000
     Eigenvalues ---    0.50413   0.63825   0.82742   0.85024   0.87795
 RFO step:  Lambda=-8.62856172D-04 EMin= 5.53317836D-04
 Quartic linear search produced a step of  0.16084.
 Iteration  1 RMS(Cart)=  0.08230224 RMS(Int)=  0.01358494
 Iteration  2 RMS(Cart)=  0.02205002 RMS(Int)=  0.00059078
 Iteration  3 RMS(Cart)=  0.00073974 RMS(Int)=  0.00022710
 Iteration  4 RMS(Cart)=  0.00000081 RMS(Int)=  0.00022710
 Variable       Old X    -DE/DX   Delta X   Delta X   Delta X     New X
                                 (Linear)    (Quad)   (Total)
    R1        2.30419   0.00020   0.00029   0.00290   0.00319   2.30737
    R2        2.80958   0.00041  -0.00015  -0.00081  -0.00097   2.80862
    R3        2.56137   0.00048   0.00212  -0.00389  -0.00177   2.55960
    R4        2.64619   0.00012  -0.00201   0.00616   0.00415   2.65035
    R5        2.68947   0.00127   0.00492   0.00012   0.00508   2.69455
    R6        2.64454   0.00019  -0.00039  -0.00185  -0.00227   2.64227
    R7        2.04990  -0.00012  -0.00142   0.00112  -0.00030   2.04960
    R8        2.61791   0.00092  -0.00609   0.00365  -0.00244   2.61547
    R9        2.68899   0.00085   0.00476  -0.00172   0.00301   2.69200
   R10        1.91339   0.00024  -0.00387   0.00410   0.00023   1.91362
   R11        1.91064   0.00008  -0.00113   0.00013  -0.00100   1.90964
   R12        2.79580  -0.00001  -0.00255   0.00161  -0.00093   2.79487
   R13        2.64688   0.00003  -0.00179   0.00051  -0.00129   2.64559
   R14        2.55167   0.00027   0.00125  -0.00085   0.00040   2.55207
   R15        2.31727   0.00044   0.00222  -0.00135   0.00088   2.31814
   R16        1.83764   0.00013  -0.00238   0.00286   0.00049   1.83813
   R17        2.64815   0.00018  -0.00028   0.00321   0.00296   2.65111
   R18        2.04843  -0.00004  -0.00125   0.00139   0.00014   2.04856
   R19        2.62854   0.00088  -0.00478  -0.00279  -0.00756   2.62098
   R20        1.91150   0.00005  -0.00101  -0.00040  -0.00141   1.91009
   R21        1.90858   0.00026  -0.00440   0.00334  -0.00106   1.90752
   R22        1.83799   0.00034  -0.00277   0.00367   0.00090   1.83889
    A1        2.17288   0.00027  -0.00299   0.00036  -0.00272   2.17015
    A2        2.11040   0.00008   0.00176  -0.00914  -0.00748   2.10292
    A3        1.99982  -0.00035   0.00141   0.00896   0.01027   2.01009
    A4        2.00286  -0.00005  -0.00347  -0.00540  -0.00893   1.99393
    A5        2.18482   0.00021   0.00327   0.01181   0.01502   2.19985
    A6        2.09551  -0.00016   0.00020  -0.00640  -0.00625   2.08926
    A7        2.15038   0.00038   0.00433   0.00216   0.00641   2.15680
    A8        2.05138  -0.00027  -0.00457  -0.00195  -0.00649   2.04489
    A9        2.08143  -0.00011   0.00025  -0.00021   0.00007   2.08149
   A10        2.09547   0.00027   0.00557  -0.00383   0.00135   2.09682
   A11        2.03786  -0.00024  -0.00403   0.00396  -0.00064   2.03722
   A12        2.14614   0.00005   0.00054   0.00157   0.00171   2.14785
   A13        1.99178   0.00031   0.00240   0.00923   0.01122   2.00300
   A14        2.00748  -0.00004  -0.00065   0.00942   0.00837   2.01585
   A15        1.99104   0.00014   0.00448   0.01434   0.01827   2.00930
   A16        2.10339   0.00001   0.00136  -0.00037   0.00103   2.10442
   A17        2.09553  -0.00004   0.00003  -0.00315  -0.00320   2.09233
   A18        2.08395   0.00003  -0.00138   0.00349   0.00215   2.08610
   A19        1.98391   0.00013   0.00169   0.00002   0.00171   1.98562
   A20        2.18926  -0.00026  -0.00203   0.00226   0.00023   2.18948
   A21        2.11002   0.00013   0.00034  -0.00228  -0.00194   2.10807
   A22        1.85889   0.00073   0.00722  -0.00616   0.00106   1.85994
   A23        2.14932   0.00039   0.00441   0.00052   0.00492   2.15424
   A24        2.06630  -0.00022  -0.00327   0.00138  -0.00189   2.06441
   A25        2.06755  -0.00017  -0.00113  -0.00190  -0.00303   2.06452
   A26        2.03714  -0.00031  -0.00427   0.00410  -0.00067   2.03647
   A27        2.16742   0.00055   0.00342   0.00957   0.01248   2.17990
   A28        2.07437  -0.00016   0.00287  -0.01111  -0.00880   2.06557
   A29        1.99184  -0.00009  -0.00193   0.00990   0.00730   1.99914
   A30        2.00575   0.00118   0.00882   0.01320   0.02136   2.02711
   A31        1.96612  -0.00032   0.00065   0.02154   0.02127   1.98739
   A32        1.86352   0.00107   0.01100  -0.00908   0.00192   1.86544
    D1        0.19058  -0.00044  -0.01073  -0.22276  -0.23343  -0.04285
    D2       -2.95050  -0.00041  -0.00945  -0.24337  -0.25289   3.07979
    D3       -2.93652  -0.00042  -0.01689  -0.23727  -0.25409   3.09258
    D4        0.20559  -0.00038  -0.01561  -0.25788  -0.27355  -0.06796
    D5        0.01387   0.00002  -0.00250  -0.03695  -0.03947  -0.02560
    D6        3.14154  -0.00000   0.00326  -0.02293  -0.01965   3.12189
    D7        3.12829  -0.00009   0.00092  -0.00285  -0.00189   3.12640
    D8       -0.01287   0.00010   0.00288  -0.00824  -0.00530  -0.01816
    D9       -0.01378  -0.00012  -0.00030   0.01661   0.01623   0.00245
   D10        3.12824   0.00007   0.00165   0.01123   0.01283   3.14107
   D11        3.12403   0.00055   0.00654   0.03457   0.04117  -3.11798
   D12        0.08284  -0.00036  -0.00958   0.00509  -0.00460   0.07824
   D13       -0.01702   0.00058   0.00787   0.01294   0.02074   0.00372
   D14       -3.05821  -0.00032  -0.00825  -0.01654  -0.02503  -3.08324
   D15        3.08394   0.00053   0.00816  -0.01334  -0.00513   3.07881
   D16        0.03209  -0.00045  -0.00792  -0.03389  -0.04174  -0.00965
   D17       -0.05809   0.00034   0.00620  -0.00786  -0.00166  -0.05975
   D18       -3.10994  -0.00064  -0.00988  -0.02841  -0.03827   3.13497
   D19        2.84489  -0.00050  -0.00891   0.00013  -0.00874   2.83614
   D20        0.49550  -0.00102  -0.01755  -0.04250  -0.06035   0.43514
   D21       -0.39223   0.00052   0.00773   0.02211   0.03015  -0.36208
   D22       -2.74162   0.00001  -0.00091  -0.02052  -0.02146  -2.76308
   D23       -3.13449   0.00049   0.00797   0.02364   0.03144  -3.10305
   D24       -0.01976   0.00053   0.00846   0.02213   0.03047   0.01071
   D25        0.09969  -0.00053  -0.00918   0.00274  -0.00631   0.09338
   D26       -3.06877  -0.00049  -0.00869   0.00123  -0.00728  -3.07605
   D27       -2.99553  -0.00057  -0.01116  -0.08805  -0.09918  -3.09471
   D28        0.15004  -0.00058  -0.01146  -0.08736  -0.09880   0.05124
   D29        0.17274  -0.00061  -0.01166  -0.08645  -0.09813   0.07461
   D30       -2.96487  -0.00063  -0.01196  -0.08576  -0.09775  -3.06261
   D31       -0.01086  -0.00007  -0.00090   0.00680   0.00582  -0.00504
   D32        3.13412   0.00003   0.00120   0.00666   0.00774  -3.14133
   D33        3.10417  -0.00002  -0.00037   0.00525   0.00485   3.10901
   D34       -0.03404   0.00008   0.00173   0.00511   0.00676  -0.02727
   D35       -3.13443   0.00031   0.00511   0.00003   0.00515  -3.12928
   D36        0.00338   0.00033   0.00539  -0.00060   0.00479   0.00817
   D37        0.02924  -0.00050  -0.00733  -0.02438  -0.03161  -0.00237
   D38        3.07602   0.00040   0.00801   0.00465   0.01229   3.08831
   D39       -3.11575  -0.00060  -0.00943  -0.02424  -0.03353   3.13391
   D40       -0.06897   0.00030   0.00592   0.00479   0.01038  -0.05859
   D41       -2.74632  -0.00025  -0.00290  -0.04167  -0.04468  -2.79100
   D42       -0.43679   0.00040   0.00481   0.01465   0.01991  -0.41687
   D43        0.49767  -0.00116  -0.01858  -0.07258  -0.09161   0.40606
   D44        2.80721  -0.00052  -0.01087  -0.01626  -0.02702   2.78019
         Item               Value     Threshold  Converged?
 Maximum Force            0.001274     0.000450     NO 
 RMS     Force            0.000443     0.000300     NO 
 Maximum Displacement     0.557067     0.001800     NO 
 RMS     Displacement     0.098626     0.001200     NO 
 Predicted change in Energy=-6.882616D-04
 GradGradGradGradGradGradGradGradGradGradGradGradGradGradGradGradGradGrad

                          Input orientation:                          
 ---------------------------------------------------------------------
 Center     Atomic      Atomic             Coordinates (Angstroms)
 Number     Number       Type             X           Y           Z
 ---------------------------------------------------------------------
      1          8           0        2.870657    1.040194   -2.082883
      2          6           0        2.663245    0.588317   -0.967692
      3          6           0        1.312713    0.304456   -0.415929
      4          6           0        0.256637    0.651283   -1.271165
[...]
   XX=             -5.2149   YY=             12.0036   ZZ=             -6.7887
   XY=             10.8530   XZ=             -1.0455   YZ=             -0.2200
 Octapole moment (field-independent basis, Debye-Ang**2):
  XXX=            -42.9713  YYY=            -10.8779  ZZZ=              2.5182  XYY=             22.5390
  XXY=            -72.6708  XXZ=              8.8276  XZZ=             -0.2900  YZZ=             -0.4812
  YYZ=             16.1459  XYZ=              7.3002
 Hexadecapole moment (field-independent basis, Debye-Ang**3):
 XXXX=          -2317.4750 YYYY=           -712.9531 ZZZZ=            -76.1103 XXXY=            -18.7978
 XXXZ=            -21.9055 YYYX=            117.3763 YYYZ=              0.6505 ZZZX=             -0.4238
 ZZZY=             -0.2528 XXYY=           -601.3509 XXZZ=           -462.3414 YYZZ=           -180.9912
 XXYZ=             -4.9815 YYXZ=              0.0892 ZZXY=             -4.4066
 N-N= 8.723566138939D+02 E-N=-3.428617936470D+03  KE= 7.137346277904D+02
 Evaluate density.
 Using the total density.
 Monte-Carlo method of calculating molar volume:
 based on  0.001 e/bohr**3 density envelope.
 Number of points per bohr**3 =   20 CutOff= 1.00D-04
 Using the CI density.
 There are       367 points.  Will hold       367 in memory.
 LenV=   805150400 MDV=   805306368.
 Box volume = 6203.226 fraction occupied=0.199
 Integrated density= 7.3226589072121058D+01 error=-2.8773410927878942D+01
 Molar volume = 1233.884 bohr**3/mol (110.111 cm**3/mol)
 Recommended a0 for SCRF calculation =  4.38 angstrom (  8.27 bohr)
 ******************************Gaussian NBO Version 3.1******************************
             N A T U R A L   A T O M I C   O R B I T A L   A N D
          N A T U R A L   B O N D   O R B I T A L   A N A L Y S I S
 ******************************Gaussian NBO Version 3.1******************************
       /RESON  / : Allow strongly delocalized NBO set

 Analyzing the CI density

 Job title: WIOZZYWDYUOMAY-UHFFFAOYSA-N_conf_2                              

 Storage needed:    189224 in NPA ( 805303772 available)


 NATURAL POPULATIONS:  Natural atomic orbital occupancies 
                                                          
   NAO  Atom  No  lang   Type(AO)    Occupancy
 --------------------------------------------
     1    O    1  S      Cor( 1S)     1.99979
     2    O    1  S      Val( 2S)     1.69943
     3    O    1  S      Ryd( 3S)     0.00043
     4    O    1  S      Ryd( 4S)     0.00013
     5    O    1  px     Val( 2p)     1.80000
     6    O    1  px     Ryd( 3p)     0.00123
     7    O    1  py     Val( 2p)     1.62889
     8    O    1  py     Ryd( 3p)     0.00069
     9    O    1  pz     Val( 2p)     1.53649
    10    O    1  pz     Ryd( 3p)     0.00146
    11    O    1  dxy    Ryd( 3d)     0.00433
    12    O    1  dxz    Ryd( 3d)     0.00071
    13    O    1  dyz    Ryd( 3d)     0.00379
    14    O    1  dx2y2  Ryd( 3d)     0.00450
    15    O    1  dz2    Ryd( 3d)     0.00134

    16    C    2  S      Cor( 1S)     1.99938
    17    C    2  S      Val( 2S)     0.75992
    18    C    2  S      Ryd( 3S)     0.00423
    19    C    2  S      Ryd( 4S)     0.00044
    20    C    2  px     Val( 2p)     0.87639
    21    C    2  px     Ryd( 3p)     0.00721
    22    C    2  py     Val( 2p)     0.70236
    23    C    2  py     Ryd( 3p)     0.02113
    24    C    2  pz     Val( 2p)     0.86656
    25    C    2  pz     Ryd( 3p)     0.00165
    26    C    2  dxy    Ryd( 3d)     0.00320
    27    C    2  dxz    Ryd( 3d)     0.00141
    28    C    2  dyz    Ryd( 3d)     0.00240
    29    C    2  dx2y2  Ryd( 3d)     0.00238
    30    C    2  dz2    Ryd( 3d)     0.00045

    31    C    3  S      Cor( 1S)     1.99886
    32    C    3  S      Val( 2S)     0.90087
    33    C    3  S      Ryd( 3S)     0.00109
    34    C    3  S      Ryd( 4S)     0.00005
    35    C    3  px     Val( 2p)     1.09875
    36    C    3  px     Ryd( 3p)     0.00515
    37    C    3  py     Val( 2p)     1.08375
    38    C    3  py     Ryd( 3p)     0.00546
    39    C    3  pz     Val( 2p)     1.11743
    40    C    3  pz     Ryd( 3p)     0.00194
    41    C    3  dxy    Ryd( 3d)     0.00060
    42    C    3  dxz    Ryd( 3d)     0.00072
    43    C    3  dyz    Ryd( 3d)     0.00052
    44    C    3  dx2y2  Ryd( 3d)     0.00081
    45    C    3  dz2    Ryd( 3d)     0.00036

    46    C    4  S      Cor( 1S)     1.99906
    47    C    4  S      Val( 2S)     0.94669
    48    C    4  S      Ryd( 3S)     0.00080
    49    C    4  S      Ryd( 4S)     0.00006
    50    C    4  px     Val( 2p)     1.06834
    51    C    4  px     Ryd( 3p)     0.00443
    52    C    4  py     Val( 2p)     1.18815
    53    C    4  py     Ryd( 3p)     0.00470
    54    C    4  pz     Val( 2p)     1.02608
    55    C    4  pz     Ryd( 3p)     0.00318
    56    C    4  dxy    Ryd( 3d)     0.00058
    57    C    4  dxz    Ryd( 3d)     0.00054
    58    C    4  dyz    Ryd( 3d)     0.00038
    59    C    4  dx2y2  Ryd( 3d)     0.00067
    60    C    4  dz2    Ryd( 3d)     0.00039

    61    C    5  S      Cor( 1S)     1.99895
    62    C    5  S      Val( 2S)     0.83774
    63    C    5  S      Ryd( 3S)     0.00115
    64    C    5  S      Ryd( 4S)     0.00012
    65    C    5  px     Val( 2p)     1.03550
    66    C    5  px     Ryd( 3p)     0.00555
    67    C    5  py     Val( 2p)     0.96185
    68    C    5  py     Ryd( 3p)     0.00576
    69    C    5  pz     Val( 2p)     0.93867
    70    C    5  pz     Ryd( 3p)     0.00128
    71    C    5  dxy    Ryd( 3d)     0.00112
    72    C    5  dxz    Ryd( 3d)     0.00117
    73    C    5  dyz    Ryd( 3d)     0.00126
    74    C    5  dx2y2  Ryd( 3d)     0.00095
    75    C    5  dz2    Ryd( 3d)     0.00038

    76    N    6  S      Cor( 1S)     1.99946
    77    N    6  S      Val( 2S)     1.35401
    78    N    6  S      Ryd( 3S)     0.00015
    79    N    6  S      Ryd( 4S)     0.00001
    80    N    6  px     Val( 2p)     1.42523
    81    N    6  px     Ryd( 3p)     0.00170
    82    N    6  py     Val( 2p)     1.34900
    83    N    6  py     Ryd( 3p)     0.00219
    84    N    6  pz     Val( 2p)     1.58083
    85    N    6  pz     Ryd( 3p)     0.00317
    86    N    6  dxy    Ryd( 3d)     0.00049
    87    N    6  dxz    Ryd( 3d)     0.00067
    88    N    6  dyz    Ryd( 3d)     0.00073
    89    N    6  dx2y2  Ryd( 3d)     0.00040
    90    N    6  dz2    Ryd( 3d)     0.00057

    91    C    7  S      Cor( 1S)     1.99887
    92    C    7  S      Val( 2S)     0.89671
    93    C    7  S      Ryd( 3S)     0.00080
    94    C    7  S      Ryd( 4S)     0.00005
    95    C    7  px     Val( 2p)     1.09904
    96    C    7  px     Ryd( 3p)     0.00492
    97    C    7  py     Val( 2p)     1.08491
    98    C    7  py     Ryd( 3p)     0.00566
    99    C    7  pz     Val( 2p)     1.11400
   100    C    7  pz     Ryd( 3p)     0.00182
   101    C    7  dxy    Ryd( 3d)     0.00059
   102    C    7  dxz    Ryd( 3d)     0.00074
   103    C    7  dyz    Ryd( 3d)     0.00051
   104    C    7  dx2y2  Ryd( 3d)     0.00081
   105    C    7  dz2    Ryd( 3d)     0.00036

   106    C    8  S      Cor( 1S)     1.99936
   107    C    8  S      Val( 2S)     0.76034
   108    C    8  S      Ryd( 3S)     0.00399
   109    C    8  S      Ryd( 4S)     0.00044
   110    C    8  px     Val( 2p)     0.88903
   111    C    8  px     Ryd( 3p)     0.01066
   112    C    8  py     Val( 2p)     0.69087
   113    C    8  py     Ryd( 3p)     0.01666
   114    C    8  pz     Val( 2p)     0.86863
   115    C    8  pz     Ryd( 3p)     0.00181
   116    C    8  dxy    Ryd( 3d)     0.00196
   117    C    8  dxz    Ryd( 3d)     0.00148
   118    C    8  dyz    Ryd( 3d)     0.00240
   119    C    8  dx2y2  Ryd( 3d)     0.00360
   120    C    8  dz2    Ryd( 3d)     0.00045

   121    O    9  S      Cor( 1S)     1.99978
   122    O    9  S      Val( 2S)     1.68007
   123    O    9  S      Ryd( 3S)     0.00082
   124    O    9  S      Ryd( 4S)     0.00008
   125    O    9  px     Val( 2p)     1.57942
   126    O    9  px     Ryd( 3p)     0.00087
   127    O    9  py     Val( 2p)     1.62771
   128    O    9  py     Ryd( 3p)     0.00171
   129    O    9  pz     Val( 2p)     1.83677
   130    O    9  pz     Ryd( 3p)     0.00109
   131    O    9  dxy    Ryd( 3d)     0.00126
   132    O    9  dxz    Ryd( 3d)     0.00046
   133    O    9  dyz    Ryd( 3d)     0.00168
   134    O    9  dx2y2  Ryd( 3d)     0.00131
   135    O    9  dz2    Ryd( 3d)     0.00070

   136    O   10  S      Cor( 1S)     1.99978
   137    O   10  S      Val( 2S)     1.69996
   138    O   10  S      Ryd( 3S)     0.00055
   139    O   10  S      Ryd( 4S)     0.00016
   140    O   10  px     Val( 2p)     1.72759
   141    O   10  px     Ryd( 3p)     0.00082
   142    O   10  py     Val( 2p)     1.70075
   143    O   10  py     Ryd( 3p)     0.00125
   144    O   10  pz     Val( 2p)     1.55661
   145    O   10  pz     Ryd( 3p)     0.00127
   146    O   10  dxy    Ryd( 3d)     0.00425
   147    O   10  dxz    Ryd( 3d)     0.00220
   148    O   10  dyz    Ryd( 3d)     0.00217
   149    O   10  dx2y2  Ryd( 3d)     0.00404
   150    O   10  dz2    Ryd( 3d)     0.00128

   151    C   11  S      Cor( 1S)     1.99906
   152    C   11  S      Val( 2S)     0.94637
   153    C   11  S      Ryd( 3S)     0.00076
   154    C   11  S      Ryd( 4S)     0.00006
   155    C   11  px     Val( 2p)     1.06935
   156    C   11  px     Ryd( 3p)     0.00407
   157    C   11  py     Val( 2p)     1.18821
   158    C   11  py     Ryd( 3p)     0.00454
   159    C   11  pz     Val( 2p)     1.02999
   160    C   11  pz     Ryd( 3p)     0.00298
   161    C   11  dxy    Ryd( 3d)     0.00058
   162    C   11  dxz    Ryd( 3d)     0.00053
   163    C   11  dyz    Ryd( 3d)     0.00037
   164    C   11  dx2y2  Ryd( 3d)     0.00066
   165    C   11  dz2    Ryd( 3d)     0.00039

   166    C   12  S      Cor( 1S)     1.99895
   167    C   12  S      Val( 2S)     0.83976
   168    C   12  S      Ryd( 3S)     0.00113
   169    C   12  S      Ryd( 4S)     0.00012
   170    C   12  px     Val( 2p)     1.03586
   171    C   12  px     Ryd( 3p)     0.00534
   172    C   12  py     Val( 2p)     0.96108
   173    C   12  py     Ryd( 3p)     0.00545
   174    C   12  pz     Val( 2p)     0.93913
   175    C   12  pz     Ryd( 3p)     0.00133
   176    C   12  dxy    Ryd( 3d)     0.00112
   177    C   12  dxz    Ryd( 3d)     0.00113
   178    C   12  dyz    Ryd( 3d)     0.00129
   179    C   12  dx2y2  Ryd( 3d)     0.00095
   180    C   12  dz2    Ryd( 3d)     0.00039

   181    N   13  S      Cor( 1S)     1.99947
   182    N   13  S      Val( 2S)     1.35809
   183    N   13  S      Ryd( 3S)     0.00015
   184    N   13  S      Ryd( 4S)     0.00001
   185    N   13  px     Val( 2p)     1.42098
   186    N   13  px     Ryd( 3p)     0.00183
   187    N   13  py     Val( 2p)     1.34261
   188    N   13  py     Ryd( 3p)     0.00213
   189    N   13  pz     Val( 2p)     1.59192
   190    N   13  pz     Ryd( 3p)     0.00312
   191    N   13  dxy    Ryd( 3d)     0.00049
   192    N   13  dxz    Ryd( 3d)     0.00077
   193    N   13  dyz    Ryd( 3d)     0.00073
   194    N   13  dx2y2  Ryd( 3d)     0.00038
   195    N   13  dz2    Ryd( 3d)     0.00061

   196    O   14  S      Cor( 1S)     1.99977
   197    O   14  S      Val( 2S)     1.68030
   198    O   14  S      Ryd( 3S)     0.00098
   199    O   14  S      Ryd( 4S)     0.00011
   200    O   14  px     Val( 2p)     1.49938
   201    O   14  px     Ryd( 3p)     0.00133
   202    O   14  py     Val( 2p)     1.71761
   203    O   14  py     Ryd( 3p)     0.00156
   204    O   14  pz     Val( 2p)     1.84516
   205    O   14  pz     Ryd( 3p)     0.00083
   206    O   14  dxy    Ryd( 3d)     0.00122
   207    O   14  dxz    Ryd( 3d)     0.00014
   208    O   14  dyz    Ryd( 3d)     0.00179
   209    O   14  dx2y2  Ryd( 3d)     0.00109
   210    O   14  dz2    Ryd( 3d)     0.00064

   211    H   15  S      Val( 1S)     0.73527
   212    H   15  S      Ryd( 2S)     0.00210
   213    H   15  px     Ryd( 2p)     0.00017
   214    H   15  py     Ryd( 2p)     0.00032
   215    H   15  pz     Ryd( 2p)     0.00012

   216    H   16  S      Val( 1S)     0.54876
   217    H   16  S      Ryd( 2S)     0.00302
   218    H   16  px     Ryd( 2p)     0.00063
   219    H   16  py     Ryd( 2p)     0.00022
   220    H   16  pz     Ryd( 2p)     0.00038

   221    H   17  S      Val( 1S)     0.56666
   222    H   17  S      Ryd( 2S)     0.00109
   223    H   17  px     Ryd( 2p)     0.00024
   224    H   17  py     Ryd( 2p)     0.00049
   225    H   17  pz     Ryd( 2p)     0.00045

   226    H   18  S      Val( 1S)     0.47851
   227    H   18  S      Ryd( 2S)     0.00293
   228    H   18  px     Ryd( 2p)     0.00114
   229    H   18  py     Ryd( 2p)     0.00055
   230    H   18  pz     Ryd( 2p)     0.00081

   231    H   19  S      Val( 1S)     0.73603
   232    H   19  S      Ryd( 2S)     0.00130
   233    H   19  px     Ryd( 2p)     0.00016
   234    H   19  py     Ryd( 2p)     0.00033
   235    H   19  pz     Ryd( 2p)     0.00013

   236    H   20  S      Val( 1S)     0.56663
   237    H   20  S      Ryd( 2S)     0.00105
   238    H   20  px     Ryd( 2p)     0.00026
   239    H   20  py     Ryd( 2p)     0.00049
   240    H   20  pz     Ryd( 2p)     0.00045

   241    H   21  S      Val( 1S)     0.55114
   242    H   21  S      Ryd( 2S)     0.00159
   243    H   21  px     Ryd( 2p)     0.00061
   244    H   21  py     Ryd( 2p)     0.00020
   245    H   21  pz     Ryd( 2p)     0.00042

   246    H   22  S      Val( 1S)     0.47291
   247    H   22  S      Ryd( 2S)     0.00318
   248    H   22  px     Ryd( 2p)     0.00100
   249    H   22  py     Ryd( 2p)     0.00065
   250    H   22  pz     Ryd( 2p)     0.00078

 WARNING:  1 low occupancy (<1.9990e) core orbital  found on  C    3
           1 low occupancy (<1.9990e) core orbital  found on  C    5
           1 low occupancy (<1.9990e) core orbital  found on  C    7
           1 low occupancy (<1.9990e) core orbital  found on  C   12


 Summary of Natural Population Analysis:                  
                                                          
                                       Natural Population 
                Natural  -----------------------------------------------
    Atom  No    Charge         Core      Valence    Rydberg      Total
 -----------------------------------------------------------------------
      O    1   -0.68319      1.99979     6.66481    0.01859     8.68319
      C    2    0.75089      1.99938     3.20523    0.04450     5.24911
      C    3   -0.21637      1.99886     4.20081    0.01670     6.21637
      C    4   -0.24405      1.99906     4.22926    0.01572     6.24405
      C    5    0.20854      1.99895     3.77377    0.01874     5.79146
      N    6   -0.71860      1.99946     5.70907    0.01007     7.71860
      C    7   -0.20981      1.99887     4.19467    0.01627     6.20981
      C    8    0.74830      1.99936     3.20888    0.04346     5.25170
      O    9   -0.73372      1.99978     6.72397    0.00997     8.73372
      O   10   -0.70269      1.99978     6.68491    0.01800     8.70269
      C   11   -0.24791      1.99906     4.23392    0.01493     6.24791
      C   12    0.20697      1.99895     3.77583    0.01825     5.79303
      N   13   -0.72328      1.99947     5.71359    0.01022     7.72328
      O   14   -0.75190      1.99977     6.74244    0.00969     8.75190
      H   15    0.26201      0.00000     0.73527    0.00272     0.73799
      H   16    0.44699      0.00000     0.54876    0.00425     0.55301
      H   17    0.43107      0.00000     0.56666    0.00227     0.56893
      H   18    0.51607      0.00000     0.47851    0.00543     0.48393
      H   19    0.26205      0.00000     0.73603    0.00192     0.73795
      H   20    0.43113      0.00000     0.56663    0.00224     0.56887
      H   21    0.44603      0.00000     0.55114    0.00282     0.55397
      H   22    0.52147      0.00000     0.47291    0.00562     0.47853
 =======================================================================
   * Total *    0.00000     27.99052    73.71707    0.29241   102.00000

                                 Natural Population      
 --------------------------------------------------------
   Core                      27.99052 ( 99.9661% of  28)
   Valence                   73.71707 ( 99.6177% of  74)
   Natural Minimal Basis    101.70759 ( 99.7133% of 102)
   Natural Rydberg Basis      0.29241 (  0.2867% of 102)
 --------------------------------------------------------

    Atom  No          Natural Electron Configuration
 ----------------------------------------------------------------------------
      O    1      [core]2S( 1.70)2p( 4.97)3d( 0.01)
      C    2      [core]2S( 0.76)2p( 2.45)3p( 0.03)3d( 0.01)
      C    3      [core]2S( 0.90)2p( 3.30)3p( 0.01)
      C    4      [core]2S( 0.95)2p( 3.28)3p( 0.01)
      C    5      [core]2S( 0.84)2p( 2.94)3p( 0.01)
      N    6      [core]2S( 1.35)2p( 4.36)3p( 0.01)
      C    7      [core]2S( 0.90)2p( 3.30)3p( 0.01)
      C    8      [core]2S( 0.76)2p( 2.45)3p( 0.03)3d( 0.01)
      O    9      [core]2S( 1.68)2p( 5.04)3d( 0.01)
      O   10      [core]2S( 1.70)2p( 4.98)3d( 0.01)
      C   11      [core]2S( 0.95)2p( 3.29)3p( 0.01)
      C   12      [core]2S( 0.84)2p( 2.94)3p( 0.01)
      N   13      [core]2S( 1.36)2p( 4.36)3p( 0.01)
      O   14      [core]2S( 1.68)2p( 5.06)
      H   15            1S( 0.74)
      H   16            1S( 0.55)
      H   17            1S( 0.57)
      H   18            1S( 0.48)
      H   19            1S( 0.74)
      H   20            1S( 0.57)
      H   21            1S( 0.55)
      H   22            1S( 0.47)


 NBO analysis skipped by request.
 1\1\GINC-DRG2-W002\SP\RB3LYP TD-FC\6-31G(d,p)\C8H8N2O4\QDUEZ\19-Jul-20
 24\0\\# TD(NStates=10, Root=1) B3LYP/6-31G** SCRF=(Solvent=water) volu
 me pop=NPA density=current Geom=AllCheck Guess=Read\\WIOZZYWDYUOMAY-UH
 FFFAOYSA-N_conf_2\\0,1\O,0,2.8845076079,1.1312281807,-2.0316260618\C,0
 ,2.6625429996,0.5925515367,-0.9599405384\C,0,1.3056875505,0.3159411269
 ,-0.4189427414\C,0,0.2521333102,0.6618851405,-1.274098428\C,0,-1.09607
 03751,0.4592880155,-0.9566951902\N,0,-2.0857581893,0.8877029201,-1.822
 0614663\C,0,-1.3728271734,-0.145852344,0.3033769538\C,0,-2.763672228,-
 0.4529076058,0.6990853986\O,0,-2.8722908372,-0.991478255,1.9330455704\
 O,0,-3.7583409956,-0.2616393432,0.0065183648\C,0,-0.3204771194,-0.4813
 628588,1.1649755162\C,0,1.0287388694,-0.2641146956,0.8537527973\N,0,1.
 992935215,-0.5603380944,1.8078333187\O,0,3.6801779462,0.184428605,-0.1
 623389836\H,0,0.5108548039,1.1063908727,-2.2289953533\H,0,-2.998752444
 1,0.4810910895,-1.6633385856\H,0,-1.8131621787,0.9747045262,-2.7910052
 866\H,0,-3.8181479948,-1.160997517,2.0817020982\H,0,-0.5629803919,-0.9
 35014621,2.1190070276\H,0,1.7064695227,-1.2394184731,2.4996622103\H,0,
 2.9299862232,-0.7070193334,1.462489271\H,0,4.5084458791,0.4049311277,-
 0.6224058918\\Version=ES64L-G16RevA.03\State=1-A\HF=-720.1460422\RMSD=
 3.840e-09\Dipole=0.5848311,-1.2301062,0.9515581\Quadrupole=0.0064765,-
 3.6740623,3.6675859,-4.6715718,8.8155252,-3.5780221\PG=C01 [X(C8H8N2O4
 )]\\@


 PENOTUS DIED A HUNDRED YEARS OLD WANTING BUT TWO...
 AND HE USED TO SAY BEFORE HE DIED, HAVING SPENT HIS
 WHOLE LIFE IN VAINLY SEARCHING AFTER THE PHILOSOPHER'S
 STONE, THAT IF HE HAD A MORTAL ENEMY HE DID NOT DARE
 TO ENCOUNTER OPENLY, HE WOULD ADVISE HIM ABOVE ALL
 THINGS TO GIVE HIMSELF UP TO THE STUDY AND PRACTICE
 OF ALCHEMY.  --  NICOLAS LEMERY, M.D.
 "A COURSE OF CHYMISTRY", WALTER KETTILBY, LONDON, 1686
 Job cpu time:       0 days  0 hours 32 minutes  7.0 seconds.
 Elapsed time:       0 days  0 hours 11 minutes 40.3 seconds.
 File lengths (MBytes):  RWF=    587 Int=      0 D2E=      0 Chk=     34 Scr=      1
 Normal termination of Gaussian 16 at Fri Jul 19 10:12:41 2024.
