 Entering Gaussian System, Link 0=g16
 Initial command:
 /opt/sw/arch/manual/gaussian/G16_A03/g16/l1.exe "/scratch/1030813.jesse.materianova.be/Gau-27752.inp" -scrdir="/scratch/1030813.jesse.materianova.be/"
 Entering Link 1 = /opt/sw/arch/manual/gaussian/G16_A03/g16/l1.exe PID=     27754.
  
 Copyright (c) 1988,1990,1992,1993,1995,1998,2003,2009,2016,
            Gaussian, Inc.  All Rights Reserved.
  
 This is part of the Gaussian(R) 16 program.  It is based on
 the Gaussian(R) 09 system (copyright 2009, Gaussian, Inc.),
 the Gaussian(R) 03 system (copyright 2003, Gaussian, Inc.),
 the Gaussian(R) 98 system (copyright 1998, Gaussian, Inc.),
 the Gaussian(R) 94 system (copyright 1995, Gaussian, Inc.),
 the Gaussian 92(TM) system (copyright 1992, Gaussian, Inc.),
 the Gaussian 90(TM) system (copyright 1990, Gaussian, Inc.),
 the Gaussian 88(TM) system (copyright 1988, Gaussian, Inc.),
 the Gaussian 86(TM) system (copyright 1986, Carnegie Mellon
 University), and the Gaussian 82(TM) system (copyright 1983,
 Carnegie Mellon University). Gaussian is a federally registered
 trademark of Gaussian, Inc.
  
 This software contains proprietary and confidential information,
 including trade secrets, belonging to Gaussian, Inc.
  
 This software is provided under written license and may be
 used, copied, transmitted, or stored only in accord with that
 written license.
  
 The following legend is applicable only to US Government
 contracts under FAR:
  
                    RESTRICTED RIGHTS LEGEND
  
 Use, reproduction and disclosure by the US Government is
 subject to restrictions as set forth in subparagraphs (a)
 and (c) of the Commercial Computer Software - Restricted
 Rights clause in FAR 52.227-19.
  
 Gaussian, Inc.
 340 Quinnipiac St., Bldg. 40, Wallingford CT 06492
  
  
 ---------------------------------------------------------------
 Warning -- This program may not be used in any manner that
 competes with the business of Gaussian, Inc. or will provide
 assistance to any competitor of Gaussian, Inc.  The licensee
 of this program is prohibited from giving any competitor of
 Gaussian, Inc. access to this program.  By using this program,
 the user acknowledges that Gaussian, Inc. is engaged in the
 business of creating and licensing software in the field of
 computational chemistry and represents and warrants to the
 licensee that it is not a competitor of Gaussian, Inc. and that
 it will not use this program in any manner prohibited above.
 ---------------------------------------------------------------
  

 Cite this work as:
 Gaussian 16, Revision A.03,
 M. J. Frisch, G. W. Trucks, H. B. Schlegel, G. E. Scuseria, 
 M. A. Robb, J. R. Cheeseman, G. Scalmani, V. Barone, 
 G. A. Petersson, H. Nakatsuji, X. Li, M. Caricato, A. V. Marenich, 
 J. Bloino, B. G. Janesko, R. Gomperts, B. Mennucci, H. P. Hratchian, 
 J. V. Ortiz, A. F. Izmaylov, J. L. Sonnenberg, D. Williams-Young, 
 F. Ding, F. Lipparini, F. Egidi, J. Goings, B. Peng, A. Petrone, 
 T. Henderson, D. Ranasinghe, V. G. Zakrzewski, J. Gao, N. Rega, 
 G. Zheng, W. Liang, M. Hada, M. Ehara, K. Toyota, R. Fukuda, 
 J. Hasegawa, M. Ishida, T. Nakajima, Y. Honda, O. Kitao, H. Nakai, 
 T. Vreven, K. Throssell, J. A. Montgomery, Jr., J. E. Peralta, 
 F. Ogliaro, M. J. Bearpark, J. J. Heyd, E. N. Brothers, K. N. Kudin, 
 V. N. Staroverov, T. A. Keith, R. Kobayashi, J. Normand, 
 K. Raghavachari, A. P. Rendell, J. C. Burant, S. S. Iyengar, 
 J. Tomasi, M. Cossi, J. M. Millam, M. Klene, C. Adamo, R. Cammi, 
 J. W. Ochterski, R. L. Martin, K. Morokuma, O. Farkas, 
 J. B. Foresman, and D. J. Fox, Gaussian, Inc., Wallingford CT, 2016.
 
 ******************************************
 Gaussian 16:  EM64L-G16RevA.03 25-Dec-2016
                 9-Jul-2024 
 ******************************************
 %nprocshared=2
 Will use up to    2 processors via shared memory.
 %mem=4GB
 %Chk=PIICEJLVQHRZGT-UHFFFAOYSA-N_conf_0_0.chk
 -------------------------------------------------------
 # opt=CalcFc B3LYP/6-31G** SCRF=(Solvent=water) scf=xqc
 -------------------------------------------------------
 1/10=4,18=20,19=15,26=3,38=1/1,3;
 2/9=110,12=2,17=6,18=5,40=1/2;
 3/5=1,6=6,7=101,11=2,25=1,30=1,70=2201,71=2,72=1,74=-5,140=1/1,2,3;
 4//1;
 5/5=2,8=3,13=1,38=5,53=1/2,8;
 8/6=4,10=90,11=11/1;
 11/6=1,8=1,9=11,15=111,16=1/1,2,10;
 10/6=1,13=1/2;
 6/7=2,8=2,9=2,10=2,28=1/1;
 7/10=1,18=20,25=1/1,2,3,16;
 1/10=4,18=20,19=15,26=3/3(2);
 2/9=110/2;
 99//99;
 2/9=110/2;
 3/5=1,6=6,7=101,11=2,25=1,30=1,70=2205,71=1,72=1,74=-5/1,2,3;
 4/5=5,16=3,69=1/1;
 5/5=2,8=3,13=1,38=5,53=1/2,8;
 7//1,2,3,16;
 1/18=20,19=15,26=3/3(-5);
 2/9=110/2;
 6/7=2,8=2,9=2,10=2,19=2,28=1/1;
 99/9=1/99;
 ----------------------------------
 PIICEJLVQHRZGT-UHFFFAOYSA-N_conf_0
 ----------------------------------
 Symbolic Z-matrix:
 Charge =  0 Multiplicity = 1
 N                    -1.6695    0.27256  -0.20899 
 C                    -0.70455  -0.7216    0.27452 
 C                     0.69636  -0.10656   0.45774 
 N                     1.08697   0.69904  -0.70618 
 H                    -1.1865    0.79265  -0.95099 
 H                    -1.79354   0.97722   0.51835 
 H                    -1.05534  -1.15236   1.21786 
 H                    -0.65302  -1.53275  -0.46036 
 H                     0.69886   0.5411    1.34141 
 H                     1.43062  -0.90205   0.62276 
 H                     2.04133   1.03277  -0.57409 
 H                     1.10831   0.09999  -1.53203 
 

 GradGradGradGradGradGradGradGradGradGradGradGradGradGradGradGradGradGrad
 Berny optimization.
 Initialization pass.
                           ----------------------------
                           !    Initial Parameters    !
                           ! (Angstroms and Degrees)  !
 --------------------------                            --------------------------
 ! Name  Definition              Value          Derivative Info.                !
 --------------------------------------------------------------------------------
 ! R1    R(1,2)                  1.4674         calculate D2E/DX2 analytically  !
 ! R2    R(1,5)                  1.0268         calculate D2E/DX2 analytically  !
 ! R3    R(1,6)                  1.0203         calculate D2E/DX2 analytically  !
 ! R4    R(2,3)                  1.5409         calculate D2E/DX2 analytically  !
 ! R5    R(2,7)                  1.0947         calculate D2E/DX2 analytically  !
 ! R6    R(2,8)                  1.0958         calculate D2E/DX2 analytically  !
 ! R7    R(3,4)                  1.4684         calculate D2E/DX2 analytically  !
 ! R8    R(3,9)                  1.0956         calculate D2E/DX2 analytically  !
 ! R9    R(3,10)                 1.0951         calculate D2E/DX2 analytically  !
 ! R10   R(4,11)                 1.0196         calculate D2E/DX2 analytically  !
 ! R11   R(4,12)                 1.0205         calculate D2E/DX2 analytically  !
 ! A1    A(2,1,5)              105.78           calculate D2E/DX2 analytically  !
 ! A2    A(2,1,6)              108.238          calculate D2E/DX2 analytically  !
 ! A3    A(5,1,6)              102.8565         calculate D2E/DX2 analytically  !
 ! A4    A(1,2,3)              111.5063         calculate D2E/DX2 analytically  !
 ! A5    A(1,2,7)              109.8649         calculate D2E/DX2 analytically  !
 ! A6    A(1,2,8)              108.1476         calculate D2E/DX2 analytically  !
 ! A7    A(3,2,7)              110.2374         calculate D2E/DX2 analytically  !
 ! A8    A(3,2,8)              109.4182         calculate D2E/DX2 analytically  !
 ! A9    A(7,2,8)              107.5595         calculate D2E/DX2 analytically  !
 ! A10   A(2,3,4)              111.5043         calculate D2E/DX2 analytically  !
 ! A11   A(2,3,9)              109.5073         calculate D2E/DX2 analytically  !
 ! A12   A(2,3,10)             109.7285         calculate D2E/DX2 analytically  !
 ! A13   A(4,3,9)              108.3241         calculate D2E/DX2 analytically  !
 ! A14   A(4,3,10)             109.8531         calculate D2E/DX2 analytically  !
 ! A15   A(9,3,10)             107.8395         calculate D2E/DX2 analytically  !
 ! A16   A(3,4,11)             109.0182         calculate D2E/DX2 analytically  !
 ! A17   A(3,4,12)             108.9639         calculate D2E/DX2 analytically  !
 ! A18   A(11,4,12)            106.1058         calculate D2E/DX2 analytically  !
 ! D1    D(5,1,2,3)             44.0402         calculate D2E/DX2 analytically  !
 ! D2    D(5,1,2,7)            166.5665         calculate D2E/DX2 analytically  !
 ! D3    D(5,1,2,8)            -76.3042         calculate D2E/DX2 analytically  !
 ! D4    D(6,1,2,3)            -65.6281         calculate D2E/DX2 analytically  !
 ! D5    D(6,1,2,7)             56.8981         calculate D2E/DX2 analytically  !
 ! D6    D(6,1,2,8)            174.0274         calculate D2E/DX2 analytically  !
 ! D7    D(1,2,3,4)            -46.8209         calculate D2E/DX2 analytically  !
 ! D8    D(1,2,3,9)             73.0514         calculate D2E/DX2 analytically  !
 ! D9    D(1,2,3,10)          -168.7638         calculate D2E/DX2 analytically  !
 ! D10   D(7,2,3,4)           -169.1331         calculate D2E/DX2 analytically  !
 ! D11   D(7,2,3,9)            -49.2608         calculate D2E/DX2 analytically  !
 ! D12   D(7,2,3,10)            68.924          calculate D2E/DX2 analytically  !
 ! D13   D(8,2,3,4)             72.7742         calculate D2E/DX2 analytically  !
 ! D14   D(8,2,3,9)           -167.3535         calculate D2E/DX2 analytically  !
 ! D15   D(8,2,3,10)           -49.1687         calculate D2E/DX2 analytically  !
 ! D16   D(2,3,4,11)          -176.082          calculate D2E/DX2 analytically  !
 ! D17   D(2,3,4,12)           -60.6963         calculate D2E/DX2 analytically  !
 ! D18   D(9,3,4,11)            63.3495         calculate D2E/DX2 analytically  !
 ! D19   D(9,3,4,12)           178.7353         calculate D2E/DX2 analytically  !
 ! D20   D(10,3,4,11)          -54.2112         calculate D2E/DX2 analytically  !
 ! D21   D(10,3,4,12)           61.1746         calculate D2E/DX2 analytically  !
 --------------------------------------------------------------------------------
 Trust Radius=3.00D-01 FncErr=1.00D-07 GrdErr=1.00D-06 EigMax=2.50D+02 EigMin=1.00D-04
 Number of steps in this run=     60 maximum allowed number of steps=    100.
 GradGradGradGradGradGradGradGradGradGradGradGradGradGradGradGradGradGrad

                          Input orientation:                          
 ---------------------------------------------------------------------
 Center     Atomic      Atomic             Coordinates (Angstroms)
 Number     Number       Type             X           Y           Z
 ---------------------------------------------------------------------
      1          7           0       -1.669500    0.272557   -0.208992
      2          6           0       -0.704553   -0.721604    0.274525
      3          6           0        0.696359   -0.106557    0.457740
      4          7           0        1.086969    0.699039   -0.706179
      5          1           0       -1.186497    0.792649   -0.950991
      6          1           0       -1.793539    0.977219    0.518352
      7          1           0       -1.055336   -1.152363    1.217856
      8          1           0       -0.653021   -1.532752   -0.460360
      9          1           0        0.698858    0.541099    1.341410
     10          1           0        1.430624   -0.902051    0.622759
     11          1           0        2.041328    1.032774   -0.574093
     12          1           0        1.108308    0.099989   -1.532026
 ---------------------------------------------------------------------
                    Distance matrix (angstroms):
                    1          2          3          4          5
     1  N    0.000000
     2  C    1.467401   0.000000
     3  C    2.487076   1.540910   0.000000
     4  N    2.833232   2.487882   1.468424   0.000000
     5  H    1.026816   2.006769   2.517587   2.288525   0.000000
     6  H    1.020276   2.032570   2.716217   3.142322   1.600479
     7  H    2.107958   1.094749   2.177136   3.423313   2.916191
     8  H    2.086997   1.095752   2.167433   2.840578   2.435736
     9  H    2.843410   2.168461   1.095599   2.090023   2.978749
    10  H    3.417935   2.170900   1.095074   2.108948   3.492567
    11  H    3.805453   3.367173   2.042473   1.019620   3.258614
    12  H    3.081625   2.687955   2.042432   1.020460   2.466477
                    6          7          8          9         10
     6  H    0.000000
     7  H    2.359951   0.000000
     8  H    2.925511   1.767190   0.000000
     9  H    2.660764   2.441367   3.061831   0.000000
    10  H    3.733333   2.568422   2.431565   1.770486   0.000000
    11  H    3.987822   4.192282   3.722147   2.390214   2.355624
    12  H    3.659821   3.716394   2.629941   2.935789   2.398139
                   11         12
    11  H    0.000000
    12  H    1.630414   0.000000
 Stoichiometry    C2H8N2
 Framework group  C1[X(C2H8N2)]
 Deg. of freedom    30
 Full point group                 C1      NOp   1
 Largest Abelian subgroup         C1      NOp   1
 Largest concise Abelian subgroup C1      NOp   1
                         Standard orientation:                         
 ---------------------------------------------------------------------
 Center     Atomic      Atomic             Coordinates (Angstroms)
 Number     Number       Type             X           Y           Z
 ---------------------------------------------------------------------
      1          7           0       -1.453879   -0.637185   -0.069031
      2          6           0       -0.778094    0.620391    0.270211
      3          6           0        0.670983    0.642086   -0.253344
      4          7           0        1.376140   -0.606653    0.062366
      5          1           0       -0.776022   -1.381650    0.132544
      6          1           0       -1.548654   -0.685109   -1.083764
      7          1           0       -1.340620    1.466627   -0.137127
      8          1           0       -0.772781    0.721444    1.361280
      9          1           0        0.664935    0.768580   -1.341599
     10          1           0        1.207991    1.492274    0.180234
     11          1           0        2.346041   -0.526565   -0.241778
     12          1           0        1.405949   -0.723597    1.075664
 ---------------------------------------------------------------------
 Rotational constants (GHZ):          13.6467857           5.5182265           4.4808136
 Standard basis: 6-31G(d,p) (6D, 7F)
 There are   100 symmetry adapted cartesian basis functions of A   symmetry.
 There are   100 symmetry adapted basis functions of A   symmetry.
   100 basis functions,   168 primitive gaussians,   100 cartesian basis functions
    17 alpha electrons       17 beta electrons
       nuclear repulsion energy       134.8806235993 Hartrees.
 NAtoms=   12 NActive=   12 NUniq=   12 SFac= 1.00D+00 NAtFMM=   60 NAOKFM=F Big=F
 Integral buffers will be    131072 words long.
 Raffenetti 2 integral format.
 Two-electron integral symmetry is turned on.
 Force inversion solution in PCM.
 ------------------------------------------------------------------------------
 Polarizable Continuum Model (PCM)
 =================================
 Model                : PCM.
 Atomic radii         : UFF (Universal Force Field).
 Polarization charges : Total charges.
 Charge compensation  : None.
 Solution method      : Matrix inversion.
 Cavity type          : Scaled VdW (van der Waals Surface) (Alpha=1.100).
 Cavity algorithm     : GePol (No added spheres)
                        Default sphere list used, NSphG=   12.
                        Lebedev-Laikov grids with approx.  5.0 points / Ang**2.
                        Smoothing algorithm: York/Karplus (Gamma=1.0000).
                        Polarization charges: spherical gaussians, with
                                              point-specific exponents (IZeta= 3).
                        Self-potential: point-specific (ISelfS= 7).
                        Self-field    : sphere-specific E.n sum rule (ISelfD= 2).
 1st derivatives      : Analytical E(r).r(x)/FMM algorithm (CHGder, D1EAlg=3).
                        Cavity 1st derivative terms included.
 2nd derivatives      : Analytical E(r).r(xy)/FMM algorithm (CHGder, D2EAlg=3).
                        Cavity 2nd derivative terms included.
 Solvent              : Water, Eps=  78.355300 Eps(inf)=   1.777849
 ------------------------------------------------------------------------------
 Spheres list:
 ISph  on   Nord     Re0    Alpha      Xe            Ye            Ze
    1   N      1    1.8300  1.100     -1.453879     -0.637185     -0.069031
    2   C      2    1.9255  1.100     -0.778094      0.620391      0.270211
    3   C      3    1.9255  1.100      0.670983      0.642086     -0.253344
    4   N      4    1.8300  1.100      1.376140     -0.606653      0.062366
    5   H      5    1.4430  1.100     -0.776022     -1.381650      0.132544
    6   H      6    1.4430  1.100     -1.548654     -0.685109     -1.083764
    7   H      7    1.4430  1.100     -1.340620      1.466627     -0.137127
    8   H      8    1.4430  1.100     -0.772781      0.721444      1.361280
    9   H      9    1.4430  1.100      0.664935      0.768580     -1.341599
   10   H     10    1.4430  1.100      1.207991      1.492274      0.180234
   11   H     11    1.4430  1.100      2.346041     -0.526565     -0.241778
   12   H     12    1.4430  1.100      1.405949     -0.723597      1.075664
 ------------------------------------------------------------------------------
 One-electron integrals computed using PRISM.
 NBasis=   100 RedAO= T EigKep=  4.86D-03  NBF=   100
 NBsUse=   100 1.00D-06 EigRej= -1.00D+00 NBFU=   100
 ExpMin= 1.61D-01 ExpMax= 4.17D+03 ExpMxC= 6.27D+02 IAcc=3 IRadAn=         5 AccDes= 0.00D+00
 Harris functional with IExCor=  402 and IRadAn=       5 diagonalized for initial guess.
 HarFok:  IExCor=  402 AccDes= 0.00D+00 IRadAn=         5 IDoV= 1 UseB2=F ITyADJ=14
 ICtDFT=  3500011 ScaDFX=  1.000000  1.000000  1.000000  1.000000
 FoFCou: FMM=F IPFlag=           0 FMFlag=      100000 FMFlg1=           0
         NFxFlg=           0 DoJE=T BraDBF=F KetDBF=T FulRan=T
         wScrn=  0.000000 ICntrl=       500 IOpCl=  0 I1Cent=   200000004 NGrid=           0
         NMat0=    1 NMatS0=      1 NMatT0=    0 NMatD0=    1 NMtDS0=    0 NMtDT0=    0
 Petite list used in FoFCou.
 Keep R1 ints in memory in canonical form, NReq=14605525.
 Requested convergence on RMS density matrix=1.00D-08 within  32 cycles.
 Requested convergence on MAX density matrix=1.00D-06.
 Requested convergence on             energy=1.00D-06.
 No special actions if energy rises.
 Inv3:  Mode=1 IEnd=     2887083.
 Iteration    1 A*A^-1 deviation from unit magnitude is 4.77D-15 for    292.
 Iteration    1 A*A^-1 deviation from orthogonality  is 2.83D-15 for    953    776.
 Iteration    1 A^-1*A deviation from unit magnitude is 5.00D-15 for    668.
 Iteration    1 A^-1*A deviation from orthogonality  is 1.37D-13 for    722    710.
 Error on total polarization charges =  0.00623
 SCF Done:  E(RB3LYP) =  -190.534852624     A.U. after   10 cycles
            NFock= 10  Conv=0.44D-08     -V/T= 2.0096
 QCSCF skips out because SCF is already converged.
 DoSCS=F DFT=T ScalE2(SS,OS)=  1.000000  1.000000
 Range of M.O.s used for correlation:     1   100
 NBasis=   100 NAE=    17 NBE=    17 NFC=     0 NFV=     0
 NROrb=    100 NOA=    17 NOB=    17 NVA=    83 NVB=    83
 Symmetrizing basis deriv contribution to polar:
 IMax=3 JMax=2 DiffMx= 0.00D+00
 G2DrvN: will do    13 centers at a time, making    1 passes.
 Calling FoFCou, ICntrl=  3107 FMM=F I1Cent=   0 AccDes= 0.00D+00.
 NEqPCM:  Using equilibrium solvation (IEInf=0, Eps=  78.3553, EpsInf=   1.7778)
 G2PCM: DoFxE=T DoFxN=T DoGrad=T DoDP/DQ/DG/TGxP=FFFF NFrqRd=   0 IEInf=0 SqF1=F DoCFld=F IF1Alg=4.
 End of G2Drv F.D. properties file   721 does not exist.
 End of G2Drv F.D. properties file   722 does not exist.
 End of G2Drv F.D. properties file   788 does not exist.
          IDoAtm=111111111111
 NEqPCM:  Using equilibrium solvation (IEInf=0, Eps=  78.3553, EpsInf=   1.7778)
          Differentiating once with respect to nuclear coordinates.
 Keep R1 ints in memory in canonical form, NReq=16399740.
          There are    39 degrees of freedom in the 1st order CPHF.  IDoFFX=6 NUNeed=     0.
     33 vectors produced by pass  0 Test12= 3.62D-15 2.56D-09 XBig12= 8.32D-02 8.92D-02.
 AX will form    33 AO Fock derivatives at one time.
     33 vectors produced by pass  1 Test12= 3.62D-15 2.56D-09 XBig12= 7.19D-03 1.95D-02.
     33 vectors produced by pass  2 Test12= 3.62D-15 2.56D-09 XBig12= 1.43D-04 2.40D-03.
     33 vectors produced by pass  3 Test12= 3.62D-15 2.56D-09 XBig12= 4.61D-07 1.07D-04.
     33 vectors produced by pass  4 Test12= 3.62D-15 2.56D-09 XBig12= 4.33D-10 2.36D-06.
     13 vectors produced by pass  5 Test12= 3.62D-15 2.56D-09 XBig12= 2.29D-13 5.64D-08.
 InvSVY:  IOpt=1 It=  1 EMax= 1.33D-15
 Solved reduced A of dimension   178 with    33 vectors.
 End of Minotr F.D. properties file   721 does not exist.
 End of Minotr F.D. properties file   722 does not exist.
 End of Minotr F.D. properties file   788 does not exist.

 **********************************************************************

            Population analysis using the SCF density.

 **********************************************************************

 Orbital symmetries:
       Occupied  (A) (A) (A) (A) (A) (A) (A) (A) (A) (A) (A) (A)
                 (A) (A) (A) (A) (A)
       Virtual   (A) (A) (A) (A) (A) (A) (A) (A) (A) (A) (A) (A)
                 (A) (A) (A) (A) (A) (A) (A) (A) (A) (A) (A) (A)
                 (A) (A) (A) (A) (A) (A) (A) (A) (A) (A) (A) (A)
                 (A) (A) (A) (A) (A) (A) (A) (A) (A) (A) (A) (A)
                 (A) (A) (A) (A) (A) (A) (A) (A) (A) (A) (A) (A)
                 (A) (A) (A) (A) (A) (A) (A) (A) (A) (A) (A) (A)
                 (A) (A) (A) (A) (A) (A) (A) (A) (A) (A) (A)
 The electronic state is 1-A.
 Alpha  occ. eigenvalues --  -14.31192 -14.30325 -10.20140 -10.19952  -0.89202
 Alpha  occ. eigenvalues --   -0.85185  -0.69470  -0.59299  -0.50018  -0.46186
 Alpha  occ. eigenvalues --   -0.44741  -0.41227  -0.39277  -0.36351  -0.34063
 Alpha  occ. eigenvalues --   -0.23722  -0.23439
 Alpha virt. eigenvalues --    0.07848   0.12108   0.13606   0.14120   0.17080
 Alpha virt. eigenvalues --    0.17947   0.18553   0.21729   0.22252   0.24608
 Alpha virt. eigenvalues --    0.28351   0.54306   0.54886   0.57107   0.58658
 Alpha virt. eigenvalues --    0.64258   0.66187   0.71970   0.72628   0.76097
 Alpha virt. eigenvalues --    0.77738   0.81610   0.85492   0.87156   0.87650
 Alpha virt. eigenvalues --    0.89665   0.91485   0.92727   0.94110   0.98049
 Alpha virt. eigenvalues --    1.01175   1.08322   1.23354   1.31783   1.37659
 Alpha virt. eigenvalues --    1.41282   1.50870   1.55939   1.60148   1.72825
 Alpha virt. eigenvalues --    1.77943   1.82264   1.85750   1.93268   1.95472
 Alpha virt. eigenvalues --    1.96907   2.05104   2.06753   2.13226   2.15308
 Alpha virt. eigenvalues --    2.23317   2.25407   2.26856   2.28946   2.30963
 Alpha virt. eigenvalues --    2.34903   2.38622   2.44134   2.45447   2.48928
 Alpha virt. eigenvalues --    2.57687   2.64530   2.68024   2.72342   2.78786
 Alpha virt. eigenvalues --    2.81444   2.86544   2.93157   2.95021   2.97552
 Alpha virt. eigenvalues --    2.97791   3.22100   3.28992   3.31662   3.33832
 Alpha virt. eigenvalues --    3.38808   3.45597   3.55392   3.58911   3.96661
 Alpha virt. eigenvalues --    4.03632   4.41980   4.61888
          Condensed to atoms (all electrons):
               1          2          3          4          5          6
     1  N    6.778355   0.330060  -0.067875  -0.017356   0.342507   0.340772
     2  C    0.330060   4.824321   0.364137  -0.054744  -0.053319  -0.046329
     3  C   -0.067875   0.364137   4.876685   0.305403  -0.012224  -0.000820
     4  N   -0.017356  -0.054744   0.305403   6.799654   0.031919   0.000283
     5  H    0.342507  -0.053319  -0.012224   0.031919   0.475976  -0.034746
     6  H    0.340772  -0.046329  -0.000820   0.000283  -0.034746   0.494634
     7  H   -0.032806   0.386795  -0.035710   0.003487   0.006543  -0.007693
     8  H   -0.045375   0.388411  -0.049573  -0.003672  -0.003824   0.007015
     9  H   -0.001423  -0.030195   0.380683  -0.046073  -0.001037   0.003954
    10  H    0.005650  -0.038264   0.367302  -0.052633   0.001148   0.000015
    11  H    0.000596   0.005426  -0.031518   0.339465  -0.000607  -0.000055
    12  H    0.000392  -0.002549  -0.042621   0.335770  -0.001836   0.000151
               7          8          9         10         11         12
     1  N   -0.032806  -0.045375  -0.001423   0.005650   0.000596   0.000392
     2  C    0.386795   0.388411  -0.030195  -0.038264   0.005426  -0.002549
     3  C   -0.035710  -0.049573   0.380683   0.367302  -0.031518  -0.042621
     4  N    0.003487  -0.003672  -0.046073  -0.052633   0.339465   0.335770
     5  H    0.006543  -0.003824  -0.001037   0.001148  -0.000607  -0.001836
     6  H   -0.007693   0.007015   0.003954   0.000015  -0.000055   0.000151
     7  H    0.609475  -0.035538  -0.005540   0.001800  -0.000182  -0.000111
     8  H   -0.035538   0.632775   0.005901  -0.004487  -0.000053   0.004763
     9  H   -0.005540   0.005901   0.630435  -0.043417  -0.002970   0.006853
    10  H    0.001800  -0.004487  -0.043417   0.688005  -0.004022  -0.004822
    11  H   -0.000182  -0.000053  -0.002970  -0.004022   0.465665  -0.029969
    12  H   -0.000111   0.004763   0.006853  -0.004822  -0.029969   0.481596
 Mulliken charges:
               1
     1  N   -0.633497
     2  C   -0.073748
     3  C   -0.053870
     4  N   -0.641504
     5  H    0.249500
     6  H    0.242818
     7  H    0.109481
     8  H    0.103657
     9  H    0.102830
    10  H    0.083726
    11  H    0.258224
    12  H    0.252383
 Sum of Mulliken charges =  -0.00000
 Mulliken charges with hydrogens summed into heavy atoms:
               1
     1  N   -0.141179
     2  C    0.139389
     3  C    0.132686
     4  N   -0.130897
 APT charges:
               1
     1  N   -0.841830
     2  C   -0.684826
     3  C   -0.586030
     4  N   -1.183958
     5  H    0.311748
     6  H    0.448348
     7  H    0.412351
     8  H    0.342527
     9  H    0.341895
    10  H    0.354358
    11  H    0.638315
    12  H    0.447103
 Sum of APT charges =  -0.00000
 APT charges with hydrogens summed into heavy atoms:
               1
     1  N   -0.081734
     2  C    0.070052
     3  C    0.110223
     4  N   -0.098541
 Electronic spatial extent (au):  <R**2>=            326.5655
 Charge=             -0.0000 electrons
 Dipole moment (field-independent basis, Debye):
    X=              2.6026    Y=              1.2722    Z=             -0.1495  Tot=              2.9007
 Quadrupole moment (field-independent basis, Debye-Ang):
   XX=            -27.7536   YY=            -27.2311   ZZ=            -23.8791
   XY=             -1.3257   XZ=              2.8788   YZ=             -0.4337
 Traceless Quadrupole moment (field-independent basis, Debye-Ang):
   XX=             -1.4657   YY=             -0.9432   ZZ=              2.4088
   XY=             -1.3257   XZ=              2.8788   YZ=             -0.4337
 Octapole moment (field-independent basis, Debye-Ang**2):
  XXX=             24.8960  YYY=             -1.3637  ZZZ=             -0.1190  XYY=             -1.0964
  XXY=              2.6544  XXZ=             -3.6288  XZZ=              0.5389  YZZ=             -1.9640
  YYZ=              0.4322  XYZ=             -2.5144
 Hexadecapole moment (field-independent basis, Debye-Ang**3):
 XXXX=           -246.9147 YYYY=           -113.6297 ZZZZ=            -49.2252 XXXY=            -16.7109
 XXXZ=              7.7013 YYYX=              1.1865 YYYZ=             -1.1241 ZZZX=              6.1350
 ZZZY=             -0.4760 XXYY=            -63.4353 XXZZ=            -45.8169 YYZZ=            -27.2415
 XXYZ=              1.2604 YYXZ=              3.8750 ZZXY=             -0.3767
 N-N= 1.348806235993D+02 E-N=-7.125821180451D+02  KE= 1.887206282148D+02
  Exact polarizability:   0.000   0.000   0.000   0.000   0.000   0.000
 Approx polarizability:  47.867  -0.697  47.976   1.372  -1.134  48.743
 D2PCM: PCM CHGder 2nd derivatives, FixD1E=F FixD2E=F DoIter=F DoCFld=F I1PDM=0
 Calling FoFJK, ICntrl=    100147 FMM=F ISym2X=0 I1Cent= 0 IOpClX= 0 NMat=1 NMatS=1 NMatT=0.
 ***** Axes restored to original set *****
 -------------------------------------------------------------------
 Center     Atomic                   Forces (Hartrees/Bohr)
 Number     Number              X              Y              Z
 -------------------------------------------------------------------
      1        7          -0.005594730    0.002730368   -0.003568539
      2        6           0.005533572    0.011048972   -0.003661080
      3        6           0.005572196   -0.007333665    0.000164910
      4        7          -0.003082309    0.004144599   -0.003980893
      5        1          -0.003426947   -0.002652933    0.003025764
      6        1          -0.000704119   -0.000912241    0.001422804
      7        1           0.000586757   -0.000395671   -0.000310152
      8        1           0.000167218   -0.001617706   -0.000688446
      9        1           0.000077224    0.000964870    0.000456916
     10        1           0.000357387   -0.005361122    0.007115662
     11        1          -0.002155023   -0.000604446   -0.001053259
     12        1           0.002668775   -0.000011025    0.001076313
 -------------------------------------------------------------------
 Cartesian Forces:  Max     0.011048972 RMS     0.003632539
 FormGI is forming the generalized inverse of G from B-inverse, IUseBI=4.

 GradGradGradGradGradGradGradGradGradGradGradGradGradGradGradGradGradGrad
 Berny optimization.
 Internal  Forces:  Max     0.016139926 RMS     0.003472685
 Search for a local minimum.
 Step number   1 out of a maximum of   60
 All quantities printed in internal units (Hartrees-Bohrs-Radians)
 Mixed Optimization -- RFO/linear search
 Second derivative matrix not updated -- analytic derivatives used.
 ITU=  0
     Eigenvalues ---    0.00196   0.00311   0.00430   0.03390   0.04127
     Eigenvalues ---    0.04474   0.04607   0.04705   0.05605   0.07932
     Eigenvalues ---    0.08352   0.11244   0.12225   0.14783   0.15702
     Eigenvalues ---    0.17200   0.19610   0.22950   0.25124   0.31750
     Eigenvalues ---    0.32563   0.33050   0.33398   0.33780   0.36326
     Eigenvalues ---    0.37968   0.42233   0.43681   0.43769   0.44176
 RFO step:  Lambda=-4.12943259D-03 EMin= 1.96117261D-03
 Linear search not attempted -- first point.
 Iteration  1 RMS(Cart)=  0.07955139 RMS(Int)=  0.00309214
 Iteration  2 RMS(Cart)=  0.00349516 RMS(Int)=  0.00016303
 Iteration  3 RMS(Cart)=  0.00000650 RMS(Int)=  0.00016294
 Iteration  4 RMS(Cart)=  0.00000000 RMS(Int)=  0.00016294
 Variable       Old X    -DE/DX   Delta X   Delta X   Delta X     New X
                                 (Linear)    (Quad)   (Total)
    R1        2.77299   0.00553   0.00000   0.00421   0.00421   2.77720
    R2        1.94040  -0.00515   0.00000  -0.01127  -0.01127   1.92913
    R3        1.92804   0.00047   0.00000   0.00009   0.00009   1.92813
    R4        2.91190   0.00030   0.00000  -0.01098  -0.01098   2.90092
    R5        2.06878  -0.00029   0.00000   0.00171   0.00171   2.07049
    R6        2.07067   0.00166   0.00000   0.00663   0.00663   2.07730
    R7        2.77492   0.00440   0.00000   0.00467   0.00467   2.77959
    R8        2.07038   0.00094   0.00000   0.00355   0.00355   2.07393
    R9        2.06939   0.00520   0.00000   0.01528   0.01528   2.08467
   R10        1.92680  -0.00236   0.00000  -0.00392  -0.00392   1.92288
   R11        1.92839  -0.00080   0.00000  -0.00157  -0.00157   1.92682
    A1        1.84621   0.00199   0.00000   0.00720   0.00718   1.85339
    A2        1.88911  -0.00132   0.00000  -0.00292  -0.00294   1.88617
    A3        1.79519   0.00066   0.00000   0.02325   0.02320   1.81839
    A4        1.94615   0.01614   0.00000   0.05652   0.05637   2.00252
    A5        1.91750  -0.00617   0.00000  -0.01755  -0.01737   1.90014
    A6        1.88753  -0.00317   0.00000   0.00262   0.00231   1.88984
    A7        1.92401  -0.00478   0.00000  -0.01777  -0.01776   1.90624
    A8        1.90971  -0.00434   0.00000  -0.01111  -0.01176   1.89795
    A9        1.87727   0.00185   0.00000  -0.01488  -0.01519   1.86208
   A10        1.94612  -0.00440   0.00000  -0.02472  -0.02475   1.92137
   A11        1.91126   0.00064   0.00000  -0.00503  -0.00531   1.90595
   A12        1.91512  -0.00102   0.00000  -0.01197  -0.01180   1.90332
   A13        1.89061   0.00090   0.00000  -0.00464  -0.00500   1.88561
   A14        1.91730   0.00553   0.00000   0.06146   0.06149   1.97879
   A15        1.88215  -0.00154   0.00000  -0.01488  -0.01517   1.86698
   A16        1.90273   0.00089   0.00000   0.00918   0.00919   1.91191
   A17        1.90178  -0.00033   0.00000  -0.00405  -0.00404   1.89774
   A18        1.85190  -0.00121   0.00000  -0.01224  -0.01223   1.83967
    D1        0.76865   0.00094   0.00000   0.00849   0.00872   0.77737
    D2        2.90713   0.00154   0.00000   0.01207   0.01206   2.91919
    D3       -1.33176  -0.00148   0.00000  -0.01397  -0.01415  -1.34591
    D4       -1.14543  -0.00015   0.00000  -0.01987  -0.01966  -1.16509
    D5        0.99306   0.00044   0.00000  -0.01629  -0.01633   0.97673
    D6        3.03735  -0.00258   0.00000  -0.04233  -0.04253   2.99482
    D7       -0.81718  -0.00079   0.00000  -0.09703  -0.09713  -0.91431
    D8        1.27499  -0.00205   0.00000  -0.12183  -0.12185   1.15313
    D9       -2.94548  -0.00415   0.00000  -0.15006  -0.15007  -3.09555
   D10       -2.95193  -0.00065   0.00000  -0.10098  -0.10091  -3.05284
   D11       -0.85976  -0.00191   0.00000  -0.12578  -0.12563  -0.98540
   D12        1.20295  -0.00401   0.00000  -0.15400  -0.15385   1.04910
   D13        1.27015   0.00257   0.00000  -0.06547  -0.06560   1.20454
   D14       -2.92087   0.00132   0.00000  -0.09027  -0.09033  -3.01120
   D15       -0.85816  -0.00078   0.00000  -0.11850  -0.11854  -0.97670
   D16       -3.07321  -0.00051   0.00000  -0.09011  -0.08997   3.12001
   D17       -1.05935  -0.00164   0.00000  -0.10188  -0.10175  -1.16110
   D18        1.10566   0.00083   0.00000  -0.06558  -0.06555   1.04011
   D19        3.11952  -0.00030   0.00000  -0.07735  -0.07733   3.04219
   D20       -0.94616  -0.00094   0.00000  -0.07953  -0.07968  -1.02585
   D21        1.06770  -0.00208   0.00000  -0.09130  -0.09146   0.97623
         Item               Value     Threshold  Converged?
 Maximum Force            0.016140     0.000450     NO 
 RMS     Force            0.003473     0.000300     NO 
 Maximum Displacement     0.237414     0.001800     NO 
 RMS     Displacement     0.079019     0.001200     NO 
 Predicted change in Energy=-2.435768D-03
 GradGradGradGradGradGradGradGradGradGradGradGradGradGradGradGradGradGrad

                          Input orientation:                          
 ---------------------------------------------------------------------
 Center     Atomic      Atomic             Coordinates (Angstroms)
 Number     Number       Type             X           Y           Z
 ---------------------------------------------------------------------
      1          7           0       -1.711998    0.283190   -0.174917
      2          6           0       -0.693417   -0.689964    0.243745
      3          6           0        0.710491   -0.103184    0.446863
      4          7           0        1.121075    0.649691   -0.748182
      5          1           0       -1.280035    0.851123   -0.904986
      6          1           0       -1.860939    0.936325    0.594685
      7          1           0       -1.021866   -1.169260    1.172646
      8          1           0       -0.638874   -1.481082   -0.517527
      9          1           0        0.691976    0.591413    1.296362
     10          1           0        1.406199   -0.917308    0.711726
     11          1           0        2.043447    1.051866   -0.596897
     12          1           0        1.233941   -0.002811   -1.523519
 ---------------------------------------------------------------------
                    Distance matrix (angstroms):
                    1          2          3          4          5
     1  N    0.000000
     2  C    1.469630   0.000000
     3  C    2.530682   1.535098   0.000000
     4  N    2.913634   2.463936   1.470896   0.000000
     5  H    1.020853   2.009640   2.588512   2.414642   0.000000
     6  H    1.020321   2.032506   2.777532   3.282965   1.610504
     7  H    2.098052   1.095655   2.159709   3.404463   2.909494
     8  H    2.093235   1.099262   2.156255   2.773232   2.449569
     9  H    2.835269   2.160843   1.097477   2.089900   2.966852
    10  H    3.456947   2.163118   1.103159   2.160582   3.599578
    11  H    3.856461   3.351280   2.049475   1.017546   3.343763
    12  H    3.252550   2.703722   2.041196   1.019630   2.726145
                    6          7          8          9         10
     6  H    0.000000
     7  H    2.339139   0.000000
     8  H    2.928193   1.760853   0.000000
     9  H    2.669960   2.460189   3.058854   0.000000
    10  H    3.758170   2.484236   2.451781   1.768658   0.000000
    11  H    4.083803   4.178616   3.690118   2.371270   2.448719
    12  H    3.866141   3.703860   2.589352   2.932329   2.421218
                   11         12
    11  H    0.000000
    12  H    1.620577   0.000000
 Stoichiometry    C2H8N2
 Framework group  C1[X(C2H8N2)]
 Deg. of freedom    30
 Full point group                 C1      NOp   1
 Largest Abelian subgroup         C1      NOp   1
 Largest concise Abelian subgroup C1      NOp   1
                         Standard orientation:                         
 ---------------------------------------------------------------------
 Center     Atomic      Atomic             Coordinates (Angstroms)
 Number     Number       Type             X           Y           Z
 ---------------------------------------------------------------------
      1          7           0       -1.516972   -0.596327   -0.065169
      2          6           0       -0.738449    0.598343    0.290471
      3          6           0        0.689478    0.625552   -0.272387
      4          7           0        1.393202   -0.618472    0.075050
      5          1           0       -0.893756   -1.393266    0.071323
      6          1           0       -1.682673   -0.578006   -1.071779
      7          1           0       -1.278255    1.488060   -0.052275
      8          1           0       -0.687348    0.662873    1.386647
      9          1           0        0.644854    0.696494   -1.366659
     10          1           0        1.201571    1.533553    0.088521
     11          1           0        2.331115   -0.600494   -0.319154
     12          1           0        1.524706   -0.648993    1.085703
 ---------------------------------------------------------------------
 Rotational constants (GHZ):          13.9483326           5.2957487           4.3931588
 Standard basis: 6-31G(d,p) (6D, 7F)
 There are   100 symmetry adapted cartesian basis functions of A   symmetry.
 There are   100 symmetry adapted basis functions of A   symmetry.
   100 basis functions,   168 primitive gaussians,   100 cartesian basis functions
    17 alpha electrons       17 beta electrons
       nuclear repulsion energy       134.2541823737 Hartrees.
 NAtoms=   12 NActive=   12 NUniq=   12 SFac= 1.00D+00 NAtFMM=   60 NAOKFM=F Big=F
 Integral buffers will be    131072 words long.
 Raffenetti 2 integral format.
 Two-electron integral symmetry is turned on.
 ------------------------------------------------------------------------------
 Polarizable Continuum Model (PCM)
 =================================
 Model                : PCM.
 Atomic radii         : UFF (Universal Force Field).
 Polarization charges : Total charges.
 Charge compensation  : None.
 Solution method      : Matrix inversion.
 Cavity type          : Scaled VdW (van der Waals Surface) (Alpha=1.100).
 Cavity algorithm     : GePol (No added spheres)
                        Default sphere list used, NSphG=   12.
                        Lebedev-Laikov grids with approx.  5.0 points / Ang**2.
                        Smoothing algorithm: York/Karplus (Gamma=1.0000).
                        Polarization charges: spherical gaussians, with
                                              point-specific exponents (IZeta= 3).
                        Self-potential: point-specific (ISelfS= 7).
                        Self-field    : sphere-specific E.n sum rule (ISelfD= 2).
 1st derivatives      : Analytical E(r).r(x)/FMM algorithm (CHGder, D1EAlg=3).
                        Cavity 1st derivative terms included.
 Solvent              : Water, Eps=  78.355300 Eps(inf)=   1.777849
 ------------------------------------------------------------------------------
 Spheres list:
 ISph  on   Nord     Re0    Alpha      Xe            Ye            Ze
    1   N      1    1.8300  1.100     -1.516972     -0.596327     -0.065169
    2   C      2    1.9255  1.100     -0.738449      0.598343      0.290471
    3   C      3    1.9255  1.100      0.689478      0.625552     -0.272387
    4   N      4    1.8300  1.100      1.393202     -0.618472      0.075050
    5   H      5    1.4430  1.100     -0.893756     -1.393266      0.071323
    6   H      6    1.4430  1.100     -1.682673     -0.578006     -1.071779
    7   H      7    1.4430  1.100     -1.278255      1.488060     -0.052275
    8   H      8    1.4430  1.100     -0.687348      0.662873      1.386647
    9   H      9    1.4430  1.100      0.644854      0.696494     -1.366659
   10   H     10    1.4430  1.100      1.201571      1.533553      0.088521
   11   H     11    1.4430  1.100      2.331115     -0.600494     -0.319154
   12   H     12    1.4430  1.100      1.524706     -0.648993      1.085703
 ------------------------------------------------------------------------------
 One-electron integrals computed using PRISM.
 NBasis=   100 RedAO= T EigKep=  4.99D-03  NBF=   100
 NBsUse=   100 1.00D-06 EigRej= -1.00D+00 NBFU=   100
 Initial guess from the checkpoint file:  "PIICEJLVQHRZGT-UHFFFAOYSA-N_conf_0_0.chk"
 B after Tr=     0.000000    0.000000   -0.000000
         Rot=    0.999910   -0.001198   -0.008353    0.010434 Ang=  -1.54 deg.
 ExpMin= 1.61D-01 ExpMax= 4.17D+03 ExpMxC= 6.27D+02 IAcc=2 IRadAn=         4 AccDes= 0.00D+00
 Harris functional with IExCor=  402 and IRadAn=       4 diagonalized for initial guess.
 HarFok:  IExCor=  402 AccDes= 0.00D+00 IRadAn=         4 IDoV= 1 UseB2=F ITyADJ=14
 ICtDFT=  3500011 ScaDFX=  1.000000  1.000000  1.000000  1.000000
 FoFCou: FMM=F IPFlag=           0 FMFlag=      100000 FMFlg1=           0
         NFxFlg=           0 DoJE=T BraDBF=F KetDBF=T FulRan=T
         wScrn=  0.000000 ICntrl=       500 IOpCl=  0 I1Cent=   200000004 NGrid=           0
         NMat0=    1 NMatS0=      1 NMatT0=    0 NMatD0=    1 NMtDS0=    0 NMtDT0=    0
 Petite list used in FoFCou.
 Keep R1 ints in memory in canonical form, NReq=14605525.
 Requested convergence on RMS density matrix=1.00D-08 within  32 cycles.
 Requested convergence on MAX density matrix=1.00D-06.
 Requested convergence on             energy=1.00D-06.
 No special actions if energy rises.
 Inv3:  Mode=1 IEnd=     2846028.
 Iteration    1 A*A^-1 deviation from unit magnitude is 4.55D-15 for    577.
 Iteration    1 A*A^-1 deviation from orthogonality  is 3.64D-15 for    932    433.
 Iteration    1 A^-1*A deviation from unit magnitude is 4.77D-15 for    164.
 Iteration    1 A^-1*A deviation from orthogonality  is 2.52D-15 for    884    534.
 Error on total polarization charges =  0.00628
 SCF Done:  E(RB3LYP) =  -190.537352588     A.U. after    9 cycles
            NFock=  9  Conv=0.47D-08     -V/T= 2.0097
 QCSCF skips out because SCF is already converged.
 D1PCM: PCM CHGder 1st derivatives, ID1Alg=3 FixD1E=F DoIter=F DoCFld=F I1PDM=0.
 Calling FoFJK, ICntrl=      2127 FMM=F ISym2X=0 I1Cent= 0 IOpClX= 0 NMat=1 NMatS=1 NMatT=0.
 ***** Axes restored to original set *****
 -------------------------------------------------------------------
 Center     Atomic                   Forces (Hartrees/Bohr)
 Number     Number              X              Y              Z
 -------------------------------------------------------------------
      1        7          -0.000526758    0.000072942    0.000495581
      2        6           0.000174796    0.001138708   -0.000165450
      3        6           0.000825162   -0.000637154    0.000208141
      4        7          -0.000136314   -0.000517873   -0.000960376
      5        1          -0.000582405    0.000093893    0.000024580
      6        1          -0.000110564   -0.000115389    0.000001621
      7        1           0.000140102   -0.000723338   -0.000271952
      8        1          -0.000235017    0.000156433   -0.000242682
      9        1           0.000189988    0.000432048   -0.000270453
     10        1          -0.000417905   -0.000239014    0.000893688
     11        1          -0.000147331    0.000366896    0.000158809
     12        1           0.000826246   -0.000028153    0.000128493
 -------------------------------------------------------------------
 Cartesian Forces:  Max     0.001138708 RMS     0.000458248

 GradGradGradGradGradGradGradGradGradGradGradGradGradGradGradGradGradGrad
 Berny optimization.
 Using GEDIIS/GDIIS optimizer.
 FormGI is forming the generalized inverse of G from B-inverse, IUseBI=4.
 Internal  Forces:  Max     0.002057289 RMS     0.000522478
 Search for a local minimum.
 Step number   2 out of a maximum of   60
 All quantities printed in internal units (Hartrees-Bohrs-Radians)
 Mixed Optimization -- En-DIIS/RFO-DIIS
 Update second derivatives using D2CorX and points    1    2
 DE= -2.50D-03 DEPred=-2.44D-03 R= 1.03D+00
 TightC=F SS=  1.41D+00  RLast= 4.24D-01 DXNew= 5.0454D-01 1.2718D+00
 Trust test= 1.03D+00 RLast= 4.24D-01 DXMaxT set to 5.05D-01
 ITU=  1  0
 Use linear search instead of GDIIS.
     Eigenvalues ---    0.00198   0.00308   0.00436   0.03384   0.04093
     Eigenvalues ---    0.04466   0.04605   0.04667   0.05588   0.07942
     Eigenvalues ---    0.08328   0.11137   0.12199   0.14773   0.15670
     Eigenvalues ---    0.17327   0.19511   0.22861   0.24786   0.31687
     Eigenvalues ---    0.32702   0.33030   0.33440   0.33632   0.36289
     Eigenvalues ---    0.37048   0.42192   0.43688   0.43770   0.44199
 RFO step:  Lambda=-5.52373631D-04 EMin= 1.97522601D-03
 Quartic linear search produced a step of  0.33596.
 Iteration  1 RMS(Cart)=  0.07204523 RMS(Int)=  0.00385545
 Iteration  2 RMS(Cart)=  0.00404838 RMS(Int)=  0.00006000
 Iteration  3 RMS(Cart)=  0.00001926 RMS(Int)=  0.00005814
 Iteration  4 RMS(Cart)=  0.00000000 RMS(Int)=  0.00005814
 Variable       Old X    -DE/DX   Delta X   Delta X   Delta X     New X
                                 (Linear)    (Quad)   (Total)
    R1        2.77720   0.00072   0.00142  -0.00179  -0.00037   2.77683
    R2        1.92913  -0.00022  -0.00379   0.00470   0.00092   1.93005
    R3        1.92813  -0.00005   0.00003  -0.00036  -0.00033   1.92779
    R4        2.90092   0.00082  -0.00369   0.00016  -0.00353   2.89738
    R5        2.07049   0.00005   0.00058   0.00015   0.00073   2.07122
    R6        2.07730   0.00004   0.00223  -0.00125   0.00098   2.07829
    R7        2.77959   0.00062   0.00157  -0.00231  -0.00074   2.77885
    R8        2.07393   0.00006   0.00119  -0.00138  -0.00019   2.07374
    R9        2.08467   0.00013   0.00513  -0.00394   0.00119   2.08586
   R10        1.92288   0.00003  -0.00132   0.00101  -0.00030   1.92258
   R11        1.92682   0.00002  -0.00053  -0.00072  -0.00124   1.92558
    A1        1.85339   0.00098   0.00241  -0.00758  -0.00517   1.84822
    A2        1.88617  -0.00004  -0.00099   0.00257   0.00158   1.88776
    A3        1.81839  -0.00016   0.00779  -0.00092   0.00686   1.82525
    A4        2.00252   0.00206   0.01894  -0.01865   0.00023   2.00275
    A5        1.90014  -0.00087  -0.00583   0.01091   0.00513   1.90527
    A6        1.88984  -0.00042   0.00078  -0.00255  -0.00187   1.88797
    A7        1.90624  -0.00050  -0.00597   0.00803   0.00205   1.90829
    A8        1.89795  -0.00046  -0.00395   0.00318  -0.00099   1.89696
    A9        1.86208   0.00008  -0.00510   0.00014  -0.00507   1.85701
   A10        1.92137   0.00072  -0.00832   0.00227  -0.00608   1.91529
   A11        1.90595  -0.00023  -0.00179  -0.00139  -0.00331   1.90264
   A12        1.90332  -0.00033  -0.00397   0.00728   0.00338   1.90670
   A13        1.88561  -0.00015  -0.00168  -0.00225  -0.00408   1.88153
   A14        1.97879  -0.00003   0.02066  -0.01045   0.01023   1.98902
   A15        1.86698  -0.00000  -0.00510   0.00465  -0.00054   1.86644
   A16        1.91191  -0.00005   0.00309   0.00053   0.00360   1.91551
   A17        1.89774   0.00015  -0.00136   0.00578   0.00441   1.90215
   A18        1.83967  -0.00017  -0.00411   0.00911   0.00498   1.84465
    D1        0.77737   0.00024   0.00293   0.00010   0.00310   0.78047
    D2        2.91919   0.00035   0.00405   0.00585   0.00990   2.92909
    D3       -1.34591  -0.00024  -0.00475   0.01043   0.00561  -1.34030
    D4       -1.16509  -0.00002  -0.00661   0.00353  -0.00301  -1.16810
    D5        0.97673   0.00010  -0.00549   0.00928   0.00379   0.98052
    D6        2.99482  -0.00050  -0.01429   0.01386  -0.00050   2.99432
    D7       -0.91431  -0.00069  -0.03263  -0.06784  -0.10051  -1.01482
    D8        1.15313  -0.00059  -0.04094  -0.07008  -0.11101   1.04213
    D9       -3.09555  -0.00091  -0.05042  -0.06120  -0.11162   3.07602
   D10       -3.05284  -0.00062  -0.03390  -0.07509  -0.10898   3.12136
   D11       -0.98540  -0.00051  -0.04221  -0.07733  -0.11948  -1.10488
   D12        1.04910  -0.00084  -0.05169  -0.06845  -0.12009   0.92901
   D13        1.20454  -0.00018  -0.02204  -0.08142  -0.10351   1.10103
   D14       -3.01120  -0.00008  -0.03035  -0.08366  -0.11401  -3.12521
   D15       -0.97670  -0.00040  -0.03983  -0.07478  -0.11462  -1.09132
   D16        3.12001  -0.00032  -0.03023  -0.09564  -0.12582   2.99419
   D17       -1.16110  -0.00046  -0.03418  -0.08136  -0.11548  -1.27658
   D18        1.04011  -0.00036  -0.02202  -0.09391  -0.11595   0.92416
   D19        3.04219  -0.00051  -0.02598  -0.07964  -0.10562   2.93657
   D20       -1.02585  -0.00023  -0.02677  -0.09189  -0.11872  -1.14456
   D21        0.97623  -0.00038  -0.03073  -0.07761  -0.10839   0.86785
         Item               Value     Threshold  Converged?
 Maximum Force            0.002057     0.000450     NO 
 RMS     Force            0.000522     0.000300     NO 
 Maximum Displacement     0.256180     0.001800     NO 
 RMS     Displacement     0.071674     0.001200     NO 
 Predicted change in Energy=-3.739772D-04
 GradGradGradGradGradGradGradGradGradGradGradGradGradGradGradGradGradGrad

                          Input orientation:                          
 ---------------------------------------------------------------------
 Center     Atomic      Atomic             Coordinates (Angstroms)
 Number     Number       Type             X           Y           Z
 ---------------------------------------------------------------------
      1          7           0       -1.729094    0.298368   -0.135419
      2          6           0       -0.698225   -0.684510    0.225828
      3          6           0        0.703325   -0.098207    0.432455
      4          7           0        1.139203    0.589976   -0.791800
      5          1           0       -1.308331    0.895525   -0.849207
      6          1           0       -1.873466    0.915971    0.663592
      7          1           0       -1.007993   -1.213332    1.134506
      8          1           0       -0.650061   -1.440003   -0.571939
      9          1           0        0.664739    0.644605    1.239288
     10          1           0        1.387158   -0.898489    0.764531
     11          1           0        2.003240    1.096306   -0.612511
     12          1           0        1.369506   -0.106212   -1.499321
 ---------------------------------------------------------------------
                    Distance matrix (angstroms):
                    1          2          3          4          5
     1  N    0.000000
     2  C    1.469434   0.000000
     3  C    2.529113   1.533228   0.000000
     4  N    2.956856   2.456832   1.470505   0.000000
     5  H    1.021338   2.006101   2.583974   2.467200   0.000000
     6  H    1.020144   2.033314   2.778819   3.361638   1.615041
     7  H    2.101888   1.096040   2.159858   3.401915   2.910773
     8  H    2.092079   1.099783   2.154269   2.714888   2.442312
     9  H    2.782110   2.156692   1.097378   2.086484   2.884056
    10  H    3.457369   2.164443   1.103790   2.167759   3.617776
    11  H    3.846380   3.342459   2.051486   1.017387   3.326085
    12  H    3.409580   2.754284   2.043433   1.018972   2.932053
                    6          7          8          9         10
     6  H    0.000000
     7  H    2.346217   0.000000
     8  H    2.928117   1.758252   0.000000
     9  H    2.616783   2.502187   3.058567   0.000000
    10  H    3.732844   2.443923   2.495927   1.768734   0.000000
    11  H    4.085316   4.177801   3.670765   2.329115   2.501001
    12  H    4.029878   3.716889   2.591850   2.925816   2.398550
                   11         12
    11  H    0.000000
    12  H    1.622991   0.000000
 Stoichiometry    C2H8N2
 Framework group  C1[X(C2H8N2)]
 Deg. of freedom    30
 Full point group                 C1      NOp   1
 Largest Abelian subgroup         C1      NOp   1
 Largest concise Abelian subgroup C1      NOp   1
                         Standard orientation:                         
 ---------------------------------------------------------------------
 Center     Atomic      Atomic             Coordinates (Angstroms)
 Number     Number       Type             X           Y           Z
 ---------------------------------------------------------------------
      1          7           0       -1.538977   -0.584655   -0.058137
      2          6           0       -0.728263    0.585589    0.305881
      3          6           0        0.678992    0.605874   -0.302402
      4          7           0        1.413354   -0.601402    0.104516
      5          1           0       -0.922434   -1.393132    0.038672
      6          1           0       -1.740567   -0.533583   -1.056860
      7          1           0       -1.262303    1.497639    0.015585
      8          1           0       -0.638939    0.613544    1.401673
      9          1           0        0.595713    0.595111   -1.396563
     10          1           0        1.180686    1.549797   -0.027329
     11          1           0        2.290813   -0.658899   -0.407183
     12          1           0        1.672019   -0.516859    1.086477
 ---------------------------------------------------------------------
 Rotational constants (GHZ):          14.2141297           5.1750732           4.3741361
 Standard basis: 6-31G(d,p) (6D, 7F)
 There are   100 symmetry adapted cartesian basis functions of A   symmetry.
 There are   100 symmetry adapted basis functions of A   symmetry.
   100 basis functions,   168 primitive gaussians,   100 cartesian basis functions
    17 alpha electrons       17 beta electrons
       nuclear repulsion energy       134.0879030528 Hartrees.
 NAtoms=   12 NActive=   12 NUniq=   12 SFac= 1.00D+00 NAtFMM=   60 NAOKFM=F Big=F
 Integral buffers will be    131072 words long.
 Raffenetti 2 integral format.
 Two-electron integral symmetry is turned on.
 ------------------------------------------------------------------------------
 Polarizable Continuum Model (PCM)
 =================================
 Model                : PCM.
 Atomic radii         : UFF (Universal Force Field).
 Polarization charges : Total charges.
 Charge compensation  : None.
 Solution method      : Matrix inversion.
 Cavity type          : Scaled VdW (van der Waals Surface) (Alpha=1.100).
 Cavity algorithm     : GePol (No added spheres)
                        Default sphere list used, NSphG=   12.
                        Lebedev-Laikov grids with approx.  5.0 points / Ang**2.
                        Smoothing algorithm: York/Karplus (Gamma=1.0000).
                        Polarization charges: spherical gaussians, with
                                              point-specific exponents (IZeta= 3).
                        Self-potential: point-specific (ISelfS= 7).
                        Self-field    : sphere-specific E.n sum rule (ISelfD= 2).
 1st derivatives      : Analytical E(r).r(x)/FMM algorithm (CHGder, D1EAlg=3).
                        Cavity 1st derivative terms included.
 Solvent              : Water, Eps=  78.355300 Eps(inf)=   1.777849
 ------------------------------------------------------------------------------
 Spheres list:
 ISph  on   Nord     Re0    Alpha      Xe            Ye            Ze
    1   N      1    1.8300  1.100     -1.538977     -0.584655     -0.058137
    2   C      2    1.9255  1.100     -0.728263      0.585589      0.305881
    3   C      3    1.9255  1.100      0.678992      0.605874     -0.302402
    4   N      4    1.8300  1.100      1.413354     -0.601402      0.104516
    5   H      5    1.4430  1.100     -0.922434     -1.393132      0.038672
    6   H      6    1.4430  1.100     -1.740567     -0.533583     -1.056860
    7   H      7    1.4430  1.100     -1.262303      1.497639      0.015585
    8   H      8    1.4430  1.100     -0.638939      0.613544      1.401673
    9   H      9    1.4430  1.100      0.595713      0.595111     -1.396563
   10   H     10    1.4430  1.100      1.180686      1.549797     -0.027329
   11   H     11    1.4430  1.100      2.290813     -0.658899     -0.407183
   12   H     12    1.4430  1.100      1.672019     -0.516859      1.086477
 ------------------------------------------------------------------------------
 One-electron integrals computed using PRISM.
 NBasis=   100 RedAO= T EigKep=  5.06D-03  NBF=   100
 NBsUse=   100 1.00D-06 EigRej= -1.00D+00 NBFU=   100
 Initial guess from the checkpoint file:  "PIICEJLVQHRZGT-UHFFFAOYSA-N_conf_0_0.chk"
 B after Tr=    -0.000000   -0.000000    0.000000
         Rot=    0.999940    0.008161   -0.007240    0.000068 Ang=   1.25 deg.
 ExpMin= 1.61D-01 ExpMax= 4.17D+03 ExpMxC= 6.27D+02 IAcc=2 IRadAn=         4 AccDes= 0.00D+00
 Harris functional with IExCor=  402 and IRadAn=       4 diagonalized for initial guess.
 HarFok:  IExCor=  402 AccDes= 0.00D+00 IRadAn=         4 IDoV= 1 UseB2=F ITyADJ=14
 ICtDFT=  3500011 ScaDFX=  1.000000  1.000000  1.000000  1.000000
 FoFCou: FMM=F IPFlag=           0 FMFlag=      100000 FMFlg1=           0
         NFxFlg=           0 DoJE=T BraDBF=F KetDBF=T FulRan=T
         wScrn=  0.000000 ICntrl=       500 IOpCl=  0 I1Cent=   200000004 NGrid=           0
         NMat0=    1 NMatS0=      1 NMatT0=    0 NMatD0=    1 NMtDS0=    0 NMtDT0=    0
 Petite list used in FoFCou.
 Keep R1 ints in memory in canonical form, NReq=14605525.
 Requested convergence on RMS density matrix=1.00D-08 within  32 cycles.
 Requested convergence on MAX density matrix=1.00D-06.
 Requested convergence on             energy=1.00D-06.
 No special actions if energy rises.
 Inv3:  Mode=1 IEnd=     2764800.
 Iteration    1 A*A^-1 deviation from unit magnitude is 5.33D-15 for    229.
 Iteration    1 A*A^-1 deviation from orthogonality  is 3.00D-15 for    848    561.
 Iteration    1 A^-1*A deviation from unit magnitude is 5.11D-15 for    229.
 Iteration    1 A^-1*A deviation from orthogonality  is 1.81D-15 for    678    268.
 Error on total polarization charges =  0.00630
 SCF Done:  E(RB3LYP) =  -190.537755219     A.U. after    9 cycles
            NFock=  9  Conv=0.62D-08     -V/T= 2.0097
 QCSCF skips out because SCF is already converged.
 D1PCM: PCM CHGder 1st derivatives, ID1Alg=3 FixD1E=F DoIter=F DoCFld=F I1PDM=0.
 Calling FoFJK, ICntrl=      2127 FMM=F ISym2X=0 I1Cent= 0 IOpClX= 0 NMat=1 NMatS=1 NMatT=0.
 ***** Axes restored to original set *****
 -------------------------------------------------------------------
 Center     Atomic                   Forces (Hartrees/Bohr)
 Number     Number              X              Y              Z
 -------------------------------------------------------------------
      1        7           0.000284744   -0.000056091   -0.000223523
      2        6          -0.000298962   -0.000477847    0.000293204
      3        6           0.000161315   -0.000068718    0.000246862
      4        7           0.000407563    0.000030233   -0.000225847
      5        1          -0.000901860    0.000081338    0.000115907
      6        1           0.000068362    0.000075039   -0.000110070
      7        1          -0.000333973    0.000101375   -0.000008657
      8        1           0.000053551    0.000145044    0.000090988
      9        1           0.000065909   -0.000138811    0.000161214
     10        1           0.000050295    0.000278889   -0.000209783
     11        1           0.000072699   -0.000182541   -0.000094727
     12        1           0.000370357    0.000212090   -0.000035569
 -------------------------------------------------------------------
 Cartesian Forces:  Max     0.000901860 RMS     0.000250688

 GradGradGradGradGradGradGradGradGradGradGradGradGradGradGradGradGradGrad
 Berny optimization.
 Using GEDIIS/GDIIS optimizer.
 FormGI is forming the generalized inverse of G from B-inverse, IUseBI=4.
 Internal  Forces:  Max     0.001406934 RMS     0.000431525
 Search for a local minimum.
 Step number   3 out of a maximum of   60
 All quantities printed in internal units (Hartrees-Bohrs-Radians)
 Mixed Optimization -- En-DIIS/RFO-DIIS
 Swapping is turned off.
 Update second derivatives using D2CorX and points    2    3
 DE= -4.03D-04 DEPred=-3.74D-04 R= 1.08D+00
 TightC=F SS=  1.41D+00  RLast= 4.39D-01 DXNew= 8.4853D-01 1.3162D+00
 Trust test= 1.08D+00 RLast= 4.39D-01 DXMaxT set to 8.49D-01
 ITU=  1  1  0
     Eigenvalues ---    0.00204   0.00274   0.00480   0.03371   0.04046
     Eigenvalues ---    0.04452   0.04600   0.04668   0.05570   0.07949
     Eigenvalues ---    0.08320   0.11077   0.12196   0.14756   0.15621
     Eigenvalues ---    0.17380   0.19418   0.22813   0.24734   0.31625
     Eigenvalues ---    0.32715   0.32969   0.33262   0.33630   0.36233
     Eigenvalues ---    0.36743   0.42187   0.43686   0.43768   0.44198
 En-DIIS/RFO-DIIS/Sim-DIIS IScMMF=       -3 using points:     3    2
 RFO step:  Lambda=-7.97750843D-05.
 DidBck=F Rises=F RFO-DIIS coefs:    1.04177   -0.04177
 Iteration  1 RMS(Cart)=  0.01810912 RMS(Int)=  0.00043138
 Iteration  2 RMS(Cart)=  0.00043553 RMS(Int)=  0.00000718
 Iteration  3 RMS(Cart)=  0.00000019 RMS(Int)=  0.00000718
 Variable       Old X    -DE/DX   Delta X   Delta X   Delta X     New X
                                 (Linear)    (Quad)   (Total)
    R1        2.77683   0.00050  -0.00002  -0.00071  -0.00073   2.77610
    R2        1.93005  -0.00041   0.00004  -0.00219  -0.00215   1.92790
    R3        1.92779  -0.00004  -0.00001  -0.00014  -0.00016   1.92764
    R4        2.89738   0.00105  -0.00015   0.00206   0.00191   2.89929
    R5        2.07122   0.00004   0.00003   0.00037   0.00040   2.07162
    R6        2.07829  -0.00016   0.00004  -0.00083  -0.00079   2.07750
    R7        2.77885   0.00059  -0.00003   0.00178   0.00175   2.78061
    R8        2.07374   0.00002  -0.00001   0.00020   0.00019   2.07394
    R9        2.08586  -0.00023   0.00005  -0.00020  -0.00015   2.08571
   R10        1.92258  -0.00005  -0.00001   0.00020   0.00019   1.92277
   R11        1.92558  -0.00003  -0.00005   0.00005  -0.00000   1.92558
    A1        1.84822   0.00141  -0.00022   0.01186   0.01163   1.85985
    A2        1.88776  -0.00006   0.00007   0.00100   0.00106   1.88881
    A3        1.82525  -0.00035   0.00029   0.00001   0.00026   1.82551
    A4        2.00275   0.00124   0.00001   0.00755   0.00756   2.01030
    A5        1.90527  -0.00068   0.00021  -0.00560  -0.00539   1.89988
    A6        1.88797  -0.00029  -0.00008  -0.00202  -0.00211   1.88586
    A7        1.90829  -0.00017   0.00009  -0.00115  -0.00106   1.90723
    A8        1.89696  -0.00034  -0.00004   0.00031   0.00027   1.89722
    A9        1.85701   0.00018  -0.00021   0.00049   0.00027   1.85728
   A10        1.91529   0.00122  -0.00025   0.00620   0.00594   1.92123
   A11        1.90264  -0.00036  -0.00014  -0.00050  -0.00064   1.90200
   A12        1.90670  -0.00018   0.00014  -0.00237  -0.00223   1.90446
   A13        1.88153  -0.00016  -0.00017   0.00043   0.00026   1.88178
   A14        1.98902  -0.00066   0.00043  -0.00145  -0.00102   1.98800
   A15        1.86644   0.00010  -0.00002  -0.00250  -0.00253   1.86391
   A16        1.91551  -0.00006   0.00015  -0.00365  -0.00350   1.91201
   A17        1.90215   0.00038   0.00018   0.00075   0.00093   1.90308
   A18        1.84465  -0.00029   0.00021  -0.00495  -0.00475   1.83989
    D1        0.78047   0.00022   0.00013   0.05093   0.05107   0.83154
    D2        2.92909   0.00035   0.00041   0.05046   0.05088   2.97997
    D3       -1.34030   0.00004   0.00023   0.04699   0.04724  -1.29305
    D4       -1.16810  -0.00001  -0.00013   0.04496   0.04483  -1.12327
    D5        0.98052   0.00012   0.00016   0.04450   0.04464   1.02516
    D6        2.99432  -0.00018  -0.00002   0.04102   0.04100   3.03532
    D7       -1.01482  -0.00027  -0.00420  -0.00275  -0.00695  -1.02177
    D8        1.04213   0.00004  -0.00464   0.00107  -0.00357   1.03856
    D9        3.07602  -0.00015  -0.00466  -0.00353  -0.00820   3.06782
   D10        3.12136  -0.00013  -0.00455   0.00009  -0.00446   3.11690
   D11       -1.10488   0.00017  -0.00499   0.00391  -0.00108  -1.10596
   D12        0.92901  -0.00001  -0.00502  -0.00069  -0.00571   0.92330
   D13        1.10103  -0.00007  -0.00432  -0.00004  -0.00436   1.09667
   D14       -3.12521   0.00024  -0.00476   0.00379  -0.00097  -3.12618
   D15       -1.09132   0.00006  -0.00479  -0.00082  -0.00560  -1.09692
   D16        2.99419   0.00003  -0.00526   0.00498  -0.00027   2.99392
   D17       -1.27658  -0.00014  -0.00482  -0.00253  -0.00735  -1.28393
   D18        0.92416  -0.00013  -0.00484   0.00185  -0.00300   0.92116
   D19        2.93657  -0.00030  -0.00441  -0.00567  -0.01008   2.92649
   D20       -1.14456   0.00025  -0.00496   0.00557   0.00061  -1.14396
   D21        0.86785   0.00008  -0.00453  -0.00195  -0.00647   0.86138
         Item               Value     Threshold  Converged?
 Maximum Force            0.001407     0.000450     NO 
 RMS     Force            0.000432     0.000300     NO 
 Maximum Displacement     0.085396     0.001800     NO 
 RMS     Displacement     0.018173     0.001200     NO 
 Predicted change in Energy=-4.044594D-05
 GradGradGradGradGradGradGradGradGradGradGradGradGradGradGradGradGradGrad

                          Input orientation:                          
 ---------------------------------------------------------------------
 Center     Atomic      Atomic             Coordinates (Angstroms)
 Number     Number       Type             X           Y           Z
 ---------------------------------------------------------------------
      1          7           0       -1.738157    0.295436   -0.123089
      2          6           0       -0.699085   -0.682548    0.226174
      3          6           0        0.704732   -0.098444    0.431131
      4          7           0        1.147288    0.593225   -0.789874
      5          1           0       -1.353521    0.874165   -0.870041
      6          1           0       -1.852472    0.934173    0.663978
      7          1           0       -1.005209   -1.215859    1.133719
      8          1           0       -0.654841   -1.433551   -0.575477
      9          1           0        0.668884    0.640727    1.241566
     10          1           0        1.385677   -0.901605    0.761931
     11          1           0        2.012468    1.094835   -0.602450
     12          1           0        1.384235   -0.100552   -1.497568
 ---------------------------------------------------------------------
                    Distance matrix (angstroms):
                    1          2          3          4          5
     1  N    0.000000
     2  C    1.469050   0.000000
     3  C    2.535746   1.534238   0.000000
     4  N    2.976419   2.463543   1.471433   0.000000
     5  H    1.020201   2.013288   2.622103   2.517816   0.000000
     6  H    1.020062   2.033657   2.767636   3.350893   1.614239
     7  H    2.097806   1.096253   2.160126   3.406793   2.916260
     8  H    2.089886   1.099366   2.155043   2.720561   2.429089
     9  H    2.788433   2.157178   1.097481   2.087552   2.933173
    10  H    3.460420   2.163620   1.103712   2.167820   3.649643
    11  H    3.864714   3.346375   2.049971   1.017486   3.383812
    12  H    3.434433   2.765904   2.044898   1.018971   2.973074
                    6          7          8          9         10
     6  H    0.000000
     7  H    2.358208   0.000000
     8  H    2.928598   1.758266   0.000000
     9  H    2.603258   2.502225   3.058843   0.000000
    10  H    3.723611   2.439942   2.497066   1.767096   0.000000
    11  H    4.070309   4.178512   3.675323   2.326333   2.498034
    12  H    4.027308   3.725188   2.604797   2.926444   2.397294
                   11         12
    11  H    0.000000
    12  H    1.620143   0.000000
 Stoichiometry    C2H8N2
 Framework group  C1[X(C2H8N2)]
 Deg. of freedom    30
 Full point group                 C1      NOp   1
 Largest Abelian subgroup         C1      NOp   1
 Largest concise Abelian subgroup C1      NOp   1
                         Standard orientation:                         
 ---------------------------------------------------------------------
 Center     Atomic      Atomic             Coordinates (Angstroms)
 Number     Number       Type             X           Y           Z
 ---------------------------------------------------------------------
      1          7           0       -1.550365   -0.576563   -0.062648
      2          6           0       -0.727991    0.583542    0.306088
      3          6           0        0.681496    0.603551   -0.299581
      4          7           0        1.421341   -0.603068    0.102683
      5          1           0       -0.966192   -1.401934    0.072685
      6          1           0       -1.717699   -0.542196   -1.068304
      7          1           0       -1.258179    1.499180    0.019248
      8          1           0       -0.641183    0.605122    1.401809
      9          1           0        0.599756    0.598103   -1.393999
     10          1           0        1.180934    1.547782   -0.021786
     11          1           0        2.297801   -0.652376   -0.411771
     12          1           0        1.686900   -0.518821    1.082827
 ---------------------------------------------------------------------
 Rotational constants (GHZ):          14.2717315           5.1262177           4.3447368
 Standard basis: 6-31G(d,p) (6D, 7F)
 There are   100 symmetry adapted cartesian basis functions of A   symmetry.
 There are   100 symmetry adapted basis functions of A   symmetry.
   100 basis functions,   168 primitive gaussians,   100 cartesian basis functions
    17 alpha electrons       17 beta electrons
       nuclear repulsion energy       133.8970206308 Hartrees.
 NAtoms=   12 NActive=   12 NUniq=   12 SFac= 1.00D+00 NAtFMM=   60 NAOKFM=F Big=F
 Integral buffers will be    131072 words long.
 Raffenetti 2 integral format.
 Two-electron integral symmetry is turned on.
 ------------------------------------------------------------------------------
 Polarizable Continuum Model (PCM)
 =================================
 Model                : PCM.
 Atomic radii         : UFF (Universal Force Field).
 Polarization charges : Total charges.
 Charge compensation  : None.
 Solution method      : Matrix inversion.
 Cavity type          : Scaled VdW (van der Waals Surface) (Alpha=1.100).
 Cavity algorithm     : GePol (No added spheres)
                        Default sphere list used, NSphG=   12.
                        Lebedev-Laikov grids with approx.  5.0 points / Ang**2.
                        Smoothing algorithm: York/Karplus (Gamma=1.0000).
                        Polarization charges: spherical gaussians, with
                                              point-specific exponents (IZeta= 3).
                        Self-potential: point-specific (ISelfS= 7).
                        Self-field    : sphere-specific E.n sum rule (ISelfD= 2).
 1st derivatives      : Analytical E(r).r(x)/FMM algorithm (CHGder, D1EAlg=3).
                        Cavity 1st derivative terms included.
 Solvent              : Water, Eps=  78.355300 Eps(inf)=   1.777849
 ------------------------------------------------------------------------------
 Spheres list:
 ISph  on   Nord     Re0    Alpha      Xe            Ye            Ze
    1   N      1    1.8300  1.100     -1.550365     -0.576563     -0.062648
    2   C      2    1.9255  1.100     -0.727991      0.583542      0.306088
    3   C      3    1.9255  1.100      0.681496      0.603551     -0.299581
    4   N      4    1.8300  1.100      1.421341     -0.603068      0.102683
    5   H      5    1.4430  1.100     -0.966192     -1.401934      0.072685
    6   H      6    1.4430  1.100     -1.717699     -0.542196     -1.068304
    7   H      7    1.4430  1.100     -1.258179      1.499180      0.019248
    8   H      8    1.4430  1.100     -0.641183      0.605122      1.401809
    9   H      9    1.4430  1.100      0.599756      0.598103     -1.393999
   10   H     10    1.4430  1.100      1.180934      1.547782     -0.021786
   11   H     11    1.4430  1.100      2.297801     -0.652376     -0.411771
   12   H     12    1.4430  1.100      1.686900     -0.518821      1.082827
 ------------------------------------------------------------------------------
 One-electron integrals computed using PRISM.
 NBasis=   100 RedAO= T EigKep=  5.08D-03  NBF=   100
 NBsUse=   100 1.00D-06 EigRej= -1.00D+00 NBFU=   100
 Initial guess from the checkpoint file:  "PIICEJLVQHRZGT-UHFFFAOYSA-N_conf_0_0.chk"
 B after Tr=    -0.000000    0.000000    0.000000
         Rot=    0.999999   -0.000648    0.000260    0.000956 Ang=  -0.14 deg.
 ExpMin= 1.61D-01 ExpMax= 4.17D+03 ExpMxC= 6.27D+02 IAcc=2 IRadAn=         4 AccDes= 0.00D+00
 Harris functional with IExCor=  402 and IRadAn=       4 diagonalized for initial guess.
 HarFok:  IExCor=  402 AccDes= 0.00D+00 IRadAn=         4 IDoV= 1 UseB2=F ITyADJ=14
 ICtDFT=  3500011 ScaDFX=  1.000000  1.000000  1.000000  1.000000
 FoFCou: FMM=F IPFlag=           0 FMFlag=      100000 FMFlg1=           0
         NFxFlg=           0 DoJE=T BraDBF=F KetDBF=T FulRan=T
         wScrn=  0.000000 ICntrl=       500 IOpCl=  0 I1Cent=   200000004 NGrid=           0
         NMat0=    1 NMatS0=      1 NMatT0=    0 NMatD0=    1 NMtDS0=    0 NMtDT0=    0
 Petite list used in FoFCou.
 Keep R1 ints in memory in canonical form, NReq=14605525.
 Requested convergence on RMS density matrix=1.00D-08 within  32 cycles.
 Requested convergence on MAX density matrix=1.00D-06.
 Requested convergence on             energy=1.00D-06.
 No special actions if energy rises.
 Inv3:  Mode=1 IEnd=     2787888.
 Iteration    1 A*A^-1 deviation from unit magnitude is 5.33D-15 for    522.
 Iteration    1 A*A^-1 deviation from orthogonality  is 2.68D-15 for    958     33.
 Iteration    1 A^-1*A deviation from unit magnitude is 5.11D-15 for    522.
 Iteration    1 A^-1*A deviation from orthogonality  is 2.42D-15 for    964    430.
 Error on total polarization charges =  0.00629
 SCF Done:  E(RB3LYP) =  -190.537790661     A.U. after    8 cycles
            NFock=  8  Conv=0.55D-08     -V/T= 2.0097
 QCSCF skips out because SCF is already converged.
 D1PCM: PCM CHGder 1st derivatives, ID1Alg=3 FixD1E=F DoIter=F DoCFld=F I1PDM=0.
 Calling FoFJK, ICntrl=      2127 FMM=F ISym2X=0 I1Cent= 0 IOpClX= 0 NMat=1 NMatS=1 NMatT=0.
 ***** Axes restored to original set *****
 -------------------------------------------------------------------
 Center     Atomic                   Forces (Hartrees/Bohr)
 Number     Number              X              Y              Z
 -------------------------------------------------------------------
      1        7          -0.000125762   -0.000256216   -0.000002077
      2        6          -0.000134163   -0.000101756   -0.000052353
      3        6          -0.000115727    0.000096514    0.000089629
      4        7           0.000268525   -0.000164593    0.000094846
      5        1           0.000026690    0.000236269    0.000061134
      6        1          -0.000042519    0.000053266   -0.000035415
      7        1           0.000036972    0.000046624    0.000040650
      8        1           0.000018926   -0.000017482    0.000046254
      9        1          -0.000008597   -0.000014044    0.000010149
     10        1           0.000049716    0.000138363   -0.000235216
     11        1           0.000011159    0.000044420   -0.000005832
     12        1           0.000014779   -0.000061365   -0.000011769
 -------------------------------------------------------------------
 Cartesian Forces:  Max     0.000268525 RMS     0.000106619

 GradGradGradGradGradGradGradGradGradGradGradGradGradGradGradGradGradGrad
 Berny optimization.
 Using GEDIIS/GDIIS optimizer.
 FormGI is forming the generalized inverse of G from B-inverse, IUseBI=4.
 Internal  Forces:  Max     0.000346692 RMS     0.000108152
 Search for a local minimum.
 Step number   4 out of a maximum of   60
 All quantities printed in internal units (Hartrees-Bohrs-Radians)
 Mixed Optimization -- En-DIIS/RFO-DIIS
 Swapping is turned off.
 Update second derivatives using D2CorX and points    2    3    4
 DE= -3.54D-05 DEPred=-4.04D-05 R= 8.76D-01
 TightC=F SS=  1.41D+00  RLast= 1.18D-01 DXNew= 1.4270D+00 3.5341D-01
 Trust test= 8.76D-01 RLast= 1.18D-01 DXMaxT set to 8.49D-01
 ITU=  1  1  1  0
     Eigenvalues ---    0.00225   0.00306   0.00502   0.03353   0.04064
     Eigenvalues ---    0.04474   0.04596   0.04672   0.05484   0.07941
     Eigenvalues ---    0.08350   0.11194   0.12215   0.14598   0.15026
     Eigenvalues ---    0.17127   0.18933   0.22653   0.24783   0.30349
     Eigenvalues ---    0.32038   0.32779   0.33117   0.33631   0.36121
     Eigenvalues ---    0.36452   0.42241   0.43684   0.43766   0.44198
 En-DIIS/RFO-DIIS/Sim-DIIS IScMMF=       -3 using points:     4    3    2
 RFO step:  Lambda=-8.61381895D-06.
 DidBck=T Rises=F RFO-DIIS coefs:    0.70382    0.33779   -0.04161
 Iteration  1 RMS(Cart)=  0.00594262 RMS(Int)=  0.00003454
 Iteration  2 RMS(Cart)=  0.00003321 RMS(Int)=  0.00000212
 Iteration  3 RMS(Cart)=  0.00000000 RMS(Int)=  0.00000212
 Variable       Old X    -DE/DX   Delta X   Delta X   Delta X     New X
                                 (Linear)    (Quad)   (Total)
    R1        2.77610   0.00012   0.00020   0.00005   0.00025   2.77635
    R2        1.92790   0.00010   0.00067  -0.00030   0.00038   1.92828
    R3        1.92764   0.00002   0.00003  -0.00004  -0.00000   1.92763
    R4        2.89929   0.00020  -0.00071   0.00124   0.00052   2.89981
    R5        2.07162   0.00000  -0.00009   0.00004  -0.00005   2.07156
    R6        2.07750  -0.00002   0.00027  -0.00032  -0.00005   2.07745
[...]
      17 -> 19         0.24458
 
 Excited State   3:      Singlet-A      8.3690 eV  148.15 nm  f=0.0334  <S**2>=0.000
      16 -> 18        -0.21504
      17 -> 18        -0.12038
      17 -> 19         0.64918
 
 Excited State   4:      Singlet-A      8.6606 eV  143.16 nm  f=0.0286  <S**2>=0.000
      16 -> 19         0.65964
      17 -> 18        -0.10648
      17 -> 21        -0.17007
 
 Excited State   5:      Singlet-A      8.8823 eV  139.59 nm  f=0.0294  <S**2>=0.000
      16 -> 19         0.16805
      17 -> 21         0.66642
 
 Excited State   6:      Singlet-A      8.9262 eV  138.90 nm  f=0.0639  <S**2>=0.000
      16 -> 20        -0.19397
      16 -> 21         0.13171
      17 -> 20         0.65264
 
 Excited State   7:      Singlet-A      9.2008 eV  134.75 nm  f=0.0449  <S**2>=0.000
      16 -> 20        -0.40263
      16 -> 21         0.49812
      17 -> 20        -0.23732
      17 -> 23         0.11898
 
 Excited State   8:      Singlet-A      9.2505 eV  134.03 nm  f=0.0402  <S**2>=0.000
      16 -> 20         0.51286
      16 -> 21         0.44791
      17 -> 21        -0.10023
      17 -> 22        -0.12367
 
 Excited State   9:      Singlet-A      9.8754 eV  125.55 nm  f=0.0242  <S**2>=0.000
      16 -> 21         0.10957
      17 -> 22         0.48549
      17 -> 23        -0.48145
 
 Excited State  10:      Singlet-A      9.9767 eV  124.27 nm  f=0.0651  <S**2>=0.000
      16 -> 20         0.13328
      17 -> 22         0.47482
      17 -> 23         0.47566
 SavETr:  write IOETrn=   770 NScale= 10 NData=  16 NLR=1 NState=   10 LETran=     190.
 NEqPCM:  Using equilibrium solvation (IEInf=0, Eps=  78.3553, EpsInf=   1.7778)
          Differentiating once with respect to electric field.
                with respect to dipole field.
          Electric field/nuclear overlap derivatives assumed to be zero.
 Keep R1 ints in memory in canonical form, NReq=16316535.
          There are     1 degrees of freedom in the 1st order CPHF.  IDoFFX=0 NUNeed=     1.
 LinEq1:  Iter=  0 NonCon=     1 RMS=1.57D-02 Max=1.22D-01 NDo=     1
 AX will form     1 AO Fock derivatives at one time.
 LinEq1:  Iter=  1 NonCon=     1 RMS=4.79D-03 Max=6.19D-02 NDo=     1
 LinEq1:  Iter=  2 NonCon=     1 RMS=1.79D-03 Max=1.61D-02 NDo=     1
 LinEq1:  Iter=  3 NonCon=     1 RMS=8.90D-04 Max=1.02D-02 NDo=     1
 LinEq1:  Iter=  4 NonCon=     1 RMS=1.59D-04 Max=1.91D-03 NDo=     1
 LinEq1:  Iter=  5 NonCon=     1 RMS=2.95D-05 Max=2.39D-04 NDo=     1
 LinEq1:  Iter=  6 NonCon=     1 RMS=1.60D-05 Max=1.39D-04 NDo=     1
 LinEq1:  Iter=  7 NonCon=     1 RMS=4.76D-06 Max=3.76D-05 NDo=     1
 LinEq1:  Iter=  8 NonCon=     1 RMS=1.87D-06 Max=1.92D-05 NDo=     1
 LinEq1:  Iter=  9 NonCon=     1 RMS=8.40D-07 Max=6.22D-06 NDo=     1
 LinEq1:  Iter= 10 NonCon=     1 RMS=1.41D-07 Max=1.08D-06 NDo=     1
 LinEq1:  Iter= 11 NonCon=     1 RMS=2.78D-08 Max=2.25D-07 NDo=     1
 LinEq1:  Iter= 12 NonCon=     1 RMS=4.78D-09 Max=2.91D-08 NDo=     1
 LinEq1:  Iter= 13 NonCon=     1 RMS=7.34D-10 Max=5.14D-09 NDo=     1
 LinEq1:  Iter= 14 NonCon=     1 RMS=1.46D-10 Max=1.32D-09 NDo=     1
 LinEq1:  Iter= 15 NonCon=     0 RMS=2.06D-11 Max=1.58D-10 NDo=     1
 Linear equations converged to 1.000D-10 1.000D-09 after    15 iterations.
 End of Minotr F.D. properties file   721 does not exist.
 End of Minotr F.D. properties file   722 does not exist.
 End of Minotr F.D. properties file   788 does not exist.

 **********************************************************************

            Population analysis using the CI density.

 **********************************************************************

 Orbital symmetries:
       Occupied  (A) (A) (A) (A) (A) (A) (A) (A) (A) (A) (A) (A)
                 (A) (A) (A) (A) (A)
       Virtual   (A) (A) (A) (A) (A) (A) (A) (A) (A) (A) (A) (A)
                 (A) (A) (A) (A) (A) (A) (A) (A) (A) (A) (A) (A)
                 (A) (A) (A) (A) (A) (A) (A) (A) (A) (A) (A) (A)
                 (A) (A) (A) (A) (A) (A) (A) (A) (A) (A) (A) (A)
                 (A) (A) (A) (A) (A) (A) (A) (A) (A) (A) (A) (A)
                 (A) (A) (A) (A) (A) (A) (A) (A) (A) (A) (A) (A)
                 (A) (A) (A) (A) (A) (A) (A) (A) (A) (A) (A)
 The electronic state is 1-A.
 Alpha  occ. eigenvalues --  -14.31188 -14.30483 -10.20063 -10.19965  -0.88814
 Alpha  occ. eigenvalues --   -0.85344  -0.69630  -0.59189  -0.49684  -0.46960
 Alpha  occ. eigenvalues --   -0.44296  -0.40851  -0.39848  -0.35493  -0.33918
 Alpha  occ. eigenvalues --   -0.24397  -0.23203
 Alpha virt. eigenvalues --    0.08233   0.11645   0.13741   0.13887   0.17333
 Alpha virt. eigenvalues --    0.17595   0.18505   0.20766   0.23816   0.24255
 Alpha virt. eigenvalues --    0.28029   0.54367   0.54630   0.56938   0.59264
 Alpha virt. eigenvalues --    0.63247   0.66446   0.72574   0.73038   0.75551
 Alpha virt. eigenvalues --    0.78246   0.81345   0.86114   0.87371   0.88044
 Alpha virt. eigenvalues --    0.89093   0.90792   0.92828   0.94548   0.97172
 Alpha virt. eigenvalues --    1.00050   1.06309   1.25882   1.31845   1.34668
 Alpha virt. eigenvalues --    1.44191   1.51630   1.54929   1.60162   1.70584
 Alpha virt. eigenvalues --    1.76770   1.83146   1.85914   1.92765   1.95776
 Alpha virt. eigenvalues --    1.98497   2.06190   2.08655   2.12147   2.13983
 Alpha virt. eigenvalues --    2.23907   2.24874   2.28247   2.29604   2.31330
 Alpha virt. eigenvalues --    2.33190   2.39761   2.43582   2.45711   2.48974
 Alpha virt. eigenvalues --    2.57254   2.63595   2.67897   2.71817   2.77724
 Alpha virt. eigenvalues --    2.81942   2.86893   2.93675   2.95574   2.96726
 Alpha virt. eigenvalues --    2.97892   3.22308   3.28788   3.31104   3.34713
 Alpha virt. eigenvalues --    3.37906   3.47343   3.52449   3.59564   3.96219
 Alpha virt. eigenvalues --    4.01968   4.43867   4.62009
          Condensed to atoms (all electrons):
               1          2          3          4          5          6
     1  N    7.410876   0.284623   0.004030  -0.000373   0.008845  -0.038921
     2  C    0.284623   5.198948   0.359616  -0.055697  -0.035476  -0.024241
     3  C    0.004030   0.359616   5.538837   0.327107  -0.020723  -0.037815
     4  N   -0.000373  -0.055697   0.327107   8.171205  -0.025292  -0.004818
     5  H    0.008845  -0.035476  -0.020723  -0.025292   0.692327   0.094340
     6  H   -0.038921  -0.024241  -0.037815  -0.004818   0.094340   0.746493
     7  H   -0.094134   0.200453  -0.121498  -0.002116   0.024250   0.040491
     8  H   -0.084019   0.229425  -0.066049  -0.032849   0.027821   0.021515
     9  H   -0.049002  -0.030986   0.047241  -0.145959   0.021240   0.041534
    10  H   -0.004862  -0.066972   0.147737  -0.129111   0.004515   0.003653
    11  H   -0.007064   0.009678  -0.092765  -0.460016   0.013325   0.002988
    12  H   -0.013411  -0.018461  -0.024243  -0.402340   0.025789   0.003086
               7          8          9         10         11         12
     1  N   -0.094134  -0.084019  -0.049002  -0.004862  -0.007064  -0.013411
     2  C    0.200453   0.229425  -0.030986  -0.066972   0.009678  -0.018461
     3  C   -0.121498  -0.066049   0.047241   0.147737  -0.092765  -0.024243
     4  N   -0.002116  -0.032849  -0.145959  -0.129111  -0.460016  -0.402340
     5  H    0.024250   0.027821   0.021240   0.004515   0.013325   0.025789
     6  H    0.040491   0.021515   0.041534   0.003653   0.002988   0.003086
     7  H    0.776496   0.030339   0.033652   0.030910   0.001922   0.005303
     8  H    0.030339   0.702000   0.017783   0.020498   0.005571   0.039959
     9  H    0.033652   0.017783   0.834536   0.058429   0.080432   0.036961
    10  H    0.030910   0.020498   0.058429   0.694662   0.056683   0.055799
    11  H    0.001922   0.005571   0.080432   0.056683   1.094367   0.255380
    12  H    0.005303   0.039959   0.036961   0.055799   0.255380   0.971831
 Mulliken charges:
               1
     1  N   -0.416589
     2  C   -0.050910
     3  C   -0.061477
     4  N   -0.239741
     5  H    0.169040
     6  H    0.151696
     7  H    0.073931
     8  H    0.088006
     9  H    0.054140
    10  H    0.128059
    11  H    0.039498
    12  H    0.064347
 Sum of Mulliken charges =   0.00000
 Mulliken charges with hydrogens summed into heavy atoms:
               1
     1  N   -0.095853
     2  C    0.111026
     3  C    0.120723
     4  N   -0.135897
 Electronic spatial extent (au):  <R**2>=            343.3183
 Charge=              0.0000 electrons
 Dipole moment (field-independent basis, Debye):
    X=              0.6439    Y=              0.9113    Z=             -0.4467  Tot=              1.2019
 Quadrupole moment (field-independent basis, Debye-Ang):
   XX=            -32.3757   YY=            -27.1140   ZZ=            -28.5641
   XY=              0.7115   XZ=              1.2569   YZ=              0.2903
 Traceless Quadrupole moment (field-independent basis, Debye-Ang):
   XX=             -3.0244   YY=              2.2372   ZZ=              0.7872
   XY=              0.7115   XZ=              1.2569   YZ=              0.2903
 Octapole moment (field-independent basis, Debye-Ang**2):
  XXX=              1.7878  YYY=             -0.1863  ZZZ=             -0.1381  XYY=             -1.2493
  XXY=              2.2129  XXZ=             -1.6343  XZZ=             -2.6834  YZZ=             -0.3893
  YYZ=             -0.2223  XYZ=             -1.8152
 Hexadecapole moment (field-independent basis, Debye-Ang**3):
 XXXX=           -329.0446 YYYY=           -109.9003 ZZZZ=            -73.6055 XXXY=             -0.2160
 XXXZ=              6.8148 YYYX=              5.5177 YYYZ=              0.0805 ZZZX=              0.3673
 ZZZY=              0.8861 XXYY=            -69.3327 XXZZ=            -62.7229 YYZZ=            -31.6720
 XXYZ=              0.9130 YYXZ=              0.6028 ZZXY=              1.0314
 N-N= 1.338656794371D+02 E-N=-7.091732957638D+02  KE= 1.888973210556D+02
 Evaluate density.
 Using the total density.
 Monte-Carlo method of calculating molar volume:
 based on  0.001 e/bohr**3 density envelope.
 Number of points per bohr**3 =   20 CutOff= 1.00D-04
 Using the CI density.
 There are       299 points.  Will hold       299 in memory.
 LenV=   536829716 MDV=   536870912.
 Box volume = 3355.835 fraction occupied=0.261
 Integrated density= 4.2846991507789298D+01 error= 8.8469915077892978D+00
 Molar volume =  875.435 bohr**3/mol ( 78.123 cm**3/mol)
 Recommended a0 for SCRF calculation =  3.96 angstrom (  7.48 bohr)
 ******************************Gaussian NBO Version 3.1******************************
             N A T U R A L   A T O M I C   O R B I T A L   A N D
          N A T U R A L   B O N D   O R B I T A L   A N A L Y S I S
 ******************************Gaussian NBO Version 3.1******************************
       /RESON  / : Allow strongly delocalized NBO set

 Analyzing the CI density

 Job title: PIICEJLVQHRZGT-UHFFFAOYSA-N_conf_0                              

 Storage needed:     30544 in NPA ( 536870072 available)
 GSVD:  LWork=        5206 too small for GESVD, short by        3959 words or        3959 for optimal perf.


 NATURAL POPULATIONS:  Natural atomic orbital occupancies 
                                                          
   NAO  Atom  No  lang   Type(AO)    Occupancy
 --------------------------------------------
     1    N    1  S      Cor( 1S)     1.99957
     2    N    1  S      Val( 2S)     1.46015
     3    N    1  S      Ryd( 3S)     0.00373
     4    N    1  S      Ryd( 4S)     0.00004
     5    N    1  px     Val( 2p)     1.49819
     6    N    1  px     Ryd( 3p)     0.00392
     7    N    1  py     Val( 2p)     1.30688
     8    N    1  py     Ryd( 3p)     0.00183
     9    N    1  pz     Val( 2p)     1.43971
    10    N    1  pz     Ryd( 3p)     0.00289
    11    N    1  dxy    Ryd( 3d)     0.00125
    12    N    1  dxz    Ryd( 3d)     0.00057
    13    N    1  dyz    Ryd( 3d)     0.00016
    14    N    1  dx2y2  Ryd( 3d)     0.00054
    15    N    1  dz2    Ryd( 3d)     0.00133

    16    C    2  S      Cor( 1S)     1.99935
    17    C    2  S      Val( 2S)     1.04193
    18    C    2  S      Ryd( 3S)     0.00173
    19    C    2  S      Ryd( 4S)     0.00004
    20    C    2  px     Val( 2p)     0.98736
    21    C    2  px     Ryd( 3p)     0.00442
    22    C    2  py     Val( 2p)     1.06085
    23    C    2  py     Ryd( 3p)     0.00547
    24    C    2  pz     Val( 2p)     1.20396
    25    C    2  pz     Ryd( 3p)     0.00364
    26    C    2  dxy    Ryd( 3d)     0.00137
    27    C    2  dxz    Ryd( 3d)     0.00053
    28    C    2  dyz    Ryd( 3d)     0.00060
    29    C    2  dx2y2  Ryd( 3d)     0.00092
    30    C    2  dz2    Ryd( 3d)     0.00127

    31    C    3  S      Cor( 1S)     1.99929
    32    C    3  S      Val( 2S)     1.06394
    33    C    3  S      Ryd( 3S)     0.00195
    34    C    3  S      Ryd( 4S)     0.00004
    35    C    3  px     Val( 2p)     0.99679
    36    C    3  px     Ryd( 3p)     0.00309
    37    C    3  py     Val( 2p)     1.03743
    38    C    3  py     Ryd( 3p)     0.00466
    39    C    3  pz     Val( 2p)     1.22606
    40    C    3  pz     Ryd( 3p)     0.00355
    41    C    3  dxy    Ryd( 3d)     0.00120
    42    C    3  dxz    Ryd( 3d)     0.00063
    43    C    3  dyz    Ryd( 3d)     0.00055
    44    C    3  dx2y2  Ryd( 3d)     0.00092
    45    C    3  dz2    Ryd( 3d)     0.00124

    46    N    4  S      Cor( 1S)     1.99946
    47    N    4  S      Val( 2S)     1.50305
    48    N    4  S      Ryd( 3S)     0.01056
    49    N    4  S      Ryd( 4S)     0.00008
    50    N    4  px     Val( 2p)     1.35268
    51    N    4  px     Ryd( 3p)     0.00437
    52    N    4  py     Val( 2p)     1.30831
    53    N    4  py     Ryd( 3p)     0.00105
    54    N    4  pz     Val( 2p)     1.40262
    55    N    4  pz     Ryd( 3p)     0.00137
    56    N    4  dxy    Ryd( 3d)     0.00045
    57    N    4  dxz    Ryd( 3d)     0.00052
    58    N    4  dyz    Ryd( 3d)     0.00050
    59    N    4  dx2y2  Ryd( 3d)     0.00093
    60    N    4  dz2    Ryd( 3d)     0.00055

    61    H    5  S      Val( 1S)     0.64189
    62    H    5  S      Ryd( 2S)     0.03156
    63    H    5  px     Ryd( 2p)     0.00050
    64    H    5  py     Ryd( 2p)     0.00046
    65    H    5  pz     Ryd( 2p)     0.00035

    66    H    6  S      Val( 1S)     0.64758
    67    H    6  S      Ryd( 2S)     0.04329
    68    H    6  px     Ryd( 2p)     0.00037
    69    H    6  py     Ryd( 2p)     0.00029
    70    H    6  pz     Ryd( 2p)     0.00065

    71    H    7  S      Val( 1S)     0.77627
    72    H    7  S      Ryd( 2S)     0.01973
    73    H    7  px     Ryd( 2p)     0.00017
    74    H    7  py     Ryd( 2p)     0.00030
    75    H    7  pz     Ryd( 2p)     0.00009

    76    H    8  S      Val( 1S)     0.75933
    77    H    8  S      Ryd( 2S)     0.02016
    78    H    8  px     Ryd( 2p)     0.00010
    79    H    8  py     Ryd( 2p)     0.00009
    80    H    8  pz     Ryd( 2p)     0.00038

    81    H    9  S      Val( 1S)     0.77508
    82    H    9  S      Ryd( 2S)     0.03503
    83    H    9  px     Ryd( 2p)     0.00007
    84    H    9  py     Ryd( 2p)     0.00007
    85    H    9  pz     Ryd( 2p)     0.00037

    86    H   10  S      Val( 1S)     0.71825
    87    H   10  S      Ryd( 2S)     0.02419
    88    H   10  px     Ryd( 2p)     0.00016
    89    H   10  py     Ryd( 2p)     0.00030
    90    H   10  pz     Ryd( 2p)     0.00011

    91    H   11  S      Val( 1S)     0.71408
    92    H   11  S      Ryd( 2S)     0.06926
    93    H   11  px     Ryd( 2p)     0.00064
    94    H   11  py     Ryd( 2p)     0.00030
    95    H   11  pz     Ryd( 2p)     0.00035

    96    H   12  S      Val( 1S)     0.68519
    97    H   12  S      Ryd( 2S)     0.06964
    98    H   12  px     Ryd( 2p)     0.00028
    99    H   12  py     Ryd( 2p)     0.00033
   100    H   12  pz     Ryd( 2p)     0.00070


 Summary of Natural Population Analysis:                  
                                                          
                                       Natural Population 
                Natural  -----------------------------------------------
    Atom  No    Charge         Core      Valence    Rydberg      Total
 -----------------------------------------------------------------------
      N    1   -0.72075      1.99957     5.70492    0.01626     7.72075
      C    2   -0.31345      1.99935     4.29410    0.02000     6.31345
      C    3   -0.34134      1.99929     4.32423    0.01783     6.34134
      N    4   -0.58652      1.99946     5.56666    0.02040     7.58652
      H    5    0.32525      0.00000     0.64189    0.03287     0.67475
      H    6    0.30783      0.00000     0.64758    0.04460     0.69217
      H    7    0.20344      0.00000     0.77627    0.02029     0.79656
      H    8    0.21994      0.00000     0.75933    0.02073     0.78006
      H    9    0.18937      0.00000     0.77508    0.03555     0.81063
      H   10    0.25700      0.00000     0.71825    0.02475     0.74300
      H   11    0.21538      0.00000     0.71408    0.07055     0.78462
      H   12    0.24386      0.00000     0.68519    0.07096     0.75614
 =======================================================================
   * Total *   -0.00000      7.99767    25.60757    0.39476    34.00000

                                 Natural Population      
 --------------------------------------------------------
   Core                       7.99767 ( 99.9709% of   8)
   Valence                   25.60757 ( 98.4906% of  26)
   Natural Minimal Basis     33.60524 ( 98.8389% of  34)
   Natural Rydberg Basis      0.39476 (  1.1611% of  34)
 --------------------------------------------------------

    Atom  No          Natural Electron Configuration
 ----------------------------------------------------------------------------
      N    1      [core]2S( 1.46)2p( 4.24)3p( 0.01)
      C    2      [core]2S( 1.04)2p( 3.25)3p( 0.01)
      C    3      [core]2S( 1.06)2p( 3.26)3p( 0.01)
      N    4      [core]2S( 1.50)2p( 4.06)3S( 0.01)3p( 0.01)
      H    5            1S( 0.64)2S( 0.03)
      H    6            1S( 0.65)2S( 0.04)
      H    7            1S( 0.78)2S( 0.02)
      H    8            1S( 0.76)2S( 0.02)
      H    9            1S( 0.78)2S( 0.04)
      H   10            1S( 0.72)2S( 0.02)
      H   11            1S( 0.71)2S( 0.07)
      H   12            1S( 0.69)2S( 0.07)


 NBO analysis skipped by request.
 1\1\GINC-CN33\SP\RB3LYP TD-FC\6-31G(d,p)\C2H8N2\QDUEZ\09-Jul-2024\0\\#
  TD(NStates=10, Root=1) B3LYP/6-31G** SCRF=(Solvent=water) volume pop=
 NPA density=current Geom=AllCheck Guess=Read\\PIICEJLVQHRZGT-UHFFFAOYS
 A-N_conf_0\\0,1\N,0,-1.7393649904,0.2953991976,-0.1240379312\C,0,-0.69
 9383285,-0.681912484,0.2249380675\C,0,0.7043955397,-0.0972065399,0.429
 7532417\N,0,1.1501548102,0.5900228018,-0.7925927968\H,0,-1.3512083862,
 0.8832290994,-0.8622844945\H,0,-1.8629759275,0.9264863548,0.6677821468
 \H,0,-1.0048047546,-1.2145848161,1.1330562552\H,0,-0.6543317548,-1.433
 5701396,-0.5760311836\H,0,0.6680257264,0.6439067449,1.2383116634\H,0,1
 .3852928465,-0.8994581013,0.762035518\H,0,2.0136964784,1.0941670654,-0
 .6044544218\H,0,1.3905036972,-0.106479183,-1.4964760646\\Version=EM64L
 -G16RevA.03\State=1-A\HF=-190.5377952\RMSD=1.119e-09\Dipole=0.3323934,
 -0.1052232,0.3194501\Quadrupole=-1.9165187,1.0417229,0.8747958,-1.5374
 062,0.269148,-0.2906941\PG=C01 [X(C2H8N2)]\\@


 ALL MY ATTEMPTS TO ADAPT THE THEORETICAL FOUNDATIONS OF PHYSICS
 TO THESE NEW NOTIONS FAILED COMPLETELY. IT WAS AS IF THE GROUND HAD
 BEEN PULLED OUT FROM UNDER ONE WITH NO FIRM FOUNDATION TO BE SEEN ANYWHERE,
 UPON WHICH ONE COULD HAVE BUILT.  -- A.EINSTEIN
 Job cpu time:       0 days  0 hours 11 minutes 27.5 seconds.
 Elapsed time:       0 days  0 hours  9 minutes 34.3 seconds.
 File lengths (MBytes):  RWF=    148 Int=      0 D2E=      0 Chk=      9 Scr=      1
 Normal termination of Gaussian 16 at Tue Jul  9 18:17:20 2024.
