 Entering Gaussian System, Link 0=g16
 Initial command:
 /opt/sw/arch/manual/gaussian/G16_A03/g16/l1.exe "/scratch/1030806.jesse.materianova.be/Gau-26792.inp" -scrdir="/scratch/1030806.jesse.materianova.be/"
 Entering Link 1 = /opt/sw/arch/manual/gaussian/G16_A03/g16/l1.exe PID=     26794.
  
 Copyright (c) 1988,1990,1992,1993,1995,1998,2003,2009,2016,
            Gaussian, Inc.  All Rights Reserved.
  
 This is part of the Gaussian(R) 16 program.  It is based on
 the Gaussian(R) 09 system (copyright 2009, Gaussian, Inc.),
 the Gaussian(R) 03 system (copyright 2003, Gaussian, Inc.),
 the Gaussian(R) 98 system (copyright 1998, Gaussian, Inc.),
 the Gaussian(R) 94 system (copyright 1995, Gaussian, Inc.),
 the Gaussian 92(TM) system (copyright 1992, Gaussian, Inc.),
 the Gaussian 90(TM) system (copyright 1990, Gaussian, Inc.),
 the Gaussian 88(TM) system (copyright 1988, Gaussian, Inc.),
 the Gaussian 86(TM) system (copyright 1986, Carnegie Mellon
 University), and the Gaussian 82(TM) system (copyright 1983,
 Carnegie Mellon University). Gaussian is a federally registered
 trademark of Gaussian, Inc.
  
 This software contains proprietary and confidential information,
 including trade secrets, belonging to Gaussian, Inc.
  
 This software is provided under written license and may be
 used, copied, transmitted, or stored only in accord with that
 written license.
  
 The following legend is applicable only to US Government
 contracts under FAR:
  
                    RESTRICTED RIGHTS LEGEND
  
 Use, reproduction and disclosure by the US Government is
 subject to restrictions as set forth in subparagraphs (a)
 and (c) of the Commercial Computer Software - Restricted
 Rights clause in FAR 52.227-19.
  
 Gaussian, Inc.
 340 Quinnipiac St., Bldg. 40, Wallingford CT 06492
  
  
 ---------------------------------------------------------------
 Warning -- This program may not be used in any manner that
 competes with the business of Gaussian, Inc. or will provide
 assistance to any competitor of Gaussian, Inc.  The licensee
 of this program is prohibited from giving any competitor of
 Gaussian, Inc. access to this program.  By using this program,
 the user acknowledges that Gaussian, Inc. is engaged in the
 business of creating and licensing software in the field of
 computational chemistry and represents and warrants to the
 licensee that it is not a competitor of Gaussian, Inc. and that
 it will not use this program in any manner prohibited above.
 ---------------------------------------------------------------
  

 Cite this work as:
 Gaussian 16, Revision A.03,
 M. J. Frisch, G. W. Trucks, H. B. Schlegel, G. E. Scuseria, 
 M. A. Robb, J. R. Cheeseman, G. Scalmani, V. Barone, 
 G. A. Petersson, H. Nakatsuji, X. Li, M. Caricato, A. V. Marenich, 
 J. Bloino, B. G. Janesko, R. Gomperts, B. Mennucci, H. P. Hratchian, 
 J. V. Ortiz, A. F. Izmaylov, J. L. Sonnenberg, D. Williams-Young, 
 F. Ding, F. Lipparini, F. Egidi, J. Goings, B. Peng, A. Petrone, 
 T. Henderson, D. Ranasinghe, V. G. Zakrzewski, J. Gao, N. Rega, 
 G. Zheng, W. Liang, M. Hada, M. Ehara, K. Toyota, R. Fukuda, 
 J. Hasegawa, M. Ishida, T. Nakajima, Y. Honda, O. Kitao, H. Nakai, 
 T. Vreven, K. Throssell, J. A. Montgomery, Jr., J. E. Peralta, 
 F. Ogliaro, M. J. Bearpark, J. J. Heyd, E. N. Brothers, K. N. Kudin, 
 V. N. Staroverov, T. A. Keith, R. Kobayashi, J. Normand, 
 K. Raghavachari, A. P. Rendell, J. C. Burant, S. S. Iyengar, 
 J. Tomasi, M. Cossi, J. M. Millam, M. Klene, C. Adamo, R. Cammi, 
 J. W. Ochterski, R. L. Martin, K. Morokuma, O. Farkas, 
 J. B. Foresman, and D. J. Fox, Gaussian, Inc., Wallingford CT, 2016.
 
 ******************************************
 Gaussian 16:  EM64L-G16RevA.03 25-Dec-2016
                 9-Jul-2024 
 ******************************************
 %nprocshared=3
 Will use up to    3 processors via shared memory.
 %mem=6GB
 %Chk=KIDHWZJUCRJVML-UHFFFAOYSA-N_conf_1_0.chk
 -------------------------------------------------------
 # opt=CalcFc B3LYP/6-31G** SCRF=(Solvent=water) scf=xqc
 -------------------------------------------------------
 1/10=4,18=20,19=15,26=3,38=1/1,3;
 2/9=110,12=2,17=6,18=5,40=1/2;
 3/5=1,6=6,7=101,11=2,25=1,30=1,70=2201,71=2,72=1,74=-5,140=1/1,2,3;
 4//1;
 5/5=2,8=3,13=1,38=5,53=1/2,8;
 8/6=4,10=90,11=11/1;
 11/6=1,8=1,9=11,15=111,16=1/1,2,10;
 10/6=1,13=1/2;
 6/7=2,8=2,9=2,10=2,28=1/1;
 7/10=1,18=20,25=1/1,2,3,16;
 1/10=4,18=20,19=15,26=3/3(2);
 2/9=110/2;
 99//99;
 2/9=110/2;
 3/5=1,6=6,7=101,11=2,25=1,30=1,70=2205,71=1,72=1,74=-5/1,2,3;
 4/5=5,16=3,69=1/1;
 5/5=2,8=3,13=1,38=5,53=1/2,8;
 7//1,2,3,16;
 1/18=20,19=15,26=3/3(-5);
 2/9=110/2;
 6/7=2,8=2,9=2,10=2,19=2,28=1/1;
 99/9=1/99;
 ----------------------------------
 KIDHWZJUCRJVML-UHFFFAOYSA-N_conf_1
 ----------------------------------
 Symbolic Z-matrix:
 Charge =  0 Multiplicity = 1
 N                    -1.67222   1.06635  -0.66287 
 C                    -1.8196   -0.31778  -0.24015 
 C                    -0.59492  -0.85971   0.50171 
 C                     0.6858   -0.95799  -0.33778 
 C                     1.45429   0.35003  -0.53883 
 N                     1.88898   0.9304    0.72989 
 H                    -2.58098   1.44446  -0.92412 
 H                    -1.33635   1.62686   0.12165 
 H                    -2.03188  -0.93952  -1.11653 
 H                    -2.68778  -0.39052   0.42488 
 H                    -0.8469   -1.87441   0.83722 
 H                    -0.41893  -0.27817   1.41428 
 H                     1.35647  -1.67612   0.15293 
 H                     0.44795  -1.3876   -1.31863 
 H                     2.34169   0.14498  -1.14891 
 H                     0.8608    1.0817   -1.09155 
 H                     2.44681   1.76164   0.5388 
 H                     2.50677   0.2754    1.20686 
 

 GradGradGradGradGradGradGradGradGradGradGradGradGradGradGradGradGradGrad
 Berny optimization.
 Initialization pass.
                           ----------------------------
                           !    Initial Parameters    !
                           ! (Angstroms and Degrees)  !
 --------------------------                            --------------------------
 ! Name  Definition              Value          Derivative Info.                !
 --------------------------------------------------------------------------------
 ! R1    R(1,2)                  1.4547         calculate D2E/DX2 analytically  !
 ! R2    R(1,7)                  1.0184         calculate D2E/DX2 analytically  !
 ! R3    R(1,8)                  1.021          calculate D2E/DX2 analytically  !
 ! R4    R(2,3)                  1.531          calculate D2E/DX2 analytically  !
 ! R5    R(2,9)                  1.0953         calculate D2E/DX2 analytically  !
 ! R6    R(2,10)                 1.096          calculate D2E/DX2 analytically  !
 ! R7    R(3,4)                  1.5345         calculate D2E/DX2 analytically  !
 ! R8    R(3,11)                 1.098          calculate D2E/DX2 analytically  !
 ! R9    R(3,12)                 1.0963         calculate D2E/DX2 analytically  !
 ! R10   R(4,5)                  1.5303         calculate D2E/DX2 analytically  !
 ! R11   R(4,13)                 1.0983         calculate D2E/DX2 analytically  !
 ! R12   R(4,14)                 1.0969         calculate D2E/DX2 analytically  !
 ! R13   R(5,6)                  1.4613         calculate D2E/DX2 analytically  !
 ! R14   R(5,15)                 1.0962         calculate D2E/DX2 analytically  !
 ! R15   R(5,16)                 1.0923         calculate D2E/DX2 analytically  !
 ! R16   R(6,17)                 1.0191         calculate D2E/DX2 analytically  !
 ! R17   R(6,18)                 1.0189         calculate D2E/DX2 analytically  !
 ! A1    A(2,1,7)              109.7195         calculate D2E/DX2 analytically  !
 ! A2    A(2,1,8)              109.4139         calculate D2E/DX2 analytically  !
 ! A3    A(7,1,8)              106.6695         calculate D2E/DX2 analytically  !
 ! A4    A(1,2,3)              113.3635         calculate D2E/DX2 analytically  !
 ! A5    A(1,2,9)              109.1008         calculate D2E/DX2 analytically  !
 ! A6    A(1,2,10)             108.6447         calculate D2E/DX2 analytically  !
 ! A7    A(3,2,9)              109.9882         calculate D2E/DX2 analytically  !
 ! A8    A(3,2,10)             108.4287         calculate D2E/DX2 analytically  !
 ! A9    A(9,2,10)             107.1158         calculate D2E/DX2 analytically  !
 ! A10   A(2,3,4)              115.1643         calculate D2E/DX2 analytically  !
 ! A11   A(2,3,11)             106.9538         calculate D2E/DX2 analytically  !
 ! A12   A(2,3,12)             110.1204         calculate D2E/DX2 analytically  !
 ! A13   A(4,3,11)             107.4281         calculate D2E/DX2 analytically  !
 ! A14   A(4,3,12)             110.8166         calculate D2E/DX2 analytically  !
 ! A15   A(11,3,12)            105.8242         calculate D2E/DX2 analytically  !
 ! A16   A(3,4,5)              115.8657         calculate D2E/DX2 analytically  !
 ! A17   A(3,4,13)             107.8848         calculate D2E/DX2 analytically  !
 ! A18   A(3,4,14)             109.4699         calculate D2E/DX2 analytically  !
 ! A19   A(5,4,13)             108.1141         calculate D2E/DX2 analytically  !
 ! A20   A(5,4,14)             109.0363         calculate D2E/DX2 analytically  !
 ! A21   A(13,4,14)            106.0113         calculate D2E/DX2 analytically  !
 ! A22   A(4,5,6)              112.0103         calculate D2E/DX2 analytically  !
 ! A23   A(4,5,15)             108.6479         calculate D2E/DX2 analytically  !
 ! A24   A(4,5,16)             111.4793         calculate D2E/DX2 analytically  !
 ! A25   A(6,5,15)             108.4616         calculate D2E/DX2 analytically  !
 ! A26   A(6,5,16)             109.5678         calculate D2E/DX2 analytically  !
 ! A27   A(15,5,16)            106.4711         calculate D2E/DX2 analytically  !
 ! A28   A(5,6,17)             108.9022         calculate D2E/DX2 analytically  !
 ! A29   A(5,6,18)             109.3581         calculate D2E/DX2 analytically  !
 ! A30   A(17,6,18)            106.2739         calculate D2E/DX2 analytically  !
 ! D1    D(7,1,2,3)           -165.2707         calculate D2E/DX2 analytically  !
 ! D2    D(7,1,2,9)             71.7971         calculate D2E/DX2 analytically  !
 ! D3    D(7,1,2,10)           -44.661          calculate D2E/DX2 analytically  !
 ! D4    D(8,1,2,3)            -48.5647         calculate D2E/DX2 analytically  !
 ! D5    D(8,1,2,9)           -171.4968         calculate D2E/DX2 analytically  !
 ! D6    D(8,1,2,10)            72.045          calculate D2E/DX2 analytically  !
 ! D7    D(1,2,3,4)            -64.995          calculate D2E/DX2 analytically  !
 ! D8    D(1,2,3,11)           175.719          calculate D2E/DX2 analytically  !
 ! D9    D(1,2,3,12)            61.1815         calculate D2E/DX2 analytically  !
 ! D10   D(9,2,3,4)             57.4462         calculate D2E/DX2 analytically  !
 ! D11   D(9,2,3,11)           -61.8398         calculate D2E/DX2 analytically  !
 ! D12   D(9,2,3,12)          -176.3772         calculate D2E/DX2 analytically  !
 ! D13   D(10,2,3,4)           174.2732         calculate D2E/DX2 analytically  !
 ! D14   D(10,2,3,11)           54.9871         calculate D2E/DX2 analytically  !
 ! D15   D(10,2,3,12)          -59.5503         calculate D2E/DX2 analytically  !
 ! D16   D(2,3,4,5)             79.3858         calculate D2E/DX2 analytically  !
 ! D17   D(2,3,4,13)          -159.3138         calculate D2E/DX2 analytically  !
 ! D18   D(2,3,4,14)           -44.3848         calculate D2E/DX2 analytically  !
 ! D19   D(11,3,4,5)          -161.5912         calculate D2E/DX2 analytically  !
 ! D20   D(11,3,4,13)          -40.2907         calculate D2E/DX2 analytically  !
 ! D21   D(11,3,4,14)           74.6383         calculate D2E/DX2 analytically  !
 ! D22   D(12,3,4,5)           -46.4331         calculate D2E/DX2 analytically  !
 ! D23   D(12,3,4,13)           74.8674         calculate D2E/DX2 analytically  !
 ! D24   D(12,3,4,14)         -170.2036         calculate D2E/DX2 analytically  !
 ! D25   D(3,4,5,6)             60.1167         calculate D2E/DX2 analytically  !
 ! D26   D(3,4,5,15)           179.9122         calculate D2E/DX2 analytically  !
 ! D27   D(3,4,5,16)           -63.0636         calculate D2E/DX2 analytically  !
 ! D28   D(13,4,5,6)           -61.0609         calculate D2E/DX2 analytically  !
 ! D29   D(13,4,5,15)           58.7346         calculate D2E/DX2 analytically  !
 ! D30   D(13,4,5,16)          175.7587         calculate D2E/DX2 analytically  !
 ! D31   D(14,4,5,6)          -175.8872         calculate D2E/DX2 analytically  !
 ! D32   D(14,4,5,15)          -56.0917         calculate D2E/DX2 analytically  !
 ! D33   D(14,4,5,16)           60.9325         calculate D2E/DX2 analytically  !
 ! D34   D(4,5,6,17)           176.2393         calculate D2E/DX2 analytically  !
 ! D35   D(4,5,6,18)            60.5014         calculate D2E/DX2 analytically  !
 ! D36   D(15,5,6,17)           56.3348         calculate D2E/DX2 analytically  !
 ! D37   D(15,5,6,18)          -59.4031         calculate D2E/DX2 analytically  !
 ! D38   D(16,5,6,17)          -59.508          calculate D2E/DX2 analytically  !
 ! D39   D(16,5,6,18)         -175.2459         calculate D2E/DX2 analytically  !
 --------------------------------------------------------------------------------
 Trust Radius=3.00D-01 FncErr=1.00D-07 GrdErr=1.00D-06 EigMax=2.50D+02 EigMin=1.00D-04
 Number of steps in this run=     96 maximum allowed number of steps=    108.
 GradGradGradGradGradGradGradGradGradGradGradGradGradGradGradGradGradGrad

                          Input orientation:                          
 ---------------------------------------------------------------------
 Center     Atomic      Atomic             Coordinates (Angstroms)
 Number     Number       Type             X           Y           Z
 ---------------------------------------------------------------------
      1          7           0       -1.672223    1.066347   -0.662866
      2          6           0       -1.819597   -0.317783   -0.240152
      3          6           0       -0.594921   -0.859707    0.501713
      4          6           0        0.685796   -0.957986   -0.337776
      5          6           0        1.454294    0.350029   -0.538834
      6          7           0        1.888985    0.930402    0.729891
      7          1           0       -2.580981    1.444455   -0.924122
      8          1           0       -1.336350    1.626857    0.121651
      9          1           0       -2.031876   -0.939517   -1.116526
     10          1           0       -2.687778   -0.390515    0.424883
     11          1           0       -0.846902   -1.874410    0.837222
     12          1           0       -0.418934   -0.278166    1.414278
     13          1           0        1.356468   -1.676117    0.152929
     14          1           0        0.447952   -1.387601   -1.318631
     15          1           0        2.341690    0.144978   -1.148911
     16          1           0        0.860798    1.081701   -1.091551
     17          1           0        2.446809    1.761637    0.538795
     18          1           0        2.506770    0.275398    1.206865
 ---------------------------------------------------------------------
                    Distance matrix (angstroms):
                    1          2          3          4          5
     1  N    0.000000
     2  C    1.454724   0.000000
     3  C    2.495297   1.530972   0.000000
     4  C    3.124718   2.587738   1.534482   0.000000
     5  C    3.209923   3.354631   2.597207   1.530333   0.000000
     6  N    3.826285   4.031443   3.070235   2.480642   1.461319
     7  H    1.018362   2.037892   3.359554   4.097238   4.198769
     8  H    1.021004   2.036186   2.622434   3.313844   3.139144
     9  H    2.087737   1.095284   2.165618   2.827107   3.761654
    10  H    2.082546   1.096038   2.146181   3.504949   4.316702
    11  H    3.402862   2.128370   1.098036   2.137666   3.483843
    12  H    2.773622   2.168079   1.096329   2.179971   2.778176
    13  H    4.166485   3.476633   2.143851   1.098319   2.143216
    14  H    3.308630   2.729361   2.163310   1.096912   2.154105
    15  H    4.146885   4.284426   3.515343   2.148594   1.096226
    16  H    2.569085   3.141330   2.902873   2.181543   1.092281
    17  H    4.346705   4.809675   4.015588   3.356471   2.034455
    18  H    4.646017   4.600345   3.377305   2.687582   2.039789
                    6          7          8          9         10
     6  N    0.000000
     7  H    4.793809   0.000000
     8  H    3.355263   1.635854   0.000000
     9  H    4.720064   2.453948   2.933106   0.000000
    10  H    4.773323   2.279986   2.447059   1.762824   0.000000
    11  H    3.919639   4.138143   3.607003   2.468870   2.400165
    12  H    2.693605   3.620772   2.478235   3.073098   2.477737
    13  H    2.722205   5.138241   4.261676   3.692556   4.252371
    14  H    3.412647   4.165407   3.787493   2.528077   3.723818
    15  H    2.086080   5.096259   4.163925   4.506135   5.297087
    16  H    2.097073   3.464890   2.568368   3.528952   4.130300
    17  H    1.019136   5.245894   3.808473   5.485886   5.568548
    18  H    1.018917   5.638529   4.215886   5.241514   5.295117
                   11         12         13         14         15
    11  H    0.000000
    12  H    1.750470   0.000000
    13  H    2.315689   2.587918   0.000000
    14  H    2.561510   3.074269   1.753320   0.000000
    15  H    4.264947   3.790782   2.445779   2.442099   0.000000
    16  H    3.921096   3.125081   3.065939   2.513854   1.753220
    17  H    4.915123   3.624880   3.627106   4.166913   2.339442
    18  H    4.000678   2.984827   2.498477   3.658200   2.365151
                   16         17         18
    16  H    0.000000
    17  H    2.373979   0.000000
    18  H    2.939739   1.630589   0.000000
 Stoichiometry    C4H12N2
 Framework group  C1[X(C4H12N2)]
 Deg. of freedom    48
 Full point group                 C1      NOp   1
 Largest Abelian subgroup         C1      NOp   1
 Largest concise Abelian subgroup C1      NOp   1
                         Standard orientation:                         
 ---------------------------------------------------------------------
 Center     Atomic      Atomic             Coordinates (Angstroms)
 Number     Number       Type             X           Y           Z
 ---------------------------------------------------------------------
      1          7           0       -1.639229   -1.188478    0.198563
      2          6           0       -1.848931    0.226968   -0.063656
      3          6           0       -0.587252    0.948837   -0.544226
      4          6           0        0.553875    1.019549    0.479232
      5          6           0        1.399936   -0.247345    0.624412
      6          7           0        2.052315   -0.616952   -0.629879
      7          1           0       -2.538257   -1.660772    0.274385
      8          1           0       -1.151903   -1.611630   -0.592579
      9          1           0       -2.232156    0.706586    0.843400
     10          1           0       -2.621700    0.329883   -0.834068
     11          1           0       -0.879546    1.980049   -0.782655
     12          1           0       -0.238456    0.511384   -1.487048
     13          1           0        1.219234    1.842799    0.186212
     14          1           0        0.148118    1.293241    1.460899
     15          1           0        2.174709   -0.066909    1.378654
     16          1           0        0.803500   -1.087132    0.987868
     17          1           0        2.649911   -1.425926   -0.465322
     18          1           0        2.669169    0.138379   -0.925106
 ---------------------------------------------------------------------
 Rotational constants (GHZ):           5.2473611           2.1164740           1.8105923
 Standard basis: 6-31G(d,p) (6D, 7F)
 There are   150 symmetry adapted cartesian basis functions of A   symmetry.
 There are   150 symmetry adapted basis functions of A   symmetry.
   150 basis functions,   252 primitive gaussians,   150 cartesian basis functions
    25 alpha electrons       25 beta electrons
       nuclear repulsion energy       258.7383305010 Hartrees.
 NAtoms=   18 NActive=   18 NUniq=   18 SFac= 1.00D+00 NAtFMM=   60 NAOKFM=F Big=F
 Integral buffers will be    131072 words long.
 Raffenetti 2 integral format.
 Two-electron integral symmetry is turned on.
 Force inversion solution in PCM.
 ------------------------------------------------------------------------------
 Polarizable Continuum Model (PCM)
 =================================
 Model                : PCM.
 Atomic radii         : UFF (Universal Force Field).
 Polarization charges : Total charges.
 Charge compensation  : None.
 Solution method      : Matrix inversion.
 Cavity type          : Scaled VdW (van der Waals Surface) (Alpha=1.100).
 Cavity algorithm     : GePol (No added spheres)
                        Default sphere list used, NSphG=   18.
                        Lebedev-Laikov grids with approx.  5.0 points / Ang**2.
                        Smoothing algorithm: York/Karplus (Gamma=1.0000).
                        Polarization charges: spherical gaussians, with
                                              point-specific exponents (IZeta= 3).
                        Self-potential: point-specific (ISelfS= 7).
                        Self-field    : sphere-specific E.n sum rule (ISelfD= 2).
 1st derivatives      : Analytical E(r).r(x)/FMM algorithm (CHGder, D1EAlg=3).
                        Cavity 1st derivative terms included.
 2nd derivatives      : Analytical E(r).r(xy)/FMM algorithm (CHGder, D2EAlg=3).
                        Cavity 2nd derivative terms included.
 Solvent              : Water, Eps=  78.355300 Eps(inf)=   1.777849
 ------------------------------------------------------------------------------
 Spheres list:
 ISph  on   Nord     Re0    Alpha      Xe            Ye            Ze
    1   N      1    1.8300  1.100     -1.639229     -1.188478      0.198563
    2   C      2    1.9255  1.100     -1.848931      0.226968     -0.063656
    3   C      3    1.9255  1.100     -0.587252      0.948837     -0.544226
    4   C      4    1.9255  1.100      0.553875      1.019549      0.479232
    5   C      5    1.9255  1.100      1.399936     -0.247345      0.624412
    6   N      6    1.8300  1.100      2.052315     -0.616952     -0.629879
    7   H      7    1.4430  1.100     -2.538257     -1.660772      0.274385
    8   H      8    1.4430  1.100     -1.151903     -1.611630     -0.592579
    9   H      9    1.4430  1.100     -2.232156      0.706586      0.843400
   10   H     10    1.4430  1.100     -2.621700      0.329883     -0.834068
   11   H     11    1.4430  1.100     -0.879546      1.980049     -0.782655
   12   H     12    1.4430  1.100     -0.238456      0.511384     -1.487048
   13   H     13    1.4430  1.100      1.219234      1.842799      0.186212
   14   H     14    1.4430  1.100      0.148118      1.293241      1.460899
   15   H     15    1.4430  1.100      2.174709     -0.066909      1.378654
   16   H     16    1.4430  1.100      0.803500     -1.087132      0.987868
   17   H     17    1.4430  1.100      2.649911     -1.425926     -0.465322
   18   H     18    1.4430  1.100      2.669169      0.138379     -0.925106
 ------------------------------------------------------------------------------
 One-electron integrals computed using PRISM.
 NBasis=   150 RedAO= T EigKep=  4.42D-03  NBF=   150
 NBsUse=   150 1.00D-06 EigRej= -1.00D+00 NBFU=   150
 ExpMin= 1.61D-01 ExpMax= 4.17D+03 ExpMxC= 6.27D+02 IAcc=3 IRadAn=         5 AccDes= 0.00D+00
 Harris functional with IExCor=  402 and IRadAn=       5 diagonalized for initial guess.
 HarFok:  IExCor=  402 AccDes= 0.00D+00 IRadAn=         5 IDoV= 1 UseB2=F ITyADJ=14
 ICtDFT=  3500011 ScaDFX=  1.000000  1.000000  1.000000  1.000000
 FoFCou: FMM=F IPFlag=           0 FMFlag=      100000 FMFlg1=           0
         NFxFlg=           0 DoJE=T BraDBF=F KetDBF=T FulRan=T
         wScrn=  0.000000 ICntrl=       500 IOpCl=  0 I1Cent=   200000004 NGrid=           0
         NMat0=    1 NMatS0=      1 NMatT0=    0 NMatD0=    1 NMtDS0=    0 NMtDT0=    0
 Petite list used in FoFCou.
 Keep R1 ints in memory in canonical form, NReq=67061194.
 Requested convergence on RMS density matrix=1.00D-08 within  32 cycles.
 Requested convergence on MAX density matrix=1.00D-06.
 Requested convergence on             energy=1.00D-06.
 No special actions if energy rises.
 Inv3:  Mode=1 IEnd=     5179788.
 Iteration    1 A*A^-1 deviation from unit magnitude is 7.11D-15 for     57.
 Iteration    1 A*A^-1 deviation from orthogonality  is 4.05D-15 for   1265    557.
 Iteration    1 A^-1*A deviation from unit magnitude is 7.11D-15 for     57.
 Iteration    1 A^-1*A deviation from orthogonality  is 2.68D-15 for   1196    819.
 Error on total polarization charges =  0.00777
 SCF Done:  E(RB3LYP) =  -269.162759781     A.U. after   11 cycles
            NFock= 11  Conv=0.26D-08     -V/T= 2.0096
 QCSCF skips out because SCF is already converged.
 DoSCS=F DFT=T ScalE2(SS,OS)=  1.000000  1.000000
 Range of M.O.s used for correlation:     1   150
 NBasis=   150 NAE=    25 NBE=    25 NFC=     0 NFV=     0
 NROrb=    150 NOA=    25 NOB=    25 NVA=   125 NVB=   125
 Symmetrizing basis deriv contribution to polar:
 IMax=3 JMax=2 DiffMx= 0.00D+00
 G2DrvN: will do    19 centers at a time, making    1 passes.
 Calling FoFCou, ICntrl=  3107 FMM=F I1Cent=   0 AccDes= 0.00D+00.
 NEqPCM:  Using equilibrium solvation (IEInf=0, Eps=  78.3553, EpsInf=   1.7778)
 G2PCM: DoFxE=T DoFxN=T DoGrad=T DoDP/DQ/DG/TGxP=FFFF NFrqRd=   0 IEInf=0 SqF1=F DoCFld=F IF1Alg=4.
 End of G2Drv F.D. properties file   721 does not exist.
 End of G2Drv F.D. properties file   722 does not exist.
 End of G2Drv F.D. properties file   788 does not exist.
          IDoAtm=111111111111111111
 NEqPCM:  Using equilibrium solvation (IEInf=0, Eps=  78.3553, EpsInf=   1.7778)
          Differentiating once with respect to nuclear coordinates.
 Keep R1 ints in memory in canonical form, NReq=69473986.
          There are    57 degrees of freedom in the 1st order CPHF.  IDoFFX=6 NUNeed=     0.
     51 vectors produced by pass  0 Test12= 5.48D-15 1.75D-09 XBig12= 8.39D-02 6.36D-02.
 AX will form    51 AO Fock derivatives at one time.
     51 vectors produced by pass  1 Test12= 5.48D-15 1.75D-09 XBig12= 2.53D-03 8.34D-03.
     51 vectors produced by pass  2 Test12= 5.48D-15 1.75D-09 XBig12= 2.81D-05 6.45D-04.
     51 vectors produced by pass  3 Test12= 5.48D-15 1.75D-09 XBig12= 6.98D-08 3.24D-05.
     51 vectors produced by pass  4 Test12= 5.48D-15 1.75D-09 XBig12= 4.85D-11 8.54D-07.
     18 vectors produced by pass  5 Test12= 5.48D-15 1.75D-09 XBig12= 2.55D-14 1.58D-08.
 InvSVY:  IOpt=1 It=  1 EMax= 5.55D-16
 Solved reduced A of dimension   273 with    57 vectors.
 End of Minotr F.D. properties file   721 does not exist.
 End of Minotr F.D. properties file   722 does not exist.
 End of Minotr F.D. properties file   788 does not exist.

 **********************************************************************

            Population analysis using the SCF density.

 **********************************************************************

 Orbital symmetries:
       Occupied  (A) (A) (A) (A) (A) (A) (A) (A) (A) (A) (A) (A)
                 (A) (A) (A) (A) (A) (A) (A) (A) (A) (A) (A) (A)
                 (A)
       Virtual   (A) (A) (A) (A) (A) (A) (A) (A) (A) (A) (A) (A)
                 (A) (A) (A) (A) (A) (A) (A) (A) (A) (A) (A) (A)
                 (A) (A) (A) (A) (A) (A) (A) (A) (A) (A) (A) (A)
                 (A) (A) (A) (A) (A) (A) (A) (A) (A) (A) (A) (A)
                 (A) (A) (A) (A) (A) (A) (A) (A) (A) (A) (A) (A)
                 (A) (A) (A) (A) (A) (A) (A) (A) (A) (A) (A) (A)
                 (A) (A) (A) (A) (A) (A) (A) (A) (A) (A) (A) (A)
                 (A) (A) (A) (A) (A) (A) (A) (A) (A) (A) (A) (A)
                 (A) (A) (A) (A) (A) (A) (A) (A) (A) (A) (A) (A)
                 (A) (A) (A) (A) (A) (A) (A) (A) (A) (A) (A) (A)
                 (A) (A) (A) (A) (A)
 The electronic state is 1-A.
 Alpha  occ. eigenvalues --  -14.30368 -14.30361 -10.19681 -10.19179 -10.17319
 Alpha  occ. eigenvalues --  -10.17236  -0.87665  -0.86845  -0.76176  -0.68430
 Alpha  occ. eigenvalues --   -0.60939  -0.56073  -0.48277  -0.47880  -0.45341
 Alpha  occ. eigenvalues --   -0.43266  -0.41975  -0.41082  -0.36613  -0.36410
 Alpha  occ. eigenvalues --   -0.33395  -0.32304  -0.31399  -0.23206  -0.21946
 Alpha virt. eigenvalues --    0.07890   0.10298   0.12314   0.13725   0.14597
 Alpha virt. eigenvalues --    0.16418   0.17281   0.17455   0.18731   0.19777
 Alpha virt. eigenvalues --    0.20399   0.20821   0.23008   0.25197   0.25752
 Alpha virt. eigenvalues --    0.28414   0.30517   0.52351   0.53150   0.53799
 Alpha virt. eigenvalues --    0.54678   0.57598   0.60049   0.63005   0.65998
 Alpha virt. eigenvalues --    0.67549   0.71729   0.72537   0.73840   0.76705
 Alpha virt. eigenvalues --    0.78924   0.80218   0.82218   0.83269   0.86988
 Alpha virt. eigenvalues --    0.87369   0.87750   0.90009   0.90046   0.91495
 Alpha virt. eigenvalues --    0.94708   0.95100   0.96249   0.97260   0.99222
 Alpha virt. eigenvalues --    1.03230   1.05631   1.10327   1.14931   1.29624
 Alpha virt. eigenvalues --    1.30806   1.34288   1.44315   1.46013   1.47778
 Alpha virt. eigenvalues --    1.56306   1.59233   1.62488   1.69101   1.76965
 Alpha virt. eigenvalues --    1.79457   1.80724   1.82123   1.85283   1.88079
 Alpha virt. eigenvalues --    1.91043   1.92521   1.95179   2.00913   2.03993
 Alpha virt. eigenvalues --    2.06474   2.11223   2.12253   2.13921   2.16035
 Alpha virt. eigenvalues --    2.19235   2.23825   2.26100   2.27195   2.28789
 Alpha virt. eigenvalues --    2.29863   2.31563   2.33374   2.36704   2.38645
 Alpha virt. eigenvalues --    2.39574   2.41443   2.45774   2.46968   2.54827
 Alpha virt. eigenvalues --    2.56518   2.61673   2.62787   2.67460   2.69937
 Alpha virt. eigenvalues --    2.72711   2.76586   2.78751   2.81265   2.85680
 Alpha virt. eigenvalues --    2.86352   2.90768   2.91209   2.94275   2.95745
 Alpha virt. eigenvalues --    2.97814   2.99956   3.24629   3.27566   3.30414
 Alpha virt. eigenvalues --    3.32707   3.35262   3.37002   3.42484   3.43954
 Alpha virt. eigenvalues --    3.47982   3.53450   3.57447   3.60198   4.00027
 Alpha virt. eigenvalues --    4.01604   4.33974   4.49580   4.68181   4.69364
          Condensed to atoms (all electrons):
               1          2          3          4          5          6
     1  N    6.800867   0.301120  -0.051552   0.003398  -0.010733  -0.000128
     2  C    0.301120   4.773680   0.386193  -0.043248  -0.002029  -0.000329
     3  C   -0.051552   0.386193   4.932779   0.360373  -0.039696  -0.005790
     4  C    0.003398  -0.043248   0.360373   4.927544   0.380787  -0.056101
     5  C   -0.010733  -0.002029  -0.039696   0.380787   4.817663   0.296281
     6  N   -0.000128  -0.000329  -0.005790  -0.056101   0.296281   6.807745
     7  H    0.337242  -0.033180   0.005739  -0.000084   0.000164  -0.000006
     8  H    0.338510  -0.040985  -0.006662  -0.001755   0.000591   0.002207
     9  H   -0.049530   0.383412  -0.032504  -0.008607  -0.000046  -0.000010
    10  H   -0.055738   0.385790  -0.041532   0.006052  -0.000165   0.000002
    11  H    0.004293  -0.033725   0.373848  -0.033911   0.004943   0.000122
    12  H   -0.005312  -0.036096   0.379897  -0.042901  -0.010549   0.014776
    13  H   -0.000064   0.004842  -0.038378   0.380619  -0.040127  -0.005304
    14  H   -0.000258  -0.007606  -0.037965   0.375283  -0.032363   0.003973
    15  H    0.000302  -0.000073   0.005832  -0.044628   0.375530  -0.054546
    16  H    0.019060   0.001086  -0.007245  -0.028667   0.375794  -0.040612
    17  H    0.000018  -0.000014   0.000190   0.005846  -0.033150   0.338809
    18  H   -0.000015   0.000050  -0.000326  -0.004641  -0.039026   0.338608
               7          8          9         10         11         12
     1  N    0.337242   0.338510  -0.049530  -0.055738   0.004293  -0.005312
     2  C   -0.033180  -0.040985   0.383412   0.385790  -0.033725  -0.036096
     3  C    0.005739  -0.006662  -0.032504  -0.041532   0.373848   0.379897
     4  C   -0.000084  -0.001755  -0.008607   0.006052  -0.033911  -0.042901
     5  C    0.000164   0.000591  -0.000046  -0.000165   0.004943  -0.010549
     6  N   -0.000006   0.002207  -0.000010   0.000002   0.000122   0.014776
     7  H    0.480783  -0.030899  -0.000850  -0.007955  -0.000261   0.000078
     8  H   -0.030899   0.483662   0.006841  -0.003250  -0.000078   0.006717
     9  H   -0.000850   0.006841   0.651559  -0.051922  -0.003576   0.005807
    10  H   -0.007955  -0.003250  -0.051922   0.700390  -0.002254  -0.006093
    11  H   -0.000261  -0.000078  -0.003576  -0.002254   0.644501  -0.035879
    12  H    0.000078   0.006717   0.005807  -0.006093  -0.035879   0.626205
    13  H    0.000005  -0.000032   0.000058  -0.000214  -0.008144  -0.001088
    14  H   -0.000039   0.000177   0.005571   0.000066  -0.001200   0.005732
    15  H   -0.000005   0.000059  -0.000038   0.000008  -0.000163   0.000436
    16  H   -0.000050  -0.002701  -0.000318   0.000162  -0.000039  -0.000730
    17  H   -0.000000  -0.000038   0.000001  -0.000000   0.000003  -0.000337
    18  H    0.000000  -0.000022   0.000002  -0.000002  -0.000080  -0.000258
              13         14         15         16         17         18
     1  N   -0.000064  -0.000258   0.000302   0.019060   0.000018  -0.000015
     2  C    0.004842  -0.007606  -0.000073   0.001086  -0.000014   0.000050
     3  C   -0.038378  -0.037965   0.005832  -0.007245   0.000190  -0.000326
     4  C    0.380619   0.375283  -0.044628  -0.028667   0.005846  -0.004641
     5  C   -0.040127  -0.032363   0.375530   0.375794  -0.033150  -0.039026
     6  N   -0.005304   0.003973  -0.054546  -0.040612   0.338809   0.338608
     7  H    0.000005  -0.000039  -0.000005  -0.000050  -0.000000   0.000000
     8  H   -0.000032   0.000177   0.000059  -0.002701  -0.000038  -0.000022
     9  H    0.000058   0.005571  -0.000038  -0.000318   0.000001   0.000002
    10  H   -0.000214   0.000066   0.000008   0.000162  -0.000000  -0.000002
    11  H   -0.008144  -0.001200  -0.000163  -0.000039   0.000003  -0.000080
    12  H   -0.001088   0.005732   0.000436  -0.000730  -0.000337  -0.000258
    13  H    0.650633  -0.035925  -0.007326   0.005740   0.000000   0.005948
    14  H   -0.035925   0.637511  -0.000634  -0.003016  -0.000247  -0.000138
    15  H   -0.007326  -0.000634   0.711359  -0.045742  -0.004273  -0.006166
    16  H    0.005740  -0.003016  -0.045742   0.614943  -0.003466   0.006453
    17  H    0.000000  -0.000247  -0.004273  -0.003466   0.479982  -0.032189
    18  H    0.005948  -0.000138  -0.006166   0.006453  -0.032189   0.486405
 Mulliken charges:
               1
     1  N   -0.631480
     2  C   -0.038888
     3  C   -0.183200
     4  C   -0.175360
     5  C   -0.043867
     6  N   -0.639697
     7  H    0.249317
     8  H    0.247658
     9  H    0.094151
    10  H    0.076656
    11  H    0.091602
    12  H    0.099594
    13  H    0.088756
    14  H    0.091079
    15  H    0.070070
    16  H    0.109348
    17  H    0.248865
    18  H    0.245397
 Sum of Mulliken charges =  -0.00000
 Mulliken charges with hydrogens summed into heavy atoms:
               1
     1  N   -0.134505
     2  C    0.131919
     3  C    0.007996
     4  C    0.004475
     5  C    0.135550
     6  N   -0.145435
 APT charges:
               1
     1  N   -1.171049
     2  C   -0.727816
     3  C   -0.714700
     4  C   -0.739837
     5  C   -0.570165
     6  N   -1.368477
     7  H    0.750365
     8  H    0.342962
     9  H    0.386779
    10  H    0.425533
    11  H    0.434728
    12  H    0.274735
    13  H    0.404239
    14  H    0.341995
    15  H    0.428064
    16  H    0.251478
    17  H    0.679262
    18  H    0.571902
 Sum of APT charges =  -0.00000
 APT charges with hydrogens summed into heavy atoms:
               1
     1  N   -0.077721
     2  C    0.084497
     3  C   -0.005237
     4  C    0.006397
     5  C    0.109377
     6  N   -0.117313
 Electronic spatial extent (au):  <R**2>=            755.4503
 Charge=              0.0000 electrons
 Dipole moment (field-independent basis, Debye):
    X=              0.3199    Y=              0.2769    Z=             -0.3869  Tot=              0.5733
 Quadrupole moment (field-independent basis, Debye-Ang):
   XX=            -30.7642   YY=            -37.4886   ZZ=            -41.8452
   XY=              1.0413   XZ=              1.1911   YZ=              0.8508
 Traceless Quadrupole moment (field-independent basis, Debye-Ang):
   XX=              5.9351   YY=             -0.7893   ZZ=             -5.1458
   XY=              1.0413   XZ=              1.1911   YZ=              0.8508
 Octapole moment (field-independent basis, Debye-Ang**2):
  XXX=              9.6313  YYY=             -9.2853  ZZZ=             -0.4268  XYY=              0.1950
  XXY=            -11.1425  XXZ=             -3.2965  XZZ=             -0.8125  YZZ=              1.0965
  YYZ=             -3.1236  XYZ=             -3.8918
 Hexadecapole moment (field-independent basis, Debye-Ang**3):
 XXXX=           -521.7151 YYYY=           -226.2325 ZZZZ=           -135.7507 XXXY=             11.5999
 XXXZ=            -21.3895 YYYX=              3.7170 YYYZ=              4.1696 ZZZX=             -0.9515
 ZZZY=              1.5716 XXYY=           -117.6406 XXZZ=           -125.9543 YYZZ=            -64.2148
 XXYZ=             -0.8809 YYXZ=              0.4166 ZZXY=              2.1866
 N-N= 2.587383305010D+02 E-N=-1.142279713857D+03  KE= 2.666129430657D+02
  Exact polarizability:   0.000   0.000   0.000   0.000   0.000   0.000
 Approx polarizability:  77.504  -0.647  77.932  -3.617   0.030  73.088
 D2PCM: PCM CHGder 2nd derivatives, FixD1E=F FixD2E=F DoIter=F DoCFld=F I1PDM=0
 Calling FoFJK, ICntrl=    100147 FMM=F ISym2X=0 I1Cent= 0 IOpClX= 0 NMat=1 NMatS=1 NMatT=0.
 ***** Axes restored to original set *****
 -------------------------------------------------------------------
 Center     Atomic                   Forces (Hartrees/Bohr)
 Number     Number              X              Y              Z
 -------------------------------------------------------------------
      1        7           0.008152927    0.012319721   -0.007860818
      2        6          -0.005358458    0.000558539    0.009845395
      3        6          -0.003163232   -0.005253268   -0.003515137
      4        6           0.000561162    0.002233861    0.002680714
      5        6           0.011313364   -0.002534629   -0.004392609
      6        7          -0.005860502    0.007034361    0.009900247
      7        1           0.001157827    0.000240943    0.001033336
      8        1          -0.002962634   -0.001276905   -0.001761421
      9        1           0.000379971   -0.001125674   -0.001691996
     10        1          -0.003472667   -0.008852053    0.003610734
     11        1          -0.001404493    0.000598808    0.000557083
     12        1           0.001321660    0.001685021   -0.001229844
     13        1           0.001614928   -0.000020968   -0.000502626
     14        1           0.000026144    0.000155785   -0.000602559
     15        1           0.000138542   -0.004755804   -0.008892704
     16        1          -0.003326577   -0.000070559    0.002624021
     17        1           0.000024216   -0.001739042    0.001392511
     18        1           0.000857821    0.000801866   -0.001194326
 -------------------------------------------------------------------
 Cartesian Forces:  Max     0.012319721 RMS     0.004445427
 FormGI is forming the generalized inverse of G from B-inverse, IUseBI=4.

 GradGradGradGradGradGradGradGradGradGradGradGradGradGradGradGradGradGrad
 Berny optimization.
 Internal  Forces:  Max     0.013876081 RMS     0.002930006
 Search for a local minimum.
 Step number   1 out of a maximum of   96
 All quantities printed in internal units (Hartrees-Bohrs-Radians)
 Mixed Optimization -- RFO/linear search
 Second derivative matrix not updated -- analytic derivatives used.
 ITU=  0
     Eigenvalues ---    0.00063   0.00207   0.00275   0.00324   0.00438
     Eigenvalues ---    0.03144   0.03184   0.03298   0.03837   0.03959
     Eigenvalues ---    0.03985   0.04523   0.04774   0.05160   0.05310
     Eigenvalues ---    0.07316   0.07505   0.08434   0.08659   0.10584
     Eigenvalues ---    0.11477   0.12386   0.12798   0.14990   0.15067
     Eigenvalues ---    0.17007   0.17238   0.20455   0.22581   0.23834
     Eigenvalues ---    0.25035   0.28033   0.29652   0.31687   0.31868
     Eigenvalues ---    0.32449   0.32638   0.32976   0.33351   0.33554
     Eigenvalues ---    0.33801   0.36592   0.37443   0.38466   0.43612
     Eigenvalues ---    0.43970   0.44270   0.44343
 RFO step:  Lambda=-4.67742643D-03 EMin= 6.30159460D-04
 Linear search not attempted -- first point.
 Iteration  1 RMS(Cart)=  0.02958538 RMS(Int)=  0.00088166
 Iteration  2 RMS(Cart)=  0.00093795 RMS(Int)=  0.00025975
 Iteration  3 RMS(Cart)=  0.00000110 RMS(Int)=  0.00025975
 Iteration  4 RMS(Cart)=  0.00000000 RMS(Int)=  0.00025975
 Variable       Old X    -DE/DX   Delta X   Delta X   Delta X     New X
                                 (Linear)    (Quad)   (Total)
    R1        2.74903   0.01388   0.00000   0.03207   0.03207   2.78110
    R2        1.92443  -0.00121   0.00000   0.00021   0.00021   1.92464
    R3        1.92942  -0.00303   0.00000  -0.00387  -0.00387   1.92555
    R4        2.89312   0.00080   0.00000   0.00401   0.00401   2.89713
    R5        2.06979   0.00192   0.00000   0.00612   0.00612   2.07590
    R6        2.07121   0.00553   0.00000   0.01427   0.01427   2.08549
    R7        2.89975   0.00384   0.00000   0.00839   0.00839   2.90814
    R8        2.07499  -0.00006   0.00000  -0.00099  -0.00099   2.07400
    R9        2.07176   0.00008   0.00000   0.00145   0.00145   2.07322
   R10        2.89191   0.00057   0.00000   0.00732   0.00732   2.89923
   R11        2.07552   0.00077   0.00000   0.00247   0.00247   2.07799
   R12        2.07286   0.00047   0.00000   0.00275   0.00275   2.07561
   R13        2.76149   0.00971   0.00000   0.02050   0.02050   2.78199
   R14        2.07157   0.00595   0.00000   0.01425   0.01425   2.08582
   R15        2.06411   0.00043   0.00000   0.00176   0.00176   2.06587
   R16        1.92589  -0.00167   0.00000  -0.00177  -0.00177   1.92412
   R17        1.92547  -0.00055   0.00000   0.00113   0.00113   1.92660
    A1        1.91497   0.00045   0.00000  -0.01081  -0.01100   1.90397
    A2        1.90963  -0.00048   0.00000  -0.01557  -0.01575   1.89388
    A3        1.86173  -0.00101   0.00000  -0.02129  -0.02171   1.84003
    A4        1.97857  -0.00255   0.00000  -0.00627  -0.00665   1.97192
    A5        1.90417  -0.00066   0.00000  -0.02020  -0.02039   1.88378
    A6        1.89621   0.00739   0.00000   0.06518   0.06525   1.96146
    A7        1.91966  -0.00004   0.00000  -0.01412  -0.01455   1.90511
    A8        1.89244  -0.00283   0.00000  -0.01046  -0.01096   1.88148
    A9        1.86952  -0.00116   0.00000  -0.01341  -0.01341   1.85612
   A10        2.01000   0.00452   0.00000   0.02188   0.02177   2.03177
   A11        1.86670  -0.00200   0.00000  -0.00551  -0.00588   1.86082
   A12        1.92196  -0.00126   0.00000  -0.01025  -0.01017   1.91179
   A13        1.87497   0.00037   0.00000   0.01596   0.01586   1.89084
   A14        1.93411  -0.00287   0.00000  -0.02816  -0.02802   1.90610
   A15        1.84698   0.00109   0.00000   0.00688   0.00699   1.85397
   A16        2.02224   0.00124   0.00000   0.00471   0.00469   2.02693
   A17        1.88295   0.00092   0.00000   0.00978   0.00977   1.89272
   A18        1.91061  -0.00052   0.00000   0.00020   0.00021   1.91082
   A19        1.88695  -0.00130   0.00000  -0.00280  -0.00286   1.88409
   A20        1.90304  -0.00057   0.00000  -0.00973  -0.00973   1.89331
   A21        1.85025   0.00015   0.00000  -0.00257  -0.00261   1.84764
   A22        1.95495  -0.00266   0.00000  -0.01167  -0.01250   1.94245
   A23        1.89626  -0.00301   0.00000  -0.00855  -0.00887   1.88739
   A24        1.94568  -0.00097   0.00000  -0.03669  -0.03775   1.90793
   A25        1.89301   0.00791   0.00000   0.07185   0.07194   1.96495
   A26        1.91232  -0.00122   0.00000  -0.02558  -0.02680   1.88552
   A27        1.85827   0.00039   0.00000   0.01564   0.01560   1.87387
   A28        1.90070   0.00168   0.00000   0.00221   0.00218   1.90288
   A29        1.90866  -0.00107   0.00000  -0.00966  -0.00970   1.89896
   A30        1.85483  -0.00107   0.00000  -0.01822  -0.01830   1.83653
    D1       -2.88452  -0.00049   0.00000  -0.06294  -0.06317  -2.94769
    D2        1.25310   0.00181   0.00000  -0.02544  -0.02575   1.22735
    D3       -0.77948  -0.00055   0.00000  -0.03452  -0.03433  -0.81382
    D4       -0.84761  -0.00173   0.00000  -0.10387  -0.10387  -0.95148
    D5       -2.99318   0.00057   0.00000  -0.06638  -0.06644  -3.05963
    D6        1.25742  -0.00179   0.00000  -0.07545  -0.07503   1.18239
    D7       -1.13438   0.00371   0.00000   0.03181   0.03168  -1.10270
    D8        3.06687   0.00189   0.00000   0.00214   0.00205   3.06892
    D9        1.06782   0.00232   0.00000   0.00218   0.00204   1.06986
   D10        1.00263   0.00103   0.00000  -0.00933  -0.00936   0.99327
   D11       -1.07931  -0.00079   0.00000  -0.03900  -0.03899  -1.11830
   D12       -3.07836  -0.00036   0.00000  -0.03896  -0.03900  -3.11736
   D13        3.04164  -0.00201   0.00000  -0.03932  -0.03920   3.00244
   D14        0.95971  -0.00383   0.00000  -0.06899  -0.06883   0.89088
   D15       -1.03935  -0.00340   0.00000  -0.06896  -0.06884  -1.10819
   D16        1.38554  -0.00041   0.00000  -0.00692  -0.00706   1.37849
   D17       -2.78055  -0.00055   0.00000   0.00008  -0.00002  -2.78057
   D18       -0.77466  -0.00015   0.00000   0.00243   0.00231  -0.77235
   D19       -2.82030   0.00013   0.00000   0.01101   0.01114  -2.80916
   D20       -0.70321  -0.00002   0.00000   0.01801   0.01817  -0.68504
   D21        1.30268   0.00039   0.00000   0.02036   0.02050   1.32318
   D22       -0.81041   0.00013   0.00000   0.01347   0.01343  -0.79698
   D23        1.30668  -0.00002   0.00000   0.02047   0.02047   1.32715
   D24       -2.97061   0.00039   0.00000   0.02282   0.02280  -2.94782
   D25        1.04923  -0.00299   0.00000  -0.01799  -0.01765   1.03158
   D26        3.14006   0.00321   0.00000   0.05853   0.05842  -3.08470
   D27       -1.10067   0.00127   0.00000   0.05112   0.05088  -1.04979
   D28       -1.06571  -0.00404   0.00000  -0.03176  -0.03140  -1.09711
   D29        1.02511   0.00216   0.00000   0.04477   0.04468   1.06979
   D30        3.06757   0.00022   0.00000   0.03736   0.03714   3.10471
   D31       -3.06981  -0.00323   0.00000  -0.02218  -0.02185  -3.09166
   D32       -0.97898   0.00297   0.00000   0.05435   0.05422  -0.92476
   D33        1.06347   0.00103   0.00000   0.04693   0.04669   1.11016
   D34        3.07596   0.00099   0.00000   0.04597   0.04595   3.12191
   D35        1.05595   0.00192   0.00000   0.07181   0.07175   1.12770
   D36        0.98323   0.00118   0.00000   0.01651   0.01633   0.99956
   D37       -1.03678   0.00211   0.00000   0.04235   0.04213  -0.99465
   D38       -1.03861  -0.00303   0.00000  -0.02824  -0.02798  -1.06659
   D39       -3.05862  -0.00210   0.00000  -0.00240  -0.00219  -3.06080
         Item               Value     Threshold  Converged?
 Maximum Force            0.013876     0.000450     NO 
 RMS     Force            0.002930     0.000300     NO 
 Maximum Displacement     0.098107     0.001800     NO 
 RMS     Displacement     0.029697     0.001200     NO 
 Predicted change in Energy=-2.545741D-03
 GradGradGradGradGradGradGradGradGradGradGradGradGradGradGradGradGradGrad

                          Input orientation:                          
 ---------------------------------------------------------------------
 Center     Atomic      Atomic             Coordinates (Angstroms)
 Number     Number       Type             X           Y           Z
 ---------------------------------------------------------------------
      1          7           0       -1.657918    1.083850   -0.672118
      2          6           0       -1.829362   -0.307390   -0.223859
      3          6           0       -0.593960   -0.861030    0.495617
      4          6           0        0.694659   -0.965893   -0.339094
      5          6           0        1.477108    0.338266   -0.540923
      6          7           0        1.885356    0.921675    0.747581
      7          1           0       -2.559651    1.450993   -0.971070
      8          1           0       -1.386726    1.651020    0.129783
      9          1           0       -2.038059   -0.924463   -1.108401
     10          1           0       -2.694740   -0.428089    0.450282
     11          1           0       -0.859923   -1.865885    0.847843
     12          1           0       -0.394443   -0.264068    1.394202
     13          1           0        1.364436   -1.691553    0.144636
     14          1           0        0.458697   -1.386572   -1.325887
     15          1           0        2.335845    0.125186   -1.200827
     16          1           0        0.842588    1.064731   -1.055457
     17          1           0        2.416359    1.772778    0.573245
     18          1           0        2.539733    0.286445    1.203303
 ---------------------------------------------------------------------
                    Distance matrix (angstroms):
                    1          2          3          4          5
     1  N    0.000000
     2  C    1.471693   0.000000
     3  C    2.505628   1.533095   0.000000
     4  C    3.137987   2.611050   1.538920   0.000000
     5  C    3.225135   3.383806   2.608074   1.534207   0.000000
     6  N    3.820555   4.031554   3.064071   2.482244   1.472167
     7  H    1.018474   2.045375   3.370544   4.102592   4.209348
     8  H    1.018955   2.038715   2.659456   3.376424   3.220981
     9  H    2.090017   1.098521   2.159241   2.839242   3.777951
    10  H    2.149591   1.103591   2.145407   3.521416   4.355928
    11  H    3.412919   2.125385   1.097512   2.153028   3.499809
    12  H    2.771810   2.163097   1.097098   2.164028   2.758662
    13  H    4.183847   3.500292   2.155985   1.099628   2.145426
    14  H    3.318201   2.759405   2.168446   1.098367   2.151371
    15  H    4.141100   4.300063   3.526230   2.150937   1.103769
    16  H    2.529791   3.116663   2.859730   2.158354   1.093212
    17  H    4.315701   4.794645   4.000624   3.361091   2.044844
    18  H    4.666190   4.634482   3.411385   2.711390   2.043081
                    6          7          8          9         10
     6  N    0.000000
     7  H    4.795001   0.000000
     8  H    3.408833   1.621000   0.000000
     9  H    4.716575   2.435920   2.930945   0.000000
    10  H    4.784092   2.359966   2.477158   1.762700   0.000000
    11  H    3.913707   4.147192   3.627913   2.470054   2.364713
    12  H    2.649828   3.636492   2.500188   3.066042   2.491837
    13  H    2.732007   5.149647   4.329193   3.706144   4.262238
    14  H    3.415060   4.157896   3.840772   2.548457   3.744013
    15  H    2.152587   5.077050   4.237479   4.499038   5.323445
    16  H    2.087769   3.425135   2.591982   3.501117   4.124131
    17  H    1.018201   5.220070   3.830789   5.472191   5.566172
    18  H    1.019514   5.664609   4.293203   5.269388   5.336414
                   11         12         13         14         15
    11  H    0.000000
    12  H    1.755277   0.000000
    13  H    2.339372   2.587042   0.000000
    14  H    2.587199   3.063780   1.753801   0.000000
    15  H    4.286530   3.786841   2.460579   2.413450   0.000000
    16  H    3.887107   3.049062   3.051172   2.495875   1.770224
    17  H    4.904008   3.566977   3.645798   4.173804   2.422472
    18  H    4.039373   2.991471   2.532701   3.677839   2.418143
                   16         17         18
    16  H    0.000000
    17  H    2.372921   0.000000
    18  H    2.930533   1.619068   0.000000
 Stoichiometry    C4H12N2
 Framework group  C1[X(C4H12N2)]
 Deg. of freedom    48
 Full point group                 C1      NOp   1
 Largest Abelian subgroup         C1      NOp   1
 Largest concise Abelian subgroup C1      NOp   1
                         Standard orientation:                         
 ---------------------------------------------------------------------
 Center     Atomic      Atomic             Coordinates (Angstroms)
 Number     Number       Type             X           Y           Z
 ---------------------------------------------------------------------
      1          7           0       -1.637387   -1.193535    0.214450
      2          6           0       -1.857550    0.231091   -0.081944
      3          6           0       -0.584093    0.950753   -0.541047
      4          6           0        0.565643    1.025374    0.479156
      5          6           0        1.415733   -0.242456    0.633260
      6          7           0        2.041970   -0.624656   -0.643073
      7          1           0       -2.538958   -1.652507    0.331943
      8          1           0       -1.214293   -1.632235   -0.602131
      9          1           0       -2.234261    0.712206    0.830945
     10          1           0       -2.629544    0.384998   -0.855411
     11          1           0       -0.879553    1.974569   -0.803796
     12          1           0       -0.216148    0.490806   -1.466623
     13          1           0        1.234550    1.848824    0.189893
     14          1           0        0.163870    1.297037    1.464644
     15          1           0        2.156205   -0.064686    1.432262
     16          1           0        0.777491   -1.068546    0.957812
     17          1           0        2.611031   -1.456381   -0.497684
     18          1           0        2.699134    0.104680   -0.918048
 ---------------------------------------------------------------------
 Rotational constants (GHZ):           5.1822802           2.1073690           1.8039828
 Standard basis: 6-31G(d,p) (6D, 7F)
 There are   150 symmetry adapted cartesian basis functions of A   symmetry.
 There are   150 symmetry adapted basis functions of A   symmetry.
   150 basis functions,   252 primitive gaussians,   150 cartesian basis functions
    25 alpha electrons       25 beta electrons
       nuclear repulsion energy       257.8627148744 Hartrees.
 NAtoms=   18 NActive=   18 NUniq=   18 SFac= 1.00D+00 NAtFMM=   60 NAOKFM=F Big=F
 Integral buffers will be    131072 words long.
 Raffenetti 2 integral format.
 Two-electron integral symmetry is turned on.
 ------------------------------------------------------------------------------
 Polarizable Continuum Model (PCM)
 =================================
 Model                : PCM.
 Atomic radii         : UFF (Universal Force Field).
 Polarization charges : Total charges.
 Charge compensation  : None.
 Solution method      : Matrix inversion.
 Cavity type          : Scaled VdW (van der Waals Surface) (Alpha=1.100).
 Cavity algorithm     : GePol (No added spheres)
                        Default sphere list used, NSphG=   18.
                        Lebedev-Laikov grids with approx.  5.0 points / Ang**2.
                        Smoothing algorithm: York/Karplus (Gamma=1.0000).
                        Polarization charges: spherical gaussians, with
                                              point-specific exponents (IZeta= 3).
                        Self-potential: point-specific (ISelfS= 7).
                        Self-field    : sphere-specific E.n sum rule (ISelfD= 2).
 1st derivatives      : Analytical E(r).r(x)/FMM algorithm (CHGder, D1EAlg=3).
                        Cavity 1st derivative terms included.
 Solvent              : Water, Eps=  78.355300 Eps(inf)=   1.777849
 ------------------------------------------------------------------------------
 Spheres list:
 ISph  on   Nord     Re0    Alpha      Xe            Ye            Ze
    1   N      1    1.8300  1.100     -1.637387     -1.193535      0.214450
    2   C      2    1.9255  1.100     -1.857550      0.231091     -0.081944
    3   C      3    1.9255  1.100     -0.584093      0.950753     -0.541047
    4   C      4    1.9255  1.100      0.565643      1.025374      0.479156
    5   C      5    1.9255  1.100      1.415733     -0.242456      0.633260
    6   N      6    1.8300  1.100      2.041970     -0.624656     -0.643073
    7   H      7    1.4430  1.100     -2.538958     -1.652507      0.331943
    8   H      8    1.4430  1.100     -1.214293     -1.632235     -0.602131
    9   H      9    1.4430  1.100     -2.234261      0.712206      0.830945
   10   H     10    1.4430  1.100     -2.629544      0.384998     -0.855411
   11   H     11    1.4430  1.100     -0.879553      1.974569     -0.803796
   12   H     12    1.4430  1.100     -0.216148      0.490806     -1.466623
   13   H     13    1.4430  1.100      1.234550      1.848824      0.189893
   14   H     14    1.4430  1.100      0.163870      1.297037      1.464644
   15   H     15    1.4430  1.100      2.156205     -0.064686      1.432262
   16   H     16    1.4430  1.100      0.777491     -1.068546      0.957812
   17   H     17    1.4430  1.100      2.611031     -1.456381     -0.497684
   18   H     18    1.4430  1.100      2.699134      0.104680     -0.918048
 ------------------------------------------------------------------------------
 One-electron integrals computed using PRISM.
 NBasis=   150 RedAO= T EigKep=  4.53D-03  NBF=   150
 NBsUse=   150 1.00D-06 EigRej= -1.00D+00 NBFU=   150
 Initial guess from the checkpoint file:  "KIDHWZJUCRJVML-UHFFFAOYSA-N_conf_1_0.chk"
 B after Tr=    -0.000000   -0.000000    0.000000
         Rot=    0.999995    0.002150   -0.000758    0.001955 Ang=   0.34 deg.
 ExpMin= 1.61D-01 ExpMax= 4.17D+03 ExpMxC= 6.27D+02 IAcc=2 IRadAn=         4 AccDes= 0.00D+00
 Harris functional with IExCor=  402 and IRadAn=       4 diagonalized for initial guess.
 HarFok:  IExCor=  402 AccDes= 0.00D+00 IRadAn=         4 IDoV= 1 UseB2=F ITyADJ=14
 ICtDFT=  3500011 ScaDFX=  1.000000  1.000000  1.000000  1.000000
 FoFCou: FMM=F IPFlag=           0 FMFlag=      100000 FMFlg1=           0
         NFxFlg=           0 DoJE=T BraDBF=F KetDBF=T FulRan=T
         wScrn=  0.000000 ICntrl=       500 IOpCl=  0 I1Cent=   200000004 NGrid=           0
         NMat0=    1 NMatS0=      1 NMatT0=    0 NMatD0=    1 NMtDS0=    0 NMtDT0=    0
 Petite list used in FoFCou.
 Keep R1 ints in memory in canonical form, NReq=67061194.
 Requested convergence on RMS density matrix=1.00D-08 within  32 cycles.
 Requested convergence on MAX density matrix=1.00D-06.
 Requested convergence on             energy=1.00D-06.
 No special actions if energy rises.
 Inv3:  Mode=1 IEnd=     5179788.
 Iteration    1 A*A^-1 deviation from unit magnitude is 7.11D-15 for    740.
 Iteration    1 A*A^-1 deviation from orthogonality  is 4.20D-15 for    902    792.
 Iteration    1 A^-1*A deviation from unit magnitude is 7.55D-15 for    740.
 Iteration    1 A^-1*A deviation from orthogonality  is 3.23D-15 for   1165   1130.
 Error on total polarization charges =  0.00781
 SCF Done:  E(RB3LYP) =  -269.165337093     A.U. after    9 cycles
            NFock=  9  Conv=0.44D-08     -V/T= 2.0099
 QCSCF skips out because SCF is already converged.
 D1PCM: PCM CHGder 1st derivatives, ID1Alg=3 FixD1E=F DoIter=F DoCFld=F I1PDM=0.
 Calling FoFJK, ICntrl=      2127 FMM=F ISym2X=0 I1Cent= 0 IOpClX= 0 NMat=1 NMatS=1 NMatT=0.
 ***** Axes restored to original set *****
 -------------------------------------------------------------------
 Center     Atomic                   Forces (Hartrees/Bohr)
 Number     Number              X              Y              Z
 -------------------------------------------------------------------
      1        7           0.000978795    0.000877322   -0.000289398
      2        6          -0.000593852    0.000028974    0.000992193
      3        6          -0.000226099   -0.000757124   -0.000700326
      4        6          -0.000161745    0.000081418    0.000149038
      5        6           0.001108015   -0.000261143   -0.000389852
      6        7          -0.000322311    0.000250945    0.000891798
      7        1           0.000089151   -0.000055261   -0.000304870
      8        1          -0.000548535    0.000197738    0.000033347
      9        1          -0.000106280    0.000056690   -0.000143356
     10        1          -0.000031184   -0.000789079    0.000092410
     11        1          -0.000028490    0.000121612    0.000364894
     12        1           0.000120541    0.000283991   -0.000195239
     13        1          -0.000044114   -0.000059885    0.000041547
     14        1           0.000142854   -0.000003788   -0.000053347
     15        1          -0.000375895   -0.000254013   -0.000673351
     16        1          -0.000188265    0.000088108    0.000210323
     17        1          -0.000054279    0.000038776    0.000056042
     18        1           0.000241692    0.000154720   -0.000081853
 -------------------------------------------------------------------
 Cartesian Forces:  Max     0.001108015 RMS     0.000408190

 GradGradGradGradGradGradGradGradGradGradGradGradGradGradGradGradGradGrad
 Berny optimization.
 Using GEDIIS/GDIIS optimizer.
 FormGI is forming the generalized inverse of G from B-inverse, IUseBI=4.
 Internal  Forces:  Max     0.001194083 RMS     0.000242095
 Search for a local minimum.
 Step number   2 out of a maximum of   96
 All quantities printed in internal units (Hartrees-Bohrs-Radians)
 Mixed Optimization -- En-DIIS/RFO-DIIS
 Update second derivatives using D2CorX and points    1    2
 DE= -2.58D-03 DEPred=-2.55D-03 R= 1.01D+00
 TightC=F SS=  1.41D+00  RLast= 2.98D-01 DXNew= 5.0454D-01 8.9260D-01
 Trust test= 1.01D+00 RLast= 2.98D-01 DXMaxT set to 5.05D-01
 ITU=  1  0
 Use linear search instead of GDIIS.
     Eigenvalues ---    0.00063   0.00207   0.00275   0.00325   0.00439
     Eigenvalues ---    0.03148   0.03189   0.03300   0.03838   0.03959
     Eigenvalues ---    0.03986   0.04545   0.04773   0.05158   0.05284
     Eigenvalues ---    0.07318   0.07507   0.08419   0.08662   0.10556
     Eigenvalues ---    0.11477   0.12367   0.12778   0.14975   0.15046
     Eigenvalues ---    0.17014   0.17234   0.20456   0.22558   0.23799
     Eigenvalues ---    0.25009   0.27995   0.29649   0.31719   0.31878
     Eigenvalues ---    0.32444   0.32640   0.32951   0.33340   0.33544
     Eigenvalues ---    0.33793   0.36454   0.37071   0.38003   0.43625
     Eigenvalues ---    0.43974   0.44269   0.44343
 RFO step:  Lambda=-5.33813362D-04 EMin= 6.31393081D-04
 Quartic linear search produced a step of  0.12351.
 Iteration  1 RMS(Cart)=  0.12560162 RMS(Int)=  0.00771572
 Iteration  2 RMS(Cart)=  0.00837229 RMS(Int)=  0.00004937
 Iteration  3 RMS(Cart)=  0.00003006 RMS(Int)=  0.00004122
 Iteration  4 RMS(Cart)=  0.00000000 RMS(Int)=  0.00004122
 Variable       Old X    -DE/DX   Delta X   Delta X   Delta X     New X
                                 (Linear)    (Quad)   (Total)
    R1        2.78110   0.00119   0.00396  -0.00309   0.00087   2.78197
    R2        1.92464  -0.00001   0.00003   0.00123   0.00126   1.92590
    R3        1.92555  -0.00001  -0.00048   0.00195   0.00147   1.92702
    R4        2.89713   0.00010   0.00050   0.00033   0.00082   2.89795
    R5        2.07590   0.00010   0.00076  -0.00189  -0.00113   2.07477
    R6        2.08549   0.00017   0.00176  -0.00030   0.00146   2.08695
    R7        2.90814   0.00021   0.00104   0.00019   0.00122   2.90936
    R8        2.07400   0.00001  -0.00012  -0.00011  -0.00023   2.07376
    R9        2.07322   0.00001   0.00018   0.00089   0.00107   2.07429
   R10        2.89923   0.00022   0.00090  -0.00080   0.00010   2.89933
   R11        2.07799   0.00003   0.00031  -0.00034  -0.00003   2.07796
   R12        2.07561   0.00002   0.00034  -0.00030   0.00003   2.07565
   R13        2.78199   0.00090   0.00253  -0.00059   0.00194   2.78393
   R14        2.08582   0.00016   0.00176  -0.00138   0.00038   2.08620
   R15        2.06587   0.00007   0.00022   0.00008   0.00030   2.06617
   R16        1.92412  -0.00001  -0.00022   0.00047   0.00025   1.92437
   R17        1.92660   0.00002   0.00014  -0.00024  -0.00010   1.92650
    A1        1.90397   0.00004  -0.00136  -0.00306  -0.00445   1.89951
    A2        1.89388   0.00016  -0.00195  -0.00028  -0.00226   1.89162
    A3        1.84003  -0.00015  -0.00268  -0.00380  -0.00656   1.83347
    A4        1.97192  -0.00012  -0.00082  -0.00321  -0.00411   1.96781
    A5        1.88378  -0.00009  -0.00252  -0.00737  -0.00993   1.87385
    A6        1.96146   0.00052   0.00806   0.00218   0.01025   1.97170
    A7        1.90511  -0.00008  -0.00180   0.00079  -0.00112   1.90399
    A8        1.88148  -0.00011  -0.00135   0.00666   0.00523   1.88672
    A9        1.85612  -0.00014  -0.00166   0.00115  -0.00048   1.85564
   A10        2.03177   0.00008   0.00269  -0.00989  -0.00723   2.02454
   A11        1.86082   0.00001  -0.00073   0.00141   0.00066   1.86147
   A12        1.91179  -0.00007  -0.00126   0.00389   0.00260   1.91439
   A13        1.89084   0.00006   0.00196   0.00958   0.01154   1.90238
   A14        1.90610  -0.00009  -0.00346  -0.00178  -0.00523   1.90087
   A15        1.85397   0.00000   0.00086  -0.00251  -0.00162   1.85234
   A16        2.02693   0.00015   0.00058  -0.01016  -0.00957   2.01736
   A17        1.89272   0.00003   0.00121   0.00746   0.00866   1.90137
   A18        1.91082  -0.00006   0.00003   0.00144   0.00145   1.91227
   A19        1.88409  -0.00004  -0.00035  -0.00047  -0.00080   1.88329
   A20        1.89331  -0.00008  -0.00120   0.00307   0.00187   1.89517
   A21        1.84764  -0.00000  -0.00032  -0.00062  -0.00096   1.84667
   A22        1.94245   0.00002  -0.00154  -0.00259  -0.00425   1.93820
   A23        1.88739  -0.00025  -0.00110   0.00593   0.00480   1.89219
   A24        1.90793  -0.00015  -0.00466  -0.00193  -0.00673   1.90119
   A25        1.96495   0.00052   0.00889  -0.00330   0.00559   1.97055
   A26        1.88552  -0.00014  -0.00331   0.00409   0.00059   1.88611
   A27        1.87387  -0.00002   0.00193  -0.00228  -0.00035   1.87352
   A28        1.90288   0.00006   0.00027   0.00006   0.00033   1.90321
   A29        1.89896   0.00005  -0.00120   0.00022  -0.00098   1.89798
   A30        1.83653  -0.00011  -0.00226   0.00053  -0.00174   1.83479
    D1       -2.94769  -0.00037  -0.00780  -0.17260  -0.18043  -3.12812
    D2        1.22735  -0.00013  -0.00318  -0.16651  -0.16977   1.05758
    D3       -0.81382  -0.00021  -0.00424  -0.16455  -0.16876  -0.98258
    D4       -0.95148  -0.00044  -0.01283  -0.17885  -0.19165  -1.14314
    D5       -3.05963  -0.00020  -0.00821  -0.17276  -0.18100   3.04256
    D6        1.18239  -0.00028  -0.00927  -0.17079  -0.17998   1.00241
    D7       -1.10270   0.00022   0.00391  -0.01625  -0.01235  -1.11505
    D8        3.06892   0.00008   0.00025  -0.02329  -0.02305   3.04587
    D9        1.06986   0.00010   0.00025  -0.02300  -0.02277   1.04708
   D10        0.99327  -0.00002  -0.00116  -0.02710  -0.02825   0.96502
   D11       -1.11830  -0.00016  -0.00482  -0.03414  -0.03895  -1.15724
   D12       -3.11736  -0.00014  -0.00482  -0.03385  -0.03867   3.12715
   D13        3.00244  -0.00029  -0.00484  -0.02177  -0.02660   2.97585
   D14        0.89088  -0.00043  -0.00850  -0.02881  -0.03729   0.85358
   D15       -1.10819  -0.00041  -0.00850  -0.02853  -0.03702  -1.14520
   D16        1.37849  -0.00006  -0.00087   0.10186   0.10100   1.47948
   D17       -2.78057   0.00001  -0.00000   0.10002   0.10001  -2.68056
   D18       -0.77235  -0.00001   0.00028   0.10413   0.10442  -0.66794
   D19       -2.80916   0.00006   0.00138   0.10441   0.10581  -2.70336
   D20       -0.68504   0.00012   0.00224   0.10257   0.10482  -0.58022
   D21        1.32318   0.00010   0.00253   0.10667   0.10922   1.43241
   D22       -0.79698   0.00005   0.00166   0.10568   0.10733  -0.68965
   D23        1.32715   0.00011   0.00253   0.10384   0.10634   1.43349
   D24       -2.94782   0.00009   0.00282   0.10794   0.11074  -2.83707
   D25        1.03158  -0.00008  -0.00218   0.10255   0.10043   1.13201
   D26       -3.08470   0.00042   0.00722   0.10079   0.10800  -2.97670
   D27       -1.04979   0.00018   0.00628   0.10034   0.10658  -0.94320
   D28       -1.09711  -0.00018  -0.00388   0.10014   0.09631  -1.00080
   D29        1.06979   0.00032   0.00552   0.09838   0.10389   1.17367
   D30        3.10471   0.00008   0.00459   0.09793   0.10247  -3.07601
   D31       -3.09166  -0.00012  -0.00270   0.09956   0.09691  -2.99475
   D32       -0.92476   0.00038   0.00670   0.09780   0.10448  -0.82028
   D33        1.11016   0.00014   0.00577   0.09734   0.10306   1.21322
   D34        3.12191   0.00018   0.00568   0.07369   0.07937  -3.08191
   D35        1.12770   0.00026   0.00886   0.07291   0.08177   1.20947
   D36        0.99956   0.00012   0.00202   0.07024   0.07224   1.07180
   D37       -0.99465   0.00019   0.00520   0.06946   0.07464  -0.92001
   D38       -1.06659  -0.00008  -0.00346   0.07237   0.06894  -0.99765
   D39       -3.06080  -0.00001  -0.00027   0.07159   0.07135  -2.98946
         Item               Value     Threshold  Converged?
 Maximum Force            0.001194     0.000450     NO 
 RMS     Force            0.000242     0.000300     YES
 Maximum Displacement     0.470444     0.001800     NO 
 RMS     Displacement     0.125381     0.001200     NO 
 Predicted change in Energy=-3.901561D-04
 GradGradGradGradGradGradGradGradGradGradGradGradGradGradGradGradGradGrad

                          Input orientation:                          
 ---------------------------------------------------------------------
 Center     Atomic      Atomic             Coordinates (Angstroms)
 Number     Number       Type             X           Y           Z
 ---------------------------------------------------------------------
      1          7           0       -1.715452    1.055201   -0.720100
      2          6           0       -1.851297   -0.320992   -0.215244
      3          6           0       -0.595983   -0.810585    0.517013
      4          6           0        0.680304   -0.927785   -0.335998
      5          6           0        1.492618    0.364165   -0.494011
      6          7           0        2.038645    0.807583    0.800414
      7          1           0       -2.583247    1.323205   -1.182435
      8          1           0       -1.635674    1.684280    0.078494
      9          1           0       -2.038545   -0.970419   -1.080468
     10          1           0       -2.714843   -0.448622    0.461234
     11          1           0       -0.839133   -1.796354    0.933425
     12          1           0       -0.391123   -0.158722    1.376068
     13          1           0        1.338165   -1.688492    0.108625
     14          1           0        0.421631   -1.303103   -1.335336
     15          1           0        2.274556    0.193661   -1.254441
     16          1           0        0.835873    1.152008   -0.872761
     17          1           0        2.522428    1.694241    0.670812
     18          1           0        2.761077    0.150730    1.093565
 ---------------------------------------------------------------------
                    Distance matrix (angstroms):
                    1          2          3          4          5
     1  N    0.000000
     2  C    1.472155   0.000000
     3  C    2.502961   1.533530   0.000000
     4  C    3.133594   2.606105   1.539569   0.000000
     5  C    3.289431   3.424751   2.600858   1.534262   0.000000
     6  N    4.057896   4.175751   3.104843   2.479521   1.473194
     7  H    1.019141   2.043182   3.374967   4.053909   4.243390
     8  H    1.019734   2.038109   2.738176   3.515458   3.443353
     9  H    2.082640   1.097921   2.158351   2.819254   3.820230
    10  H    2.157734   1.104366   2.150279   3.520256   4.390427
    11  H    3.410783   2.126172   1.097388   2.162067   3.484606
    12  H    2.760683   2.165805   1.097664   2.161153   2.705381
    13  H    4.187984   3.485343   2.162967   1.099612   2.144861
    14  H    3.241486   2.717600   2.170094   1.098386   2.152818
    15  H    4.116787   4.285728   3.519454   2.154721   1.103972
    16  H    2.557721   3.134157   2.798831   2.153569   1.093371
    17  H    4.505844   4.896502   4.002786   3.358886   2.046075
    18  H    4.913935   4.817623   3.539264   2.745262   2.043267
                    6          7          8          9         10
     6  N    0.000000
     7  H    5.055635   0.000000
     8  H    3.845828   1.618088   0.000000
     9  H    4.829337   2.359620   2.924538   0.000000
    10  H    4.928362   2.420400   2.420819   1.762526   0.000000
    11  H    3.883269   4.153365   3.671538   2.485262   2.357464
    12  H    2.677480   3.680686   2.574735   3.067152   2.514088
    13  H    2.683213   5.110247   4.496689   3.651266   4.253056
    14  H    3.410448   3.993766   3.893055   2.495617   3.714199
    15  H    2.157541   4.987916   4.391875   4.470816   5.315090
    16  H    2.089211   3.437381   2.701249   3.579123   4.116934
    17  H    1.018335   5.444273   4.200090   5.565058   5.662579
    18  H    1.019460   5.925932   4.765875   5.387000   5.544796
                   11         12         13         14         15
    11  H    0.000000
    12  H    1.754560   0.000000
    13  H    2.330784   2.633826   0.000000
    14  H    2.641987   3.053176   1.753164   0.000000
    15  H    4.294412   3.761595   2.505449   2.383313   0.000000
    16  H    3.841978   2.877632   3.046942   2.532419   1.770288
    17  H    4.853175   3.524151   3.627866   4.173973   2.453524
    18  H    4.096131   3.179926   2.525375   3.672356   2.398266
                   16         17         18
    16  H    0.000000
    17  H    2.349702   0.000000
    18  H    2.928379   1.618054   0.000000
 Stoichiometry    C4H12N2
 Framework group  C1[X(C4H12N2)]
 Deg. of freedom    48
 Full point group                 C1      NOp   1
 Largest Abelian subgroup         C1      NOp   1
 Largest concise Abelian subgroup C1      NOp   1
                         Standard orientation:                         
 ---------------------------------------------------------------------
 Center     Atomic      Atomic             Coordinates (Angstroms)
 Number     Number       Type             X           Y           Z
 ---------------------------------------------------------------------
      1          7           0       -1.739301   -1.163534    0.158096
      2          6           0       -1.882129    0.278046   -0.103986
      3          6           0       -0.561242    0.939663   -0.515368
      4          6           0        0.554495    0.935954    0.545474
      5          6           0        1.413154   -0.334376    0.599549
      6          7           0        2.183677   -0.505616   -0.644345
      7          1           0       -2.650045   -1.543458    0.412755
      8          1           0       -1.494407   -1.626706   -0.716750
      9          1           0       -2.244732    0.744927    0.821201
     10          1           0       -2.634706    0.502445   -0.880451
     11          1           0       -0.798635    1.977739   -0.780518
     12          1           0       -0.182100    0.469817   -1.432081
     13          1           0        1.223890    1.788916    0.362413
     14          1           0        0.118008    1.106017    1.538957
     15          1           0        2.052913   -0.284895    1.497889
     16          1           0        0.756984   -1.201438    0.714029
     17          1           0        2.697007   -1.383934   -0.599022
     18          1           0        2.899514    0.218891   -0.688695
 ---------------------------------------------------------------------
 Rotational constants (GHZ):           5.4791892           1.9769436           1.7351766
 Standard basis: 6-31G(d,p) (6D, 7F)
 There are   150 symmetry adapted cartesian basis functions of A   symmetry.
 There are   150 symmetry adapted basis functions of A   symmetry.
   150 basis functions,   252 primitive gaussians,   150 cartesian basis functions
    25 alpha electrons       25 beta electrons
       nuclear repulsion energy       256.5357806355 Hartrees.
 NAtoms=   18 NActive=   18 NUniq=   18 SFac= 1.00D+00 NAtFMM=   60 NAOKFM=F Big=F
 Integral buffers will be    131072 words long.
 Raffenetti 2 integral format.
 Two-electron integral symmetry is turned on.
 ------------------------------------------------------------------------------
 Polarizable Continuum Model (PCM)
 =================================
 Model                : PCM.
 Atomic radii         : UFF (Universal Force Field).
 Polarization charges : Total charges.
 Charge compensation  : None.
 Solution method      : Matrix inversion.
 Cavity type          : Scaled VdW (van der Waals Surface) (Alpha=1.100).
 Cavity algorithm     : GePol (No added spheres)
                        Default sphere list used, NSphG=   18.
                        Lebedev-Laikov grids with approx.  5.0 points / Ang**2.
                        Smoothing algorithm: York/Karplus (Gamma=1.0000).
                        Polarization charges: spherical gaussians, with
                                              point-specific exponents (IZeta= 3).
                        Self-potential: point-specific (ISelfS= 7).
                        Self-field    : sphere-specific E.n sum rule (ISelfD= 2).
 1st derivatives      : Analytical E(r).r(x)/FMM algorithm (CHGder, D1EAlg=3).
                        Cavity 1st derivative terms included.
 Solvent              : Water, Eps=  78.355300 Eps(inf)=   1.777849
 ------------------------------------------------------------------------------
 Spheres list:
 ISph  on   Nord     Re0    Alpha      Xe            Ye            Ze
    1   N      1    1.8300  1.100     -1.739301     -1.163534      0.158096
    2   C      2    1.9255  1.100     -1.882129      0.278046     -0.103986
    3   C      3    1.9255  1.100     -0.561242      0.939663     -0.515368
    4   C      4    1.9255  1.100      0.554495      0.935954      0.545474
    5   C      5    1.9255  1.100      1.413154     -0.334376      0.599549
    6   N      6    1.8300  1.100      2.183677     -0.505616     -0.644345
    7   H      7    1.4430  1.100     -2.650045     -1.543458      0.412755
    8   H      8    1.4430  1.100     -1.494407     -1.626706     -0.716750
    9   H      9    1.4430  1.100     -2.244732      0.744927      0.821201
   10   H     10    1.4430  1.100     -2.634706      0.502445     -0.880451
   11   H     11    1.4430  1.100     -0.798635      1.977739     -0.780518
   12   H     12    1.4430  1.100     -0.182100      0.469817     -1.432081
   13   H     13    1.4430  1.100      1.223890      1.788916      0.362413
   14   H     14    1.4430  1.100      0.118008      1.106017      1.538957
   15   H     15    1.4430  1.100      2.052913     -0.284895      1.497889
   16   H     16    1.4430  1.100      0.756984     -1.201438      0.714029
   17   H     17    1.4430  1.100      2.697007     -1.383934     -0.599022
   18   H     18    1.4430  1.100      2.899514      0.218891     -0.688695
[...]
 Alpha virt. eigenvalues --    3.48627   3.51948   3.57049   3.60552   4.00077
 Alpha virt. eigenvalues --    4.01733   4.32979   4.49317   4.68874   4.69453
          Condensed to atoms (all electrons):
               1          2          3          4          5          6
     1  N    7.910599   0.304313  -0.053434   0.000184   0.004988  -0.000730
     2  C    0.304313   5.324016   0.419103  -0.028195  -0.002258  -0.000063
     3  C   -0.053434   0.419103   5.127146   0.411705  -0.043357  -0.000614
     4  C    0.000184  -0.028195   0.411705   5.169172   0.400978  -0.041238
     5  C    0.004988  -0.002258  -0.043357   0.400978   5.163897   0.297372
     6  N   -0.000730  -0.000063  -0.000614  -0.041238   0.297372   7.446517
     7  H   -0.302226  -0.069429   0.007546   0.000376  -0.002449   0.000016
     8  H   -0.310122  -0.037355  -0.017961   0.000693  -0.010866  -0.000032
     9  H   -0.100630   0.205850  -0.034735  -0.014599  -0.002873   0.000004
    10  H   -0.131539   0.142986  -0.057866   0.003080  -0.000499  -0.000040
    11  H   -0.000999  -0.121339   0.240675  -0.077256   0.004083  -0.000734
    12  H   -0.025191  -0.063093   0.275123  -0.062048  -0.012281   0.003043
    13  H   -0.000285  -0.000506  -0.067364   0.222000  -0.052864  -0.027814
    14  H   -0.002027  -0.020443  -0.041155   0.295632  -0.067499   0.001367
    15  H   -0.000740  -0.000003   0.003737  -0.067239   0.227467  -0.101114
    16  H   -0.011800   0.001319  -0.009931  -0.045060   0.236931  -0.081159
    17  H   -0.000404   0.000110  -0.001574   0.003724  -0.055576  -0.010558
    18  H   -0.000092   0.000044  -0.007074  -0.024685  -0.026928  -0.056686
               7          8          9         10         11         12
     1  N   -0.302226  -0.310122  -0.100630  -0.131539  -0.000999  -0.025191
     2  C   -0.069429  -0.037355   0.205850   0.142986  -0.121339  -0.063093
     3  C    0.007546  -0.017961  -0.034735  -0.057866   0.240675   0.275123
     4  C    0.000376   0.000693  -0.014599   0.003080  -0.077256  -0.062048
     5  C   -0.002449  -0.010866  -0.002873  -0.000499   0.004083  -0.012281
     6  N    0.000016  -0.000032   0.000004  -0.000040  -0.000734   0.003043
     7  H    0.946806   0.210599   0.043876   0.056482   0.001591   0.003875
     8  H    0.210599   0.926914   0.026022   0.052487   0.005443   0.034552
     9  H    0.043876   0.026022   0.699539   0.029649   0.020107   0.011647
    10  H    0.056482   0.052487   0.029649   0.768253   0.031849   0.015445
    11  H    0.001591   0.005443   0.020107   0.031849   0.797207   0.012729
    12  H    0.003875   0.034552   0.011647   0.015445   0.012729   0.688436
    13  H    0.000117   0.000727   0.002357   0.000622   0.021017   0.013889
    14  H    0.001174   0.001898   0.017739   0.001766   0.012011   0.010155
    15  H    0.000148   0.000898   0.000361   0.000037   0.000475   0.002069
    16  H    0.007371   0.025819   0.002939   0.001103   0.001730   0.007623
    17  H    0.000061   0.002077   0.000020   0.000018   0.000180   0.003219
    18  H    0.000014   0.000557   0.000035   0.000029   0.001366   0.008109
              13         14         15         16         17         18
     1  N   -0.000285  -0.002027  -0.000740  -0.011800  -0.000404  -0.000092
     2  C   -0.000506  -0.020443  -0.000003   0.001319   0.000110   0.000044
     3  C   -0.067364  -0.041155   0.003737  -0.009931  -0.001574  -0.007074
     4  C    0.222000   0.295632  -0.067239  -0.045060   0.003724  -0.024685
     5  C   -0.052864  -0.067499   0.227467   0.236931  -0.055576  -0.026928
     6  N   -0.027814   0.001367  -0.101114  -0.081159  -0.010558  -0.056686
     7  H    0.000117   0.001174   0.000148   0.007371   0.000061   0.000014
     8  H    0.000727   0.001898   0.000898   0.025819   0.002077   0.000557
     9  H    0.002357   0.017739   0.000361   0.002939   0.000020   0.000035
    10  H    0.000622   0.001766   0.000037   0.001103   0.000018   0.000029
    11  H    0.021017   0.012011   0.000475   0.001730   0.000180   0.001366
    12  H    0.013889   0.010155   0.002069   0.007623   0.003219   0.008109
    13  H    0.760004   0.002072   0.018635   0.013746   0.003835   0.034687
    14  H    0.002072   0.682814   0.014602   0.010219   0.000540   0.002366
    15  H    0.018635   0.014602   0.736897   0.008770   0.031424   0.033722
    16  H    0.013746   0.010219   0.008770   0.694983   0.026896   0.019838
    17  H    0.003835   0.000540   0.031424   0.026896   0.720721   0.106001
    18  H    0.034687   0.002366   0.033722   0.019838   0.106001   0.753570
 Mulliken charges:
               1
     1  N   -0.279864
     2  C   -0.055058
     3  C   -0.149967
     4  C   -0.147226
     5  C   -0.058266
     6  N   -0.427536
     7  H    0.094052
     8  H    0.087650
     9  H    0.092693
    10  H    0.086138
    11  H    0.049863
    12  H    0.072697
    13  H    0.055125
    14  H    0.076769
    15  H    0.089853
    16  H    0.088664
    17  H    0.169287
    18  H    0.155128
 Sum of Mulliken charges =  -0.00000
 Mulliken charges with hydrogens summed into heavy atoms:
               1
     1  N   -0.098162
     2  C    0.123772
     3  C   -0.027407
     4  C   -0.015333
     5  C    0.120251
     6  N   -0.103121
 Electronic spatial extent (au):  <R**2>=            782.2685
 Charge=              0.0000 electrons
 Dipole moment (field-independent basis, Debye):
    X=              0.1333    Y=             -0.0854    Z=              0.7116  Tot=              0.7290
 Quadrupole moment (field-independent basis, Debye-Ang):
   XX=            -36.9986   YY=            -42.0828   ZZ=            -42.9604
   XY=             -1.2121   XZ=              0.9842   YZ=              0.0167
 Traceless Quadrupole moment (field-independent basis, Debye-Ang):
   XX=              3.6820   YY=             -1.4022   ZZ=             -2.2798
   XY=             -1.2121   XZ=              0.9842   YZ=              0.0167
 Octapole moment (field-independent basis, Debye-Ang**2):
  XXX=             10.4219  YYY=             -4.8659  ZZZ=              2.6772  XYY=              2.1167
  XXY=             -2.6807  XXZ=             -0.9851  XZZ=              0.6303  YZZ=              0.5011
  YYZ=             -0.1515  XYZ=             -1.1677
 Hexadecapole moment (field-independent basis, Debye-Ang**3):
 XXXX=           -663.4462 YYYY=           -260.3974 ZZZZ=           -144.8480 XXXY=            -14.2039
 XXXZ=             -9.6120 YYYX=             -5.5928 YYYZ=              1.1035 ZZZX=             -0.2651
 ZZZY=             -0.3146 XXYY=           -153.7117 XXZZ=           -141.5774 YYZZ=            -68.9079
 XXYZ=              0.1356 YYXZ=             -1.9048 ZZXY=             -1.3114
 N-N= 2.569380706875D+02 E-N=-1.137125182003D+03  KE= 2.666921680078D+02
 Evaluate density.
 Using the total density.
 Monte-Carlo method of calculating molar volume:
 based on  0.001 e/bohr**3 density envelope.
 Number of points per bohr**3 =   20 CutOff= 1.00D-04
 Using the CI density.
 There are       336 points.  Will hold       336 in memory.
 LenV=   805231974 MDV=   805306368.
 Box volume = 4775.394 fraction occupied=0.244
 Integrated density= 5.3697430193152798D+01 error= 3.6974301931527975D+00
 Molar volume = 1165.423 bohr**3/mol (104.001 cm**3/mol)
 Recommended a0 for SCRF calculation =  4.30 angstrom (  8.13 bohr)
 ******************************Gaussian NBO Version 3.1******************************
             N A T U R A L   A T O M I C   O R B I T A L   A N D
          N A T U R A L   B O N D   O R B I T A L   A N A L Y S I S
 ******************************Gaussian NBO Version 3.1******************************
       /RESON  / : Allow strongly delocalized NBO set

 Analyzing the CI density

 Job title: KIDHWZJUCRJVML-UHFFFAOYSA-N_conf_1                              

 Storage needed:     68640 in NPA ( 805304568 available)
 GSVD:  LWork=       11556 too small for GESVD, short by        9684 words or        9684 for optimal perf.


 NATURAL POPULATIONS:  Natural atomic orbital occupancies 
                                                          
   NAO  Atom  No  lang   Type(AO)    Occupancy
 --------------------------------------------
     1    N    1  S      Cor( 1S)     1.99945
     2    N    1  S      Val( 2S)     1.48700
     3    N    1  S      Ryd( 3S)     0.00784
     4    N    1  S      Ryd( 4S)     0.00008
     5    N    1  px     Val( 2p)     1.40049
     6    N    1  px     Ryd( 3p)     0.00186
     7    N    1  py     Val( 2p)     1.29543
     8    N    1  py     Ryd( 3p)     0.00213
     9    N    1  pz     Val( 2p)     1.39543
    10    N    1  pz     Ryd( 3p)     0.00197
    11    N    1  dxy    Ryd( 3d)     0.00060
    12    N    1  dxz    Ryd( 3d)     0.00018
    13    N    1  dyz    Ryd( 3d)     0.00074
    14    N    1  dx2y2  Ryd( 3d)     0.00071
    15    N    1  dz2    Ryd( 3d)     0.00089

    16    C    2  S      Cor( 1S)     1.99933
    17    C    2  S      Val( 2S)     1.04881
    18    C    2  S      Ryd( 3S)     0.00200
    19    C    2  S      Ryd( 4S)     0.00004
    20    C    2  px     Val( 2p)     1.13491
    21    C    2  px     Ryd( 3p)     0.00111
    22    C    2  py     Val( 2p)     0.90072
    23    C    2  py     Ryd( 3p)     0.00620
    24    C    2  pz     Val( 2p)     1.21573
    25    C    2  pz     Ryd( 3p)     0.00304
    26    C    2  dxy    Ryd( 3d)     0.00074
    27    C    2  dxz    Ryd( 3d)     0.00095
    28    C    2  dyz    Ryd( 3d)     0.00088
    29    C    2  dx2y2  Ryd( 3d)     0.00136
    30    C    2  dz2    Ryd( 3d)     0.00072

    31    C    3  S      Cor( 1S)     1.99932
    32    C    3  S      Val( 2S)     1.04286
    33    C    3  S      Ryd( 3S)     0.00115
    34    C    3  S      Ryd( 4S)     0.00002
    35    C    3  px     Val( 2p)     1.04011
    36    C    3  px     Ryd( 3p)     0.00266
    37    C    3  py     Val( 2p)     1.21746
    38    C    3  py     Ryd( 3p)     0.00464
    39    C    3  pz     Val( 2p)     1.16567
    40    C    3  pz     Ryd( 3p)     0.00171
    41    C    3  dxy    Ryd( 3d)     0.00058
    42    C    3  dxz    Ryd( 3d)     0.00068
    43    C    3  dyz    Ryd( 3d)     0.00050
    44    C    3  dx2y2  Ryd( 3d)     0.00071
    45    C    3  dz2    Ryd( 3d)     0.00062

    46    C    4  S      Cor( 1S)     1.99932
    47    C    4  S      Val( 2S)     1.04794
    48    C    4  S      Ryd( 3S)     0.00100
    49    C    4  S      Ryd( 4S)     0.00003
    50    C    4  px     Val( 2p)     1.10987
    51    C    4  px     Ryd( 3p)     0.00361
    52    C    4  py     Val( 2p)     1.13397
    53    C    4  py     Ryd( 3p)     0.00219
    54    C    4  pz     Val( 2p)     1.17300
    55    C    4  pz     Ryd( 3p)     0.00321
    56    C    4  dxy    Ryd( 3d)     0.00092
    57    C    4  dxz    Ryd( 3d)     0.00068
    58    C    4  dyz    Ryd( 3d)     0.00031
    59    C    4  dx2y2  Ryd( 3d)     0.00036
    60    C    4  dz2    Ryd( 3d)     0.00082

    61    C    5  S      Cor( 1S)     1.99931
    62    C    5  S      Val( 2S)     1.03933
    63    C    5  S      Ryd( 3S)     0.00184
    64    C    5  S      Ryd( 4S)     0.00004
    65    C    5  px     Val( 2p)     1.09654
    66    C    5  px     Ryd( 3p)     0.00395
    67    C    5  py     Val( 2p)     1.14161
    68    C    5  py     Ryd( 3p)     0.00142
    69    C    5  pz     Val( 2p)     1.00272
    70    C    5  pz     Ryd( 3p)     0.00529
    71    C    5  dxy    Ryd( 3d)     0.00099
    72    C    5  dxz    Ryd( 3d)     0.00132
    73    C    5  dyz    Ryd( 3d)     0.00053
    74    C    5  dx2y2  Ryd( 3d)     0.00058
    75    C    5  dz2    Ryd( 3d)     0.00125

    76    N    6  S      Cor( 1S)     1.99954
    77    N    6  S      Val( 2S)     1.46735
    78    N    6  S      Ryd( 3S)     0.00402
    79    N    6  S      Ryd( 4S)     0.00010
    80    N    6  px     Val( 2p)     1.42299
    81    N    6  px     Ryd( 3p)     0.00368
    82    N    6  py     Val( 2p)     1.39550
    83    N    6  py     Ryd( 3p)     0.00148
    84    N    6  pz     Val( 2p)     1.42564
    85    N    6  pz     Ryd( 3p)     0.00253
    86    N    6  dxy    Ryd( 3d)     0.00114
    87    N    6  dxz    Ryd( 3d)     0.00080
    88    N    6  dyz    Ryd( 3d)     0.00046
    89    N    6  dx2y2  Ryd( 3d)     0.00013
    90    N    6  dz2    Ryd( 3d)     0.00119

    91    H    7  S      Val( 1S)     0.68125
    92    H    7  S      Ryd( 2S)     0.05951
    93    H    7  px     Ryd( 2p)     0.00067
    94    H    7  py     Ryd( 2p)     0.00030
    95    H    7  pz     Ryd( 2p)     0.00028

    96    H    8  S      Val( 1S)     0.67492
    97    H    8  S      Ryd( 2S)     0.06526
    98    H    8  px     Ryd( 2p)     0.00029
    99    H    8  py     Ryd( 2p)     0.00031
   100    H    8  pz     Ryd( 2p)     0.00067

   101    H    9  S      Val( 1S)     0.76021
   102    H    9  S      Ryd( 2S)     0.01658
   103    H    9  px     Ryd( 2p)     0.00012
   104    H    9  py     Ryd( 2p)     0.00017
   105    H    9  pz     Ryd( 2p)     0.00030

   106    H   10  S      Val( 1S)     0.74822
   107    H   10  S      Ryd( 2S)     0.02515
   108    H   10  px     Ryd( 2p)     0.00024
   109    H   10  py     Ryd( 2p)     0.00013
   110    H   10  pz     Ryd( 2p)     0.00024

   111    H   11  S      Val( 1S)     0.78394
   112    H   11  S      Ryd( 2S)     0.01414
   113    H   11  px     Ryd( 2p)     0.00011
   114    H   11  py     Ryd( 2p)     0.00033
   115    H   11  pz     Ryd( 2p)     0.00011

   116    H   12  S      Val( 1S)     0.76278
   117    H   12  S      Ryd( 2S)     0.01502
   118    H   12  px     Ryd( 2p)     0.00014
   119    H   12  py     Ryd( 2p)     0.00016
   120    H   12  pz     Ryd( 2p)     0.00027

   121    H   13  S      Val( 1S)     0.77300
   122    H   13  S      Ryd( 2S)     0.01779
   123    H   13  px     Ryd( 2p)     0.00019
   124    H   13  py     Ryd( 2p)     0.00027
   125    H   13  pz     Ryd( 2p)     0.00010

   126    H   14  S      Val( 1S)     0.76516
   127    H   14  S      Ryd( 2S)     0.00824
   128    H   14  px     Ryd( 2p)     0.00013
   129    H   14  py     Ryd( 2p)     0.00011
   130    H   14  pz     Ryd( 2p)     0.00030

   131    H   15  S      Val( 1S)     0.75762
   132    H   15  S      Ryd( 2S)     0.01695
   133    H   15  px     Ryd( 2p)     0.00020
   134    H   15  py     Ryd( 2p)     0.00010
   135    H   15  pz     Ryd( 2p)     0.00027

   136    H   16  S      Val( 1S)     0.76714
   137    H   16  S      Ryd( 2S)     0.01477
   138    H   16  px     Ryd( 2p)     0.00024
   139    H   16  py     Ryd( 2p)     0.00025
   140    H   16  pz     Ryd( 2p)     0.00012

   141    H   17  S      Val( 1S)     0.64463
   142    H   17  S      Ryd( 2S)     0.03708
   143    H   17  px     Ryd( 2p)     0.00043
   144    H   17  py     Ryd( 2p)     0.00049
   145    H   17  pz     Ryd( 2p)     0.00037

   146    H   18  S      Val( 1S)     0.64810
   147    H   18  S      Ryd( 2S)     0.04229
   148    H   18  px     Ryd( 2p)     0.00052
   149    H   18  py     Ryd( 2p)     0.00044
   150    H   18  pz     Ryd( 2p)     0.00035


 Summary of Natural Population Analysis:                  
                                                          
                                       Natural Population 
                Natural  -----------------------------------------------
    Atom  No    Charge         Core      Valence    Rydberg      Total
 -----------------------------------------------------------------------
      N    1   -0.59479      1.99945     5.57835    0.01700     7.59479
      C    2   -0.31653      1.99933     4.30017    0.01703     6.31653
      C    3   -0.47869      1.99932     4.46610    0.01328     6.47869
      C    4   -0.47720      1.99932     4.46478    0.01311     6.47720
      C    5   -0.29673      1.99931     4.28021    0.01721     6.29673
      N    6   -0.72656      1.99954     5.71147    0.01555     7.72656
      H    7    0.25798      0.00000     0.68125    0.06076     0.74202
      H    8    0.25855      0.00000     0.67492    0.06653     0.74145
      H    9    0.22262      0.00000     0.76021    0.01717     0.77738
      H   10    0.22603      0.00000     0.74822    0.02576     0.77397
      H   11    0.20137      0.00000     0.78394    0.01469     0.79863
      H   12    0.22164      0.00000     0.76278    0.01558     0.77836
      H   13    0.20864      0.00000     0.77300    0.01835     0.79136
      H   14    0.22605      0.00000     0.76516    0.00879     0.77395
      H   15    0.22484      0.00000     0.75762    0.01753     0.77516
      H   16    0.21748      0.00000     0.76714    0.01538     0.78252
      H   17    0.31699      0.00000     0.64463    0.03838     0.68301
      H   18    0.30830      0.00000     0.64810    0.04360     0.69170
 =======================================================================
   * Total *   -0.00000     11.99626    37.56804    0.43570    50.00000

                                 Natural Population      
 --------------------------------------------------------
   Core                      11.99626 ( 99.9688% of  12)
   Valence                   37.56804 ( 98.8633% of  38)
   Natural Minimal Basis     49.56430 ( 99.1286% of  50)
   Natural Rydberg Basis      0.43570 (  0.8714% of  50)
 --------------------------------------------------------

    Atom  No          Natural Electron Configuration
 ----------------------------------------------------------------------------
      N    1      [core]2S( 1.49)2p( 4.09)3S( 0.01)3p( 0.01)
      C    2      [core]2S( 1.05)2p( 3.25)3p( 0.01)
      C    3      [core]2S( 1.04)2p( 3.42)3p( 0.01)
      C    4      [core]2S( 1.05)2p( 3.42)3p( 0.01)
      C    5      [core]2S( 1.04)2p( 3.24)3p( 0.01)
      N    6      [core]2S( 1.47)2p( 4.24)3p( 0.01)
      H    7            1S( 0.68)2S( 0.06)
      H    8            1S( 0.67)2S( 0.07)
      H    9            1S( 0.76)2S( 0.02)
      H   10            1S( 0.75)2S( 0.03)
      H   11            1S( 0.78)2S( 0.01)
      H   12            1S( 0.76)2S( 0.02)
      H   13            1S( 0.77)2S( 0.02)
      H   14            1S( 0.77)2S( 0.01)
      H   15            1S( 0.76)2S( 0.02)
      H   16            1S( 0.77)2S( 0.01)
      H   17            1S( 0.64)2S( 0.04)
      H   18            1S( 0.65)2S( 0.04)


 NBO analysis skipped by request.
 1\1\GINC-CN33\SP\RB3LYP TD-FC\6-31G(d,p)\C4H12N2\QDUEZ\09-Jul-2024\0\\
 # TD(NStates=10, Root=1) B3LYP/6-31G** SCRF=(Solvent=water) volume pop
 =NPA density=current Geom=AllCheck Guess=Read\\KIDHWZJUCRJVML-UHFFFAOY
 SA-N_conf_1\\0,1\N,0,-1.6921016182,1.0749536912,-0.6898652087\C,0,-1.8
 40277691,-0.3136399067,-0.2217112183\C,0,-0.5960584336,-0.8302914659,0
 .5107980057\C,0,0.6863117949,-0.9478885571,-0.3326715151\C,0,1.4856440
 737,0.3498514136,-0.5116688495\N,0,1.9896126473,0.8461313293,0.7808169
 825\H,0,-2.5654824971,1.3741215904,-1.1203969677\H,0,-1.5706540792,1.6
 812378856,0.1202806428\H,0,-2.02519463,-0.942413132,-1.1030351552\H,0,
 -2.7102571401,-0.4508887899,0.4438888273\H,0,-0.8505335421,-1.82087521
 47,0.908838493\H,0,-0.3926673074,-0.1950433679,1.3823706481\H,0,1.3480
 442764,-1.6938810019,0.1306985326\H,0,0.4374718442,-1.344567796,-1.326
 3100814\H,0,2.2896331416,0.1650081398,-1.2451092032\H,0,0.828744207,1.
 1149890618,-0.9344305546\H,0,2.4746544639,1.7288862015,0.6316702232\H,
 0,2.7031104897,0.2043099188,1.1246929226\\Version=EM64L-G16RevA.03\Sta
 te=1-A\HF=-269.1655739\RMSD=7.419e-10\Dipole=0.0946584,-0.0063095,-0.2
 70681\Quadrupole=2.7721702,-0.932356,-1.8398142,1.0359129,-0.1780191,0
 .0102206\PG=C01 [X(C4H12N2)]\\@


 MEMORIES ARE LIKE AN ENGLISH GRAMMER LESSON -
 PRESENT TENSE, AND PAST PERFECT.
 Job cpu time:       0 days  0 hours 31 minutes 44.4 seconds.
 Elapsed time:       0 days  0 hours 18 minutes 30.8 seconds.
 File lengths (MBytes):  RWF=    244 Int=      0 D2E=      0 Chk=     15 Scr=      1
 Normal termination of Gaussian 16 at Tue Jul  9 18:41:41 2024.
