 Entering Gaussian System, Link 0=g16
 Initial command:
 /opt/sw/arch/manual/gaussian/G16_A03/g16/l1.exe "/scratch/1030805.jesse.materianova.be/Gau-26772.inp" -scrdir="/scratch/1030805.jesse.materianova.be/"
 Entering Link 1 = /opt/sw/arch/manual/gaussian/G16_A03/g16/l1.exe PID=     26773.
  
 Copyright (c) 1988,1990,1992,1993,1995,1998,2003,2009,2016,
            Gaussian, Inc.  All Rights Reserved.
  
 This is part of the Gaussian(R) 16 program.  It is based on
 the Gaussian(R) 09 system (copyright 2009, Gaussian, Inc.),
 the Gaussian(R) 03 system (copyright 2003, Gaussian, Inc.),
 the Gaussian(R) 98 system (copyright 1998, Gaussian, Inc.),
 the Gaussian(R) 94 system (copyright 1995, Gaussian, Inc.),
 the Gaussian 92(TM) system (copyright 1992, Gaussian, Inc.),
 the Gaussian 90(TM) system (copyright 1990, Gaussian, Inc.),
 the Gaussian 88(TM) system (copyright 1988, Gaussian, Inc.),
 the Gaussian 86(TM) system (copyright 1986, Carnegie Mellon
 University), and the Gaussian 82(TM) system (copyright 1983,
 Carnegie Mellon University). Gaussian is a federally registered
 trademark of Gaussian, Inc.
  
 This software contains proprietary and confidential information,
 including trade secrets, belonging to Gaussian, Inc.
  
 This software is provided under written license and may be
 used, copied, transmitted, or stored only in accord with that
 written license.
  
 The following legend is applicable only to US Government
 contracts under FAR:
  
                    RESTRICTED RIGHTS LEGEND
  
 Use, reproduction and disclosure by the US Government is
 subject to restrictions as set forth in subparagraphs (a)
 and (c) of the Commercial Computer Software - Restricted
 Rights clause in FAR 52.227-19.
  
 Gaussian, Inc.
 340 Quinnipiac St., Bldg. 40, Wallingford CT 06492
  
  
 ---------------------------------------------------------------
 Warning -- This program may not be used in any manner that
 competes with the business of Gaussian, Inc. or will provide
 assistance to any competitor of Gaussian, Inc.  The licensee
 of this program is prohibited from giving any competitor of
 Gaussian, Inc. access to this program.  By using this program,
 the user acknowledges that Gaussian, Inc. is engaged in the
 business of creating and licensing software in the field of
 computational chemistry and represents and warrants to the
 licensee that it is not a competitor of Gaussian, Inc. and that
 it will not use this program in any manner prohibited above.
 ---------------------------------------------------------------
  

 Cite this work as:
 Gaussian 16, Revision A.03,
 M. J. Frisch, G. W. Trucks, H. B. Schlegel, G. E. Scuseria, 
 M. A. Robb, J. R. Cheeseman, G. Scalmani, V. Barone, 
 G. A. Petersson, H. Nakatsuji, X. Li, M. Caricato, A. V. Marenich, 
 J. Bloino, B. G. Janesko, R. Gomperts, B. Mennucci, H. P. Hratchian, 
 J. V. Ortiz, A. F. Izmaylov, J. L. Sonnenberg, D. Williams-Young, 
 F. Ding, F. Lipparini, F. Egidi, J. Goings, B. Peng, A. Petrone, 
 T. Henderson, D. Ranasinghe, V. G. Zakrzewski, J. Gao, N. Rega, 
 G. Zheng, W. Liang, M. Hada, M. Ehara, K. Toyota, R. Fukuda, 
 J. Hasegawa, M. Ishida, T. Nakajima, Y. Honda, O. Kitao, H. Nakai, 
 T. Vreven, K. Throssell, J. A. Montgomery, Jr., J. E. Peralta, 
 F. Ogliaro, M. J. Bearpark, J. J. Heyd, E. N. Brothers, K. N. Kudin, 
 V. N. Staroverov, T. A. Keith, R. Kobayashi, J. Normand, 
 K. Raghavachari, A. P. Rendell, J. C. Burant, S. S. Iyengar, 
 J. Tomasi, M. Cossi, J. M. Millam, M. Klene, C. Adamo, R. Cammi, 
 J. W. Ochterski, R. L. Martin, K. Morokuma, O. Farkas, 
 J. B. Foresman, and D. J. Fox, Gaussian, Inc., Wallingford CT, 2016.
 
 ******************************************
 Gaussian 16:  EM64L-G16RevA.03 25-Dec-2016
                 9-Jul-2024 
 ******************************************
 %nprocshared=3
 Will use up to    3 processors via shared memory.
 %mem=6GB
 %Chk=KIDHWZJUCRJVML-UHFFFAOYSA-N_conf_0_0.chk
 -------------------------------------------------------
 # opt=CalcFc B3LYP/6-31G** SCRF=(Solvent=water) scf=xqc
 -------------------------------------------------------
 1/10=4,18=20,19=15,26=3,38=1/1,3;
 2/9=110,12=2,17=6,18=5,40=1/2;
 3/5=1,6=6,7=101,11=2,25=1,30=1,70=2201,71=2,72=1,74=-5,140=1/1,2,3;
 4//1;
 5/5=2,8=3,13=1,38=5,53=1/2,8;
 8/6=4,10=90,11=11/1;
 11/6=1,8=1,9=11,15=111,16=1/1,2,10;
 10/6=1,13=1/2;
 6/7=2,8=2,9=2,10=2,28=1/1;
 7/10=1,18=20,25=1/1,2,3,16;
 1/10=4,18=20,19=15,26=3/3(2);
 2/9=110/2;
 99//99;
 2/9=110/2;
 3/5=1,6=6,7=101,11=2,25=1,30=1,70=2205,71=1,72=1,74=-5/1,2,3;
 4/5=5,16=3,69=1/1;
 5/5=2,8=3,13=1,38=5,53=1/2,8;
 7//1,2,3,16;
 1/18=20,19=15,26=3/3(-5);
 2/9=110/2;
 6/7=2,8=2,9=2,10=2,19=2,28=1/1;
 99/9=1/99;
 ----------------------------------
 KIDHWZJUCRJVML-UHFFFAOYSA-N_conf_0
 ----------------------------------
 Symbolic Z-matrix:
 Charge =  0 Multiplicity = 1
 N                    -2.3593    0.03604  -1.32023 
 C                    -2.04447  -0.6201   -0.05729 
 C                    -0.54893  -0.88927   0.12382 
 C                     0.29205   0.3872    0.22057 
 C                     1.75778   0.05901   0.50159 
 N                     2.54357   1.28476   0.57147 
 H                    -1.94853  -0.48807  -2.09207 
 H                    -1.92812   0.9592   -1.34927 
 H                    -2.42126  -0.00843   0.76972 
 H                    -2.58432  -1.57262  -0.02026 
 H                    -0.18192  -1.51153  -0.70216 
 H                    -0.41634  -1.4766    1.04111 
 H                    -0.10557   1.0264    1.01893 
 H                     0.22107   0.95444  -0.71521 
 H                     1.851    -0.48691   1.4468 
 H                     2.16012  -0.57799  -0.29336 
 H                     3.51007   1.05472   0.79979 
 H                     2.20311   1.86973   1.33377 
 

 GradGradGradGradGradGradGradGradGradGradGradGradGradGradGradGradGradGrad
 Berny optimization.
 Initialization pass.
                           ----------------------------
                           !    Initial Parameters    !
                           ! (Angstroms and Degrees)  !
 --------------------------                            --------------------------
 ! Name  Definition              Value          Derivative Info.                !
 --------------------------------------------------------------------------------
 ! R1    R(1,2)                  1.4576         calculate D2E/DX2 analytically  !
 ! R2    R(1,7)                  1.0194         calculate D2E/DX2 analytically  !
 ! R3    R(1,8)                  1.0193         calculate D2E/DX2 analytically  !
 ! R4    R(2,3)                  1.5303         calculate D2E/DX2 analytically  !
 ! R5    R(2,9)                  1.0955         calculate D2E/DX2 analytically  !
 ! R6    R(2,10)                 1.0955         calculate D2E/DX2 analytically  !
 ! R7    R(3,4)                  1.5317         calculate D2E/DX2 analytically  !
 ! R8    R(3,11)                 1.0973         calculate D2E/DX2 analytically  !
 ! R9    R(3,12)                 1.0972         calculate D2E/DX2 analytically  !
 ! R10   R(4,5)                  1.5281         calculate D2E/DX2 analytically  !
 ! R11   R(4,13)                 1.0973         calculate D2E/DX2 analytically  !
 ! R12   R(4,14)                 1.0966         calculate D2E/DX2 analytically  !
 ! R13   R(5,6)                  1.4577         calculate D2E/DX2 analytically  !
 ! R14   R(5,15)                 1.0955         calculate D2E/DX2 analytically  !
 ! R15   R(5,16)                 1.0953         calculate D2E/DX2 analytically  !
 ! R16   R(6,17)                 1.0194         calculate D2E/DX2 analytically  !
 ! R17   R(6,18)                 1.0194         calculate D2E/DX2 analytically  !
 ! A1    A(2,1,7)              109.7288         calculate D2E/DX2 analytically  !
 ! A2    A(2,1,8)              109.938          calculate D2E/DX2 analytically  !
 ! A3    A(7,1,8)              105.8793         calculate D2E/DX2 analytically  !
 ! A4    A(1,2,3)              113.1291         calculate D2E/DX2 analytically  !
 ! A5    A(1,2,9)              109.1764         calculate D2E/DX2 analytically  !
 ! A6    A(1,2,10)             108.3153         calculate D2E/DX2 analytically  !
 ! A7    A(3,2,9)              110.1818         calculate D2E/DX2 analytically  !
 ! A8    A(3,2,10)             108.9444         calculate D2E/DX2 analytically  !
 ! A9    A(9,2,10)             106.886          calculate D2E/DX2 analytically  !
 ! A10   A(2,3,4)              113.4199         calculate D2E/DX2 analytically  !
 ! A11   A(2,3,11)             109.7248         calculate D2E/DX2 analytically  !
 ! A12   A(2,3,12)             108.1303         calculate D2E/DX2 analytically  !
 ! A13   A(4,3,11)             109.664          calculate D2E/DX2 analytically  !
 ! A14   A(4,3,12)             109.0834         calculate D2E/DX2 analytically  !
 ! A15   A(11,3,12)            106.5777         calculate D2E/DX2 analytically  !
 ! A16   A(3,4,5)              111.0561         calculate D2E/DX2 analytically  !
 ! A17   A(3,4,13)             109.4191         calculate D2E/DX2 analytically  !
 ! A18   A(3,4,14)             109.9777         calculate D2E/DX2 analytically  !
 ! A19   A(5,4,13)             109.8087         calculate D2E/DX2 analytically  !
 ! A20   A(5,4,14)             109.2757         calculate D2E/DX2 analytically  !
 ! A21   A(13,4,14)            107.2237         calculate D2E/DX2 analytically  !
 ! A22   A(4,5,6)              110.1996         calculate D2E/DX2 analytically  !
 ! A23   A(4,5,15)             110.3233         calculate D2E/DX2 analytically  !
 ! A24   A(4,5,16)             110.1082         calculate D2E/DX2 analytically  !
 ! A25   A(6,5,15)             109.3783         calculate D2E/DX2 analytically  !
 ! A26   A(6,5,16)             109.0161         calculate D2E/DX2 analytically  !
 ! A27   A(15,5,16)            107.7668         calculate D2E/DX2 analytically  !
 ! A28   A(5,6,17)             109.3947         calculate D2E/DX2 analytically  !
 ! A29   A(5,6,18)             109.7756         calculate D2E/DX2 analytically  !
 ! A30   A(17,6,18)            106.1801         calculate D2E/DX2 analytically  !
 ! D1    D(7,1,2,3)             52.4798         calculate D2E/DX2 analytically  !
 ! D2    D(7,1,2,9)            175.555          calculate D2E/DX2 analytically  !
 ! D3    D(7,1,2,10)           -68.401          calculate D2E/DX2 analytically  !
 ! D4    D(8,1,2,3)            -63.5791         calculate D2E/DX2 analytically  !
 ! D5    D(8,1,2,9)             59.4961         calculate D2E/DX2 analytically  !
 ! D6    D(8,1,2,10)           175.5402         calculate D2E/DX2 analytically  !
 ! D7    D(1,2,3,4)             64.9012         calculate D2E/DX2 analytically  !
 ! D8    D(1,2,3,11)           -58.1149         calculate D2E/DX2 analytically  !
 ! D9    D(1,2,3,12)          -173.985          calculate D2E/DX2 analytically  !
 ! D10   D(9,2,3,4)            -57.616          calculate D2E/DX2 analytically  !
 ! D11   D(9,2,3,11)           179.3679         calculate D2E/DX2 analytically  !
 ! D12   D(9,2,3,12)            63.4978         calculate D2E/DX2 analytically  !
 ! D13   D(10,2,3,4)          -174.5752         calculate D2E/DX2 analytically  !
 ! D14   D(10,2,3,11)           62.4087         calculate D2E/DX2 analytically  !
 ! D15   D(10,2,3,12)          -53.4614         calculate D2E/DX2 analytically  !
 ! D16   D(2,3,4,5)            175.8769         calculate D2E/DX2 analytically  !
 ! D17   D(2,3,4,13)            54.4943         calculate D2E/DX2 analytically  !
 ! D18   D(2,3,4,14)           -63.0363         calculate D2E/DX2 analytically  !
 ! D19   D(11,3,4,5)           -61.0736         calculate D2E/DX2 analytically  !
 ! D20   D(11,3,4,13)          177.5438         calculate D2E/DX2 analytically  !
 ! D21   D(11,3,4,14)           60.0133         calculate D2E/DX2 analytically  !
 ! D22   D(12,3,4,5)            55.3004         calculate D2E/DX2 analytically  !
 ! D23   D(12,3,4,13)          -66.0822         calculate D2E/DX2 analytically  !
 ! D24   D(12,3,4,14)          176.3873         calculate D2E/DX2 analytically  !
 ! D25   D(3,4,5,6)            179.2151         calculate D2E/DX2 analytically  !
 ! D26   D(3,4,5,15)           -59.9019         calculate D2E/DX2 analytically  !
 ! D27   D(3,4,5,16)            58.922          calculate D2E/DX2 analytically  !
 ! D28   D(13,4,5,6)           -59.631          calculate D2E/DX2 analytically  !
 ! D29   D(13,4,5,15)           61.252          calculate D2E/DX2 analytically  !
 ! D30   D(13,4,5,16)         -179.9241         calculate D2E/DX2 analytically  !
 ! D31   D(14,4,5,6)            57.7164         calculate D2E/DX2 analytically  !
 ! D32   D(14,4,5,15)          178.5994         calculate D2E/DX2 analytically  !
 ! D33   D(14,4,5,16)          -62.5767         calculate D2E/DX2 analytically  !
 ! D34   D(4,5,6,17)           177.5258         calculate D2E/DX2 analytically  !
 ! D35   D(4,5,6,18)            61.3892         calculate D2E/DX2 analytically  !
 ! D36   D(15,5,6,17)           56.0787         calculate D2E/DX2 analytically  !
 ! D37   D(15,5,6,18)          -60.0579         calculate D2E/DX2 analytically  !
 ! D38   D(16,5,6,17)          -61.5255         calculate D2E/DX2 analytically  !
 ! D39   D(16,5,6,18)         -177.6621         calculate D2E/DX2 analytically  !
 --------------------------------------------------------------------------------
 Trust Radius=3.00D-01 FncErr=1.00D-07 GrdErr=1.00D-06 EigMax=2.50D+02 EigMin=1.00D-04
 Number of steps in this run=     96 maximum allowed number of steps=    108.
 GradGradGradGradGradGradGradGradGradGradGradGradGradGradGradGradGradGrad

                          Input orientation:                          
 ---------------------------------------------------------------------
 Center     Atomic      Atomic             Coordinates (Angstroms)
 Number     Number       Type             X           Y           Z
 ---------------------------------------------------------------------
      1          7           0       -2.359300    0.036035   -1.320229
      2          6           0       -2.044468   -0.620096   -0.057294
      3          6           0       -0.548926   -0.889270    0.123824
      4          6           0        0.292045    0.387204    0.220574
      5          6           0        1.757778    0.059015    0.501587
      6          7           0        2.543570    1.284763    0.571468
      7          1           0       -1.948533   -0.488070   -2.092073
      8          1           0       -1.928117    0.959204   -1.349273
      9          1           0       -2.421261   -0.008431    0.769718
     10          1           0       -2.584317   -1.572619   -0.020260
     11          1           0       -0.181923   -1.511534   -0.702161
     12          1           0       -0.416342   -1.476599    1.041111
     13          1           0       -0.105566    1.026404    1.018934
     14          1           0        0.221067    0.954442   -0.715209
     15          1           0        1.851000   -0.486905    1.446796
     16          1           0        2.160119   -0.577990   -0.293361
     17          1           0        3.510068    1.054719    0.799789
     18          1           0        2.203108    1.869729    1.333767
 ---------------------------------------------------------------------
                    Distance matrix (angstroms):
                    1          2          3          4          5
     1  N    0.000000
     2  C    1.457612   0.000000
     3  C    2.493780   1.530329   0.000000
     4  C    3.086588   2.559523   1.531659   0.000000
     5  C    4.502208   3.902642   2.522465   1.528087   0.000000
     6  N    5.401479   5.007387   3.806617   2.449103   1.457674
     7  H    1.019391   2.041314   2.651427   3.336860   4.556656
     8  H    1.019314   2.043756   2.736611   2.778619   4.221593
     9  H    2.091339   1.095471   2.167648   2.796448   4.188175
    10  H    2.080462   1.095494   2.151870   3.488892   4.667799
    11  H    2.741888   2.163236   1.097340   2.163629   2.770933
    12  H    3.411609   2.142635   1.097246   2.156121   2.715878
    13  H    3.395855   2.761987   2.160462   1.097292   2.162300
    14  H    2.804963   2.836314   2.167058   1.096580   2.154962
    15  H    5.065227   4.177882   2.769800   2.167494   1.095509
    16  H    4.675107   4.211419   2.758597   2.164585   1.095261
    17  H    6.323106   5.864509   4.550983   3.337174   2.037368
    18  H    5.587638   5.116267   4.080408   2.662563   2.041942
                    6          7          8          9         10
     6  N    0.000000
     7  H    5.515105   0.000000
     8  H    4.877625   1.626890   0.000000
     9  H    5.134317   2.939962   2.381099   0.000000
    10  H    5.900000   2.423402   2.933769   1.759925   0.000000
    11  H    4.107276   2.469868   3.093945   3.072521   2.498043
    12  H    4.075140   3.625140   3.732631   2.499774   2.415749
    13  H    2.699055   3.920271   2.989083   2.548615   3.738857
    14  H    2.675569   2.946823   2.240771   3.180257   3.839163
    15  H    2.093958   5.192307   4.918431   4.351964   4.796151
    16  H    2.089215   4.486031   4.493505   4.737466   4.855259
    17  H    1.019396   6.367055   5.848200   6.025932   6.687070
    18  H    1.019411   5.876370   5.009470   5.022990   6.050007
                   11         12         13         14         15
    11  H    0.000000
    12  H    1.759310   0.000000
    13  H    3.067430   2.522320   0.000000
    14  H    2.498721   3.066091   1.766104   0.000000
    15  H    3.130600   2.506973   2.510243   3.067316   0.000000
    16  H    2.554169   3.037510   3.070754   2.507235   1.769746
    17  H    4.740495   4.677874   3.622380   3.622540   2.355362
    18  H    4.611541   4.259704   2.477961   2.994084   2.385473
                   16         17         18
    16  H    0.000000
    17  H    2.383921   0.000000
    18  H    2.939511   1.630190   0.000000
 Stoichiometry    C4H12N2
 Framework group  C1[X(C4H12N2)]
 Deg. of freedom    48
 Full point group                 C1      NOp   1
 Largest Abelian subgroup         C1      NOp   1
 Largest concise Abelian subgroup C1      NOp   1
                         Standard orientation:                         
 ---------------------------------------------------------------------
 Center     Atomic      Atomic             Coordinates (Angstroms)
 Number     Number       Type             X           Y           Z
 ---------------------------------------------------------------------
      1          7           0        2.532006   -0.858161   -0.222813
      2          6           0        2.053708    0.379998    0.379538
      3          6           0        0.687267    0.818402   -0.152014
      4          6           0       -0.443168   -0.153356    0.199813
      5          6           0       -1.794990    0.384825   -0.267078
      6          7           0       -2.853911   -0.561938    0.060239
      7          1           0        2.501552   -0.780761   -1.238806
      8          1           0        1.906048   -1.625970    0.017287
      9          1           0        2.014967    0.259294    1.467649
     10          1           0        2.785477    1.168570    0.172709
     11          1           0        0.737480    0.947907   -1.240528
     12          1           0        0.457003    1.804597    0.270295
     13          1           0       -0.461621   -0.313973    1.285129
     14          1           0       -0.259625   -1.127296   -0.269485
     15          1           0       -2.007190    1.347220    0.211364
     16          1           0       -1.782430    0.545709   -1.350386
     17          1           0       -3.753882   -0.173131   -0.219136
     18          1           0       -2.901346   -0.690687    1.070374
 ---------------------------------------------------------------------
 Rotational constants (GHZ):           9.4021403           1.3723181           1.2843980
 Standard basis: 6-31G(d,p) (6D, 7F)
 There are   150 symmetry adapted cartesian basis functions of A   symmetry.
 There are   150 symmetry adapted basis functions of A   symmetry.
   150 basis functions,   252 primitive gaussians,   150 cartesian basis functions
    25 alpha electrons       25 beta electrons
       nuclear repulsion energy       250.5527062784 Hartrees.
 NAtoms=   18 NActive=   18 NUniq=   18 SFac= 1.00D+00 NAtFMM=   60 NAOKFM=F Big=F
 Integral buffers will be    131072 words long.
 Raffenetti 2 integral format.
 Two-electron integral symmetry is turned on.
 Force inversion solution in PCM.
 ------------------------------------------------------------------------------
 Polarizable Continuum Model (PCM)
 =================================
 Model                : PCM.
 Atomic radii         : UFF (Universal Force Field).
 Polarization charges : Total charges.
 Charge compensation  : None.
 Solution method      : Matrix inversion.
 Cavity type          : Scaled VdW (van der Waals Surface) (Alpha=1.100).
 Cavity algorithm     : GePol (No added spheres)
                        Default sphere list used, NSphG=   18.
                        Lebedev-Laikov grids with approx.  5.0 points / Ang**2.
                        Smoothing algorithm: York/Karplus (Gamma=1.0000).
                        Polarization charges: spherical gaussians, with
                                              point-specific exponents (IZeta= 3).
                        Self-potential: point-specific (ISelfS= 7).
                        Self-field    : sphere-specific E.n sum rule (ISelfD= 2).
 1st derivatives      : Analytical E(r).r(x)/FMM algorithm (CHGder, D1EAlg=3).
                        Cavity 1st derivative terms included.
 2nd derivatives      : Analytical E(r).r(xy)/FMM algorithm (CHGder, D2EAlg=3).
                        Cavity 2nd derivative terms included.
 Solvent              : Water, Eps=  78.355300 Eps(inf)=   1.777849
 ------------------------------------------------------------------------------
 Spheres list:
 ISph  on   Nord     Re0    Alpha      Xe            Ye            Ze
    1   N      1    1.8300  1.100      2.532006     -0.858161     -0.222813
    2   C      2    1.9255  1.100      2.053708      0.379998      0.379538
    3   C      3    1.9255  1.100      0.687267      0.818402     -0.152014
    4   C      4    1.9255  1.100     -0.443168     -0.153356      0.199813
    5   C      5    1.9255  1.100     -1.794990      0.384825     -0.267078
    6   N      6    1.8300  1.100     -2.853911     -0.561938      0.060239
    7   H      7    1.4430  1.100      2.501552     -0.780761     -1.238806
    8   H      8    1.4430  1.100      1.906048     -1.625970      0.017287
    9   H      9    1.4430  1.100      2.014967      0.259294      1.467649
   10   H     10    1.4430  1.100      2.785477      1.168570      0.172709
   11   H     11    1.4430  1.100      0.737480      0.947907     -1.240528
   12   H     12    1.4430  1.100      0.457003      1.804597      0.270295
   13   H     13    1.4430  1.100     -0.461621     -0.313973      1.285129
   14   H     14    1.4430  1.100     -0.259625     -1.127296     -0.269485
   15   H     15    1.4430  1.100     -2.007190      1.347220      0.211364
   16   H     16    1.4430  1.100     -1.782430      0.545709     -1.350386
   17   H     17    1.4430  1.100     -3.753882     -0.173131     -0.219136
   18   H     18    1.4430  1.100     -2.901346     -0.690687      1.070374
 ------------------------------------------------------------------------------
 One-electron integrals computed using PRISM.
 NBasis=   150 RedAO= T EigKep=  3.26D-03  NBF=   150
 NBsUse=   150 1.00D-06 EigRej= -1.00D+00 NBFU=   150
 ExpMin= 1.61D-01 ExpMax= 4.17D+03 ExpMxC= 6.27D+02 IAcc=3 IRadAn=         5 AccDes= 0.00D+00
 Harris functional with IExCor=  402 and IRadAn=       5 diagonalized for initial guess.
 HarFok:  IExCor=  402 AccDes= 0.00D+00 IRadAn=         5 IDoV= 1 UseB2=F ITyADJ=14
 ICtDFT=  3500011 ScaDFX=  1.000000  1.000000  1.000000  1.000000
 FoFCou: FMM=F IPFlag=           0 FMFlag=      100000 FMFlg1=           0
         NFxFlg=           0 DoJE=T BraDBF=F KetDBF=T FulRan=T
         wScrn=  0.000000 ICntrl=       500 IOpCl=  0 I1Cent=   200000004 NGrid=           0
         NMat0=    1 NMatS0=      1 NMatT0=    0 NMatD0=    1 NMtDS0=    0 NMtDT0=    0
 Petite list used in FoFCou.
 Keep R1 ints in memory in canonical form, NReq=67061194.
 Requested convergence on RMS density matrix=1.00D-08 within  32 cycles.
 Requested convergence on MAX density matrix=1.00D-06.
 Requested convergence on             energy=1.00D-06.
 No special actions if energy rises.
 Inv3:  Mode=1 IEnd=     5179788.
 Iteration    1 A*A^-1 deviation from unit magnitude is 6.22D-15 for   1169.
 Iteration    1 A*A^-1 deviation from orthogonality  is 3.30D-15 for   1248    643.
 Iteration    1 A^-1*A deviation from unit magnitude is 6.22D-15 for    516.
 Iteration    1 A^-1*A deviation from orthogonality  is 3.19D-15 for   1137    703.
 Error on total polarization charges =  0.00782
 SCF Done:  E(RB3LYP) =  -269.167004566     A.U. after   11 cycles
            NFock= 11  Conv=0.17D-08     -V/T= 2.0095
 QCSCF skips out because SCF is already converged.
 DoSCS=F DFT=T ScalE2(SS,OS)=  1.000000  1.000000
 Range of M.O.s used for correlation:     1   150
 NBasis=   150 NAE=    25 NBE=    25 NFC=     0 NFV=     0
 NROrb=    150 NOA=    25 NOB=    25 NVA=   125 NVB=   125
 Symmetrizing basis deriv contribution to polar:
 IMax=3 JMax=2 DiffMx= 0.00D+00
 G2DrvN: will do    19 centers at a time, making    1 passes.
 Calling FoFCou, ICntrl=  3107 FMM=F I1Cent=   0 AccDes= 0.00D+00.
 NEqPCM:  Using equilibrium solvation (IEInf=0, Eps=  78.3553, EpsInf=   1.7778)
 G2PCM: DoFxE=T DoFxN=T DoGrad=T DoDP/DQ/DG/TGxP=FFFF NFrqRd=   0 IEInf=0 SqF1=F DoCFld=F IF1Alg=4.
 End of G2Drv F.D. properties file   721 does not exist.
 End of G2Drv F.D. properties file   722 does not exist.
 End of G2Drv F.D. properties file   788 does not exist.
          IDoAtm=111111111111111111
 NEqPCM:  Using equilibrium solvation (IEInf=0, Eps=  78.3553, EpsInf=   1.7778)
          Differentiating once with respect to nuclear coordinates.
 Keep R1 ints in memory in canonical form, NReq=69470983.
          There are    57 degrees of freedom in the 1st order CPHF.  IDoFFX=6 NUNeed=     0.
     51 vectors produced by pass  0 Test12= 5.48D-15 1.75D-09 XBig12= 7.99D-02 6.43D-02.
 AX will form    51 AO Fock derivatives at one time.
     51 vectors produced by pass  1 Test12= 5.48D-15 1.75D-09 XBig12= 7.90D-03 1.62D-02.
     51 vectors produced by pass  2 Test12= 5.48D-15 1.75D-09 XBig12= 1.56D-04 1.62D-03.
     51 vectors produced by pass  3 Test12= 5.48D-15 1.75D-09 XBig12= 4.53D-07 6.35D-05.
     51 vectors produced by pass  4 Test12= 5.48D-15 1.75D-09 XBig12= 3.71D-10 2.15D-06.
     18 vectors produced by pass  5 Test12= 5.48D-15 1.75D-09 XBig12= 2.17D-13 4.77D-08.
 InvSVY:  IOpt=1 It=  1 EMax= 2.50D-16
 Solved reduced A of dimension   273 with    57 vectors.
 End of Minotr F.D. properties file   721 does not exist.
 End of Minotr F.D. properties file   722 does not exist.
 End of Minotr F.D. properties file   788 does not exist.

 **********************************************************************

            Population analysis using the SCF density.

 **********************************************************************

 Orbital symmetries:
       Occupied  (A) (A) (A) (A) (A) (A) (A) (A) (A) (A) (A) (A)
                 (A) (A) (A) (A) (A) (A) (A) (A) (A) (A) (A) (A)
                 (A)
       Virtual   (A) (A) (A) (A) (A) (A) (A) (A) (A) (A) (A) (A)
                 (A) (A) (A) (A) (A) (A) (A) (A) (A) (A) (A) (A)
                 (A) (A) (A) (A) (A) (A) (A) (A) (A) (A) (A) (A)
                 (A) (A) (A) (A) (A) (A) (A) (A) (A) (A) (A) (A)
                 (A) (A) (A) (A) (A) (A) (A) (A) (A) (A) (A) (A)
                 (A) (A) (A) (A) (A) (A) (A) (A) (A) (A) (A) (A)
                 (A) (A) (A) (A) (A) (A) (A) (A) (A) (A) (A) (A)
                 (A) (A) (A) (A) (A) (A) (A) (A) (A) (A) (A) (A)
                 (A) (A) (A) (A) (A) (A) (A) (A) (A) (A) (A) (A)
                 (A) (A) (A) (A) (A) (A) (A) (A) (A) (A) (A) (A)
                 (A) (A) (A) (A) (A)
 The electronic state is 1-A.
 Alpha  occ. eigenvalues --  -14.30675 -14.30433 -10.19954 -10.19865 -10.17438
 Alpha  occ. eigenvalues --  -10.17204  -0.87855  -0.87263  -0.76578  -0.68391
 Alpha  occ. eigenvalues --   -0.60803  -0.57474  -0.48962  -0.48007  -0.45429
 Alpha  occ. eigenvalues --   -0.43955  -0.41907  -0.39992  -0.38693  -0.35574
 Alpha  occ. eigenvalues --   -0.33671  -0.32710  -0.32204  -0.23127  -0.22886
 Alpha virt. eigenvalues --    0.08542   0.09080   0.12066   0.12209   0.13562
 Alpha virt. eigenvalues --    0.15750   0.16670   0.18235   0.19318   0.19713
 Alpha virt. eigenvalues --    0.20434   0.21565   0.23312   0.25408   0.26456
 Alpha virt. eigenvalues --    0.28282   0.31240   0.51279   0.53401   0.54009
 Alpha virt. eigenvalues --    0.56241   0.57443   0.61157   0.63192   0.64966
 Alpha virt. eigenvalues --    0.68529   0.71433   0.72682   0.73004   0.73946
 Alpha virt. eigenvalues --    0.76379   0.79900   0.81009   0.82811   0.86214
 Alpha virt. eigenvalues --    0.86524   0.88651   0.88793   0.90195   0.92392
 Alpha virt. eigenvalues --    0.92577   0.93964   0.94810   0.95848   1.00348
 Alpha virt. eigenvalues --    1.00862   1.07992   1.09212   1.25999   1.27230
 Alpha virt. eigenvalues --    1.31238   1.35216   1.40795   1.45939   1.50722
 Alpha virt. eigenvalues --    1.53483   1.57773   1.64762   1.68788   1.73081
 Alpha virt. eigenvalues --    1.75039   1.79335   1.82802   1.85950   1.87871
 Alpha virt. eigenvalues --    1.90029   1.94620   1.96380   1.98358   2.07276
 Alpha virt. eigenvalues --    2.07840   2.09334   2.10331   2.13600   2.15555
 Alpha virt. eigenvalues --    2.17331   2.23128   2.24776   2.25003   2.27228
 Alpha virt. eigenvalues --    2.29114   2.30015   2.31771   2.35064   2.38298
 Alpha virt. eigenvalues --    2.39592   2.45717   2.46960   2.50676   2.51091
 Alpha virt. eigenvalues --    2.58472   2.61576   2.63947   2.67972   2.69616
 Alpha virt. eigenvalues --    2.74774   2.76584   2.78946   2.83715   2.85271
 Alpha virt. eigenvalues --    2.87328   2.90716   2.92435   2.94994   2.97197
 Alpha virt. eigenvalues --    2.98256   2.98985   3.22838   3.27319   3.29568
 Alpha virt. eigenvalues --    3.30170   3.31731   3.33998   3.40560   3.41330
 Alpha virt. eigenvalues --    3.50158   3.55584   3.58025   3.59748   3.97518
 Alpha virt. eigenvalues --    4.00534   4.32937   4.48954   4.58123   4.72671
          Condensed to atoms (all electrons):
               1          2          3          4          5          6
     1  N    6.759561   0.329816  -0.074774  -0.007038   0.000358   0.000001
     2  C    0.329816   4.792729   0.367923  -0.038605   0.003590  -0.000088
     3  C   -0.074774   0.367923   5.005014   0.359753  -0.034945   0.003400
     4  C   -0.007038  -0.038605   0.359753   4.951785   0.375745  -0.056088
     5  C    0.000358   0.003590  -0.034945   0.375745   4.786611   0.291851
     6  N    0.000001  -0.000088   0.003400  -0.056088   0.291851   6.825270
     7  H    0.347161  -0.045526  -0.003211  -0.001086  -0.000004   0.000000
     8  H    0.350506  -0.044777  -0.003911   0.004141  -0.000134   0.000003
     9  H   -0.038170   0.388419  -0.045217  -0.007848   0.000077  -0.000000
    10  H   -0.040823   0.383770  -0.044278   0.004718  -0.000128   0.000001
    11  H   -0.004778  -0.036136   0.381049  -0.041534  -0.004221   0.000017
    12  H    0.006120  -0.029240   0.353191  -0.039252  -0.004317   0.000062
    13  H   -0.000405  -0.003234  -0.040713   0.385226  -0.038569  -0.003089
    14  H    0.007438  -0.005209  -0.036531   0.363922  -0.035363   0.006301
    15  H   -0.000007  -0.000044  -0.000286  -0.049124   0.388557  -0.053874
    16  H    0.000001   0.000026  -0.004657  -0.031086   0.385569  -0.041610
    17  H    0.000000   0.000002  -0.000240   0.005963  -0.032416   0.336679
    18  H    0.000000  -0.000001  -0.000123  -0.006028  -0.038174   0.341124
               7          8          9         10         11         12
     1  N    0.347161   0.350506  -0.038170  -0.040823  -0.004778   0.006120
     2  C   -0.045526  -0.044777   0.388419   0.383770  -0.036136  -0.029240
     3  C   -0.003211  -0.003911  -0.045217  -0.044278   0.381049   0.353191
     4  C   -0.001086   0.004141  -0.007848   0.004718  -0.041534  -0.039252
     5  C   -0.000004  -0.000134   0.000077  -0.000128  -0.004221  -0.004317
     6  N    0.000000   0.000003  -0.000000   0.000001   0.000017   0.000062
     7  H    0.480074  -0.035086   0.006576  -0.004473   0.005870   0.000073
     8  H   -0.035086   0.473349  -0.006310   0.006557  -0.000175   0.000009
     9  H    0.006576  -0.006310   0.625703  -0.036446   0.005713  -0.001197
    10  H   -0.004473   0.006557  -0.036446   0.638117  -0.003677  -0.001148
    11  H    0.005870  -0.000175   0.005713  -0.003677   0.636187  -0.035922
    12  H    0.000073   0.000009  -0.001197  -0.001148  -0.035922   0.657418
    13  H    0.000088   0.000361   0.005466   0.000051   0.006008  -0.005045
    14  H    0.001036   0.004153   0.000098   0.000088  -0.006009   0.006830
    15  H    0.000001   0.000001   0.000010  -0.000002  -0.000555   0.005710
    16  H   -0.000003   0.000011   0.000006   0.000005   0.004804  -0.000620
    17  H   -0.000000  -0.000000   0.000000  -0.000000   0.000003  -0.000003
    18  H   -0.000000   0.000001  -0.000001   0.000000   0.000013  -0.000002
              13         14         15         16         17         18
     1  N   -0.000405   0.007438  -0.000007   0.000001   0.000000   0.000000
     2  C   -0.003234  -0.005209  -0.000044   0.000026   0.000002  -0.000001
     3  C   -0.040713  -0.036531  -0.000286  -0.004657  -0.000240  -0.000123
     4  C    0.385226   0.363922  -0.049124  -0.031086   0.005963  -0.006028
     5  C   -0.038569  -0.035363   0.388557   0.385569  -0.032416  -0.038174
     6  N   -0.003089   0.006301  -0.053874  -0.041610   0.336679   0.341124
     7  H    0.000088   0.001036   0.000001  -0.000003  -0.000000  -0.000000
     8  H    0.000361   0.004153   0.000001   0.000011  -0.000000   0.000001
     9  H    0.005466   0.000098   0.000010   0.000006   0.000000  -0.000001
    10  H    0.000051   0.000088  -0.000002   0.000005  -0.000000   0.000000
    11  H    0.006008  -0.006009  -0.000555   0.004804   0.000003   0.000013
    12  H   -0.005045   0.006830   0.005710  -0.000620  -0.000003  -0.000002
    13  H    0.637083  -0.041564  -0.007585   0.005863  -0.000007   0.005573
    14  H   -0.041564   0.644403   0.006872  -0.007552  -0.000099  -0.000781
    15  H   -0.007585   0.006872   0.685839  -0.049626  -0.003880  -0.005309
    16  H    0.005863  -0.007552  -0.049626   0.634855  -0.003447   0.006646
    17  H   -0.000007  -0.000099  -0.003880  -0.003447   0.481814  -0.032282
    18  H    0.005573  -0.000781  -0.005309   0.006646  -0.032282   0.481671
 Mulliken charges:
               1
     1  N   -0.634966
     2  C   -0.063416
     3  C   -0.181442
     4  C   -0.173565
     5  C   -0.044087
     6  N   -0.649961
     7  H    0.248506
     8  H    0.251302
     9  H    0.103122
    10  H    0.097667
    11  H    0.093342
    12  H    0.087335
    13  H    0.094491
    14  H    0.091966
    15  H    0.083302
    16  H    0.100817
    17  H    0.247912
    18  H    0.247674
 Sum of Mulliken charges =  -0.00000
 Mulliken charges with hydrogens summed into heavy atoms:
               1
     1  N   -0.135158
     2  C    0.137373
     3  C   -0.000765
     4  C    0.012892
     5  C    0.140032
     6  N   -0.154375
 APT charges:
               1
     1  N   -0.706252
     2  C   -0.837792
     3  C   -0.621074
     4  C   -0.566001
     5  C   -0.545020
     6  N   -1.420790
     7  H    0.432298
     8  H    0.255293
     9  H    0.333980
    10  H    0.497105
    11  H    0.313813
    12  H    0.337893
    13  H    0.306110
    14  H    0.259233
    15  H    0.367053
    16  H    0.339380
    17  H    0.787382
    18  H    0.467390
 Sum of APT charges =  -0.00000
 APT charges with hydrogens summed into heavy atoms:
               1
     1  N   -0.018661
     2  C   -0.006708
     3  C    0.030633
     4  C   -0.000658
     5  C    0.161414
     6  N   -0.166019
 Electronic spatial extent (au):  <R**2>=            952.4734
 Charge=             -0.0000 electrons
 Dipole moment (field-independent basis, Debye):
    X=             -1.9031    Y=              1.5672    Z=              0.2238  Tot=              2.4755
 Quadrupole moment (field-independent basis, Debye-Ang):
   XX=            -44.6350   YY=            -41.2129   ZZ=            -36.3877
   XY=             -1.2241   XZ=             -4.0542   YZ=             -0.5679
 Traceless Quadrupole moment (field-independent basis, Debye-Ang):
   XX=             -3.8898   YY=             -0.4677   ZZ=              4.3575
   XY=             -1.2241   XZ=             -4.0542   YZ=             -0.5679
 Octapole moment (field-independent basis, Debye-Ang**2):
  XXX=            -58.2282  YYY=             -2.3176  ZZZ=             -0.8506  XYY=              4.7165
  XXY=             21.0624  XXZ=              0.9701  XZZ=             -0.1874  YZZ=             -2.5670
  YYZ=              0.7608  XYZ=              4.7202
 Hexadecapole moment (field-independent basis, Debye-Ang**3):
 XXXX=           -997.5734 YYYY=           -160.4803 ZZZZ=            -83.9068 XXXY=             17.2596
 XXXZ=            -31.3466 YYYX=            -10.8249 YYYZ=              0.9741 ZZZX=            -12.6783
 ZZZY=             -0.3017 XXYY=           -215.2319 XXZZ=           -158.4015 YYZZ=            -41.6475
 XXYZ=             -6.3840 YYXZ=             -6.0329 ZZXY=             -1.6425
 N-N= 2.505527062784D+02 E-N=-1.125463759977D+03  KE= 2.666315901079D+02
  Exact polarizability:   0.000   0.000   0.000   0.000   0.000   0.000
 Approx polarizability:  75.975   1.130  75.261  -1.517  -1.113  77.745
 D2PCM: PCM CHGder 2nd derivatives, FixD1E=F FixD2E=F DoIter=F DoCFld=F I1PDM=0
 Calling FoFJK, ICntrl=    100147 FMM=F ISym2X=0 I1Cent= 0 IOpClX= 0 NMat=1 NMatS=1 NMatT=0.
 ***** Axes restored to original set *****
 -------------------------------------------------------------------
 Center     Atomic                   Forces (Hartrees/Bohr)
 Number     Number              X              Y              Z
 -------------------------------------------------------------------
      1        7          -0.010047383    0.007254556   -0.006297368
      2        6           0.006477291   -0.004853726   -0.004967515
      3        6          -0.001475051    0.000620208    0.009634066
      4        6           0.001669225   -0.009274907   -0.001630967
      5        6          -0.001124150    0.007478244    0.005866435
      6        7           0.009121560    0.010086609   -0.007402588
      7        1           0.000145062    0.000343392    0.001271016
      8        1          -0.000428400   -0.002064189   -0.000343698
      9        1          -0.000470375    0.001182273    0.000074750
     10        1          -0.001633135   -0.000505672    0.000291596
     11        1          -0.000801597   -0.000679547   -0.000959316
     12        1           0.001951764   -0.001323321    0.001052622
     13        1           0.000346720    0.001036222    0.000981338
     14        1           0.001515323    0.000954907    0.000729142
     15        1          -0.005074435   -0.009121120    0.001311204
     16        1           0.000375599   -0.000407412   -0.000709329
     17        1          -0.001407936    0.001541968    0.000806607
     18        1           0.000859917   -0.002268485    0.000292006
 -------------------------------------------------------------------
 Cartesian Forces:  Max     0.010086609 RMS     0.004193491
 FormGI is forming the generalized inverse of G from B-inverse, IUseBI=4.

 GradGradGradGradGradGradGradGradGradGradGradGradGradGradGradGradGradGrad
 Berny optimization.
 Internal  Forces:  Max     0.015269868 RMS     0.003354601
 Search for a local minimum.
 Step number   1 out of a maximum of   96
 All quantities printed in internal units (Hartrees-Bohrs-Radians)
 Mixed Optimization -- RFO/linear search
 Second derivative matrix not updated -- analytic derivatives used.
 ITU=  0
     Eigenvalues ---    0.00173   0.00235   0.00279   0.00314   0.00378
     Eigenvalues ---    0.03191   0.03240   0.03479   0.03879   0.03940
     Eigenvalues ---    0.04067   0.04632   0.04651   0.05098   0.05306
     Eigenvalues ---    0.06648   0.07208   0.08235   0.08357   0.09687
     Eigenvalues ---    0.11578   0.12311   0.13507   0.14645   0.15092
     Eigenvalues ---    0.16586   0.17720   0.18525   0.21393   0.24107
     Eigenvalues ---    0.24836   0.27823   0.29648   0.31693   0.32407
     Eigenvalues ---    0.32760   0.32892   0.33094   0.33317   0.33389
     Eigenvalues ---    0.33590   0.33817   0.38128   0.38385   0.43904
     Eigenvalues ---    0.44061   0.44188   0.44257
 RFO step:  Lambda=-4.23097953D-03 EMin= 1.73413716D-03
 Linear search not attempted -- first point.
 Iteration  1 RMS(Cart)=  0.03409512 RMS(Int)=  0.00050800
 Iteration  2 RMS(Cart)=  0.00068420 RMS(Int)=  0.00023473
 Iteration  3 RMS(Cart)=  0.00000047 RMS(Int)=  0.00023473
 Variable       Old X    -DE/DX   Delta X   Delta X   Delta X     New X
                                 (Linear)    (Quad)   (Total)
    R1        2.75449   0.00937   0.00000   0.02267   0.02267   2.77716
    R2        1.92637  -0.00108   0.00000   0.00006   0.00006   1.92643
    R3        1.92623  -0.00204   0.00000  -0.00213  -0.00213   1.92410
    R4        2.89190   0.00724   0.00000   0.01459   0.01459   2.90649
    R5        2.07014   0.00088   0.00000   0.00426   0.00426   2.07440
    R6        2.07018   0.00126   0.00000   0.00268   0.00268   2.07287
    R7        2.89442   0.00350   0.00000   0.00228   0.00228   2.89669
    R8        2.07367   0.00084   0.00000   0.00443   0.00443   2.07810
    R9        2.07349   0.00182   0.00000   0.00347   0.00347   2.07696
   R10        2.88767   0.00109   0.00000   0.00264   0.00264   2.89031
   R11        2.07358   0.00119   0.00000   0.00537   0.00537   2.07895
   R12        2.07224  -0.00023   0.00000   0.00104   0.00104   2.07327
   R13        2.75460   0.01220   0.00000   0.02467   0.02467   2.77928
   R14        2.07021   0.00524   0.00000   0.01556   0.01556   2.08577
   R15        2.06974   0.00089   0.00000   0.00420   0.00420   2.07395
   R16        1.92638  -0.00150   0.00000  -0.00177  -0.00177   1.92461
   R17        1.92641  -0.00137   0.00000  -0.00007  -0.00007   1.92634
    A1        1.91513  -0.00127   0.00000  -0.01253  -0.01262   1.90251
    A2        1.91878   0.00031   0.00000  -0.00886  -0.00895   1.90983
    A3        1.84794  -0.00003   0.00000  -0.01003  -0.01023   1.83771
    A4        1.97447   0.01527   0.00000   0.05654   0.05647   2.03094
    A5        1.90549  -0.00563   0.00000  -0.02594  -0.02588   1.87960
    A6        1.89046  -0.00480   0.00000  -0.01113  -0.01169   1.87877
    A7        1.92303  -0.00429   0.00000  -0.01463  -0.01434   1.90870
    A8        1.90144  -0.00300   0.00000  -0.00200  -0.00227   1.89917
    A9        1.86551   0.00177   0.00000  -0.00601  -0.00630   1.85921
   A10        1.97955   0.00392   0.00000   0.01113   0.01108   1.99063
   A11        1.91506  -0.00263   0.00000  -0.01519  -0.01517   1.89989
   A12        1.88723   0.00054   0.00000   0.00623   0.00612   1.89335
   A13        1.91400  -0.00043   0.00000  -0.00246  -0.00241   1.91159
   A14        1.90386  -0.00193   0.00000   0.00455   0.00443   1.90830
   A15        1.86013   0.00035   0.00000  -0.00497  -0.00495   1.85518
   A16        1.93829   0.00726   0.00000   0.03545   0.03540   1.97369
   A17        1.90972  -0.00188   0.00000  -0.00302  -0.00293   1.90680
   A18        1.91947  -0.00078   0.00000   0.00534   0.00542   1.92489
   A19        1.91652  -0.00247   0.00000  -0.01292  -0.01310   1.90342
   A20        1.90722  -0.00337   0.00000  -0.01580  -0.01613   1.89109
   A21        1.87141   0.00099   0.00000  -0.01078  -0.01099   1.86042
   A22        1.92335   0.00294   0.00000   0.01241   0.01213   1.93547
   A23        1.92550  -0.00531   0.00000  -0.02428  -0.02538   1.90012
   A24        1.92175  -0.00064   0.00000  -0.01334  -0.01359   1.90816
   A25        1.90901   0.00629   0.00000   0.06579   0.06594   1.97495
   A26        1.90269  -0.00284   0.00000  -0.01920  -0.01896   1.88373
   A27        1.88089  -0.00045   0.00000  -0.02154  -0.02187   1.85902
   A28        1.90930   0.00181   0.00000  -0.00567  -0.00583   1.90347
   A29        1.91595  -0.00237   0.00000  -0.02017  -0.02034   1.89561
   A30        1.85319  -0.00084   0.00000  -0.01931  -0.01967   1.83352
    D1        0.91594   0.00035   0.00000   0.01440   0.01457   0.93051
    D2        3.06401   0.00126   0.00000   0.01563   0.01545   3.07946
    D3       -1.19382  -0.00231   0.00000  -0.01159  -0.01141  -1.20523
    D4       -1.10966   0.00094   0.00000   0.03889   0.03895  -1.07072
    D5        1.03840   0.00185   0.00000   0.04012   0.03983   1.07823
    D6        3.06375  -0.00172   0.00000   0.01291   0.01297   3.07672
    D7        1.13274  -0.00054   0.00000  -0.02037  -0.02051   1.11223
    D8       -1.01430  -0.00078   0.00000  -0.01368  -0.01378  -1.02807
    D9       -3.03661  -0.00009   0.00000  -0.00306  -0.00314  -3.03975
   D10       -1.00559  -0.00087   0.00000  -0.01590  -0.01593  -1.02152
   D11        3.13056  -0.00112   0.00000  -0.00921  -0.00920   3.12136
   D12        1.10825  -0.00042   0.00000   0.00141   0.00143   1.10968
   D13       -3.04691   0.00121   0.00000   0.00091   0.00098  -3.04593
   D14        1.08924   0.00097   0.00000   0.00760   0.00771   1.09695
   D15       -0.93308   0.00166   0.00000   0.01822   0.01835  -0.91473
   D16        3.06963   0.00116   0.00000   0.02942   0.02939   3.09902
   D17        0.95111   0.00080   0.00000   0.02465   0.02461   0.97571
   D18       -1.10019   0.00116   0.00000   0.03641   0.03653  -1.06366
   D19       -1.06594   0.00019   0.00000   0.01572   0.01567  -1.05027
   D20        3.09872  -0.00017   0.00000   0.01094   0.01089   3.10962
   D21        1.04743   0.00020   0.00000   0.02270   0.02281   1.07024
   D22        0.96517  -0.00074   0.00000   0.01095   0.01088   0.97605
   D23       -1.15335  -0.00110   0.00000   0.00617   0.00610  -1.14725
   D24        3.07854  -0.00073   0.00000   0.01794   0.01802   3.09656
   D25        3.12789  -0.00256   0.00000  -0.02629  -0.02617   3.10173
   D26       -1.04549   0.00376   0.00000   0.04817   0.04780  -0.99769
   D27        1.02838  -0.00050   0.00000  -0.00183  -0.00166   1.02672
   D28       -1.04076  -0.00182   0.00000  -0.01554  -0.01550  -1.05626
   D29        1.06905   0.00450   0.00000   0.05893   0.05846   1.12751
   D30       -3.14027   0.00024   0.00000   0.00892   0.00900  -3.13126
   D31        1.00734  -0.00403   0.00000  -0.04536  -0.04506   0.96228
   D32        3.11715   0.00229   0.00000   0.02911   0.02890  -3.13714
   D33       -1.09217  -0.00197   0.00000  -0.02089  -0.02056  -1.11273
   D34        3.09841  -0.00046   0.00000   0.01825   0.01881   3.11722
   D35        1.07144   0.00086   0.00000   0.05624   0.05659   1.12803
   D36        0.97876   0.00019   0.00000  -0.00204  -0.00251   0.97625
   D37       -1.04821   0.00151   0.00000   0.03595   0.03527  -1.01293
   D38       -1.07382  -0.00123   0.00000  -0.00269  -0.00247  -1.07629
   D39       -3.10079   0.00009   0.00000   0.03530   0.03531  -3.06548
         Item               Value     Threshold  Converged?
 Maximum Force            0.015270     0.000450     NO 
 RMS     Force            0.003355     0.000300     NO 
 Maximum Displacement     0.113981     0.001800     NO 
 RMS     Displacement     0.033884     0.001200     NO 
 Predicted change in Energy=-2.202237D-03
 GradGradGradGradGradGradGradGradGradGradGradGradGradGradGradGradGradGrad

                          Input orientation:                          
 ---------------------------------------------------------------------
 Center     Atomic      Atomic             Coordinates (Angstroms)
 Number     Number       Type             X           Y           Z
 ---------------------------------------------------------------------
      1          7           0       -2.408670    0.043095   -1.341881
      2          6           0       -2.048795   -0.624144   -0.082899
      3          6           0       -0.552029   -0.897919    0.141447
      4          6           0        0.306361    0.368002    0.242834
      5          6           0        1.780235    0.072165    0.524788
      6          7           0        2.567384    1.314063    0.558503
      7          1           0       -2.008849   -0.479371   -2.120594
      8          1           0       -1.966260    0.959436   -1.377973
      9          1           0       -2.434140   -0.010670    0.741818
     10          1           0       -2.592282   -1.576156   -0.043959
     11          1           0       -0.179616   -1.529883   -0.677839
     12          1           0       -0.439944   -1.488306    1.061695
     13          1           0       -0.090010    1.011994    1.041873
     14          1           0        0.241954    0.946780   -0.686981
     15          1           0        1.854632   -0.514312    1.456860
     16          1           0        2.183110   -0.561578   -0.275546
     17          1           0        3.537370    1.087380    0.770632
     18          1           0        2.249548    1.879423    1.344931
 ---------------------------------------------------------------------
                    Distance matrix (angstroms):
                    1          2          3          4          5
     1  N    0.000000
     2  C    1.469609   0.000000
     3  C    2.555950   1.538049   0.000000
     4  C    3.160424   2.576280   1.532863   0.000000
     5  C    4.586090   3.938986   2.554892   1.529484   0.000000
     6  N    5.476124   5.047490   3.846757   2.471215   1.470731
     7  H    1.019422   2.043222   2.722928   3.415265   4.653966
     8  H    1.018190   2.047377   2.785400   2.853352   4.294645
     9  H    2.084548   1.097724   2.165640   2.811179   4.220773
    10  H    2.083336   1.096915   2.158011   3.502019   4.707371
    11  H    2.807827   2.160590   1.099682   2.164666   2.802479
    12  H    3.463848   2.155290   1.099079   2.161801   2.766322
    13  H    3.463702   2.789068   2.161480   1.100135   2.156032
    14  H    2.875995   2.842578   2.172468   1.097128   2.144679
    15  H    5.130243   4.197579   2.769383   2.156265   1.103742
    16  H    4.752593   4.236750   2.787113   2.157550   1.097485
    17  H    6.395985   5.904496   4.589169   3.351938   2.044168
    18  H    5.682434   5.175163   4.124420   2.697218   2.039380
                    6          7          8          9         10
     6  N    0.000000
     7  H    5.597846   0.000000
     8  H    4.942634   1.619712   0.000000
     9  H    5.177236   2.931545   2.377716   0.000000
    10  H    5.944618   2.419864   2.932699   1.758749   0.000000
    11  H    4.142774   2.555624   3.143086   3.066971   2.494976
    12  H    4.141316   3.688682   3.777970   2.502508   2.421310
    13  H    2.717837   3.988397   3.062471   2.575038   3.760175
    14  H    2.663410   3.025767   2.313836   3.181141   3.848581
    15  H    2.158243   5.265538   4.980705   4.377043   4.811966
    16  H    2.088380   4.580774   4.554789   4.759993   4.887471
    17  H    1.018457   6.447825   5.909552   6.071695   6.732801
    18  H    1.019373   5.975594   5.102316   5.086565   6.108467
                   11         12         13         14         15
    11  H    0.000000
    12  H    1.759397   0.000000
    13  H    3.070273   2.524747   0.000000
    14  H    2.512302   3.074491   1.761644   0.000000
    15  H    3.118732   2.523866   2.506682   3.054763   0.000000
    16  H    2.584943   3.086657   3.062482   2.492491   1.763905
    17  H    4.771175   4.747410   3.638288   3.606130   2.422381
    18  H    4.649280   4.319166   2.513526   3.004817   2.428673
                   16         17         18
    16  H    0.000000
    17  H    2.376461   0.000000
    18  H    2.930673   1.617293   0.000000
 Stoichiometry    C4H12N2
 Framework group  C1[X(C4H12N2)]
 Deg. of freedom    48
 Full point group                 C1      NOp   1
 Largest Abelian subgroup         C1      NOp   1
 Largest concise Abelian subgroup C1      NOp   1
                         Standard orientation:                         
 ---------------------------------------------------------------------
 Center     Atomic      Atomic             Coordinates (Angstroms)
 Number     Number       Type             X           Y           Z
 ---------------------------------------------------------------------
      1          7           0        2.583834   -0.875127   -0.209087
      2          6           0        2.065268    0.377456    0.358255
      3          6           0        0.686952    0.836833   -0.146531
      4          6           0       -0.457537   -0.121110    0.202986
      5          6           0       -1.825324    0.385518   -0.257238
      6          7           0       -2.878706   -0.592744    0.053309
      7          1           0        2.566541   -0.811039   -1.226346
      8          1           0        1.951818   -1.639039    0.022652
      9          1           0        2.033053    0.261349    1.449347
     10          1           0        2.799051    1.165729    0.149907
     11          1           0        0.734297    0.970527   -1.237029
     12          1           0        0.473659    1.828459    0.276741
     13          1           0       -0.480063   -0.277379    1.291733
     14          1           0       -0.282697   -1.104418   -0.251135
     15          1           0       -2.008084    1.377271    0.191395
     16          1           0       -1.811054    0.532889   -1.344690
     17          1           0       -3.778240   -0.218254   -0.243087
     18          1           0       -2.950335   -0.683178    1.066133
 ---------------------------------------------------------------------
 Rotational constants (GHZ):           9.2452830           1.3411217           1.2513394
 Standard basis: 6-31G(d,p) (6D, 7F)
 There are   150 symmetry adapted cartesian basis functions of A   symmetry.
 There are   150 symmetry adapted basis functions of A   symmetry.
   150 basis functions,   252 primitive gaussians,   150 cartesian basis functions
    25 alpha electrons       25 beta electrons
       nuclear repulsion energy       248.6695822815 Hartrees.
 NAtoms=   18 NActive=   18 NUniq=   18 SFac= 1.00D+00 NAtFMM=   60 NAOKFM=F Big=F
 Integral buffers will be    131072 words long.
 Raffenetti 2 integral format.
 Two-electron integral symmetry is turned on.
 ------------------------------------------------------------------------------
 Polarizable Continuum Model (PCM)
 =================================
 Model                : PCM.
 Atomic radii         : UFF (Universal Force Field).
 Polarization charges : Total charges.
 Charge compensation  : None.
 Solution method      : Matrix inversion.
 Cavity type          : Scaled VdW (van der Waals Surface) (Alpha=1.100).
 Cavity algorithm     : GePol (No added spheres)
                        Default sphere list used, NSphG=   18.
                        Lebedev-Laikov grids with approx.  5.0 points / Ang**2.
                        Smoothing algorithm: York/Karplus (Gamma=1.0000).
                        Polarization charges: spherical gaussians, with
                                              point-specific exponents (IZeta= 3).
                        Self-potential: point-specific (ISelfS= 7).
                        Self-field    : sphere-specific E.n sum rule (ISelfD= 2).
 1st derivatives      : Analytical E(r).r(x)/FMM algorithm (CHGder, D1EAlg=3).
                        Cavity 1st derivative terms included.
 Solvent              : Water, Eps=  78.355300 Eps(inf)=   1.777849
 ------------------------------------------------------------------------------
 Spheres list:
 ISph  on   Nord     Re0    Alpha      Xe            Ye            Ze
    1   N      1    1.8300  1.100      2.583834     -0.875127     -0.209087
    2   C      2    1.9255  1.100      2.065268      0.377456      0.358255
    3   C      3    1.9255  1.100      0.686952      0.836833     -0.146531
    4   C      4    1.9255  1.100     -0.457537     -0.121110      0.202986
    5   C      5    1.9255  1.100     -1.825324      0.385518     -0.257238
    6   N      6    1.8300  1.100     -2.878706     -0.592744      0.053309
    7   H      7    1.4430  1.100      2.566541     -0.811039     -1.226346
    8   H      8    1.4430  1.100      1.951818     -1.639039      0.022652
    9   H      9    1.4430  1.100      2.033053      0.261349      1.449347
   10   H     10    1.4430  1.100      2.799051      1.165729      0.149907
   11   H     11    1.4430  1.100      0.734297      0.970527     -1.237029
   12   H     12    1.4430  1.100      0.473659      1.828459      0.276741
   13   H     13    1.4430  1.100     -0.480063     -0.277379      1.291733
   14   H     14    1.4430  1.100     -0.282697     -1.104418     -0.251135
   15   H     15    1.4430  1.100     -2.008084      1.377271      0.191395
   16   H     16    1.4430  1.100     -1.811054      0.532889     -1.344690
   17   H     17    1.4430  1.100     -3.778240     -0.218254     -0.243087
   18   H     18    1.4430  1.100     -2.950335     -0.683178      1.066133
 ------------------------------------------------------------------------------
 One-electron integrals computed using PRISM.
 NBasis=   150 RedAO= T EigKep=  3.38D-03  NBF=   150
 NBsUse=   150 1.00D-06 EigRej= -1.00D+00 NBFU=   150
 Initial guess from the checkpoint file:  "KIDHWZJUCRJVML-UHFFFAOYSA-N_conf_0_0.chk"
 B after Tr=     0.000000   -0.000000    0.000000
         Rot=    0.999993    0.003381    0.000460   -0.001179 Ang=   0.41 deg.
 ExpMin= 1.61D-01 ExpMax= 4.17D+03 ExpMxC= 6.27D+02 IAcc=2 IRadAn=         4 AccDes= 0.00D+00
 Harris functional with IExCor=  402 and IRadAn=       4 diagonalized for initial guess.
 HarFok:  IExCor=  402 AccDes= 0.00D+00 IRadAn=         4 IDoV= 1 UseB2=F ITyADJ=14
 ICtDFT=  3500011 ScaDFX=  1.000000  1.000000  1.000000  1.000000
 FoFCou: FMM=F IPFlag=           0 FMFlag=      100000 FMFlg1=           0
         NFxFlg=           0 DoJE=T BraDBF=F KetDBF=T FulRan=T
         wScrn=  0.000000 ICntrl=       500 IOpCl=  0 I1Cent=   200000004 NGrid=           0
         NMat0=    1 NMatS0=      1 NMatT0=    0 NMatD0=    1 NMtDS0=    0 NMtDT0=    0
 Petite list used in FoFCou.
 Keep R1 ints in memory in canonical form, NReq=67061194.
 Requested convergence on RMS density matrix=1.00D-08 within  32 cycles.
 Requested convergence on MAX density matrix=1.00D-06.
 Requested convergence on             energy=1.00D-06.
 No special actions if energy rises.
 Inv3:  Mode=1 IEnd=     5243052.
 Iteration    1 A*A^-1 deviation from unit magnitude is 5.22D-15 for    317.
 Iteration    1 A*A^-1 deviation from orthogonality  is 4.42D-15 for   1125    675.
 Iteration    1 A^-1*A deviation from unit magnitude is 5.11D-15 for    102.
 Iteration    1 A^-1*A deviation from orthogonality  is 4.30D-15 for   1262    584.
 Error on total polarization charges =  0.00787
 SCF Done:  E(RB3LYP) =  -269.169259014     A.U. after    9 cycles
            NFock=  9  Conv=0.37D-08     -V/T= 2.0099
 QCSCF skips out because SCF is already converged.
 D1PCM: PCM CHGder 1st derivatives, ID1Alg=3 FixD1E=F DoIter=F DoCFld=F I1PDM=0.
 Calling FoFJK, ICntrl=      2127 FMM=F ISym2X=0 I1Cent= 0 IOpClX= 0 NMat=1 NMatS=1 NMatT=0.
 ***** Axes restored to original set *****
 -------------------------------------------------------------------
 Center     Atomic                   Forces (Hartrees/Bohr)
 Number     Number              X              Y              Z
 -------------------------------------------------------------------
      1        7          -0.000854006    0.000618009   -0.000336125
      2        6           0.000648711   -0.000388639   -0.000682154
      3        6          -0.000011922    0.000144209    0.000808035
      4        6           0.000303875   -0.000546251   -0.000471959
      5        6          -0.000230925    0.000133733    0.000841363
      6        7           0.000226053    0.000831162   -0.000551548
      7        1          -0.000062417    0.000001758    0.000005636
      8        1           0.000090614   -0.000096142   -0.000118333
      9        1          -0.000129581   -0.000127021    0.000055210
     10        1          -0.000114205    0.000029025    0.000196353
     11        1           0.000034818   -0.000098721    0.000090844
     12        1           0.000004110   -0.000055184    0.000034710
     13        1           0.000029727    0.000083175    0.000005698
     14        1          -0.000140080    0.000192677    0.000132527
     15        1          -0.000124934   -0.000611746   -0.000123554
     16        1           0.000082805   -0.000044790    0.000011740
     17        1           0.000036652    0.000026041   -0.000041643
     18        1           0.000210704   -0.000091298    0.000143198
 -------------------------------------------------------------------
 Cartesian Forces:  Max     0.000854006 RMS     0.000335949

 GradGradGradGradGradGradGradGradGradGradGradGradGradGradGradGradGradGrad
 Berny optimization.
 Using GEDIIS/GDIIS optimizer.
 FormGI is forming the generalized inverse of G from B-inverse, IUseBI=4.
 Internal  Forces:  Max     0.001254042 RMS     0.000248666
 Search for a local minimum.
 Step number   2 out of a maximum of   96
 All quantities printed in internal units (Hartrees-Bohrs-Radians)
 Mixed Optimization -- En-DIIS/RFO-DIIS
 Update second derivatives using D2CorX and points    1    2
 DE= -2.25D-03 DEPred=-2.20D-03 R= 1.02D+00
 TightC=F SS=  1.41D+00  RLast= 2.03D-01 DXNew= 5.0454D-01 6.0753D-01
 Trust test= 1.02D+00 RLast= 2.03D-01 DXMaxT set to 5.05D-01
 ITU=  1  0
 Use linear search instead of GDIIS.
     Eigenvalues ---    0.00174   0.00235   0.00279   0.00314   0.00378
     Eigenvalues ---    0.03191   0.03247   0.03481   0.03879   0.03941
     Eigenvalues ---    0.04067   0.04620   0.04656   0.05093   0.05272
     Eigenvalues ---    0.06644   0.07207   0.08268   0.08350   0.09672
     Eigenvalues ---    0.11581   0.12324   0.13511   0.14642   0.15086
     Eigenvalues ---    0.16587   0.17718   0.18524   0.21379   0.24093
     Eigenvalues ---    0.24622   0.27798   0.29504   0.31673   0.32398
     Eigenvalues ---    0.32760   0.32893   0.33065   0.33288   0.33392
     Eigenvalues ---    0.33527   0.33797   0.37417   0.38141   0.43910
     Eigenvalues ---    0.44057   0.44188   0.44251
 RFO step:  Lambda=-6.73209180D-05 EMin= 1.73529580D-03
 Quartic linear search produced a step of  0.08794.
 Iteration  1 RMS(Cart)=  0.03046348 RMS(Int)=  0.00071744
 Iteration  2 RMS(Cart)=  0.00072801 RMS(Int)=  0.00002213
 Iteration  3 RMS(Cart)=  0.00000063 RMS(Int)=  0.00002212
 Variable       Old X    -DE/DX   Delta X   Delta X   Delta X     New X
                                 (Linear)    (Quad)   (Total)
    R1        2.77716   0.00083   0.00199  -0.00049   0.00150   2.77866
    R2        1.92643  -0.00003   0.00001   0.00011   0.00012   1.92654
    R3        1.92410  -0.00004  -0.00019   0.00027   0.00008   1.92418
    R4        2.90649   0.00054   0.00128   0.00023   0.00152   2.90801
    R5        2.07440   0.00002   0.00037   0.00010   0.00048   2.07488
    R6        2.07287   0.00004   0.00024  -0.00031  -0.00007   2.07279
    R7        2.89669   0.00019   0.00020  -0.00061  -0.00041   2.89628
    R8        2.07810   0.00000   0.00039  -0.00013   0.00026   2.07836
    R9        2.07696   0.00006   0.00030  -0.00030   0.00000   2.07696
   R10        2.89031   0.00020   0.00023   0.00029   0.00052   2.89083
   R11        2.07895   0.00004   0.00047  -0.00027   0.00020   2.07915
   R12        2.07327  -0.00000   0.00009   0.00003   0.00012   2.07339
   R13        2.77928   0.00089   0.00217   0.00005   0.00222   2.78150
   R14        2.08577   0.00021   0.00137  -0.00074   0.00063   2.08640
   R15        2.07395   0.00005   0.00037  -0.00030   0.00007   2.07401
   R16        1.92461   0.00002  -0.00016   0.00041   0.00025   1.92486
   R17        1.92634  -0.00001  -0.00001   0.00014   0.00013   1.92647
    A1        1.90251   0.00001  -0.00111   0.00030  -0.00082   1.90169
    A2        1.90983   0.00007  -0.00079   0.00113   0.00034   1.91017
    A3        1.83771  -0.00007  -0.00090  -0.00020  -0.00112   1.83659
    A4        2.03094   0.00125   0.00497   0.00184   0.00680   2.03774
    A5        1.87960  -0.00041  -0.00228   0.00126  -0.00101   1.87859
    A6        1.87877  -0.00034  -0.00103  -0.00019  -0.00128   1.87750
    A7        1.90870  -0.00037  -0.00126  -0.00031  -0.00155   1.90715
    A8        1.89917  -0.00025  -0.00020  -0.00038  -0.00061   1.89856
    A9        1.85921   0.00003  -0.00055  -0.00262  -0.00320   1.85601
   A10        1.99063   0.00031   0.00097   0.00115   0.00212   1.99274
   A11        1.89989  -0.00014  -0.00133   0.00086  -0.00048   1.89942
   A12        1.89335  -0.00003   0.00054  -0.00158  -0.00105   1.89230
   A13        1.91159  -0.00007  -0.00021   0.00028   0.00007   1.91166
   A14        1.90830  -0.00009   0.00039  -0.00019   0.00019   1.90849
   A15        1.85518   0.00000  -0.00044  -0.00065  -0.00109   1.85409
   A16        1.97369   0.00031   0.00311  -0.00080   0.00230   1.97600
   A17        1.90680  -0.00009  -0.00026  -0.00041  -0.00065   1.90614
   A18        1.92489  -0.00004   0.00048   0.00057   0.00105   1.92594
   A19        1.90342  -0.00008  -0.00115   0.00118   0.00001   1.90343
   A20        1.89109  -0.00008  -0.00142   0.00100  -0.00045   1.89063
   A21        1.86042  -0.00004  -0.00097  -0.00157  -0.00255   1.85786
   A22        1.93547  -0.00002   0.00107  -0.00098   0.00005   1.93553
   A23        1.90012  -0.00004  -0.00223   0.00420   0.00186   1.90198
   A24        1.90816  -0.00006  -0.00120  -0.00026  -0.00148   1.90668
   A25        1.97495   0.00040   0.00580  -0.00074   0.00506   1.98002
   A26        1.88373  -0.00014  -0.00167  -0.00133  -0.00297   1.88076
   A27        1.85902  -0.00015  -0.00192  -0.00096  -0.00290   1.85612
   A28        1.90347   0.00002  -0.00051  -0.00081  -0.00134   1.90213
   A29        1.89561   0.00004  -0.00179   0.00212   0.00031   1.89592
   A30        1.83352  -0.00010  -0.00173   0.00003  -0.00174   1.83178
    D1        0.93051   0.00012   0.00128   0.02233   0.02363   0.95414
    D2        3.07946   0.00018   0.00136   0.02423   0.02557   3.10503
    D3       -1.20523  -0.00015  -0.00100   0.02172   0.02073  -1.18450
    D4       -1.07072   0.00015   0.00343   0.02180   0.02523  -1.04549
    D5        1.07823   0.00022   0.00350   0.02369   0.02717   1.10540
    D6        3.07672  -0.00012   0.00114   0.02118   0.02233   3.09905
    D7        1.11223  -0.00008  -0.00180   0.00529   0.00347   1.11570
    D8       -1.02807  -0.00010  -0.00121   0.00350   0.00228  -1.02579
    D9       -3.03975  -0.00001  -0.00028   0.00466   0.00437  -3.03538
   D10       -1.02152  -0.00015  -0.00140   0.00252   0.00112  -1.02040
   D11        3.12136  -0.00017  -0.00081   0.00073  -0.00008   3.12128
   D12        1.10968  -0.00008   0.00013   0.00189   0.00202   1.11170
   D13       -3.04593   0.00016   0.00009   0.00603   0.00613  -3.03981
   D14        1.09695   0.00014   0.00068   0.00424   0.00493   1.10188
   D15       -0.91473   0.00023   0.00161   0.00540   0.00703  -0.90770
   D16        3.09902   0.00010   0.00258   0.03559   0.03817   3.13719
   D17        0.97571   0.00006   0.00216   0.03492   0.03708   1.01279
   D18       -1.06366   0.00018   0.00321   0.03673   0.03996  -1.02370
   D19       -1.05027   0.00008   0.00138   0.03772   0.03909  -1.01118
   D20        3.10962   0.00004   0.00096   0.03704   0.03800  -3.13557
   D21        1.07024   0.00016   0.00201   0.03886   0.04088   1.11112
   D22        0.97605  -0.00001   0.00096   0.03699   0.03793   1.01399
   D23       -1.14725  -0.00005   0.00054   0.03631   0.03684  -1.11041
   D24        3.09656   0.00007   0.00158   0.03813   0.03972   3.13628
   D25        3.10173  -0.00020  -0.00230   0.01464   0.01235   3.11408
   D26       -0.99769   0.00027   0.00420   0.01600   0.02017  -0.97752
   D27        1.02672   0.00003  -0.00015   0.01705   0.01691   1.04364
   D28       -1.05626  -0.00016  -0.00136   0.01443   0.01307  -1.04319
   D29        1.12751   0.00030   0.00514   0.01578   0.02088   1.14839
   D30       -3.13126   0.00006   0.00079   0.01683   0.01763  -3.11363
   D31        0.96228  -0.00029  -0.00396   0.01374   0.00980   0.97208
   D32       -3.13714   0.00017   0.00254   0.01509   0.01762  -3.11952
   D33       -1.11273  -0.00007  -0.00181   0.01614   0.01436  -1.09836
   D34        3.11722   0.00019   0.00165   0.04218   0.04388  -3.12208
   D35        1.12803   0.00027   0.00498   0.04146   0.04647   1.17450
   D36        0.97625  -0.00003  -0.00022   0.03796   0.03769   1.01394
   D37       -1.01293   0.00005   0.00310   0.03724   0.04028  -0.97266
   D38       -1.07629   0.00001  -0.00022   0.04045   0.04025  -1.03604
   D39       -3.06548   0.00009   0.00311   0.03972   0.04283  -3.02264
         Item               Value     Threshold  Converged?
 Maximum Force            0.001254     0.000450     NO 
 RMS     Force            0.000249     0.000300     YES
 Maximum Displacement     0.102121     0.001800     NO 
 RMS     Displacement     0.030459     0.001200     NO 
 Predicted change in Energy=-4.320159D-05
 GradGradGradGradGradGradGradGradGradGradGradGradGradGradGradGradGradGrad

                          Input orientation:                          
 ---------------------------------------------------------------------
 Center     Atomic      Atomic             Coordinates (Angstroms)
 Number     Number       Type             X           Y           Z
 ---------------------------------------------------------------------
      1          7           0       -2.403444    0.032101   -1.361361
      2          6           0       -2.052234   -0.620158   -0.091204
      3          6           0       -0.558178   -0.891484    0.158286
      4          6           0        0.300705    0.373630    0.262260
      5          6           0        1.780156    0.078916    0.516305
      6          7           0        2.562050    1.324827    0.569747
      7          1           0       -2.014247   -0.511048   -2.131335
      8          1           0       -1.944076    0.939243   -1.414941
      9          1           0       -2.448513    0.001324    0.722601
     10          1           0       -2.596262   -1.571537   -0.045961
     11          1           0       -0.173909   -1.531394   -0.649460
     12          1           0       -0.461092   -1.474687    1.084799
     13          1           0       -0.084293    1.006819    1.075513
     14          1           0        0.220006    0.966216   -0.657609
     15          1           0        1.872131   -0.536906    1.428054
     16          1           0        2.174692   -0.528812   -0.308047
     17          1           0        3.542628    1.094412    0.721091
     18          1           0        2.283878    1.848538    1.398971
 ---------------------------------------------------------------------
                    Distance matrix (angstroms):
                    1          2          3          4          5
     1  N    0.000000
     2  C    1.470405   0.000000
     3  C    2.562682   1.538852   0.000000
     4  C    3.172571   2.578541   1.532646   0.000000
     5  C    4.585884   3.942713   2.556885   1.529762   0.000000
     6  N    5.482376   5.050885   3.849307   2.472449   1.471906
     7  H    1.019483   2.043400   2.739933   3.445425   4.664285
     8  H    1.018232   2.048344   2.783400   2.858665   4.282497
     9  H    2.084676   1.097977   2.165391   2.812245   4.234409
    10  H    2.083053   1.096875   2.158234   3.503012   4.710963
    11  H    2.814630   2.161042   1.099819   2.164627   2.787558
    12  H    3.467973   2.155211   1.099081   2.161753   2.785688
    13  H    3.502412   2.807325   2.160886   1.100241   2.156359
    14  H    2.872338   2.828510   2.173086   1.097192   2.144631
    15  H    5.136647   4.209004   2.764858   2.158132   1.104075
    16  H    4.731112   4.233470   2.795993   2.156729   1.097520
    17  H    6.389122   5.907796   4.590985   3.352629   2.044377
    18  H    5.734968   5.207394   4.138153   2.720376   2.040686
                    6          7          8          9         10
     6  N    0.000000
     7  H    5.622168   0.000000
     8  H    4.938910   1.619101   0.000000
     9  H    5.184666   2.931904   2.388144   0.000000
    10  H    5.947790   2.410843   2.933167   1.756817   0.000000
    11  H    4.138833   2.573694   3.134246   3.066854   2.496721
    12  H    4.152342   3.699244   3.778227   2.501926   2.418047
    13  H    2.712942   4.038876   3.108974   2.593281   3.770360
    14  H    2.668366   3.057133   2.292930   3.155469   3.840009
    15  H    2.163037   5.270090   4.982477   4.410819   4.817647
    16  H    2.087235   4.568578   4.510504   4.766267   4.890600
    17  H    1.018592   6.449240   5.889875   6.090042   6.736588
    18  H    1.019444   6.041903   5.159507   5.124959   6.131926
                   11         12         13         14         15
    11  H    0.000000
    12  H    1.758791   0.000000
    13  H    3.070194   2.509967   0.000000
    14  H    2.528496   3.075367   1.760101   0.000000
    15  H    3.080804   2.537949   2.516936   3.055959   0.000000
    16  H    2.576366   3.127628   3.061930   2.485578   1.762287
    17  H    4.752465   4.770988   3.645249   3.599593   2.439581
    18  H    4.654110   4.321734   2.534038   3.044271   2.420894
                   16         17         18
    16  H    0.000000
    17  H    2.359074   0.000000
    18  H    2.928759   1.616379   0.000000
 Stoichiometry    C4H12N2
 Framework group  C1[X(C4H12N2)]
 Deg. of freedom    48
 Full point group                 C1      NOp   1
 Largest Abelian subgroup         C1      NOp   1
 Largest concise Abelian subgroup C1      NOp   1
                         Standard orientation:                         
 ---------------------------------------------------------------------
 Center     Atomic      Atomic             Coordinates (Angstroms)
 Number     Number       Type             X           Y           Z
 ---------------------------------------------------------------------
      1          7           0        2.587010   -0.879902   -0.207631
      2          6           0        2.068116    0.376660    0.352628
      3          6           0        0.686652    0.838213   -0.143948
      4          6           0       -0.460678   -0.110020    0.221420
      5          6           0       -1.823953    0.372647   -0.277262
      6          7           0       -2.880855   -0.591879    0.067929
      7          1           0        2.586106   -0.814250   -1.224998
      8          1           0        1.945360   -1.639420    0.011945
      9          1           0        2.042992    0.268491    1.444976
     10          1           0        2.801681    1.163169    0.137173
     11          1           0        0.725869    0.964317   -1.235809
     12          1           0        0.482644    1.834366    0.273231
     13          1           0       -0.499067   -0.227560    1.314691
     14          1           0       -0.276105   -1.109369   -0.192180
     15          1           0       -2.010670    1.387853    0.114497
     16          1           0       -1.797742    0.463464   -1.370704
     17          1           0       -3.770585   -0.251738   -0.292925
     18          1           0       -2.994390   -0.601852    1.080983
 ---------------------------------------------------------------------
 Rotational constants (GHZ):           9.2211759           1.3371321           1.2492780
 Standard basis: 6-31G(d,p) (6D, 7F)
 There are   150 symmetry adapted cartesian basis functions of A   symmetry.
 There are   150 symmetry adapted basis functions of A   symmetry.
   150 basis functions,   252 primitive gaussians,   150 cartesian basis functions
    25 alpha electrons       25 beta electrons
       nuclear repulsion energy       248.4716616869 Hartrees.
 NAtoms=   18 NActive=   18 NUniq=   18 SFac= 1.00D+00 NAtFMM=   60 NAOKFM=F Big=F
 Integral buffers will be    131072 words long.
 Raffenetti 2 integral format.
 Two-electron integral symmetry is turned on.
 ------------------------------------------------------------------------------
 Polarizable Continuum Model (PCM)
 =================================
 Model                : PCM.
 Atomic radii         : UFF (Universal Force Field).
 Polarization charges : Total charges.
 Charge compensation  : None.
 Solution method      : Matrix inversion.
 Cavity type          : Scaled VdW (van der Waals Surface) (Alpha=1.100).
 Cavity algorithm     : GePol (No added spheres)
                        Default sphere list used, NSphG=   18.
                        Lebedev-Laikov grids with approx.  5.0 points / Ang**2.
                        Smoothing algorithm: York/Karplus (Gamma=1.0000).
                        Polarization charges: spherical gaussians, with
                                              point-specific exponents (IZeta= 3).
                        Self-potential: point-specific (ISelfS= 7).
                        Self-field    : sphere-specific E.n sum rule (ISelfD= 2).
 1st derivatives      : Analytical E(r).r(x)/FMM algorithm (CHGder, D1EAlg=3).
                        Cavity 1st derivative terms included.
 Solvent              : Water, Eps=  78.355300 Eps(inf)=   1.777849
 ------------------------------------------------------------------------------
 Spheres list:
 ISph  on   Nord     Re0    Alpha      Xe            Ye            Ze
    1   N      1    1.8300  1.100      2.587010     -0.879902     -0.207631
    2   C      2    1.9255  1.100      2.068116      0.376660      0.352628
    3   C      3    1.9255  1.100      0.686652      0.838213     -0.143948
    4   C      4    1.9255  1.100     -0.460678     -0.110020      0.221420
    5   C      5    1.9255  1.100     -1.823953      0.372647     -0.277262
    6   N      6    1.8300  1.100     -2.880855     -0.591879      0.067929
    7   H      7    1.4430  1.100      2.586106     -0.814250     -1.224998
    8   H      8    1.4430  1.100      1.945360     -1.639420      0.011945
    9   H      9    1.4430  1.100      2.042992      0.268491      1.444976
   10   H     10    1.4430  1.100      2.801681      1.163169      0.137173
   11   H     11    1.4430  1.100      0.725869      0.964317     -1.235809
   12   H     12    1.4430  1.100      0.482644      1.834366      0.273231
   13   H     13    1.4430  1.100     -0.499067     -0.227560      1.314691
   14   H     14    1.4430  1.100     -0.276105     -1.109369     -0.192180
   15   H     15    1.4430  1.100     -2.010670      1.387853      0.114497
   16   H     16    1.4430  1.100     -1.797742      0.463464     -1.370704
   17   H     17    1.4430  1.100     -3.770585     -0.251738     -0.292925
   18   H     18    1.4430  1.100     -2.994390     -0.601852      1.080983
 ------------------------------------------------------------------------------
 One-electron integrals computed using PRISM.
 NBasis=   150 RedAO= T EigKep=  3.39D-03  NBF=   150
[...]
 Alpha virt. eigenvalues --    3.49643   3.54638   3.58290   3.60012   3.96180
 Alpha virt. eigenvalues --    3.99933   4.31933   4.48134   4.57954   4.71780
          Condensed to atoms (all electrons):
               1          2          3          4          5          6
     1  N    8.679459   0.136847   0.002189   0.039477  -0.001239  -0.000001
     2  C    0.136847   5.320042   0.344237  -0.043966   0.002659  -0.000075
     3  C    0.002189   0.344237   5.212684   0.409228  -0.052495   0.002823
     4  C    0.039477  -0.043966   0.409228   5.444325   0.275630  -0.052103
     5  C   -0.001239   0.002659  -0.052495   0.275630   4.847737   0.295136
     6  N   -0.000001  -0.000075   0.002823  -0.052103   0.295136   6.808141
     7  H   -0.694639   0.030905  -0.034845  -0.015593   0.000725   0.000000
     8  H   -0.731303   0.010567  -0.011414  -0.062534   0.002202  -0.000009
     9  H   -0.126084   0.203982  -0.027176  -0.021238   0.001204  -0.000002
    10  H   -0.113750   0.233958  -0.043365   0.002660   0.000135   0.000001
    11  H   -0.060204  -0.050508   0.193894  -0.067119   0.004003   0.000075
    12  H   -0.004175  -0.072131   0.309138  -0.042855   0.002248  -0.000009
    13  H   -0.007734  -0.012390  -0.050253   0.284631  -0.019384  -0.003315
    14  H   -0.073173   0.002247  -0.079923   0.068397   0.007625   0.005471
    15  H   -0.000008  -0.000066  -0.000612  -0.054447   0.382362  -0.044700
    16  H   -0.000197   0.000062  -0.014816  -0.047676   0.381028  -0.040479
    17  H    0.000000   0.000002  -0.000215   0.005349  -0.031478   0.335613
    18  H   -0.000000  -0.000000  -0.000145  -0.005402  -0.037542   0.337882
               7          8          9         10         11         12
     1  N   -0.694639  -0.731303  -0.126084  -0.113750  -0.060204  -0.004175
     2  C    0.030905   0.010567   0.203982   0.233958  -0.050508  -0.072131
     3  C   -0.034845  -0.011414  -0.027176  -0.043365   0.193894   0.309138
     4  C   -0.015593  -0.062534  -0.021238   0.002660  -0.067119  -0.042855
     5  C    0.000725   0.002202   0.001204   0.000135   0.004003   0.002248
     6  N    0.000000  -0.000009  -0.000002   0.000001   0.000075  -0.000009
     7  H    1.185900   0.354516   0.033220   0.052057   0.055559   0.003844
     8  H    0.354516   1.231981   0.061538   0.030941   0.020200   0.003440
     9  H    0.033220   0.061538   0.696420   0.018050   0.015121   0.011070
    10  H    0.052057   0.030941   0.018050   0.668826   0.018546   0.010542
    11  H    0.055559   0.020200   0.015121   0.018546   0.751770   0.003685
    12  H    0.003844   0.003440   0.011070   0.010542   0.003685   0.634010
    13  H    0.001847   0.012387   0.016901   0.001271   0.011546   0.002519
    14  H    0.029866   0.102903   0.010106   0.002386   0.024741   0.012878
    15  H    0.000005   0.000015   0.000021   0.000009  -0.000381   0.006139
    16  H    0.000228   0.000275   0.000067   0.000041   0.011252   0.000872
    17  H    0.000000   0.000000   0.000000  -0.000000   0.000006   0.000004
    18  H    0.000000   0.000002   0.000000   0.000000   0.000016  -0.000001
              13         14         15         16         17         18
     1  N   -0.007734  -0.073173  -0.000008  -0.000197   0.000000  -0.000000
     2  C   -0.012390   0.002247  -0.000066   0.000062   0.000002  -0.000000
     3  C   -0.050253  -0.079923  -0.000612  -0.014816  -0.000215  -0.000145
     4  C    0.284631   0.068397  -0.054447  -0.047676   0.005349  -0.005402
     5  C   -0.019384   0.007625   0.382362   0.381028  -0.031478  -0.037542
     6  N   -0.003315   0.005471  -0.044700  -0.040479   0.335613   0.337882
     7  H    0.001847   0.029866   0.000005   0.000228   0.000000   0.000000
     8  H    0.012387   0.102903   0.000015   0.000275   0.000000   0.000002
     9  H    0.016901   0.010106   0.000021   0.000067   0.000000   0.000000
    10  H    0.001271   0.002386   0.000009   0.000041  -0.000000   0.000000
    11  H    0.011546   0.024741  -0.000381   0.011252   0.000006   0.000016
    12  H    0.002519   0.012878   0.006139   0.000872   0.000004  -0.000001
    13  H    0.682653   0.000938  -0.006741   0.007668   0.000002   0.005236
    14  H    0.000938   0.876807   0.007705   0.000918   0.000007  -0.000711
    15  H   -0.006741   0.007705   0.688556  -0.049591  -0.003090  -0.005778
    16  H    0.007668   0.000918  -0.049591   0.650921  -0.003949   0.006746
    17  H    0.000002   0.000007  -0.003090  -0.003949   0.478834  -0.032564
    18  H    0.005236  -0.000711  -0.005778   0.006746  -0.032564   0.483237
 Mulliken charges:
               1
     1  N   -0.045465
     2  C   -0.106370
     3  C   -0.158934
     4  C   -0.116764
     5  C   -0.060556
     6  N   -0.644451
     7  H   -0.003595
     8  H   -0.025707
     9  H    0.106800
    10  H    0.117693
    11  H    0.067799
    12  H    0.118783
    13  H    0.072218
    14  H    0.000812
    15  H    0.080603
    16  H    0.096629
    17  H    0.251479
    18  H    0.249024
 Sum of Mulliken charges =  -0.00000
 Mulliken charges with hydrogens summed into heavy atoms:
               1
     1  N   -0.074766
     2  C    0.118123
     3  C    0.027648
     4  C   -0.043733
     5  C    0.116676
     6  N   -0.143948
 Electronic spatial extent (au):  <R**2>=            973.2296
 Charge=             -0.0000 electrons
 Dipole moment (field-independent basis, Debye):
    X=              0.5110    Y=              2.9300    Z=              1.4205  Tot=              3.2960
 Quadrupole moment (field-independent basis, Debye-Ang):
   XX=            -34.2919   YY=            -44.7952   ZZ=            -41.0071
   XY=             -2.5026   XZ=             -0.2225   YZ=             -0.5879
 Traceless Quadrupole moment (field-independent basis, Debye-Ang):
   XX=              5.7395   YY=             -4.7638   ZZ=             -0.9757
   XY=             -2.5026   XZ=             -0.2225   YZ=             -0.5879
 Octapole moment (field-independent basis, Debye-Ang**2):
  XXX=            -26.1252  YYY=             10.4840  ZZZ=              5.8540  XYY=              3.8961
  XXY=             10.7490  XXZ=              9.8963  XZZ=             -9.1068  YZZ=              0.7809
  YYZ=              1.9846  XYZ=              3.5272
 Hexadecapole moment (field-independent basis, Debye-Ang**3):
 XXXX=           -890.7316 YYYY=           -192.4992 ZZZZ=           -105.2840 XXXY=            -17.0023
 XXXZ=              2.1711 YYYX=              0.7918 YYYZ=              0.0497 ZZZX=              4.1533
 ZZZY=             -3.1631 XXYY=           -217.8771 XXZZ=           -183.2305 YYZZ=            -49.6481
 XXYZ=             -6.3537 YYXZ=             -1.9261 ZZXY=              5.0163
 N-N= 2.484709377215D+02 E-N=-1.120111302235D+03  KE= 2.667203118596D+02
 Evaluate density.
 Using the total density.
 Monte-Carlo method of calculating molar volume:
 based on  0.001 e/bohr**3 density envelope.
 Number of points per bohr**3 =   20 CutOff= 1.00D-04
 Using the CI density.
 There are       333 points.  Will hold       333 in memory.
 LenV=   805232436 MDV=   805306368.
 Box volume = 4623.327 fraction occupied=0.222
 Integrated density= 4.3638946238896125D+01 error=-6.3610537611038751D+00
 Molar volume = 1027.406 bohr**3/mol ( 91.685 cm**3/mol)
 Recommended a0 for SCRF calculation =  4.15 angstrom (  7.83 bohr)
 ******************************Gaussian NBO Version 3.1******************************
             N A T U R A L   A T O M I C   O R B I T A L   A N D
          N A T U R A L   B O N D   O R B I T A L   A N A L Y S I S
 ******************************Gaussian NBO Version 3.1******************************
       /RESON  / : Allow strongly delocalized NBO set

 Analyzing the CI density

 Job title: KIDHWZJUCRJVML-UHFFFAOYSA-N_conf_0                              

 Storage needed:     68640 in NPA ( 805304568 available)
 GSVD:  LWork=       11850 too small for GESVD, short by        8811 words or        8811 for optimal perf.


 NATURAL POPULATIONS:  Natural atomic orbital occupancies 
                                                          
   NAO  Atom  No  lang   Type(AO)    Occupancy
 --------------------------------------------
     1    N    1  S      Cor( 1S)     1.99935
     2    N    1  S      Val( 2S)     1.49368
     3    N    1  S      Ryd( 3S)     0.01677
     4    N    1  S      Ryd( 4S)     0.00001
     5    N    1  px     Val( 2p)     1.16379
     6    N    1  px     Ryd( 3p)     0.00177
     7    N    1  py     Val( 2p)     1.31954
     8    N    1  py     Ryd( 3p)     0.00184
     9    N    1  pz     Val( 2p)     1.37979
    10    N    1  pz     Ryd( 3p)     0.00330
    11    N    1  dxy    Ryd( 3d)     0.00088
    12    N    1  dxz    Ryd( 3d)     0.00000
    13    N    1  dyz    Ryd( 3d)     0.00023
    14    N    1  dx2y2  Ryd( 3d)     0.00000
    15    N    1  dz2    Ryd( 3d)     0.00084

    16    C    2  S      Cor( 1S)     1.99935
    17    C    2  S      Val( 2S)     1.05247
    18    C    2  S      Ryd( 3S)     0.00163
    19    C    2  S      Ryd( 4S)     0.00004
    20    C    2  px     Val( 2p)     1.08149
    21    C    2  px     Ryd( 3p)     0.00214
    22    C    2  py     Val( 2p)     1.00350
    23    C    2  py     Ryd( 3p)     0.00636
    24    C    2  pz     Val( 2p)     1.20611
    25    C    2  pz     Ryd( 3p)     0.00475
    26    C    2  dxy    Ryd( 3d)     0.00117
    27    C    2  dxz    Ryd( 3d)     0.00051
    28    C    2  dyz    Ryd( 3d)     0.00078
    29    C    2  dx2y2  Ryd( 3d)     0.00084
    30    C    2  dz2    Ryd( 3d)     0.00119

    31    C    3  S      Cor( 1S)     1.99926
    32    C    3  S      Val( 2S)     1.05071
    33    C    3  S      Ryd( 3S)     0.00087
    34    C    3  S      Ryd( 4S)     0.00003
    35    C    3  px     Val( 2p)     0.97977
    36    C    3  px     Ryd( 3p)     0.00282
    37    C    3  py     Val( 2p)     1.17993
    38    C    3  py     Ryd( 3p)     0.00214
    39    C    3  pz     Val( 2p)     1.23673
    40    C    3  pz     Ryd( 3p)     0.00249
    41    C    3  dxy    Ryd( 3d)     0.00057
    42    C    3  dxz    Ryd( 3d)     0.00038
    43    C    3  dyz    Ryd( 3d)     0.00047
    44    C    3  dx2y2  Ryd( 3d)     0.00079
    45    C    3  dz2    Ryd( 3d)     0.00097

    46    C    4  S      Cor( 1S)     1.99931
    47    C    4  S      Val( 2S)     1.05442
    48    C    4  S      Ryd( 3S)     0.00131
    49    C    4  S      Ryd( 4S)     0.00003
    50    C    4  px     Val( 2p)     1.03039
    51    C    4  px     Ryd( 3p)     0.00739
    52    C    4  py     Val( 2p)     1.17620
    53    C    4  py     Ryd( 3p)     0.00280
    54    C    4  pz     Val( 2p)     1.21580
    55    C    4  pz     Ryd( 3p)     0.00302
    56    C    4  dxy    Ryd( 3d)     0.00065
    57    C    4  dxz    Ryd( 3d)     0.00035
    58    C    4  dyz    Ryd( 3d)     0.00039
    59    C    4  dx2y2  Ryd( 3d)     0.00064
    60    C    4  dz2    Ryd( 3d)     0.00099

    61    C    5  S      Cor( 1S)     1.99934
    62    C    5  S      Val( 2S)     1.01843
    63    C    5  S      Ryd( 3S)     0.00220
    64    C    5  S      Ryd( 4S)     0.00004
    65    C    5  px     Val( 2p)     0.95284
    66    C    5  px     Ryd( 3p)     0.00289
    67    C    5  py     Val( 2p)     1.08034
    68    C    5  py     Ryd( 3p)     0.00286
    69    C    5  pz     Val( 2p)     1.19883
    70    C    5  pz     Ryd( 3p)     0.00203
    71    C    5  dxy    Ryd( 3d)     0.00115
    72    C    5  dxz    Ryd( 3d)     0.00057
    73    C    5  dyz    Ryd( 3d)     0.00051
    74    C    5  dx2y2  Ryd( 3d)     0.00133
    75    C    5  dz2    Ryd( 3d)     0.00127

    76    N    6  S      Cor( 1S)     1.99968
    77    N    6  S      Val( 2S)     1.44818
    78    N    6  S      Ryd( 3S)     0.00045
    79    N    6  S      Ryd( 4S)     0.00000
    80    N    6  px     Val( 2p)     1.33269
    81    N    6  px     Ryd( 3p)     0.00230
    82    N    6  py     Val( 2p)     1.70029
    83    N    6  py     Ryd( 3p)     0.00489
    84    N    6  pz     Val( 2p)     1.43134
    85    N    6  pz     Ryd( 3p)     0.00251
    86    N    6  dxy    Ryd( 3d)     0.00133
    87    N    6  dxz    Ryd( 3d)     0.00021
    88    N    6  dyz    Ryd( 3d)     0.00089
    89    N    6  dx2y2  Ryd( 3d)     0.00098
    90    N    6  dz2    Ryd( 3d)     0.00120

    91    H    7  S      Val( 1S)     0.71939
    92    H    7  S      Ryd( 2S)     0.08364
    93    H    7  px     Ryd( 2p)     0.00014
    94    H    7  py     Ryd( 2p)     0.00026
    95    H    7  pz     Ryd( 2p)     0.00076

    96    H    8  S      Val( 1S)     0.74685
    97    H    8  S      Ryd( 2S)     0.08224
    98    H    8  px     Ryd( 2p)     0.00045
    99    H    8  py     Ryd( 2p)     0.00046
   100    H    8  pz     Ryd( 2p)     0.00022

   101    H    9  S      Val( 1S)     0.74799
   102    H    9  S      Ryd( 2S)     0.01847
   103    H    9  px     Ryd( 2p)     0.00007
   104    H    9  py     Ryd( 2p)     0.00008
   105    H    9  pz     Ryd( 2p)     0.00038

   106    H   10  S      Val( 1S)     0.73770
   107    H   10  S      Ryd( 2S)     0.01485
   108    H   10  px     Ryd( 2p)     0.00021
   109    H   10  py     Ryd( 2p)     0.00024
   110    H   10  pz     Ryd( 2p)     0.00009

   111    H   11  S      Val( 1S)     0.76522
   112    H   11  S      Ryd( 2S)     0.02307
   113    H   11  px     Ryd( 2p)     0.00011
   114    H   11  py     Ryd( 2p)     0.00010
   115    H   11  pz     Ryd( 2p)     0.00036

   116    H   12  S      Val( 1S)     0.74208
   117    H   12  S      Ryd( 2S)     0.00591
   118    H   12  px     Ryd( 2p)     0.00011
   119    H   12  py     Ryd( 2p)     0.00032
   120    H   12  pz     Ryd( 2p)     0.00012

   121    H   13  S      Val( 1S)     0.77012
   122    H   13  S      Ryd( 2S)     0.00883
   123    H   13  px     Ryd( 2p)     0.00010
   124    H   13  py     Ryd( 2p)     0.00010
   125    H   13  pz     Ryd( 2p)     0.00035

   126    H   14  S      Val( 1S)     0.80207
   127    H   14  S      Ryd( 2S)     0.03360
   128    H   14  px     Ryd( 2p)     0.00012
   129    H   14  py     Ryd( 2p)     0.00031
   130    H   14  pz     Ryd( 2p)     0.00011

   131    H   15  S      Val( 1S)     0.79544
   132    H   15  S      Ryd( 2S)     0.00237
   133    H   15  px     Ryd( 2p)     0.00012
   134    H   15  py     Ryd( 2p)     0.00033
   135    H   15  pz     Ryd( 2p)     0.00014

   136    H   16  S      Val( 1S)     0.77657
   137    H   16  S      Ryd( 2S)     0.00292
   138    H   16  px     Ryd( 2p)     0.00008
   139    H   16  py     Ryd( 2p)     0.00009
   140    H   16  pz     Ryd( 2p)     0.00039

   141    H   17  S      Val( 1S)     0.60712
   142    H   17  S      Ryd( 2S)     0.00121
   143    H   17  px     Ryd( 2p)     0.00052
   144    H   17  py     Ryd( 2p)     0.00052
   145    H   17  pz     Ryd( 2p)     0.00038

   146    H   18  S      Val( 1S)     0.61416
   147    H   18  S      Ryd( 2S)     0.00152
   148    H   18  px     Ryd( 2p)     0.00032
   149    H   18  py     Ryd( 2p)     0.00049
   150    H   18  pz     Ryd( 2p)     0.00061


 Summary of Natural Population Analysis:                  
                                                          
                                       Natural Population 
                Natural  -----------------------------------------------
    Atom  No    Charge         Core      Valence    Rydberg      Total
 -----------------------------------------------------------------------
      N    1   -0.38178      1.99935     5.35680    0.02563     7.38178
      C    2   -0.36232      1.99935     4.34358    0.01939     6.36232
      C    3   -0.45793      1.99926     4.44715    0.01152     6.45793
      C    4   -0.49371      1.99931     4.47681    0.01760     6.49371
      C    5   -0.26464      1.99934     4.25043    0.01486     6.26464
      N    6   -0.92695      1.99968     5.91249    0.01478     7.92695
      H    7    0.19580      0.00000     0.71939    0.08480     0.80420
      H    8    0.16978      0.00000     0.74685    0.08337     0.83022
      H    9    0.23300      0.00000     0.74799    0.01900     0.76700
      H   10    0.24691      0.00000     0.73770    0.01539     0.75309
      H   11    0.21114      0.00000     0.76522    0.02364     0.78886
      H   12    0.25146      0.00000     0.74208    0.00647     0.74854
      H   13    0.22049      0.00000     0.77012    0.00938     0.77951
      H   14    0.16378      0.00000     0.80207    0.03415     0.83622
      H   15    0.20161      0.00000     0.79544    0.00295     0.79839
      H   16    0.21996      0.00000     0.77657    0.00348     0.78004
      H   17    0.39026      0.00000     0.60712    0.00262     0.60974
      H   18    0.38289      0.00000     0.61416    0.00294     0.61711
 =======================================================================
   * Total *   -0.00023     11.99629    37.61195    0.39199    50.00023

                                 Natural Population      
 --------------------------------------------------------
   Core                      11.99629 ( 99.9691% of  12)
   Valence                   37.61195 ( 98.9788% of  38)
   Natural Minimal Basis     49.60824 ( 99.2165% of  50)
   Natural Rydberg Basis      0.39199 (  0.7840% of  50)
 --------------------------------------------------------

    Atom  No          Natural Electron Configuration
 ----------------------------------------------------------------------------
      N    1      [core]2S( 1.49)2p( 3.86)3S( 0.02)3p( 0.01)
      C    2      [core]2S( 1.05)2p( 3.29)3p( 0.01)
      C    3      [core]2S( 1.05)2p( 3.40)3p( 0.01)
      C    4      [core]2S( 1.05)2p( 3.42)3p( 0.01)
      C    5      [core]2S( 1.02)2p( 3.23)3p( 0.01)
      N    6      [core]2S( 1.45)2p( 4.46)3p( 0.01)
      H    7            1S( 0.72)2S( 0.08)
      H    8            1S( 0.75)2S( 0.08)
      H    9            1S( 0.75)2S( 0.02)
      H   10            1S( 0.74)2S( 0.01)
      H   11            1S( 0.77)2S( 0.02)
      H   12            1S( 0.74)2S( 0.01)
      H   13            1S( 0.77)2S( 0.01)
      H   14            1S( 0.80)2S( 0.03)
      H   15            1S( 0.80)
      H   16            1S( 0.78)
      H   17            1S( 0.61)
      H   18            1S( 0.61)


 NBO analysis skipped by request.
 1\1\GINC-CN33\SP\RB3LYP TD-FC\6-31G(d,p)\C4H12N2\QDUEZ\09-Jul-2024\0\\
 # TD(NStates=10, Root=1) B3LYP/6-31G** SCRF=(Solvent=water) volume pop
 =NPA density=current Geom=AllCheck Guess=Read\\KIDHWZJUCRJVML-UHFFFAOY
 SA-N_conf_0\\0,1\N,0,-2.4048134405,0.0351743996,-1.3582099393\C,0,-2.0
 51651592,-0.6217809166,-0.0908923474\C,0,-0.5571977137,-0.8931902563,0
 .1561223402\C,0,0.3015519522,0.3722727645,0.2591391702\C,0,1.780084740
 1,0.0780613578,0.5190086001\N,0,2.5630544542,1.3236625326,0.5670539469
 \H,0,-2.0133961242,-0.502809599,-2.1306536318\H,0,-1.9489146279,0.9443
 332608,-1.4073172028\H,0,-2.4471006414,-0.0033382705,0.725603071\H,0,-
 2.5953095465,-1.5735266583,-0.0480969752\H,0,-0.1739210949,-1.53269997
 32,-0.6524366822\H,0,-0.4587859974,-1.4768164923,1.082215109\H,0,-0.08
 59146224,1.0081478998,1.0691148354\H,0,0.2238672079,0.9618760282,-0.66
 28971925\H,0,1.8691345431,-0.5322179176,1.4347248941\H,0,2.1760766909,
 -0.5352181153,-0.30057904\H,0,3.5424924429,1.0934429107,0.7256162934\H
 ,0,2.2807433697,1.8546270453,1.3901936716\\Version=EM64L-G16RevA.03\St
 ate=1-A\HF=-269.1693024\RMSD=1.800e-09\Dipole=-0.3183291,-0.7537637,1.
 0060348\Quadrupole=3.6627001,-2.7979613,-0.8647388,-0.1671709,2.337587
 5,1.6827909\PG=C01 [X(C4H12N2)]\\@


 CURIOUSER AND CURIOUSER

                  -- ALICE, IN WONDERLAND
 Job cpu time:       0 days  0 hours 29 minutes 17.1 seconds.
 Elapsed time:       0 days  0 hours 17 minutes  3.2 seconds.
 File lengths (MBytes):  RWF=    245 Int=      0 D2E=      0 Chk=     15 Scr=      1
 Normal termination of Gaussian 16 at Tue Jul  9 18:35:41 2024.
