 Entering Gaussian System, Link 0=g16
 Initial command:
 /opt/sw/arch/manual/gaussian/G16_A03/g16/l1.exe "/scratch/1030830.jesse.materianova.be/Gau-22663.inp" -scrdir="/scratch/1030830.jesse.materianova.be/"
 Entering Link 1 = /opt/sw/arch/manual/gaussian/G16_A03/g16/l1.exe PID=     22665.
  
 Copyright (c) 1988,1990,1992,1993,1995,1998,2003,2009,2016,
            Gaussian, Inc.  All Rights Reserved.
  
 This is part of the Gaussian(R) 16 program.  It is based on
 the Gaussian(R) 09 system (copyright 2009, Gaussian, Inc.),
 the Gaussian(R) 03 system (copyright 2003, Gaussian, Inc.),
 the Gaussian(R) 98 system (copyright 1998, Gaussian, Inc.),
 the Gaussian(R) 94 system (copyright 1995, Gaussian, Inc.),
 the Gaussian 92(TM) system (copyright 1992, Gaussian, Inc.),
 the Gaussian 90(TM) system (copyright 1990, Gaussian, Inc.),
 the Gaussian 88(TM) system (copyright 1988, Gaussian, Inc.),
 the Gaussian 86(TM) system (copyright 1986, Carnegie Mellon
 University), and the Gaussian 82(TM) system (copyright 1983,
 Carnegie Mellon University). Gaussian is a federally registered
 trademark of Gaussian, Inc.
  
 This software contains proprietary and confidential information,
 including trade secrets, belonging to Gaussian, Inc.
  
 This software is provided under written license and may be
 used, copied, transmitted, or stored only in accord with that
 written license.
  
 The following legend is applicable only to US Government
 contracts under FAR:
  
                    RESTRICTED RIGHTS LEGEND
  
 Use, reproduction and disclosure by the US Government is
 subject to restrictions as set forth in subparagraphs (a)
 and (c) of the Commercial Computer Software - Restricted
 Rights clause in FAR 52.227-19.
  
 Gaussian, Inc.
 340 Quinnipiac St., Bldg. 40, Wallingford CT 06492
  
  
 ---------------------------------------------------------------
 Warning -- This program may not be used in any manner that
 competes with the business of Gaussian, Inc. or will provide
 assistance to any competitor of Gaussian, Inc.  The licensee
 of this program is prohibited from giving any competitor of
 Gaussian, Inc. access to this program.  By using this program,
 the user acknowledges that Gaussian, Inc. is engaged in the
 business of creating and licensing software in the field of
 computational chemistry and represents and warrants to the
 licensee that it is not a competitor of Gaussian, Inc. and that
 it will not use this program in any manner prohibited above.
 ---------------------------------------------------------------
  

 Cite this work as:
 Gaussian 16, Revision A.03,
 M. J. Frisch, G. W. Trucks, H. B. Schlegel, G. E. Scuseria, 
 M. A. Robb, J. R. Cheeseman, G. Scalmani, V. Barone, 
 G. A. Petersson, H. Nakatsuji, X. Li, M. Caricato, A. V. Marenich, 
 J. Bloino, B. G. Janesko, R. Gomperts, B. Mennucci, H. P. Hratchian, 
 J. V. Ortiz, A. F. Izmaylov, J. L. Sonnenberg, D. Williams-Young, 
 F. Ding, F. Lipparini, F. Egidi, J. Goings, B. Peng, A. Petrone, 
 T. Henderson, D. Ranasinghe, V. G. Zakrzewski, J. Gao, N. Rega, 
 G. Zheng, W. Liang, M. Hada, M. Ehara, K. Toyota, R. Fukuda, 
 J. Hasegawa, M. Ishida, T. Nakajima, Y. Honda, O. Kitao, H. Nakai, 
 T. Vreven, K. Throssell, J. A. Montgomery, Jr., J. E. Peralta, 
 F. Ogliaro, M. J. Bearpark, J. J. Heyd, E. N. Brothers, K. N. Kudin, 
 V. N. Staroverov, T. A. Keith, R. Kobayashi, J. Normand, 
 K. Raghavachari, A. P. Rendell, J. C. Burant, S. S. Iyengar, 
 J. Tomasi, M. Cossi, J. M. Millam, M. Klene, C. Adamo, R. Cammi, 
 J. W. Ochterski, R. L. Martin, K. Morokuma, O. Farkas, 
 J. B. Foresman, and D. J. Fox, Gaussian, Inc., Wallingford CT, 2016.
 
 ******************************************
 Gaussian 16:  EM64L-G16RevA.03 25-Dec-2016
                 9-Jul-2024 
 ******************************************
 %nprocshared=3
 Will use up to    3 processors via shared memory.
 %mem=6GB
 %Chk=SSJXIUAHEKJCMH-OLQVQODUSA-N_conf_1_0.chk
 -------------------------------------------------------
 # opt=CalcFc B3LYP/6-31G** SCRF=(Solvent=water) scf=xqc
 -------------------------------------------------------
 1/10=4,18=20,19=15,26=3,38=1/1,3;
 2/9=110,12=2,17=6,18=5,40=1/2;
 3/5=1,6=6,7=101,11=2,25=1,30=1,70=2201,71=2,72=1,74=-5,140=1/1,2,3;
 4//1;
 5/5=2,8=3,13=1,38=5,53=1/2,8;
 8/6=4,10=90,11=11/1;
 11/6=1,8=1,9=11,15=111,16=1/1,2,10;
 10/6=1,13=1/2;
 6/7=2,8=2,9=2,10=2,28=1/1;
 7/10=1,18=20,25=1/1,2,3,16;
 1/10=4,18=20,19=15,26=3/3(2);
 2/9=110/2;
 99//99;
 2/9=110/2;
 3/5=1,6=6,7=101,11=2,25=1,30=1,70=2205,71=1,72=1,74=-5/1,2,3;
 4/5=5,16=3,69=1/1;
 5/5=2,8=3,13=1,38=5,53=1/2,8;
 7//1,2,3,16;
 1/18=20,19=15,26=3/3(-5);
 2/9=110/2;
 6/7=2,8=2,9=2,10=2,19=2,28=1/1;
 99/9=1/99;
 ----------------------------------
 SSJXIUAHEKJCMH-OLQVQODUSA-N_conf_1
 ----------------------------------
 Symbolic Z-matrix:
 Charge =  0 Multiplicity = 1
 N                     0.64688   2.38417   0.05969 
 C                     0.24802   1.02317  -0.32824 
 C                     0.71849  -0.03149   0.7044 
 N                     2.12888   0.16161   1.07903 
 C                     0.47366  -1.4514    0.16903 
 C                    -0.76743  -1.55409  -0.72607 
 C                    -1.81325  -0.49437  -0.40181 
 C                    -1.26977   0.9327   -0.54355 
 H                     1.61836   2.30893   0.38304 
 H                     0.14097   2.64371   0.90668 
 H                     0.74625   0.81392  -1.28459 
 H                     0.13072   0.1       1.62291 
 H                     2.71106   0.06925   0.2458 
 H                     2.41642  -0.59083   1.70456 
 H                     0.37154  -2.1365    1.02039 
 H                     1.33728  -1.81065  -0.40568 
 H                    -1.20247  -2.55592  -0.63525 
 H                    -0.46384  -1.44292  -1.7749 
 H                    -2.69056  -0.6179   -1.04697 
 H                    -2.16279  -0.64493   0.62762 
 H                    -1.80991   1.5729    0.16602 
 H                    -1.50851   1.32062  -1.54212 
 

 GradGradGradGradGradGradGradGradGradGradGradGradGradGradGradGradGradGrad
 Berny optimization.
 Initialization pass.
                           ----------------------------
                           !    Initial Parameters    !
                           ! (Angstroms and Degrees)  !
 --------------------------                            --------------------------
 ! Name  Definition              Value          Derivative Info.                !
 --------------------------------------------------------------------------------
 ! R1    R(1,2)                  1.4703         calculate D2E/DX2 analytically  !
 ! R2    R(1,9)                  1.0266         calculate D2E/DX2 analytically  !
 ! R3    R(1,10)                 1.0201         calculate D2E/DX2 analytically  !
 ! R4    R(2,3)                  1.5492         calculate D2E/DX2 analytically  !
 ! R5    R(2,8)                  1.5357         calculate D2E/DX2 analytically  !
 ! R6    R(2,11)                 1.0985         calculate D2E/DX2 analytically  !
 ! R7    R(3,4)                  1.472          calculate D2E/DX2 analytically  !
 ! R8    R(3,5)                  1.5371         calculate D2E/DX2 analytically  !
 ! R9    R(3,12)                 1.0984         calculate D2E/DX2 analytically  !
 ! R10   R(4,13)                 1.0207         calculate D2E/DX2 analytically  !
 ! R11   R(4,14)                 1.0199         calculate D2E/DX2 analytically  !
 ! R12   R(5,6)                  1.5336         calculate D2E/DX2 analytically  !
 ! R13   R(5,15)                 1.0975         calculate D2E/DX2 analytically  !
 ! R14   R(5,16)                 1.0978         calculate D2E/DX2 analytically  !
 ! R15   R(6,7)                  1.5238         calculate D2E/DX2 analytically  !
 ! R16   R(6,17)                 1.096          calculate D2E/DX2 analytically  !
 ! R17   R(6,18)                 1.0975         calculate D2E/DX2 analytically  !
 ! R18   R(7,8)                  1.5336         calculate D2E/DX2 analytically  !
 ! R19   R(7,19)                 1.096          calculate D2E/DX2 analytically  !
 ! R20   R(7,20)                 1.0975         calculate D2E/DX2 analytically  !
 ! R21   R(8,21)                 1.0978         calculate D2E/DX2 analytically  !
 ! R22   R(8,22)                 1.0975         calculate D2E/DX2 analytically  !
 ! A1    A(2,1,9)              105.7803         calculate D2E/DX2 analytically  !
 ! A2    A(2,1,10)             108.6644         calculate D2E/DX2 analytically  !
 ! A3    A(9,1,10)             103.0866         calculate D2E/DX2 analytically  !
 ! A4    A(1,2,3)              111.8334         calculate D2E/DX2 analytically  !
 ! A5    A(1,2,8)              111.078          calculate D2E/DX2 analytically  !
 ! A6    A(1,2,11)             106.4391         calculate D2E/DX2 analytically  !
 ! A7    A(3,2,8)              110.7017         calculate D2E/DX2 analytically  !
 ! A8    A(3,2,11)             108.2342         calculate D2E/DX2 analytically  !
 ! A9    A(8,2,11)             108.3609         calculate D2E/DX2 analytically  !
 ! A10   A(2,3,4)              111.7962         calculate D2E/DX2 analytically  !
 ! A11   A(2,3,5)              110.3855         calculate D2E/DX2 analytically  !
 ! A12   A(2,3,12)             108.2649         calculate D2E/DX2 analytically  !
 ! A13   A(4,3,5)              111.2495         calculate D2E/DX2 analytically  !
 ! A14   A(4,3,12)             106.5109         calculate D2E/DX2 analytically  !
 ! A15   A(5,3,12)             108.4582         calculate D2E/DX2 analytically  !
 ! A16   A(3,4,13)             109.0799         calculate D2E/DX2 analytically  !
 ! A17   A(3,4,14)             109.2351         calculate D2E/DX2 analytically  !
 ! A18   A(13,4,14)            105.8509         calculate D2E/DX2 analytically  !
 ! A19   A(3,5,6)              113.2055         calculate D2E/DX2 analytically  !
 ! A20   A(3,5,15)             108.7391         calculate D2E/DX2 analytically  !
 ! A21   A(3,5,16)             111.0591         calculate D2E/DX2 analytically  !
 ! A22   A(6,5,15)             109.6115         calculate D2E/DX2 analytically  !
 ! A23   A(6,5,16)             108.0088         calculate D2E/DX2 analytically  !
 ! A24   A(15,5,16)            105.962          calculate D2E/DX2 analytically  !
 ! A25   A(5,6,7)              112.622          calculate D2E/DX2 analytically  !
 ! A26   A(5,6,17)             109.5159         calculate D2E/DX2 analytically  !
 ! A27   A(5,6,18)             109.0937         calculate D2E/DX2 analytically  !
 ! A28   A(7,6,17)             110.2209         calculate D2E/DX2 analytically  !
 ! A29   A(7,6,18)             108.8303         calculate D2E/DX2 analytically  !
 ! A30   A(17,6,18)            106.3542         calculate D2E/DX2 analytically  !
 ! A31   A(6,7,8)              112.597          calculate D2E/DX2 analytically  !
 ! A32   A(6,7,19)             110.2272         calculate D2E/DX2 analytically  !
 ! A33   A(6,7,20)             108.8306         calculate D2E/DX2 analytically  !
 ! A34   A(8,7,19)             109.5207         calculate D2E/DX2 analytically  !
 ! A35   A(8,7,20)             109.0991         calculate D2E/DX2 analytically  !
 ! A36   A(19,7,20)            106.3646         calculate D2E/DX2 analytically  !
 ! A37   A(2,8,7)              113.0864         calculate D2E/DX2 analytically  !
 ! A38   A(2,8,21)             111.1818         calculate D2E/DX2 analytically  !
 ! A39   A(2,8,22)             108.7674         calculate D2E/DX2 analytically  !
 ! A40   A(7,8,21)             107.9726         calculate D2E/DX2 analytically  !
 ! A41   A(7,8,22)             109.6263         calculate D2E/DX2 analytically  !
 ! A42   A(21,8,22)            105.9582         calculate D2E/DX2 analytically  !
 ! D1    D(9,1,2,3)             43.4646         calculate D2E/DX2 analytically  !
 ! D2    D(9,1,2,8)            167.6967         calculate D2E/DX2 analytically  !
 ! D3    D(9,1,2,11)           -74.5478         calculate D2E/DX2 analytically  !
 ! D4    D(10,1,2,3)           -66.6447         calculate D2E/DX2 analytically  !
 ! D5    D(10,1,2,8)            57.5874         calculate D2E/DX2 analytically  !
 ! D6    D(10,1,2,11)          175.3429         calculate D2E/DX2 analytically  !
 ! D7    D(1,2,3,4)            -47.1129         calculate D2E/DX2 analytically  !
 ! D8    D(1,2,3,5)           -171.5165         calculate D2E/DX2 analytically  !
 ! D9    D(1,2,3,12)            69.9069         calculate D2E/DX2 analytically  !
 ! D10   D(8,2,3,4)           -171.5552         calculate D2E/DX2 analytically  !
 ! D11   D(8,2,3,5)             64.0412         calculate D2E/DX2 analytically  !
 ! D12   D(8,2,3,12)           -54.5354         calculate D2E/DX2 analytically  !
 ! D13   D(11,2,3,4)            69.8218         calculate D2E/DX2 analytically  !
 ! D14   D(11,2,3,5)           -54.5818         calculate D2E/DX2 analytically  !
 ! D15   D(11,2,3,12)         -173.1584         calculate D2E/DX2 analytically  !
 ! D16   D(1,2,8,7)           -157.3309         calculate D2E/DX2 analytically  !
 ! D17   D(1,2,8,21)           -35.669          calculate D2E/DX2 analytically  !
 ! D18   D(1,2,8,22)            80.632          calculate D2E/DX2 analytically  !
 ! D19   D(3,2,8,7)            -32.4592         calculate D2E/DX2 analytically  !
 ! D20   D(3,2,8,21)            89.2028         calculate D2E/DX2 analytically  !
 ! D21   D(3,2,8,22)          -154.4962         calculate D2E/DX2 analytically  !
 ! D22   D(11,2,8,7)            86.087          calculate D2E/DX2 analytically  !
 ! D23   D(11,2,8,21)         -152.2511         calculate D2E/DX2 analytically  !
 ! D24   D(11,2,8,22)          -35.95           calculate D2E/DX2 analytically  !
 ! D25   D(2,3,4,13)           -60.6043         calculate D2E/DX2 analytically  !
 ! D26   D(2,3,4,14)          -175.8682         calculate D2E/DX2 analytically  !
 ! D27   D(5,3,4,13)            63.3152         calculate D2E/DX2 analytically  !
 ! D28   D(5,3,4,14)           -51.9487         calculate D2E/DX2 analytically  !
 ! D29   D(12,3,4,13)         -178.6773         calculate D2E/DX2 analytically  !
 ! D30   D(12,3,4,14)           66.0588         calculate D2E/DX2 analytically  !
 ! D31   D(2,3,5,6)            -32.5182         calculate D2E/DX2 analytically  !
 ! D32   D(2,3,5,15)          -154.5956         calculate D2E/DX2 analytically  !
 ! D33   D(2,3,5,16)            89.1856         calculate D2E/DX2 analytically  !
 ! D34   D(4,3,5,6)           -157.2348         calculate D2E/DX2 analytically  !
 ! D35   D(4,3,5,15)            80.6878         calculate D2E/DX2 analytically  !
 ! D36   D(4,3,5,16)           -35.531          calculate D2E/DX2 analytically  !
 ! D37   D(12,3,5,6)            85.9403         calculate D2E/DX2 analytically  !
 ! D38   D(12,3,5,15)          -36.1371         calculate D2E/DX2 analytically  !
 ! D39   D(12,3,5,16)         -152.3559         calculate D2E/DX2 analytically  !
 ! D40   D(3,5,6,7)            -26.569          calculate D2E/DX2 analytically  !
 ! D41   D(3,5,6,17)          -149.5916         calculate D2E/DX2 analytically  !
 ! D42   D(3,5,6,18)            94.3799         calculate D2E/DX2 analytically  !
 ! D43   D(15,5,6,7)            95.0197         calculate D2E/DX2 analytically  !
 ! D44   D(15,5,6,17)          -28.0028         calculate D2E/DX2 analytically  !
 ! D45   D(15,5,6,18)         -144.0314         calculate D2E/DX2 analytically  !
 ! D46   D(16,5,6,7)          -149.9684         calculate D2E/DX2 analytically  !
 ! D47   D(16,5,6,17)           87.0091         calculate D2E/DX2 analytically  !
 ! D48   D(16,5,6,18)          -29.0194         calculate D2E/DX2 analytically  !
 ! D49   D(5,6,7,8)             58.6835         calculate D2E/DX2 analytically  !
 ! D50   D(5,6,7,19)          -178.6958         calculate D2E/DX2 analytically  !
 ! D51   D(5,6,7,20)           -62.4066         calculate D2E/DX2 analytically  !
 ! D52   D(17,6,7,8)          -178.6889         calculate D2E/DX2 analytically  !
 ! D53   D(17,6,7,19)          -56.0682         calculate D2E/DX2 analytically  !
 ! D54   D(17,6,7,20)           60.2209         calculate D2E/DX2 analytically  !
 ! D55   D(18,6,7,8)           -62.4159         calculate D2E/DX2 analytically  !
 ! D56   D(18,6,7,19)           60.2048         calculate D2E/DX2 analytically  !
 ! D57   D(18,6,7,20)          176.494          calculate D2E/DX2 analytically  !
 ! D58   D(6,7,8,2)            -26.7777         calculate D2E/DX2 analytically  !
 ! D59   D(6,7,8,21)          -150.2276         calculate D2E/DX2 analytically  !
 ! D60   D(6,7,8,22)            94.7769         calculate D2E/DX2 analytically  !
 ! D61   D(19,7,8,2)          -149.7945         calculate D2E/DX2 analytically  !
 ! D62   D(19,7,8,21)           86.7557         calculate D2E/DX2 analytically  !
 ! D63   D(19,7,8,22)          -28.2399         calculate D2E/DX2 analytically  !
 ! D64   D(20,7,8,2)            94.1589         calculate D2E/DX2 analytically  !
 ! D65   D(20,7,8,21)          -29.2909         calculate D2E/DX2 analytically  !
 ! D66   D(20,7,8,22)         -144.2865         calculate D2E/DX2 analytically  !
 --------------------------------------------------------------------------------
 Trust Radius=3.00D-01 FncErr=1.00D-07 GrdErr=1.00D-06 EigMax=2.50D+02 EigMin=1.00D-04
 Number of steps in this run=    132 maximum allowed number of steps=    132.
 GradGradGradGradGradGradGradGradGradGradGradGradGradGradGradGradGradGrad

                          Input orientation:                          
 ---------------------------------------------------------------------
 Center     Atomic      Atomic             Coordinates (Angstroms)
 Number     Number       Type             X           Y           Z
 ---------------------------------------------------------------------
      1          7           0        0.646881    2.384173    0.059692
      2          6           0        0.248023    1.023175   -0.328239
      3          6           0        0.718489   -0.031488    0.704405
      4          7           0        2.128878    0.161610    1.079029
      5          6           0        0.473660   -1.451399    0.169025
      6          6           0       -0.767429   -1.554087   -0.726069
      7          6           0       -1.813255   -0.494367   -0.401807
      8          6           0       -1.269773    0.932704   -0.543548
      9          1           0        1.618363    2.308928    0.383039
     10          1           0        0.140974    2.643714    0.906677
     11          1           0        0.746248    0.813920   -1.284587
     12          1           0        0.130721    0.099995    1.622914
     13          1           0        2.711058    0.069249    0.245803
     14          1           0        2.416416   -0.590833    1.704564
     15          1           0        0.371544   -2.136501    1.020389
     16          1           0        1.337275   -1.810651   -0.405678
     17          1           0       -1.202471   -2.555917   -0.635252
     18          1           0       -0.463836   -1.442918   -1.774901
     19          1           0       -2.690559   -0.617896   -1.046972
     20          1           0       -2.162788   -0.644932    0.627619
     21          1           0       -1.809909    1.572904    0.166015
     22          1           0       -1.508508    1.320617   -1.542118
 ---------------------------------------------------------------------
                    Distance matrix (angstroms):
                    1          2          3          4          5
     1  N    0.000000
     2  C    1.470338   0.000000
     3  C    2.501240   1.549195   0.000000
     4  N    2.859221   2.502061   1.472015   0.000000
     5  C    3.841037   2.534107   1.537114   2.483878   0.000000
     6  C    4.257650   2.798515   2.563691   3.819763   1.533636
     7  C    3.814609   2.560705   2.801372   4.261876   2.543961
     8  C    2.478754   1.535658   2.537762   3.844238   3.038299
     9  H    1.026641   2.009206   2.527962   2.314303   3.936521
    10  H    1.020141   2.040251   2.744292   3.184698   4.174297
    11  H    2.069457   1.098461   2.161382   2.814934   2.705358
    12  H    2.815591   2.161717   1.098371   2.071772   2.153653
    13  H    3.107143   2.702969   2.047143   1.020652   2.706329
    14  H    3.832431   3.382195   2.048449   1.019875   2.621594
    15  H    4.629821   3.437674   2.156687   2.893610   1.097548
    16  H    4.276653   3.036945   2.186459   2.592452   1.097806
    17  H    5.320483   3.874027   3.443473   4.628347   2.162461
    18  H    4.387032   2.946385   3.088201   4.176313   2.158198
    19  H    4.623378   3.441650   3.877216   5.324893   3.490796
    20  H    4.170403   3.083546   2.946857   4.390066   2.794916
    21  H    2.589455   2.186681   3.042488   4.282451   3.789605
    22  H    2.888364   2.155777   3.440141   4.630798   3.813276
                    6          7          8          9         10
     6  C    0.000000
     7  C    1.523779   0.000000
     8  C    2.543579   1.533622   0.000000
     9  H    4.673864   4.500049   3.330748   0.000000
    10  H    4.594843   3.921568   2.649700   1.602796   0.000000
    11  H    2.865418   3.006987   2.151183   2.403457   2.918243
    12  H    3.010047   2.869112   2.710783   2.937644   2.642651
    13  H    3.959750   4.605048   4.149174   2.495792   3.697290
    14  H    4.119794   4.726121   4.578555   3.285108   4.034421
    15  H    2.164851   3.081005   3.815736   4.660752   4.787123
    16  H    2.144354   3.414448   3.787044   4.203809   4.795287
    17  H    1.095981   2.162763   3.490475   5.714957   5.587356
    18  H    1.097531   2.146175   2.794521   4.802979   4.925162
    19  H    2.162837   1.095974   2.162506   5.401670   4.740508
    20  H    2.146174   1.097526   2.158251   4.804395   4.024970
    21  H    3.414770   2.143838   1.097763   3.513101   2.345455
    22  H    3.078808   2.165028   1.097549   3.802671   3.235425
                   11         12         13         14         15
    11  H    0.000000
    12  H    3.056489   0.000000
    13  H    2.599443   2.924982   0.000000
    14  H    3.701056   2.389208   1.628038   0.000000
    15  H    3.762752   2.328723   3.307362   2.653052   0.000000
    16  H    2.830224   3.036697   2.417794   2.665637   1.752849
    17  H    3.946511   3.732370   4.794107   4.736311   2.322623
    18  H    2.607304   3.778786   4.055841   4.596583   2.998760
    19  H    3.730711   3.950099   5.596508   5.801110   3.994573
    20  H    3.774557   2.608776   4.940670   4.704450   2.966798
    21  H    3.035498   2.838672   4.765133   4.991064   4.387297
    22  H    2.325294   3.767548   4.750508   5.440553   4.696031
                   16         17         18         19         20
    16  H    0.000000
    17  H    2.656772   0.000000
    18  H    2.292160   1.755889   0.000000
    19  H    4.249396   2.477871   2.483714   0.000000
    20  H    3.831064   2.483731   3.048823   1.755998   0.000000
    21  H    4.656184   4.249491   3.830699   2.654522   2.292683
    22  H    4.381189   3.992942   2.963555   2.323843   2.999871
                   21         22
    21  H    0.000000
    22  H    1.752773   0.000000
 Stoichiometry    C6H14N2
 Framework group  C1[X(C6H14N2)]
 Deg. of freedom    60
 Full point group                 C1      NOp   1
 Largest Abelian subgroup         C1      NOp   1
 Largest concise Abelian subgroup C1      NOp   1
                         Standard orientation:                         
 ---------------------------------------------------------------------
 Center     Atomic      Atomic             Coordinates (Angstroms)
 Number     Number       Type             X           Y           Z
 ---------------------------------------------------------------------
      1          7           0       -1.747857    1.548895    0.157049
      2          6           0       -0.541276    0.736869    0.373081
      3          6           0       -0.623648   -0.624341   -0.361987
      4          7           0       -1.916793   -1.290265   -0.135828
      5          6           0        0.548484   -1.528345    0.052262
      6          6           0        1.830515   -0.748486    0.368892
      7          6           0        1.904499    0.582348   -0.369560
      8          6           0        0.722313    1.503450   -0.043983
      9          1           0       -2.540161    0.903667    0.256692
     10          1           0       -1.789801    1.816019   -0.826604
     11          1           0       -0.487077    0.541754    1.452715
     12          1           0       -0.553609   -0.437133   -1.442018
     13          1           0       -2.032637   -1.463482    0.863325
     14          1           0       -1.903428   -2.209140   -0.578135
     15          1           0        0.743437   -2.245286   -0.755575
     16          1           0        0.290513   -2.129621    0.933792
     17          1           0        2.703502   -1.365211    0.126576
     18          1           0        1.877154   -0.557533    1.448678
     19          1           0        2.844000    1.094965   -0.133504
     20          1           0        1.921310    0.387750   -1.449566
     21          1           0        0.532059    2.133739   -0.922404
     22          1           0        1.001968    2.190130    0.765262
 ---------------------------------------------------------------------
 Rotational constants (GHZ):           2.6777277           1.9497499           1.2411702
 Standard basis: 6-31G(d,p) (6D, 7F)
 There are   190 symmetry adapted cartesian basis functions of A   symmetry.
 There are   190 symmetry adapted basis functions of A   symmetry.
   190 basis functions,   322 primitive gaussians,   190 cartesian basis functions
    32 alpha electrons       32 beta electrons
       nuclear repulsion energy       415.8624864326 Hartrees.
 NAtoms=   22 NActive=   22 NUniq=   22 SFac= 1.00D+00 NAtFMM=   60 NAOKFM=F Big=F
 Integral buffers will be    131072 words long.
 Raffenetti 2 integral format.
 Two-electron integral symmetry is turned on.
 Force inversion solution in PCM.
 ------------------------------------------------------------------------------
 Polarizable Continuum Model (PCM)
 =================================
 Model                : PCM.
 Atomic radii         : UFF (Universal Force Field).
 Polarization charges : Total charges.
 Charge compensation  : None.
 Solution method      : Matrix inversion.
 Cavity type          : Scaled VdW (van der Waals Surface) (Alpha=1.100).
 Cavity algorithm     : GePol (No added spheres)
                        Default sphere list used, NSphG=   22.
                        Lebedev-Laikov grids with approx.  5.0 points / Ang**2.
                        Smoothing algorithm: York/Karplus (Gamma=1.0000).
                        Polarization charges: spherical gaussians, with
                                              point-specific exponents (IZeta= 3).
                        Self-potential: point-specific (ISelfS= 7).
                        Self-field    : sphere-specific E.n sum rule (ISelfD= 2).
 1st derivatives      : Analytical E(r).r(x)/FMM algorithm (CHGder, D1EAlg=3).
                        Cavity 1st derivative terms included.
 2nd derivatives      : Analytical E(r).r(xy)/FMM algorithm (CHGder, D2EAlg=3).
                        Cavity 2nd derivative terms included.
 Solvent              : Water, Eps=  78.355300 Eps(inf)=   1.777849
 ------------------------------------------------------------------------------
 One-electron integrals computed using PRISM.
 NBasis=   190 RedAO= T EigKep=  1.78D-03  NBF=   190
 NBsUse=   190 1.00D-06 EigRej= -1.00D+00 NBFU=   190
 ExpMin= 1.61D-01 ExpMax= 4.17D+03 ExpMxC= 6.27D+02 IAcc=3 IRadAn=         5 AccDes= 0.00D+00
 Harris functional with IExCor=  402 and IRadAn=       5 diagonalized for initial guess.
 HarFok:  IExCor=  402 AccDes= 0.00D+00 IRadAn=         5 IDoV= 1 UseB2=F ITyADJ=14
 ICtDFT=  3500011 ScaDFX=  1.000000  1.000000  1.000000  1.000000
 FoFCou: FMM=F IPFlag=           0 FMFlag=      100000 FMFlg1=           0
         NFxFlg=           0 DoJE=T BraDBF=F KetDBF=T FulRan=T
         wScrn=  0.000000 ICntrl=       500 IOpCl=  0 I1Cent=   200000004 NGrid=           0
         NMat0=    1 NMatS0=      1 NMatT0=    0 NMatD0=    1 NMtDS0=    0 NMtDT0=    0
 Petite list used in FoFCou.
 Keep R1 ints in memory in canonical form, NReq=168114806.
 Requested convergence on RMS density matrix=1.00D-08 within  32 cycles.
 Requested convergence on MAX density matrix=1.00D-06.
 Requested convergence on             energy=1.00D-06.
 No special actions if energy rises.
 Inv3:  Mode=1 IEnd=     6298803.
 Iteration    1 A*A^-1 deviation from unit magnitude is 5.77D-15 for    636.
 Iteration    1 A*A^-1 deviation from orthogonality  is 3.53D-15 for    993    902.
 Iteration    1 A^-1*A deviation from unit magnitude is 5.55D-15 for    636.
 Iteration    1 A^-1*A deviation from orthogonality  is 2.18D-15 for   1013    983.
 Error on total polarization charges =  0.00849
 SCF Done:  E(RB3LYP) =  -346.589659497     A.U. after   11 cycles
            NFock= 11  Conv=0.30D-08     -V/T= 2.0095
 QCSCF skips out because SCF is already converged.
 DoSCS=F DFT=T ScalE2(SS,OS)=  1.000000  1.000000
 Range of M.O.s used for correlation:     1   190
 NBasis=   190 NAE=    32 NBE=    32 NFC=     0 NFV=     0
 NROrb=    190 NOA=    32 NOB=    32 NVA=   158 NVB=   158
 Symmetrizing basis deriv contribution to polar:
 IMax=3 JMax=2 DiffMx= 0.00D+00
 G2DrvN: will do    23 centers at a time, making    1 passes.
 Calling FoFCou, ICntrl=  3107 FMM=F I1Cent=   0 AccDes= 0.00D+00.
 NEqPCM:  Using equilibrium solvation (IEInf=0, Eps=  78.3553, EpsInf=   1.7778)
 G2PCM: DoFxE=T DoFxN=T DoGrad=T DoDP/DQ/DG/TGxP=FFFF NFrqRd=   0 IEInf=0 SqF1=F DoCFld=F IF1Alg=4.
 End of G2Drv F.D. properties file   721 does not exist.
 End of G2Drv F.D. properties file   722 does not exist.
 End of G2Drv F.D. properties file   788 does not exist.
          IDoAtm=1111111111111111111111
 NEqPCM:  Using equilibrium solvation (IEInf=0, Eps=  78.3553, EpsInf=   1.7778)
          Differentiating once with respect to nuclear coordinates.
 Keep R1 ints in memory in canonical form, NReq=170824490.
          There are    69 degrees of freedom in the 1st order CPHF.  IDoFFX=6 NUNeed=     0.
     63 vectors produced by pass  0 Test12= 7.33D-15 1.45D-09 XBig12= 8.45D-02 5.52D-02.
 AX will form    63 AO Fock derivatives at one time.
     63 vectors produced by pass  1 Test12= 7.33D-15 1.45D-09 XBig12= 6.99D-03 1.38D-02.
     63 vectors produced by pass  2 Test12= 7.33D-15 1.45D-09 XBig12= 7.01D-05 1.14D-03.
     63 vectors produced by pass  3 Test12= 7.33D-15 1.45D-09 XBig12= 2.20D-07 4.85D-05.
     63 vectors produced by pass  4 Test12= 7.33D-15 1.45D-09 XBig12= 2.62D-10 1.75D-06.
     27 vectors produced by pass  5 Test12= 7.33D-15 1.45D-09 XBig12= 1.58D-13 3.91D-08.
      1 vectors produced by pass  6 Test12= 7.33D-15 1.45D-09 XBig12= 1.06D-16 1.46D-09.
 InvSVY:  IOpt=1 It=  1 EMax= 3.61D-16
 Solved reduced A of dimension   343 with    69 vectors.
 End of Minotr F.D. properties file   721 does not exist.
 End of Minotr F.D. properties file   722 does not exist.
 End of Minotr F.D. properties file   788 does not exist.

 **********************************************************************

            Population analysis using the SCF density.

 **********************************************************************

 Orbital symmetries:
       Occupied  (A) (A) (A) (A) (A) (A) (A) (A) (A) (A) (A) (A)
                 (A) (A) (A) (A) (A) (A) (A) (A) (A) (A) (A) (A)
                 (A) (A) (A) (A) (A) (A) (A) (A)
       Virtual   (A) (A) (A) (A) (A) (A) (A) (A) (A) (A) (A) (A)
                 (A) (A) (A) (A) (A) (A) (A) (A) (A) (A) (A) (A)
                 (A) (A) (A) (A) (A) (A) (A) (A) (A) (A) (A) (A)
                 (A) (A) (A) (A) (A) (A) (A) (A) (A) (A) (A) (A)
                 (A) (A) (A) (A) (A) (A) (A) (A) (A) (A) (A) (A)
                 (A) (A) (A) (A) (A) (A) (A) (A) (A) (A) (A) (A)
                 (A) (A) (A) (A) (A) (A) (A) (A) (A) (A) (A) (A)
                 (A) (A) (A) (A) (A) (A) (A) (A) (A) (A) (A) (A)
                 (A) (A) (A) (A) (A) (A) (A) (A) (A) (A) (A) (A)
                 (A) (A) (A) (A) (A) (A) (A) (A) (A) (A) (A) (A)
                 (A) (A) (A) (A) (A) (A) (A) (A) (A) (A) (A) (A)
                 (A) (A) (A) (A) (A) (A) (A) (A) (A) (A) (A) (A)
                 (A) (A) (A) (A) (A) (A) (A) (A) (A) (A) (A) (A)
                 (A) (A)
 The electronic state is 1-A.
 Alpha  occ. eigenvalues --  -14.31017 -14.30171 -10.20388 -10.20159 -10.17480
 Alpha  occ. eigenvalues --  -10.17378 -10.17231 -10.16954  -0.89791  -0.85559
 Alpha  occ. eigenvalues --   -0.80209  -0.72374  -0.69691  -0.60467  -0.60102
 Alpha  occ. eigenvalues --   -0.53351  -0.49035  -0.47584  -0.46436  -0.44576
 Alpha  occ. eigenvalues --   -0.42210  -0.39825  -0.38885  -0.38590  -0.36167
 Alpha  occ. eigenvalues --   -0.35305  -0.34408  -0.31977  -0.30659  -0.29748
 Alpha  occ. eigenvalues --   -0.23244  -0.23035
 Alpha virt. eigenvalues --    0.08080   0.09310   0.09953   0.11144   0.14793
 Alpha virt. eigenvalues --    0.15322   0.15659   0.16365   0.17601   0.18106
 Alpha virt. eigenvalues --    0.18212   0.19643   0.20166   0.22629   0.23386
 Alpha virt. eigenvalues --    0.23767   0.24142   0.28101   0.29888   0.30730
 Alpha virt. eigenvalues --    0.32579   0.33985   0.52471   0.52853   0.54689
 Alpha virt. eigenvalues --    0.55813   0.57128   0.58704   0.60034   0.64746
 Alpha virt. eigenvalues --    0.65227   0.65872   0.68284   0.69294   0.71021
 Alpha virt. eigenvalues --    0.71711   0.73040   0.75196   0.75964   0.77163
 Alpha virt. eigenvalues --    0.81264   0.83847   0.84554   0.84592   0.85407
 Alpha virt. eigenvalues --    0.86931   0.88429   0.90668   0.90843   0.91067
 Alpha virt. eigenvalues --    0.91724   0.93310   0.94104   0.94816   0.95697
 Alpha virt. eigenvalues --    0.97869   0.98750   1.02227   1.05961   1.10777
 Alpha virt. eigenvalues --    1.17224   1.23443   1.29086   1.31958   1.36653
 Alpha virt. eigenvalues --    1.43808   1.46620   1.47031   1.50952   1.53559
 Alpha virt. eigenvalues --    1.55329   1.60008   1.63614   1.71280   1.73431
 Alpha virt. eigenvalues --    1.75394   1.77154   1.78037   1.81201   1.84363
 Alpha virt. eigenvalues --    1.86664   1.88226   1.91080   1.94575   1.96445
 Alpha virt. eigenvalues --    1.96742   1.99678   2.00659   2.02399   2.06880
 Alpha virt. eigenvalues --    2.08857   2.09274   2.13758   2.15660   2.19947
 Alpha virt. eigenvalues --    2.21912   2.22175   2.24264   2.25264   2.26370
 Alpha virt. eigenvalues --    2.27812   2.29430   2.29982   2.33532   2.35864
 Alpha virt. eigenvalues --    2.37005   2.38672   2.39809   2.43701   2.44986
 Alpha virt. eigenvalues --    2.46033   2.50559   2.53651   2.55573   2.57070
 Alpha virt. eigenvalues --    2.59542   2.62734   2.63451   2.66037   2.69624
 Alpha virt. eigenvalues --    2.72110   2.74154   2.77227   2.79170   2.81315
 Alpha virt. eigenvalues --    2.83849   2.85365   2.86160   2.87830   2.90936
 Alpha virt. eigenvalues --    2.91567   2.94333   2.98184   2.99653   3.04473
 Alpha virt. eigenvalues --    3.06554   3.21470   3.27853   3.29102   3.30084
 Alpha virt. eigenvalues --    3.32374   3.34109   3.38449   3.41705   3.43322
 Alpha virt. eigenvalues --    3.51144   3.51973   3.54727   3.55496   3.59036
 Alpha virt. eigenvalues --    4.02016   4.07372   4.35330   4.47474   4.49693
 Alpha virt. eigenvalues --    4.63189   4.72103   4.90788
          Condensed to atoms (all electrons):
               1          2          3          4          5          6
     1  N    6.825095   0.319377  -0.064271  -0.015388   0.005746  -0.000085
     2  C    0.319377   4.826267   0.380652  -0.043382  -0.041829  -0.006318
     3  C   -0.064271   0.380652   4.899347   0.312702   0.347441  -0.048158
     4  N   -0.015388  -0.043382   0.312702   6.800858  -0.070323   0.006398
     5  C    0.005746  -0.041829   0.347441  -0.070323   5.055094   0.327875
     6  C   -0.000085  -0.006318  -0.048158   0.006398   0.327875   4.943196
     7  C    0.003316  -0.049841  -0.002176  -0.000055  -0.046169   0.383860
     8  C   -0.041542   0.373913  -0.045416   0.003267  -0.014462  -0.046262
     9  H    0.331979  -0.046498  -0.008642   0.027642   0.000932  -0.000053
    10  H    0.333690  -0.042620  -0.003050   0.000281   0.000066   0.000015
    11  H   -0.050384   0.383611  -0.058955  -0.003899  -0.003597   0.001928
    12  H   -0.000853  -0.043252   0.375375  -0.048131  -0.045622   0.000987
    13  H    0.000488  -0.006086  -0.044391   0.335509  -0.003924   0.000065
    14  H    0.000365   0.005736  -0.039351   0.341456  -0.001478   0.000063
    15  H   -0.000145   0.004349  -0.028244   0.002104   0.366613  -0.031670
    16  H   -0.000050  -0.005056  -0.034959  -0.005705   0.375124  -0.030737
    17  H   -0.000001   0.000017   0.004291  -0.000123  -0.029103   0.373849
    18  H   -0.000020   0.001287  -0.001571  -0.000044  -0.037958   0.386396
    19  H   -0.000069   0.004491   0.000057  -0.000002   0.005240  -0.030490
    20  H   -0.000029  -0.001378   0.001055  -0.000017  -0.004873  -0.043054
    21  H   -0.008056  -0.033637  -0.004980  -0.000052   0.000347   0.004692
    22  H    0.002400  -0.030941   0.005039  -0.000085  -0.000201  -0.001298
               7          8          9         10         11         12
     1  N    0.003316  -0.041542   0.331979   0.333690  -0.050384  -0.000853
     2  C   -0.049841   0.373913  -0.046498  -0.042620   0.383611  -0.043252
     3  C   -0.002176  -0.045416  -0.008642  -0.003050  -0.058955   0.375375
     4  N   -0.000055   0.003267   0.027642   0.000281  -0.003899  -0.048131
     5  C   -0.046169  -0.014462   0.000932   0.000066  -0.003597  -0.045622
     6  C    0.383860  -0.046262  -0.000053   0.000015   0.001928   0.000987
     7  C    4.916602   0.358140  -0.000271  -0.000177  -0.001413   0.000679
     8  C    0.358140   4.950962   0.006481  -0.009780  -0.038926  -0.004475
     9  H   -0.000271   0.006481   0.481617  -0.033000  -0.002807  -0.000727
    10  H   -0.000177  -0.009780  -0.033000   0.497954   0.007673   0.004773
    11  H   -0.001413  -0.038926  -0.002807   0.007673   0.666249   0.007072
    12  H    0.000679  -0.004475  -0.000727   0.004773   0.007072   0.661668
    13  H    0.000014  -0.000009  -0.001416   0.000139   0.005437   0.007495
    14  H    0.000011  -0.000196  -0.000603  -0.000046  -0.000131  -0.003891
    15  H   -0.001262  -0.000225  -0.000021  -0.000001  -0.000093  -0.009958
    16  H    0.004647   0.000380  -0.000021   0.000009   0.002786   0.005906
    17  H   -0.030235   0.005270   0.000000   0.000000  -0.000072  -0.000169
    18  H   -0.043754  -0.004590   0.000000  -0.000003  -0.000372  -0.000193
    19  H    0.379740  -0.032783   0.000004  -0.000005  -0.000111  -0.000054
    20  H    0.385689  -0.038145  -0.000001  -0.000049  -0.000169  -0.000261
    21  H   -0.033020   0.378143   0.000147   0.007086   0.005651   0.002736
    22  H   -0.033688   0.376894  -0.000266  -0.000389  -0.010593  -0.000048
              13         14         15         16         17         18
     1  N    0.000488   0.000365  -0.000145  -0.000050  -0.000001  -0.000020
     2  C   -0.006086   0.005736   0.004349  -0.005056   0.000017   0.001287
     3  C   -0.044391  -0.039351  -0.028244  -0.034959   0.004291  -0.001571
     4  N    0.335509   0.341456   0.002104  -0.005705  -0.000123  -0.000044
     5  C   -0.003924  -0.001478   0.366613   0.375124  -0.029103  -0.037958
     6  C    0.000065   0.000063  -0.031670  -0.030737   0.373849   0.386396
     7  C    0.000014   0.000011  -0.001262   0.004647  -0.030235  -0.043754
     8  C   -0.000009  -0.000196  -0.000225   0.000380   0.005270  -0.004590
     9  H   -0.001416  -0.000603  -0.000021  -0.000021   0.000000   0.000000
    10  H    0.000139  -0.000046  -0.000001   0.000009   0.000000  -0.000003
    11  H    0.005437  -0.000131  -0.000093   0.002786  -0.000072  -0.000372
    12  H    0.007495  -0.003891  -0.009958   0.005906  -0.000169  -0.000193
    13  H    0.484554  -0.031515  -0.000451   0.006986  -0.000003  -0.000054
    14  H   -0.031515   0.472595   0.003250   0.000538  -0.000009   0.000013
    15  H   -0.000451   0.003250   0.644774  -0.038287  -0.011596   0.005854
    16  H    0.006986   0.000538  -0.038287   0.637339   0.001917  -0.011513
    17  H   -0.000003  -0.000009  -0.011596   0.001917   0.641870  -0.037992
    18  H   -0.000054   0.000013   0.005854  -0.011513  -0.037992   0.644120
    19  H   -0.000000  -0.000000  -0.000131  -0.000193  -0.002719  -0.004831
    20  H   -0.000003   0.000008   0.002453  -0.000035  -0.004986   0.006587
    21  H    0.000010   0.000003   0.000031   0.000006  -0.000196  -0.000035
    22  H   -0.000003   0.000004   0.000022   0.000032  -0.000136   0.002429
              19         20         21         22
     1  N   -0.000069  -0.000029  -0.008056   0.002400
     2  C    0.004491  -0.001378  -0.033637  -0.030941
     3  C    0.000057   0.001055  -0.004980   0.005039
     4  N   -0.000002  -0.000017  -0.000052  -0.000085
     5  C    0.005240  -0.004873   0.000347  -0.000201
     6  C   -0.030490  -0.043054   0.004692  -0.001298
     7  C    0.379740   0.385689  -0.033020  -0.033688
     8  C   -0.032783  -0.038145   0.378143   0.376894
     9  H    0.000004  -0.000001   0.000147  -0.000266
    10  H   -0.000005  -0.000049   0.007086  -0.000389
    11  H   -0.000111  -0.000169   0.005651  -0.010593
    12  H   -0.000054  -0.000261   0.002736  -0.000048
    13  H   -0.000000  -0.000003   0.000010  -0.000003
    14  H   -0.000000   0.000008   0.000003   0.000004
    15  H   -0.000131   0.002453   0.000031   0.000022
    16  H   -0.000193  -0.000035   0.000006   0.000032
    17  H   -0.002719  -0.004986  -0.000196  -0.000136
    18  H   -0.004831   0.006587  -0.000035   0.002429
    19  H    0.636127  -0.037905   0.002026  -0.011018
    20  H   -0.037905   0.643247  -0.011200   0.005832
    21  H    0.002026  -0.011200   0.632860  -0.037222
    22  H   -0.011018   0.005832  -0.037222   0.634339
 Mulliken charges:
               1
     1  N   -0.641564
     2  C    0.051137
     3  C    0.058205
     4  N   -0.643012
     5  C   -0.184941
     6  C   -0.191196
     7  C   -0.190637
     8  C   -0.176640
     9  H    0.245522
    10  H    0.237434
    11  H    0.091113
    12  H    0.090944
    13  H    0.247157
    14  H    0.253176
    15  H    0.092632
    16  H    0.090887
    17  H    0.090125
    18  H    0.096244
    19  H    0.092624
    20  H    0.097231
    21  H    0.094662
    22  H    0.098895
 Sum of Mulliken charges =  -0.00000
 Mulliken charges with hydrogens summed into heavy atoms:
               1
     1  N   -0.158607
     2  C    0.142251
     3  C    0.149149
     4  N   -0.142679
     5  C   -0.001421
     6  C   -0.004827
     7  C   -0.000782
     8  C    0.016916
 APT charges:
               1
     1  N   -0.996755
     2  C   -0.276762
     3  C   -0.208586
     4  N   -1.176387
     5  C   -0.756291
     6  C   -0.873389
     7  C   -0.865017
     8  C   -0.794823
     9  H    0.437420
    10  H    0.458974
    11  H    0.318900
    12  H    0.311527
    13  H    0.461784
    14  H    0.619735
    15  H    0.418625
    16  H    0.381347
    17  H    0.518174
    18  H    0.333099
    19  H    0.528662
    20  H    0.331138
    21  H    0.391014
    22  H    0.437612
 Sum of APT charges =  -0.00000
 APT charges with hydrogens summed into heavy atoms:
               1
     1  N   -0.100361
     2  C    0.042138
     3  C    0.102941
     4  N   -0.094868
     5  C    0.043680
     6  C   -0.022117
     7  C   -0.005217
     8  C    0.033803
 Electronic spatial extent (au):  <R**2>=           1038.3462
 Charge=             -0.0000 electrons
 Dipole moment (field-independent basis, Debye):
    X=              1.2993    Y=             -2.5203    Z=             -0.5436  Tot=              2.8872
 Quadrupole moment (field-independent basis, Debye-Ang):
   XX=            -54.6687   YY=            -52.1051   ZZ=            -49.1901
   XY=              4.4529   XZ=              0.2668   YZ=             -3.0413
 Traceless Quadrupole moment (field-independent basis, Debye-Ang):
   XX=             -2.6808   YY=             -0.1171   ZZ=              2.7978
   XY=              4.4529   XZ=              0.2668   YZ=             -3.0413
 Octapole moment (field-independent basis, Debye-Ang**2):
  XXX=              0.8037  YYY=            -21.6589  ZZZ=             -0.5783  XYY=             -0.1868
  XXY=             -5.3235  XXZ=              1.1924  XZZ=             -4.7246  YZZ=             -1.8008
  YYZ=             -7.6408  XYZ=              7.4325
 Hexadecapole moment (field-independent basis, Debye-Ang**3):
 XXXX=           -734.2531 YYYY=           -535.4555 ZZZZ=           -123.0226 XXXY=              4.7828
 XXXZ=             -6.1369 YYYX=             43.1392 YYYZ=             -8.7988 ZZZX=              0.3824
 ZZZY=             -3.6418 XXYY=           -208.9911 XXZZ=           -138.0488 YYZZ=           -103.5948
 XXYZ=            -12.2927 YYXZ=             12.8738 ZZXY=              4.1768
 N-N= 4.158624864326D+02 E-N=-1.635379679461D+03  KE= 3.433187975711D+02
  Exact polarizability:   0.000   0.000   0.000   0.000   0.000   0.000
 Approx polarizability: 101.907   1.252 101.859  -0.916  -1.031 103.946
 D2PCM: PCM CHGder 2nd derivatives, FixD1E=F FixD2E=F DoIter=F DoCFld=F I1PDM=0
 Calling FoFJK, ICntrl=    100147 FMM=F ISym2X=0 I1Cent= 0 IOpClX= 0 NMat=1 NMatS=1 NMatT=0.
 ***** Axes restored to original set *****
 -------------------------------------------------------------------
 Center     Atomic                   Forces (Hartrees/Bohr)
 Number     Number              X              Y              Z
 -------------------------------------------------------------------
      1        7           0.005232242    0.004793661   -0.001712096
      2        6           0.005842049    0.003897539    0.013596066
      3        6           0.005503899   -0.008984601   -0.005376194
      4        7           0.001996744    0.009217123    0.001494312
      5        6          -0.005068983   -0.007992458    0.000884846
      6        6          -0.002293115   -0.005608586   -0.006559762
      7        6          -0.006019510   -0.003112348    0.003266400
      8        6          -0.003537040    0.003090306   -0.005414468
      9        1          -0.004010625    0.001939916   -0.002301204
     10        1          -0.002456025   -0.001150732    0.000128598
     11        1           0.001713653   -0.002075474    0.000018702
     12        1          -0.000854796    0.002348067   -0.000266547
     13        1          -0.000664151   -0.002589986    0.000482461
     14        1          -0.000587061    0.001276437   -0.001044175
     15        1           0.001052030    0.000100144    0.000541834
     16        1           0.002165924    0.003522796    0.002104120
     17        1          -0.000887429    0.000087203   -0.001849954
     18        1          -0.001015219   -0.000203533   -0.000800208
     19        1          -0.000522611   -0.000771656    0.001131869
     20        1          -0.000557153   -0.001082544    0.000118882
     21        1           0.003876661    0.002276232    0.000605389
     22        1           0.001090518    0.001022494    0.000951127
 -------------------------------------------------------------------
 Cartesian Forces:  Max     0.013596066 RMS     0.003711934
 FormGI is forming the generalized inverse of G from B-inverse, IUseBI=4.

 GradGradGradGradGradGradGradGradGradGradGradGradGradGradGradGradGradGrad
 Berny optimization.
 Internal  Forces:  Max     0.009530165 RMS     0.002462779
 Search for a local minimum.
 Step number   1 out of a maximum of  132
 All quantities printed in internal units (Hartrees-Bohrs-Radians)
 Mixed Optimization -- RFO/linear search
 Second derivative matrix not updated -- analytic derivatives used.
 ITU=  0
     Eigenvalues ---    0.00056   0.00177   0.00216   0.00324   0.00596
     Eigenvalues ---    0.01528   0.01981   0.03376   0.03550   0.03714
     Eigenvalues ---    0.03855   0.03928   0.03931   0.04082   0.04172
     Eigenvalues ---    0.04695   0.04865   0.05134   0.05207   0.05386
     Eigenvalues ---    0.05889   0.06110   0.07129   0.07180   0.07419
     Eigenvalues ---    0.07830   0.09474   0.10408   0.10576   0.13508
     Eigenvalues ---    0.14006   0.15306   0.15665   0.16846   0.19070
     Eigenvalues ---    0.20062   0.20518   0.20671   0.23969   0.25866
     Eigenvalues ---    0.27050   0.28009   0.29257   0.29693   0.31789
     Eigenvalues ---    0.32068   0.32402   0.32448   0.32687   0.32826
     Eigenvalues ---    0.33162   0.33251   0.33433   0.33766   0.34900
     Eigenvalues ---    0.35962   0.42139   0.43619   0.43762   0.44036
 RFO step:  Lambda=-4.86159519D-03 EMin= 5.59681880D-04
 Linear search not attempted -- first point.
 Iteration  1 RMS(Cart)=  0.03513811 RMS(Int)=  0.00099992
 Iteration  2 RMS(Cart)=  0.00124053 RMS(Int)=  0.00018478
 Iteration  3 RMS(Cart)=  0.00000233 RMS(Int)=  0.00018477
 Iteration  4 RMS(Cart)=  0.00000000 RMS(Int)=  0.00018477
 Variable       Old X    -DE/DX   Delta X   Delta X   Delta X     New X
                                 (Linear)    (Quad)   (Total)
    R1        2.77854   0.00381   0.00000   0.00128   0.00128   2.77982
    R2        1.94007  -0.00466   0.00000  -0.01169  -0.01169   1.92839
    R3        1.92779   0.00103   0.00000   0.00225   0.00225   1.93004
    R4        2.92755  -0.00162   0.00000  -0.00943  -0.00936   2.91819
    R5        2.90197   0.00365   0.00000   0.01751   0.01749   2.91947
    R6        2.07579   0.00116   0.00000   0.00591   0.00591   2.08171
    R7        2.78170   0.00199   0.00000   0.00192   0.00192   2.78362
    R8        2.90472   0.00805   0.00000   0.02571   0.02576   2.93048
    R9        2.07562   0.00051   0.00000   0.00274   0.00274   2.07836
   R10        1.92875  -0.00054   0.00000   0.00062   0.00062   1.92938
   R11        1.92728  -0.00175   0.00000  -0.00171  -0.00171   1.92558
   R12        2.89815   0.00867   0.00000   0.02467   0.02467   2.92282
   R13        2.07407   0.00026   0.00000  -0.00112  -0.00112   2.07295
   R14        2.07455  -0.00055   0.00000  -0.00051  -0.00051   2.07404
   R15        2.87953   0.00506   0.00000   0.01766   0.01764   2.89717
   R16        2.07110   0.00012   0.00000  -0.00046  -0.00046   2.07065
   R17        2.07403   0.00046   0.00000   0.00007   0.00007   2.07411
   R18        2.89813   0.00953   0.00000   0.02188   0.02181   2.91994
   R19        2.07109  -0.00016   0.00000  -0.00057  -0.00057   2.07052
   R20        2.07402   0.00044   0.00000   0.00016   0.00016   2.07418
   R21        2.07447  -0.00019   0.00000   0.00031   0.00031   2.07478
   R22        2.07407  -0.00074   0.00000  -0.00331  -0.00331   2.07076
    A1        1.84622   0.00316   0.00000   0.01760   0.01764   1.86385
    A2        1.89655  -0.00377   0.00000  -0.01643  -0.01639   1.88016
    A3        1.79920   0.00097   0.00000   0.01685   0.01695   1.81615
    A4        1.95186   0.00708   0.00000   0.04969   0.05001   2.00187
    A5        1.93868  -0.00507   0.00000  -0.02943  -0.02948   1.90920
    A6        1.85771  -0.00044   0.00000   0.00094   0.00105   1.85876
    A7        1.93211  -0.00141   0.00000  -0.00211  -0.00226   1.92985
    A8        1.88904  -0.00252   0.00000  -0.02677  -0.02683   1.86221
    A9        1.89125   0.00233   0.00000   0.00653   0.00644   1.89769
   A10        1.95121  -0.00591   0.00000  -0.02985  -0.02995   1.92127
   A11        1.92659   0.00106   0.00000   0.00073   0.00081   1.92740
   A12        1.88958  -0.00032   0.00000  -0.01759  -0.01784   1.87174
   A13        1.94167   0.00637   0.00000   0.04164   0.04170   1.98337
   A14        1.85897  -0.00005   0.00000  -0.00581  -0.00678   1.85219
   A15        1.89295  -0.00126   0.00000   0.01016   0.01012   1.90307
   A16        1.90380  -0.00152   0.00000  -0.01263  -0.01269   1.89112
   A17        1.90651  -0.00031   0.00000  -0.00225  -0.00231   1.90420
   A18        1.84745  -0.00030   0.00000  -0.01441  -0.01454   1.83290
   A19        1.97581   0.00137   0.00000   0.00861   0.00834   1.98415
   A20        1.89786   0.00005   0.00000  -0.00125  -0.00128   1.89658
   A21        1.93835  -0.00423   0.00000  -0.04635  -0.04632   1.89203
   A22        1.91308  -0.00007   0.00000   0.01076   0.01079   1.92387
   A23        1.88511   0.00252   0.00000   0.02384   0.02388   1.90899
   A24        1.84939   0.00032   0.00000   0.00460   0.00404   1.85342
   A25        1.96562  -0.00318   0.00000  -0.02136  -0.02148   1.94415
   A26        1.91141   0.00228   0.00000   0.01021   0.01035   1.92177
   A27        1.90404   0.00127   0.00000   0.01271   0.01255   1.91659
   A28        1.92372   0.00034   0.00000   0.00349   0.00353   1.92725
   A29        1.89945   0.00050   0.00000  -0.00003   0.00014   1.89959
   A30        1.85623  -0.00111   0.00000  -0.00399  -0.00410   1.85214
   A31        1.96519  -0.00213   0.00000  -0.01737  -0.01755   1.94764
   A32        1.92383  -0.00049   0.00000   0.00263   0.00264   1.92647
   A33        1.89945   0.00112   0.00000   0.00206   0.00222   1.90168
   A34        1.91150   0.00143   0.00000   0.00492   0.00507   1.91657
   A35        1.90414   0.00102   0.00000   0.01293   0.01284   1.91698
   A36        1.85641  -0.00087   0.00000  -0.00430  -0.00438   1.85203
   A37        1.97373   0.00317   0.00000   0.01161   0.01115   1.98488
   A38        1.94049  -0.00551   0.00000  -0.04784  -0.04776   1.89273
   A39        1.89835  -0.00002   0.00000  -0.00048  -0.00056   1.89779
   A40        1.88448   0.00266   0.00000   0.02056   0.02067   1.90515
   A41        1.91334  -0.00099   0.00000   0.01297   0.01303   1.92637
   A42        1.84932   0.00054   0.00000   0.00322   0.00265   1.85197
    D1        0.75860   0.00077   0.00000   0.01438   0.01472   0.77332
    D2        2.92686   0.00038   0.00000   0.02635   0.02606   2.95292
    D3       -1.30110   0.00020   0.00000   0.01895   0.01881  -1.28229
    D4       -1.16317  -0.00020   0.00000  -0.00598  -0.00558  -1.16875
    D5        1.00509  -0.00059   0.00000   0.00599   0.00576   1.01085
    D6        3.06031  -0.00077   0.00000  -0.00140  -0.00149   3.05882
    D7       -0.82228   0.00107   0.00000   0.01146   0.01154  -0.81074
    D8       -2.99353  -0.00370   0.00000  -0.02149  -0.02125  -3.01478
    D9        1.22011  -0.00258   0.00000  -0.02364  -0.02326   1.19685
   D10       -2.99420   0.00353   0.00000   0.01496   0.01476  -2.97944
   D11        1.11773  -0.00124   0.00000  -0.01800  -0.01803   1.09970
   D12       -0.95182  -0.00012   0.00000  -0.02014  -0.02003  -0.97185
   D13        1.21862   0.00305   0.00000   0.02458   0.02430   1.24292
   D14       -0.95263  -0.00173   0.00000  -0.00838  -0.00849  -0.96112
   D15       -3.02218  -0.00061   0.00000  -0.01052  -0.01049  -3.03268
   D16       -2.74594  -0.00303   0.00000  -0.01079  -0.01062  -2.75657
   D17       -0.62254  -0.00137   0.00000  -0.01107  -0.01116  -0.63371
   D18        1.40729  -0.00387   0.00000  -0.03474  -0.03456   1.37274
   D19       -0.56652   0.00142   0.00000   0.03061   0.03080  -0.53572
   D20        1.55688   0.00309   0.00000   0.03033   0.03026   1.58714
   D21       -2.69647   0.00059   0.00000   0.00666   0.00687  -2.68960
   D22        1.50250  -0.00104   0.00000   0.00076   0.00079   1.50330
   D23       -2.65728   0.00063   0.00000   0.00049   0.00026  -2.65703
   D24       -0.62745  -0.00188   0.00000  -0.02319  -0.02314  -0.65058
   D25       -1.05774  -0.00328   0.00000  -0.11383  -0.11347  -1.17121
   D26       -3.06948  -0.00192   0.00000  -0.08848  -0.08820   3.12551
   D27        1.10506  -0.00152   0.00000  -0.10394  -0.10415   1.00091
   D28       -0.90668  -0.00016   0.00000  -0.07860  -0.07888  -0.98556
   D29       -3.11851   0.00039   0.00000  -0.07261  -0.07265   3.09203
   D30        1.15294   0.00175   0.00000  -0.04726  -0.04738   1.10557
   D31       -0.56755  -0.00071   0.00000   0.00562   0.00587  -0.56168
   D32       -2.69820  -0.00158   0.00000  -0.01299  -0.01272  -2.71093
   D33        1.55658   0.00041   0.00000   0.00849   0.00852   1.56510
   D34       -2.74426   0.00155   0.00000   0.01365   0.01377  -2.73049
   D35        1.40827   0.00069   0.00000  -0.00496  -0.00482   1.40345
   D36       -0.62013   0.00268   0.00000   0.01652   0.01642  -0.60371
   D37        1.49994  -0.00126   0.00000  -0.00919  -0.00926   1.49068
   D38       -0.63071  -0.00212   0.00000  -0.02781  -0.02785  -0.65856
   D39       -2.65911  -0.00013   0.00000  -0.00633  -0.00661  -2.66572
   D40       -0.46372  -0.00121   0.00000  -0.02121  -0.02133  -0.48505
   D41       -2.61087  -0.00110   0.00000  -0.01831  -0.01842  -2.62928
   D42        1.64724  -0.00177   0.00000  -0.02640  -0.02662   1.62062
   D43        1.65841  -0.00026   0.00000  -0.00916  -0.00921   1.64919
   D44       -0.48874  -0.00016   0.00000  -0.00627  -0.00630  -0.49504
   D45       -2.51382  -0.00082   0.00000  -0.01435  -0.01450  -2.52832
   D46       -2.61744   0.00145   0.00000   0.01493   0.01505  -2.60239
   D47        1.51859   0.00156   0.00000   0.01782   0.01797   1.53656
   D48       -0.50648   0.00089   0.00000   0.00974   0.00977  -0.49672
   D49        1.02422  -0.00026   0.00000   0.03128   0.03100   1.05522
   D50       -3.11883  -0.00027   0.00000   0.02732   0.02717  -3.09166
   D51       -1.08920  -0.00094   0.00000   0.02481   0.02467  -1.06453
   D52       -3.11871   0.00070   0.00000   0.03199   0.03183  -3.08688
   D53       -0.97858   0.00069   0.00000   0.02803   0.02801  -0.95057
   D54        1.05105   0.00002   0.00000   0.02552   0.02551   1.07656
   D55       -1.08936  -0.00015   0.00000   0.02913   0.02896  -1.06041
   D56        1.05077  -0.00016   0.00000   0.02517   0.02514   1.07591
   D57        3.08040  -0.00083   0.00000   0.02266   0.02264   3.10304
   D58       -0.46736  -0.00297   0.00000  -0.04743  -0.04752  -0.51488
   D59       -2.62197   0.00001   0.00000  -0.00901  -0.00886  -2.63082
   D60        1.65417  -0.00156   0.00000  -0.03082  -0.03082   1.62334
   D61       -2.61441  -0.00191   0.00000  -0.04233  -0.04246  -2.65686
   D62        1.51417   0.00108   0.00000  -0.00392  -0.00380   1.51038
   D63       -0.49288  -0.00049   0.00000  -0.02573  -0.02576  -0.51864
   D64        1.64338  -0.00224   0.00000  -0.04721  -0.04742   1.59597
   D65       -0.51122   0.00074   0.00000  -0.00879  -0.00875  -0.51998
   D66       -2.51827  -0.00082   0.00000  -0.03060  -0.03072  -2.54899
         Item               Value     Threshold  Converged?
 Maximum Force            0.009530     0.000450     NO 
 RMS     Force            0.002463     0.000300     NO 
 Maximum Displacement     0.132872     0.001800     NO 
 RMS     Displacement     0.035223     0.001200     NO 
 Predicted change in Energy=-2.653338D-03
 GradGradGradGradGradGradGradGradGradGradGradGradGradGradGradGradGradGrad

                          Input orientation:                          
 ---------------------------------------------------------------------
 Center     Atomic      Atomic             Coordinates (Angstroms)
 Number     Number       Type             X           Y           Z
 ---------------------------------------------------------------------
      1          7           0        0.630132    2.397166    0.041854
      2          6           0        0.269555    1.015598   -0.311908
      3          6           0        0.729304   -0.051796    0.704940
      4          7           0        2.133604    0.181840    1.083317
      5          6           0        0.462905   -1.476079    0.152441
      6          6           0       -0.786546   -1.566933   -0.754677
      7          6           0       -1.825118   -0.501742   -0.384294
      8          6           0       -1.255720    0.926154   -0.540592
      9          1           0        1.599684    2.376667    0.359474
     10          1           0        0.100791    2.652516    0.877147
     11          1           0        0.783175    0.791273   -1.260261
     12          1           0        0.137922    0.094197    1.620667
     13          1           0        2.719994    0.008151    0.265770
     14          1           0        2.416521   -0.520521    1.765189
     15          1           0        0.369032   -2.168726    0.997864
     16          1           0        1.346869   -1.799835   -0.411804
     17          1           0       -1.226484   -2.568437   -0.690745
     18          1           0       -0.495437   -1.428380   -1.803829
     19          1           0       -2.723012   -0.613182   -1.002245
     20          1           0       -2.147002   -0.662898    0.652610
     21          1           0       -1.754004    1.593085    0.175198
     22          1           0       -1.486165    1.321881   -1.536117
 ---------------------------------------------------------------------
                    Distance matrix (angstroms):
                    1          2          3          4          5
     1  N    0.000000
     2  C    1.471018   0.000000
     3  C    2.539081   1.544240   0.000000
     4  N    2.872759   2.473153   1.473029   0.000000
     5  C    3.878430   2.541939   1.550743   2.531098   0.000000
     6  C    4.284334   2.825041   2.593053   3.868296   1.546689
     7  C    3.822764   2.587511   2.813175   4.276990   2.544104
     8  C    2.461618   1.544915   2.539303   3.831268   3.033923
     9  H    1.020458   2.018045   2.602756   2.371979   4.022285
    10  H    1.021332   2.030230   2.781724   3.206100   4.207330
    11  H    2.073118   1.101591   2.139085   2.772621   2.690573
    12  H    2.835240   2.145030   1.099820   2.068617   2.174183
    13  H    3.181989   2.711699   2.039438   1.020982   2.703743
    14  H    3.830661   3.359086   2.047079   1.018970   2.707520
    15  H    4.672205   3.444607   2.167255   2.940438   1.096956
    16  H    4.281861   3.016164   2.164288   2.604107   1.097534
    17  H    5.351723   3.902173   3.479443   4.690577   2.181340
    18  H    4.394116   2.963793   3.112699   4.223775   2.178919
    19  H    4.625571   3.476340   3.892058   5.344937   3.496850
    20  H    4.177259   3.096351   2.940973   4.384368   2.779037
    21  H    2.519610   2.159989   3.025406   4.234359   3.786155
    22  H    2.850429   2.162187   3.437678   4.611276   3.805087
                    6          7          8          9         10
     6  C    0.000000
     7  C    1.533116   0.000000
     8  C    2.545867   1.545164   0.000000
     9  H    4.742089   4.535162   3.326777   0.000000
    10  H    4.610203   3.905087   2.613510   1.609583   0.000000
    11  H    2.877634   3.040132   2.166382   2.409087   2.915199
    12  H    3.042410   2.868543   2.702857   2.989485   2.664432
    13  H    3.977188   4.619590   4.159237   2.621782   3.771826
    14  H    4.207653   4.755221   4.571089   3.322191   4.027330
    15  H    2.183785   3.082773   3.819025   4.752120   4.830208
    16  H    2.173308   3.427433   3.771083   4.254638   4.799743
    17  H    1.095739   2.173362   3.497937   5.791739   5.610552
    18  H    1.097570   2.154481   2.778061   4.852607   4.919027
    19  H    2.172747   1.095672   2.176148   5.429472   4.708584
    20  H    2.156055   1.097611   2.177889   4.833481   4.011853
    21  H    3.433126   2.169421   1.097925   3.448940   2.248421
    22  H    3.073331   2.183389   1.095798   3.772043   3.180073
                   11         12         13         14         15
    11  H    0.000000
    12  H    3.033483   0.000000
    13  H    2.587145   2.917233   0.000000
    14  H    3.679942   2.364483   1.618594   0.000000
    15  H    3.745963   2.358415   3.286606   2.738171   0.000000
    16  H    2.784146   3.029827   2.369259   2.742280   1.754824
    17  H    3.956101   3.780721   4.809201   4.847377   2.357295
    18  H    2.618621   3.800863   4.084832   4.694848   3.024054
    19  H    3.785817   3.945250   5.623186   5.837985   3.997610
    20  H    3.789410   2.594457   4.928245   4.699346   2.952481
    21  H    3.023363   2.813438   4.747302   4.938490   4.397191
    22  H    2.346817   3.756349   4.760721   5.433602   4.695440
                   16         17         18         19         20
    16  H    0.000000
    17  H    2.700130   0.000000
    18  H    2.338761   1.753031   0.000000
    19  H    4.280268   2.481864   2.503832   0.000000
    20  H    3.825276   2.506598   3.057404   1.752941   0.000000
    21  H    4.633777   4.283269   3.824890   2.681969   2.339194
    22  H    4.362943   3.989570   2.935498   2.357812   3.027636
                   21         22
    21  H    0.000000
    22  H    1.753250   0.000000
 Stoichiometry    C6H14N2
 Framework group  C1[X(C6H14N2)]
 Deg. of freedom    60
 Full point group                 C1      NOp   1
 Largest Abelian subgroup         C1      NOp   1
 Largest concise Abelian subgroup C1      NOp   1
                         Standard orientation:                         
 ---------------------------------------------------------------------
 Center     Atomic      Atomic             Coordinates (Angstroms)
 Number     Number       Type             X           Y           Z
 ---------------------------------------------------------------------
      1          7           0       -1.774006    1.535335    0.168585
      2          6           0       -0.576691    0.704102    0.367038
      3          6           0       -0.609219   -0.658123   -0.359574
      4          7           0       -1.907857   -1.317692   -0.139750
      5          6           0        0.606923   -1.524317    0.059365
      6          6           0        1.874767   -0.699803    0.383395
      7          6           0        1.895461    0.622285   -0.392557
      8          6           0        0.678523    1.507104   -0.040868
      9          1           0       -2.580962    0.919268    0.271620
     10          1           0       -1.799149    1.814951   -0.813404
     11          1           0       -0.522266    0.486330    1.445517
     12          1           0       -0.549314   -0.453596   -1.438547
     13          1           0       -1.978938   -1.566537    0.847887
     14          1           0       -1.918811   -2.206755   -0.637492
     15          1           0        0.817150   -2.244681   -0.740756
     16          1           0        0.323643   -2.117276    0.938418
     17          1           0        2.772902   -1.287170    0.162043
     18          1           0        1.911295   -0.480518    1.458216
     19          1           0        2.823079    1.169087   -0.190003
     20          1           0        1.898999    0.404359   -1.468311
     21          1           0        0.424850    2.131805   -0.907377
     22          1           0        0.931977    2.199747    0.769552
 ---------------------------------------------------------------------
 Rotational constants (GHZ):           2.6682780           1.9241997           1.2312772
 Standard basis: 6-31G(d,p) (6D, 7F)
 There are   190 symmetry adapted cartesian basis functions of A   symmetry.
 There are   190 symmetry adapted basis functions of A   symmetry.
   190 basis functions,   322 primitive gaussians,   190 cartesian basis functions
    32 alpha electrons       32 beta electrons
       nuclear repulsion energy       414.4307486308 Hartrees.
 NAtoms=   22 NActive=   22 NUniq=   22 SFac= 1.00D+00 NAtFMM=   60 NAOKFM=F Big=F
 Integral buffers will be    131072 words long.
 Raffenetti 2 integral format.
 Two-electron integral symmetry is turned on.
 ------------------------------------------------------------------------------
 Polarizable Continuum Model (PCM)
 =================================
 Model                : PCM.
 Atomic radii         : UFF (Universal Force Field).
 Polarization charges : Total charges.
 Charge compensation  : None.
 Solution method      : Matrix inversion.
 Cavity type          : Scaled VdW (van der Waals Surface) (Alpha=1.100).
 Cavity algorithm     : GePol (No added spheres)
                        Default sphere list used, NSphG=   22.
                        Lebedev-Laikov grids with approx.  5.0 points / Ang**2.
                        Smoothing algorithm: York/Karplus (Gamma=1.0000).
                        Polarization charges: spherical gaussians, with
                                              point-specific exponents (IZeta= 3).
                        Self-potential: point-specific (ISelfS= 7).
                        Self-field    : sphere-specific E.n sum rule (ISelfD= 2).
 1st derivatives      : Analytical E(r).r(x)/FMM algorithm (CHGder, D1EAlg=3).
                        Cavity 1st derivative terms included.
 Solvent              : Water, Eps=  78.355300 Eps(inf)=   1.777849
 ------------------------------------------------------------------------------
 One-electron integrals computed using PRISM.
 NBasis=   190 RedAO= T EigKep=  1.88D-03  NBF=   190
 NBsUse=   190 1.00D-06 EigRej= -1.00D+00 NBFU=   190
 Initial guess from the checkpoint file:  "SSJXIUAHEKJCMH-OLQVQODUSA-N_conf_1_0.chk"
 B after Tr=    -0.000000   -0.000000    0.000000
         Rot=    0.999942   -0.000030   -0.000719   -0.010764 Ang=  -1.24 deg.
 ExpMin= 1.61D-01 ExpMax= 4.17D+03 ExpMxC= 6.27D+02 IAcc=2 IRadAn=         4 AccDes= 0.00D+00
 Harris functional with IExCor=  402 and IRadAn=       4 diagonalized for initial guess.
 HarFok:  IExCor=  402 AccDes= 0.00D+00 IRadAn=         4 IDoV= 1 UseB2=F ITyADJ=14
 ICtDFT=  3500011 ScaDFX=  1.000000  1.000000  1.000000  1.000000
 FoFCou: FMM=F IPFlag=           0 FMFlag=      100000 FMFlg1=           0
         NFxFlg=           0 DoJE=T BraDBF=F KetDBF=T FulRan=T
         wScrn=  0.000000 ICntrl=       500 IOpCl=  0 I1Cent=   200000004 NGrid=           0
         NMat0=    1 NMatS0=      1 NMatT0=    0 NMatD0=    1 NMtDS0=    0 NMtDT0=    0
 Petite list used in FoFCou.
 Keep R1 ints in memory in canonical form, NReq=168114806.
 Requested convergence on RMS density matrix=1.00D-08 within  32 cycles.
 Requested convergence on MAX density matrix=1.00D-06.
 Requested convergence on             energy=1.00D-06.
 No special actions if energy rises.
 Inv3:  Mode=1 IEnd=     6333627.
 Iteration    1 A*A^-1 deviation from unit magnitude is 6.77D-15 for   1417.
 Iteration    1 A*A^-1 deviation from orthogonality  is 3.29D-15 for    568    461.
 Iteration    1 A^-1*A deviation from unit magnitude is 6.77D-15 for   1417.
 Iteration    1 A^-1*A deviation from orthogonality  is 3.14D-15 for    738    446.
 Error on total polarization charges =  0.00849
 SCF Done:  E(RB3LYP) =  -346.592329076     A.U. after    9 cycles
            NFock=  9  Conv=0.55D-08     -V/T= 2.0098
 QCSCF skips out because SCF is already converged.
 D1PCM: PCM CHGder 1st derivatives, ID1Alg=3 FixD1E=F DoIter=F DoCFld=F I1PDM=0.
 Calling FoFJK, ICntrl=      2127 FMM=F ISym2X=0 I1Cent= 0 IOpClX= 0 NMat=1 NMatS=1 NMatT=0.
 ***** Axes restored to original set *****
 -------------------------------------------------------------------
 Center     Atomic                   Forces (Hartrees/Bohr)
 Number     Number              X              Y              Z
 -------------------------------------------------------------------
      1        7           0.000009322    0.000220687    0.000084640
      2        6           0.000151273    0.000498740    0.000851340
      3        6           0.000120827   -0.000465601    0.000241817
      4        7           0.000487006    0.000733328   -0.000687861
      5        6          -0.000514722   -0.000586958   -0.000117651
      6        6          -0.000119885   -0.000324820   -0.000473754
      7        6          -0.000387876   -0.000118701    0.000161558
      8        6          -0.000337168   -0.000011617   -0.000679883
      9        1           0.000079420    0.000246289   -0.000157967
     10        1          -0.000020866    0.000011644   -0.000029301
     11        1           0.000086868   -0.000109446   -0.000010252
     12        1          -0.000109602   -0.000098803    0.000017088
     13        1           0.000193951   -0.000728966    0.000258838
     14        1          -0.000132213    0.000346832    0.000359848
     15        1           0.000082456    0.000032993    0.000062083
     16        1           0.000124242    0.000172108    0.000058700
     17        1          -0.000068904    0.000005378   -0.000261251
     18        1           0.000041735    0.000217327    0.000035506
     19        1          -0.000193275   -0.000087065    0.000287957
     20        1           0.000314118   -0.000053272    0.000085228
     21        1           0.000037828    0.000065671   -0.000072333
     22        1           0.000155466    0.000034253   -0.000014348
 -------------------------------------------------------------------
 Cartesian Forces:  Max     0.000851340 RMS     0.000296944

 GradGradGradGradGradGradGradGradGradGradGradGradGradGradGradGradGradGrad
 Berny optimization.
 Using GEDIIS/GDIIS optimizer.
 FormGI is forming the generalized inverse of G from B-inverse, IUseBI=4.
 Internal  Forces:  Max     0.000594835 RMS     0.000177805
 Search for a local minimum.
 Step number   2 out of a maximum of  132
 All quantities printed in internal units (Hartrees-Bohrs-Radians)
 Mixed Optimization -- En-DIIS/RFO-DIIS
 Update second derivatives using D2CorX and points    1    2
 DE= -2.67D-03 DEPred=-2.65D-03 R= 1.01D+00
 TightC=F SS=  1.41D+00  RLast= 3.03D-01 DXNew= 5.0454D-01 9.0773D-01
 Trust test= 1.01D+00 RLast= 3.03D-01 DXMaxT set to 5.05D-01
 ITU=  1  0
 Use linear search instead of GDIIS.
     Eigenvalues ---    0.00056   0.00177   0.00217   0.00325   0.00595
     Eigenvalues ---    0.01528   0.01983   0.03379   0.03549   0.03713
     Eigenvalues ---    0.03851   0.03928   0.03931   0.04078   0.04171
     Eigenvalues ---    0.04703   0.04868   0.05131   0.05205   0.05380
     Eigenvalues ---    0.05889   0.06115   0.07121   0.07183   0.07418
     Eigenvalues ---    0.07833   0.09472   0.10404   0.10574   0.13464
     Eigenvalues ---    0.13982   0.15294   0.15708   0.16894   0.19068
     Eigenvalues ---    0.20021   0.20498   0.20659   0.24004   0.25852
     Eigenvalues ---    0.27047   0.27978   0.29201   0.29484   0.31741
     Eigenvalues ---    0.32067   0.32404   0.32448   0.32687   0.32827
     Eigenvalues ---    0.33162   0.33251   0.33433   0.33773   0.34834
     Eigenvalues ---    0.35738   0.42169   0.43623   0.43763   0.44032
 RFO step:  Lambda=-3.50302960D-04 EMin= 5.59909172D-04
 Quartic linear search produced a step of  0.11181.
 Iteration  1 RMS(Cart)=  0.03266146 RMS(Int)=  0.00142847
 Iteration  2 RMS(Cart)=  0.00144965 RMS(Int)=  0.00007854
 Iteration  3 RMS(Cart)=  0.00000277 RMS(Int)=  0.00007852
 Iteration  4 RMS(Cart)=  0.00000000 RMS(Int)=  0.00007852
 Variable       Old X    -DE/DX   Delta X   Delta X   Delta X     New X
                                 (Linear)    (Quad)   (Total)
    R1        2.77982   0.00044   0.00014  -0.00069  -0.00055   2.77927
    R2        1.92839   0.00002  -0.00131   0.00224   0.00093   1.92932
    R3        1.93004  -0.00001   0.00025  -0.00017   0.00009   1.93012
    R4        2.91819   0.00029  -0.00105   0.00452   0.00351   2.92170
    R5        2.91947   0.00044   0.00196   0.00260   0.00453   2.92399
    R6        2.08171   0.00007   0.00066  -0.00044   0.00022   2.08192
    R7        2.78362   0.00056   0.00021  -0.00071  -0.00050   2.78312
    R8        2.93048   0.00059   0.00288  -0.00027   0.00268   2.93316
    R9        2.07836   0.00006   0.00031  -0.00106  -0.00075   2.07761
   R10        1.92938   0.00003   0.00007  -0.00073  -0.00066   1.92872
   R11        1.92558  -0.00004  -0.00019  -0.00019  -0.00038   1.92520
   R12        2.92282   0.00041   0.00276  -0.00168   0.00111   2.92393
   R13        2.07295   0.00002  -0.00013   0.00005  -0.00007   2.07287
   R14        2.07404   0.00002  -0.00006   0.00044   0.00039   2.07443
   R15        2.89717   0.00018   0.00197  -0.00238  -0.00043   2.89674
   R16        2.07065   0.00001  -0.00005  -0.00001  -0.00006   2.07058
   R17        2.07411   0.00001   0.00001   0.00016   0.00017   2.07428
   R18        2.91994   0.00042   0.00244  -0.00448  -0.00211   2.91782
   R19        2.07052   0.00000  -0.00006   0.00012   0.00006   2.07058
   R20        2.07418  -0.00000   0.00002   0.00030   0.00032   2.07450
   R21        2.07478  -0.00002   0.00003  -0.00002   0.00001   2.07479
   R22        2.07076  -0.00001  -0.00037   0.00052   0.00015   2.07091
    A1        1.86385   0.00041   0.00197  -0.00706  -0.00508   1.85877
    A2        1.88016  -0.00001  -0.00183   0.00204   0.00021   1.88037
    A3        1.81615  -0.00002   0.00189  -0.00091   0.00099   1.81714
    A4        2.00187   0.00037   0.00559  -0.00541   0.00026   2.00213
    A5        1.90920  -0.00014  -0.00330   0.00610   0.00290   1.91210
    A6        1.85876  -0.00006   0.00012  -0.00115  -0.00106   1.85770
    A7        1.92985  -0.00013  -0.00025   0.00279   0.00234   1.93219
    A8        1.86221  -0.00008  -0.00300  -0.00020  -0.00316   1.85905
    A9        1.89769   0.00004   0.00072  -0.00250  -0.00178   1.89591
   A10        1.92127  -0.00012  -0.00335   0.00122  -0.00212   1.91915
   A11        1.92740  -0.00007   0.00009   0.00002   0.00009   1.92749
   A12        1.87174  -0.00008  -0.00199   0.00217   0.00013   1.87187
   A13        1.98337   0.00024   0.00466  -0.00112   0.00359   1.98695
   A14        1.85219   0.00000  -0.00076  -0.00220  -0.00308   1.84911
   A15        1.90307   0.00002   0.00113   0.00002   0.00113   1.90420
   A16        1.89112   0.00018  -0.00142   0.00569   0.00426   1.89538
   A17        1.90420   0.00001  -0.00026   0.00170   0.00143   1.90563
   A18        1.83290  -0.00015  -0.00163   0.00395   0.00230   1.83520
   A19        1.98415   0.00013   0.00093  -0.00293  -0.00215   1.98200
   A20        1.89658   0.00000  -0.00014   0.00051   0.00038   1.89696
   A21        1.89203  -0.00028  -0.00518   0.00389  -0.00122   1.89081
   A22        1.92387  -0.00001   0.00121  -0.00009   0.00117   1.92504
   A23        1.90899   0.00012   0.00267  -0.00077   0.00192   1.91091
   A24        1.85342   0.00003   0.00045  -0.00038  -0.00001   1.85341
   A25        1.94415  -0.00016  -0.00240  -0.00644  -0.00901   1.93514
   A26        1.92177   0.00009   0.00116   0.00147   0.00272   1.92449
   A27        1.91659   0.00011   0.00140  -0.00018   0.00121   1.91780
   A28        1.92725   0.00001   0.00040   0.00451   0.00499   1.93224
   A29        1.89959  -0.00000   0.00002  -0.00061  -0.00057   1.89902
   A30        1.85214  -0.00003  -0.00046   0.00162   0.00112   1.85325
   A31        1.94764  -0.00010  -0.00196  -0.00687  -0.00922   1.93842
   A32        1.92647  -0.00001   0.00030   0.00659   0.00701   1.93348
   A33        1.90168  -0.00000   0.00025  -0.00135  -0.00100   1.90068
   A34        1.91657   0.00004   0.00057   0.00164   0.00238   1.91895
   A35        1.91698   0.00010   0.00144  -0.00080   0.00067   1.91765
   A36        1.85203  -0.00003  -0.00049   0.00118   0.00062   1.85265
   A37        1.98488   0.00017   0.00125  -0.00399  -0.00320   1.98168
   A38        1.89273  -0.00024  -0.00534   0.00740   0.00219   1.89492
   A39        1.89779   0.00001  -0.00006   0.00089   0.00093   1.89872
   A40        1.90515   0.00007   0.00231  -0.00133   0.00112   1.90627
   A41        1.92637  -0.00004   0.00146  -0.00261  -0.00104   1.92533
   A42        1.85197   0.00002   0.00030   0.00010   0.00027   1.85223
[...]
    14  H    0.255053   1.085828   0.043062   0.028362   0.000157   0.000236
    15  H    0.017190   0.043062   0.838561   0.037806   0.013039   0.012162
    16  H    0.065755   0.028362   0.037806   0.728809   0.011070   0.005489
    17  H    0.000208   0.000157   0.013039   0.011070   0.658771  -0.017618
    18  H    0.001089   0.000236   0.012162   0.005489  -0.017618   0.668249
    19  H    0.000011   0.000006   0.000694   0.000124   0.003692   0.002139
    20  H    0.000155   0.000352   0.011570   0.001261   0.004657   0.009545
    21  H    0.000118   0.000089   0.000251   0.000101  -0.000008   0.000515
    22  H    0.000108   0.000022   0.000128   0.000242   0.000290   0.005739
              19         20         21         22
     1  N   -0.000065  -0.000321  -0.016489   0.001550
     2  C    0.002021  -0.003997  -0.042878  -0.053752
     3  C   -0.001970  -0.022191  -0.014915   0.001363
     4  N   -0.000006  -0.000226  -0.000066  -0.000112
     5  C    0.005072  -0.007658   0.001210   0.000889
     6  C   -0.043010  -0.046516   0.004302  -0.005080
     7  C    0.343864   0.318507  -0.039028  -0.033760
     8  C   -0.041437  -0.044691   0.344218   0.353322
     9  H    0.000017   0.000121   0.002169   0.000716
    10  H    0.000096   0.000823   0.021882   0.002597
    11  H    0.000869   0.001330   0.009667   0.002266
    12  H    0.000996   0.019056   0.010031   0.001217
    13  H    0.000011   0.000155   0.000118   0.000108
    14  H    0.000006   0.000352   0.000089   0.000022
    15  H    0.000694   0.011570   0.000251   0.000128
    16  H    0.000124   0.001261   0.000101   0.000242
    17  H    0.003692   0.004657  -0.000008   0.000290
    18  H    0.002139   0.009545   0.000515   0.005739
    19  H    0.657385  -0.019741   0.004806  -0.003601
    20  H   -0.019741   0.687540  -0.001448   0.007901
    21  H    0.004806  -0.001448   0.649785  -0.024082
    22  H   -0.003601   0.007901  -0.024082   0.638830
 Mulliken charges:
               1
     1  N   -0.523662
     2  C    0.069965
     3  C    0.042381
     4  N   -0.236907
     5  C   -0.119437
     6  C   -0.184148
     7  C   -0.183154
     8  C   -0.173319
     9  H    0.204171
    10  H    0.210869
    11  H    0.064991
    12  H    0.038583
    13  H    0.068911
    14  H    0.050259
    15  H    0.052217
    16  H    0.063862
    17  H    0.096023
    18  H    0.093410
    19  H    0.088039
    20  H    0.083969
    21  H    0.089769
    22  H    0.103208
 Sum of Mulliken charges =  -0.00000
 Mulliken charges with hydrogens summed into heavy atoms:
               1
     1  N   -0.108622
     2  C    0.134956
     3  C    0.080964
     4  N   -0.117737
     5  C   -0.003358
     6  C    0.005285
     7  C   -0.011146
     8  C    0.019657
 Electronic spatial extent (au):  <R**2>=           1051.9310
 Charge=             -0.0000 electrons
 Dipole moment (field-independent basis, Debye):
    X=              0.3363    Y=             -0.3439    Z=             -0.6446  Tot=              0.8043
 Quadrupole moment (field-independent basis, Debye-Ang):
   XX=            -52.2132   YY=            -57.0852   ZZ=            -54.4068
   XY=              1.0454   XZ=              1.8414   YZ=             -2.5834
 Traceless Quadrupole moment (field-independent basis, Debye-Ang):
   XX=              2.3552   YY=             -2.5168   ZZ=              0.1616
   XY=              1.0454   XZ=              1.8414   YZ=             -2.5834
 Octapole moment (field-independent basis, Debye-Ang**2):
  XXX=             -5.0357  YYY=              1.8792  ZZZ=              0.3852  XYY=              5.8114
  XXY=              0.7234  XXZ=             -1.3290  XZZ=             -0.1063  YZZ=              4.5855
  YYZ=             -3.2657  XYZ=              5.1131
 Hexadecapole moment (field-independent basis, Debye-Ang**3):
 XXXX=           -727.0801 YYYY=           -595.8835 ZZZZ=           -149.9137 XXXY=             -9.9822
 XXXZ=              4.6504 YYYX=              5.4211 YYYZ=            -13.9420 ZZZX=              2.9885
 ZZZY=             -3.0264 XXYY=           -226.8469 XXZZ=           -152.8206 YYZZ=           -121.6956
 XXYZ=             -9.8881 YYXZ=              8.8390 ZZXY=             -4.1063
 N-N= 4.143241992164D+02 E-N=-1.630616468229D+03  KE= 3.433916639002D+02
 Evaluate density.
 Using the total density.
 Monte-Carlo method of calculating molar volume:
 based on  0.001 e/bohr**3 density envelope.
 Number of points per bohr**3 =   20 CutOff= 1.00D-04
 Using the CI density.
 There are       346 points.  Will hold       346 in memory.
 LenV=   805202954 MDV=   805306368.
 Box volume = 5222.680 fraction occupied=0.197
 Integrated density= 3.9806966272502407D+01 error=-2.4193033727497593D+01
 Molar volume = 1026.423 bohr**3/mol ( 91.597 cm**3/mol)
 Recommended a0 for SCRF calculation =  4.14 angstrom (  7.83 bohr)
 ******************************Gaussian NBO Version 3.1******************************
             N A T U R A L   A T O M I C   O R B I T A L   A N D
          N A T U R A L   B O N D   O R B I T A L   A N A L Y S I S
 ******************************Gaussian NBO Version 3.1******************************
       /RESON  / : Allow strongly delocalized NBO set

 Analyzing the CI density

 Job title: SSJXIUAHEKJCMH-OLQVQODUSA-N_conf_1                              

 Storage needed:    109964 in NPA ( 805303728 available)
 GSVD:  LWork=       19546 too small for GESVD, short by       12761 words or       12761 for optimal perf.


 NATURAL POPULATIONS:  Natural atomic orbital occupancies 
                                                          
   NAO  Atom  No  lang   Type(AO)    Occupancy
 --------------------------------------------
     1    N    1  S      Cor( 1S)     1.99959
     2    N    1  S      Val( 2S)     1.44417
     3    N    1  S      Ryd( 3S)     0.00137
     4    N    1  S      Ryd( 4S)     0.00003
     5    N    1  px     Val( 2p)     1.30231
     6    N    1  px     Ryd( 3p)     0.00211
     7    N    1  py     Val( 2p)     1.54318
     8    N    1  py     Ryd( 3p)     0.00384
     9    N    1  pz     Val( 2p)     1.49020
    10    N    1  pz     Ryd( 3p)     0.00315
    11    N    1  dxy    Ryd( 3d)     0.00130
    12    N    1  dxz    Ryd( 3d)     0.00025
    13    N    1  dyz    Ryd( 3d)     0.00082
    14    N    1  dx2y2  Ryd( 3d)     0.00058
    15    N    1  dz2    Ryd( 3d)     0.00145

    16    C    2  S      Cor( 1S)     1.99916
    17    C    2  S      Val( 2S)     0.96505
    18    C    2  S      Ryd( 3S)     0.00191
    19    C    2  S      Ryd( 4S)     0.00004
    20    C    2  px     Val( 2p)     0.94471
    21    C    2  px     Ryd( 3p)     0.00498
    22    C    2  py     Val( 2p)     0.96121
    23    C    2  py     Ryd( 3p)     0.00555
    24    C    2  pz     Val( 2p)     1.19317
    25    C    2  pz     Ryd( 3p)     0.00327
    26    C    2  dxy    Ryd( 3d)     0.00131
    27    C    2  dxz    Ryd( 3d)     0.00069
    28    C    2  dyz    Ryd( 3d)     0.00077
    29    C    2  dx2y2  Ryd( 3d)     0.00105
    30    C    2  dz2    Ryd( 3d)     0.00128

    31    C    3  S      Cor( 1S)     1.99913
    32    C    3  S      Val( 2S)     0.98647
    33    C    3  S      Ryd( 3S)     0.00219
    34    C    3  S      Ryd( 4S)     0.00005
    35    C    3  px     Val( 2p)     0.89898
    36    C    3  px     Ryd( 3p)     0.00535
    37    C    3  py     Val( 2p)     0.99322
    38    C    3  py     Ryd( 3p)     0.00390
    39    C    3  pz     Val( 2p)     1.23441
    40    C    3  pz     Ryd( 3p)     0.00281
    41    C    3  dxy    Ryd( 3d)     0.00110
    42    C    3  dxz    Ryd( 3d)     0.00059
    43    C    3  dyz    Ryd( 3d)     0.00074
    44    C    3  dx2y2  Ryd( 3d)     0.00112
    45    C    3  dz2    Ryd( 3d)     0.00132

    46    N    4  S      Cor( 1S)     1.99942
    47    N    4  S      Val( 2S)     1.47801
    48    N    4  S      Ryd( 3S)     0.00927
    49    N    4  S      Ryd( 4S)     0.00006
    50    N    4  px     Val( 2p)     1.25443
    51    N    4  px     Ryd( 3p)     0.00074
    52    N    4  py     Val( 2p)     1.36102
    53    N    4  py     Ryd( 3p)     0.00568
    54    N    4  pz     Val( 2p)     1.41736
    55    N    4  pz     Ryd( 3p)     0.00163
    56    N    4  dxy    Ryd( 3d)     0.00036
    57    N    4  dxz    Ryd( 3d)     0.00037
    58    N    4  dyz    Ryd( 3d)     0.00073
    59    N    4  dx2y2  Ryd( 3d)     0.00093
    60    N    4  dz2    Ryd( 3d)     0.00045

    61    C    5  S      Cor( 1S)     1.99923
    62    C    5  S      Val( 2S)     1.05517
    63    C    5  S      Ryd( 3S)     0.00085
    64    C    5  S      Ryd( 4S)     0.00007
    65    C    5  px     Val( 2p)     0.99258
    66    C    5  px     Ryd( 3p)     0.00403
    67    C    5  py     Val( 2p)     1.15070
    68    C    5  py     Ryd( 3p)     0.00273
    69    C    5  pz     Val( 2p)     1.24628
    70    C    5  pz     Ryd( 3p)     0.00406
    71    C    5  dxy    Ryd( 3d)     0.00075
    72    C    5  dxz    Ryd( 3d)     0.00046
    73    C    5  dyz    Ryd( 3d)     0.00096
    74    C    5  dx2y2  Ryd( 3d)     0.00043
    75    C    5  dz2    Ryd( 3d)     0.00052

    76    C    6  S      Cor( 1S)     1.99932
    77    C    6  S      Val( 2S)     1.03938
    78    C    6  S      Ryd( 3S)     0.00065
    79    C    6  S      Ryd( 4S)     0.00002
    80    C    6  px     Val( 2p)     1.12806
    81    C    6  px     Ryd( 3p)     0.00267
    82    C    6  py     Val( 2p)     1.08845
    83    C    6  py     Ryd( 3p)     0.00253
    84    C    6  pz     Val( 2p)     1.20222
    85    C    6  pz     Ryd( 3p)     0.00277
    86    C    6  dxy    Ryd( 3d)     0.00085
    87    C    6  dxz    Ryd( 3d)     0.00025
    88    C    6  dyz    Ryd( 3d)     0.00054
    89    C    6  dx2y2  Ryd( 3d)     0.00047
    90    C    6  dz2    Ryd( 3d)     0.00102

    91    C    7  S      Cor( 1S)     1.99934
    92    C    7  S      Val( 2S)     1.03805
    93    C    7  S      Ryd( 3S)     0.00058
    94    C    7  S      Ryd( 4S)     0.00002
    95    C    7  px     Val( 2p)     1.15650
    96    C    7  px     Ryd( 3p)     0.00284
    97    C    7  py     Val( 2p)     1.07367
    98    C    7  py     Ryd( 3p)     0.00239
    99    C    7  pz     Val( 2p)     1.19206
   100    C    7  pz     Ryd( 3p)     0.00224
   101    C    7  dxy    Ryd( 3d)     0.00083
   102    C    7  dxz    Ryd( 3d)     0.00023
   103    C    7  dyz    Ryd( 3d)     0.00055
   104    C    7  dx2y2  Ryd( 3d)     0.00053
   105    C    7  dz2    Ryd( 3d)     0.00102

   106    C    8  S      Cor( 1S)     1.99930
   107    C    8  S      Val( 2S)     1.03643
   108    C    8  S      Ryd( 3S)     0.00097
   109    C    8  S      Ryd( 4S)     0.00002
   110    C    8  px     Val( 2p)     1.04355
   111    C    8  px     Ryd( 3p)     0.00334
   112    C    8  py     Val( 2p)     1.15066
   113    C    8  py     Ryd( 3p)     0.00282
   114    C    8  pz     Val( 2p)     1.23459
   115    C    8  pz     Ryd( 3p)     0.00406
   116    C    8  dxy    Ryd( 3d)     0.00072
   117    C    8  dxz    Ryd( 3d)     0.00041
   118    C    8  dyz    Ryd( 3d)     0.00103
   119    C    8  dx2y2  Ryd( 3d)     0.00043
   120    C    8  dz2    Ryd( 3d)     0.00048

   121    H    9  S      Val( 1S)     0.62835
   122    H    9  S      Ryd( 2S)     0.01918
   123    H    9  px     Ryd( 2p)     0.00046
   124    H    9  py     Ryd( 2p)     0.00052
   125    H    9  pz     Ryd( 2p)     0.00039

   126    H   10  S      Val( 1S)     0.62642
   127    H   10  S      Ryd( 2S)     0.01983
   128    H   10  px     Ryd( 2p)     0.00029
   129    H   10  py     Ryd( 2p)     0.00042
   130    H   10  pz     Ryd( 2p)     0.00067

   131    H   11  S      Val( 1S)     0.75412
   132    H   11  S      Ryd( 2S)     0.02544
   133    H   11  px     Ryd( 2p)     0.00007
   134    H   11  py     Ryd( 2p)     0.00011
   135    H   11  pz     Ryd( 2p)     0.00040

   136    H   12  S      Val( 1S)     0.76524
   137    H   12  S      Ryd( 2S)     0.04019
   138    H   12  px     Ryd( 2p)     0.00007
   139    H   12  py     Ryd( 2p)     0.00007
   140    H   12  pz     Ryd( 2p)     0.00040

   141    H   13  S      Val( 1S)     0.68529
   142    H   13  S      Ryd( 2S)     0.06798
   143    H   13  px     Ryd( 2p)     0.00028
   144    H   13  py     Ryd( 2p)     0.00031
   145    H   13  pz     Ryd( 2p)     0.00070

   146    H   14  S      Val( 1S)     0.70434
   147    H   14  S      Ryd( 2S)     0.07021
   148    H   14  px     Ryd( 2p)     0.00027
   149    H   14  py     Ryd( 2p)     0.00061
   150    H   14  pz     Ryd( 2p)     0.00039

   151    H   15  S      Val( 1S)     0.76693
   152    H   15  S      Ryd( 2S)     0.02902
   153    H   15  px     Ryd( 2p)     0.00010
   154    H   15  py     Ryd( 2p)     0.00022
   155    H   15  pz     Ryd( 2p)     0.00022

   156    H   16  S      Val( 1S)     0.75996
   157    H   16  S      Ryd( 2S)     0.02233
   158    H   16  px     Ryd( 2p)     0.00014
   159    H   16  py     Ryd( 2p)     0.00017
   160    H   16  pz     Ryd( 2p)     0.00026

   161    H   17  S      Val( 1S)     0.74728
   162    H   17  S      Ryd( 2S)     0.00595
   163    H   17  px     Ryd( 2p)     0.00028
   164    H   17  py     Ryd( 2p)     0.00017
   165    H   17  pz     Ryd( 2p)     0.00010

   166    H   18  S      Val( 1S)     0.76508
   167    H   18  S      Ryd( 2S)     0.00740
   168    H   18  px     Ryd( 2p)     0.00010
   169    H   18  py     Ryd( 2p)     0.00011
   170    H   18  pz     Ryd( 2p)     0.00035

   171    H   19  S      Val( 1S)     0.75543
   172    H   19  S      Ryd( 2S)     0.00384
   173    H   19  px     Ryd( 2p)     0.00029
   174    H   19  py     Ryd( 2p)     0.00016
   175    H   19  pz     Ryd( 2p)     0.00009

   176    H   20  S      Val( 1S)     0.77069
   177    H   20  S      Ryd( 2S)     0.00869
   178    H   20  px     Ryd( 2p)     0.00010
   179    H   20  py     Ryd( 2p)     0.00011
   180    H   20  pz     Ryd( 2p)     0.00035

   181    H   21  S      Val( 1S)     0.75922
   182    H   21  S      Ryd( 2S)     0.00676
   183    H   21  px     Ryd( 2p)     0.00013
   184    H   21  py     Ryd( 2p)     0.00019
   185    H   21  pz     Ryd( 2p)     0.00025

   186    H   22  S      Val( 1S)     0.75119
   187    H   22  S      Ryd( 2S)     0.00471
   188    H   22  px     Ryd( 2p)     0.00011
   189    H   22  py     Ryd( 2p)     0.00020
   190    H   22  pz     Ryd( 2p)     0.00024


 Summary of Natural Population Analysis:                  
                                                          
                                       Natural Population 
                Natural  -----------------------------------------------
    Atom  No    Charge         Core      Valence    Rydberg      Total
 -----------------------------------------------------------------------
      N    1   -0.79437      1.99959     5.77985    0.01492     7.79437
      C    2   -0.08415      1.99916     4.06414    0.02086     6.08415
      C    3   -0.13138      1.99913     4.11309    0.01916     6.13138
      N    4   -0.53045      1.99942     5.51081    0.02022     7.53045
      C    5   -0.45883      1.99923     4.44474    0.01486     6.45883
      C    6   -0.46921      1.99932     4.45812    0.01177     6.46921
      C    7   -0.47086      1.99934     4.46028    0.01123     6.47086
      C    8   -0.47881      1.99930     4.46523    0.01429     6.47881
      H    9    0.35111      0.00000     0.62835    0.02054     0.64889
      H   10    0.35237      0.00000     0.62642    0.02120     0.64763
      H   11    0.21986      0.00000     0.75412    0.02603     0.78014
      H   12    0.19402      0.00000     0.76524    0.04073     0.80598
      H   13    0.24545      0.00000     0.68529    0.06927     0.75455
      H   14    0.22418      0.00000     0.70434    0.07148     0.77582
      H   15    0.20351      0.00000     0.76693    0.02955     0.79649
      H   16    0.21713      0.00000     0.75996    0.02291     0.78287
      H   17    0.24622      0.00000     0.74728    0.00650     0.75378
      H   18    0.22696      0.00000     0.76508    0.00796     0.77304
      H   19    0.24019      0.00000     0.75543    0.00438     0.75981
      H   20    0.22005      0.00000     0.77069    0.00926     0.77995
      H   21    0.23345      0.00000     0.75922    0.00733     0.76655
      H   22    0.24355      0.00000     0.75119    0.00526     0.75645
 =======================================================================
   * Total *   -0.00000     15.99450    47.53579    0.46970    64.00000

                                 Natural Population      
 --------------------------------------------------------
   Core                      15.99450 ( 99.9656% of  16)
   Valence                   47.53579 ( 99.0329% of  48)
   Natural Minimal Basis     63.53030 ( 99.2661% of  64)
   Natural Rydberg Basis      0.46970 (  0.7339% of  64)
 --------------------------------------------------------

    Atom  No          Natural Electron Configuration
 ----------------------------------------------------------------------------
      N    1      [core]2S( 1.44)2p( 4.34)3p( 0.01)
      C    2      [core]2S( 0.97)2p( 3.10)3p( 0.01)3d( 0.01)
      C    3      [core]2S( 0.99)2p( 3.13)3p( 0.01)
      N    4      [core]2S( 1.48)2p( 4.03)3S( 0.01)3p( 0.01)
      C    5      [core]2S( 1.06)2p( 3.39)3p( 0.01)
      C    6      [core]2S( 1.04)2p( 3.42)3p( 0.01)
      C    7      [core]2S( 1.04)2p( 3.42)3p( 0.01)
      C    8      [core]2S( 1.04)2p( 3.43)3p( 0.01)
      H    9            1S( 0.63)2S( 0.02)
      H   10            1S( 0.63)2S( 0.02)
      H   11            1S( 0.75)2S( 0.03)
      H   12            1S( 0.77)2S( 0.04)
      H   13            1S( 0.69)2S( 0.07)
      H   14            1S( 0.70)2S( 0.07)
      H   15            1S( 0.77)2S( 0.03)
      H   16            1S( 0.76)2S( 0.02)
      H   17            1S( 0.75)2S( 0.01)
      H   18            1S( 0.77)2S( 0.01)
      H   19            1S( 0.76)
      H   20            1S( 0.77)2S( 0.01)
      H   21            1S( 0.76)2S( 0.01)
      H   22            1S( 0.75)


 NBO analysis skipped by request.
 1\1\GINC-CN36\SP\RB3LYP TD-FC\6-31G(d,p)\C6H14N2\QDUEZ\09-Jul-2024\0\\
 # TD(NStates=10, Root=1) B3LYP/6-31G** SCRF=(Solvent=water) volume pop
 =NPA density=current Geom=AllCheck Guess=Read\\SSJXIUAHEKJCMH-OLQVQODU
 SA-N_conf_1\\0,1\N,0,0.6192882773,2.4012606298,0.0538120848\C,0,0.2685
 015144,1.0213782235,-0.3148813906\C,0,0.7339822482,-0.0543449778,0.693
 0800521\N,0,2.1393856065,0.1810127484,1.0689238089\C,0,0.4664610894,-1
 .4764814998,0.1318916326\C,0,-0.792167051,-1.5623779368,-0.7641382637\
 C,0,-1.8228068366,-0.5004121198,-0.3636897759\C,0,-1.2569363214,0.9233
 514513,-0.5563935658\H,0,1.5901764506,2.3811521352,0.3682371513\H,0,0.
 0899797592,2.6434384514,0.8930909194\H,0,0.7894563514,0.80964256,-1.26
 21408533\H,0,0.1466478119,0.0859262891,1.6118851461\H,0,2.7374044098,-
 0.0981198806,0.2904993029\H,0,2.3903803414,-0.4431663407,1.8336875867\
 H,0,0.3834926953,-2.1760482007,0.9726619256\H,0,1.3469051167,-1.791658
 1716,-0.44297983\H,0,-1.2285910428,-2.5659393825,-0.7102436224\H,0,-0.
 5135026849,-1.4058656768,-1.8142168583\H,0,-2.7459735771,-0.6173677393
 ,-0.9421593363\H,0,-2.0998123285,-0.652675307,0.6875316651\H,0,-1.7645
 889774,1.6113456365,0.1322522992\H,0,-1.4776828524,1.2859491084,-1.566
 7100785\\Version=EM64L-G16RevA.03\State=1-A\HF=-346.5925386\RMSD=2.860
 e-09\Dipole=-0.1279784,-0.184686,0.2227837\Quadrupole=1.0733711,-1.303
 1064,0.2297353,0.402468,0.3999631,2.7721883\PG=C01 [X(C6H14N2)]\\@


 AN OPTIMIST IS A GUY
 THAT HAS NEVER HAD
 MUCH EXPERIENCE
   (CERTAIN MAXIMS OF ARCHY  -- DON MARQUIS)
 Job cpu time:       0 days  0 hours 53 minutes 31.8 seconds.
 Elapsed time:       0 days  0 hours 20 minutes 26.0 seconds.
 File lengths (MBytes):  RWF=    340 Int=      0 D2E=      0 Chk=     22 Scr=      1
 Normal termination of Gaussian 16 at Tue Jul  9 18:43:28 2024.
