 Entering Gaussian System, Link 0=g16
 Initial command:
 /opt/sw/arch/manual/gaussian/G16_A03/g16/l1.exe "/scratch/1380832/Gau-10689.inp" -scrdir="/scratch/1380832/"
 Entering Link 1 = /opt/sw/arch/manual/gaussian/G16_A03/g16/l1.exe PID=     10690.
  
 Copyright (c) 1988,1990,1992,1993,1995,1998,2003,2009,2016,
            Gaussian, Inc.  All Rights Reserved.
  
 This is part of the Gaussian(R) 16 program.  It is based on
 the Gaussian(R) 09 system (copyright 2009, Gaussian, Inc.),
 the Gaussian(R) 03 system (copyright 2003, Gaussian, Inc.),
 the Gaussian(R) 98 system (copyright 1998, Gaussian, Inc.),
 the Gaussian(R) 94 system (copyright 1995, Gaussian, Inc.),
 the Gaussian 92(TM) system (copyright 1992, Gaussian, Inc.),
 the Gaussian 90(TM) system (copyright 1990, Gaussian, Inc.),
 the Gaussian 88(TM) system (copyright 1988, Gaussian, Inc.),
 the Gaussian 86(TM) system (copyright 1986, Carnegie Mellon
 University), and the Gaussian 82(TM) system (copyright 1983,
 Carnegie Mellon University). Gaussian is a federally registered
 trademark of Gaussian, Inc.
  
 This software contains proprietary and confidential information,
 including trade secrets, belonging to Gaussian, Inc.
  
 This software is provided under written license and may be
 used, copied, transmitted, or stored only in accord with that
 written license.
  
 The following legend is applicable only to US Government
 contracts under FAR:
  
                    RESTRICTED RIGHTS LEGEND
  
 Use, reproduction and disclosure by the US Government is
 subject to restrictions as set forth in subparagraphs (a)
 and (c) of the Commercial Computer Software - Restricted
 Rights clause in FAR 52.227-19.
  
 Gaussian, Inc.
 340 Quinnipiac St., Bldg. 40, Wallingford CT 06492
  
  
 ---------------------------------------------------------------
 Warning -- This program may not be used in any manner that
 competes with the business of Gaussian, Inc. or will provide
 assistance to any competitor of Gaussian, Inc.  The licensee
 of this program is prohibited from giving any competitor of
 Gaussian, Inc. access to this program.  By using this program,
 the user acknowledges that Gaussian, Inc. is engaged in the
 business of creating and licensing software in the field of
 computational chemistry and represents and warrants to the
 licensee that it is not a competitor of Gaussian, Inc. and that
 it will not use this program in any manner prohibited above.
 ---------------------------------------------------------------
  

 Cite this work as:
 Gaussian 16, Revision A.03,
 M. J. Frisch, G. W. Trucks, H. B. Schlegel, G. E. Scuseria, 
 M. A. Robb, J. R. Cheeseman, G. Scalmani, V. Barone, 
 G. A. Petersson, H. Nakatsuji, X. Li, M. Caricato, A. V. Marenich, 
 J. Bloino, B. G. Janesko, R. Gomperts, B. Mennucci, H. P. Hratchian, 
 J. V. Ortiz, A. F. Izmaylov, J. L. Sonnenberg, D. Williams-Young, 
 F. Ding, F. Lipparini, F. Egidi, J. Goings, B. Peng, A. Petrone, 
 T. Henderson, D. Ranasinghe, V. G. Zakrzewski, J. Gao, N. Rega, 
 G. Zheng, W. Liang, M. Hada, M. Ehara, K. Toyota, R. Fukuda, 
 J. Hasegawa, M. Ishida, T. Nakajima, Y. Honda, O. Kitao, H. Nakai, 
 T. Vreven, K. Throssell, J. A. Montgomery, Jr., J. E. Peralta, 
 F. Ogliaro, M. J. Bearpark, J. J. Heyd, E. N. Brothers, K. N. Kudin, 
 V. N. Staroverov, T. A. Keith, R. Kobayashi, J. Normand, 
 K. Raghavachari, A. P. Rendell, J. C. Burant, S. S. Iyengar, 
 J. Tomasi, M. Cossi, J. M. Millam, M. Klene, C. Adamo, R. Cammi, 
 J. W. Ochterski, R. L. Martin, K. Morokuma, O. Farkas, 
 J. B. Foresman, and D. J. Fox, Gaussian, Inc., Wallingford CT, 2016.
 
 ******************************************
 Gaussian 16:  ES64L-G16RevA.03 25-Dec-2016
                17-Jul-2024 
 ******************************************
 %nprocshared=3
 Will use up to    3 processors via shared memory.
 %mem=6GB
 %Chk=GKXVJHDEWHKBFH-UHFFFAOYSA-N_conf_2_0.chk
 -------------------------------------------------------
 # opt=CalcFc B3LYP/6-31G** SCRF=(Solvent=water) scf=xqc
 -------------------------------------------------------
 1/10=4,18=20,19=15,26=3,38=1/1,3;
 2/9=110,12=2,17=6,18=5,40=1/2;
 3/5=1,6=6,7=101,11=2,25=1,30=1,70=2201,71=2,72=1,74=-5,140=1/1,2,3;
 4//1;
 5/5=2,8=3,13=1,38=5,53=1/2,8;
 8/6=4,10=90,11=11/1;
 11/6=1,8=1,9=11,15=111,16=1/1,2,10;
 10/6=1,13=1/2;
 6/7=2,8=2,9=2,10=2,28=1/1;
 7/10=1,18=20,25=1/1,2,3,16;
 1/10=4,18=20,19=15,26=3/3(2);
 2/9=110/2;
 99//99;
 2/9=110/2;
 3/5=1,6=6,7=101,11=2,25=1,30=1,70=2205,71=1,72=1,74=-5/1,2,3;
 4/5=5,16=3,69=1/1;
 5/5=2,8=3,13=1,38=5,53=1/2,8;
 7//1,2,3,16;
 1/18=20,19=15,26=3/3(-5);
 2/9=110/2;
 6/7=2,8=2,9=2,10=2,19=2,28=1/1;
 99/9=1/99;
 ----------------------------------
 GKXVJHDEWHKBFH-UHFFFAOYSA-N_conf_2
 ----------------------------------
 Symbolic Z-matrix:
 Charge =  0 Multiplicity = 1
 N                    -1.45814  -2.08047  -0.05907 
 C                    -1.07011  -1.21618   1.04861 
 C                     0.17846  -0.42918   0.71984 
 C                     0.14982   0.74081  -0.07552 
 C                    -1.12946   1.29631  -0.65915 
 N                    -1.63005   0.46404  -1.75097 
 C                     1.36025   1.40228  -0.35807 
 C                     2.57472   0.9229    0.13287 
 C                     2.60264  -0.23203   0.90558 
 C                     1.41565  -0.90526   1.19166 
 H                    -1.57652  -1.46717  -0.8771 
 H                    -2.38387  -2.45772   0.12594 
 H                    -0.90396  -1.83241   1.93993 
 H                    -1.88871  -0.53591   1.30714 
 H                    -0.95999   2.31132  -1.03815 
 H                    -1.89014   1.39081   0.12287 
 H                    -2.37761   0.96475  -2.22856 
 H                    -0.88088   0.35475  -2.43621 
 H                     1.36457   2.29995  -0.97267 
 H                     3.49922   1.44553  -0.09699 
 H                     3.5478   -0.617     1.27843 
 H                     1.45631  -1.82011   1.7796 
 

 GradGradGradGradGradGradGradGradGradGradGradGradGradGradGradGradGradGrad
 Berny optimization.
 Initialization pass.
                           ----------------------------
                           !    Initial Parameters    !
                           ! (Angstroms and Degrees)  !
 --------------------------                            --------------------------
 ! Name  Definition              Value          Derivative Info.                !
 --------------------------------------------------------------------------------
 ! R1    R(1,2)                  1.4576         calculate D2E/DX2 analytically  !
 ! R2    R(1,11)                 1.0292         calculate D2E/DX2 analytically  !
 ! R3    R(1,12)                 1.0166         calculate D2E/DX2 analytically  !
 ! R4    R(2,3)                  1.5121         calculate D2E/DX2 analytically  !
 ! R5    R(2,13)                 1.0963         calculate D2E/DX2 analytically  !
 ! R6    R(2,14)                 1.0953         calculate D2E/DX2 analytically  !
 ! R7    R(3,4)                  1.415          calculate D2E/DX2 analytically  !
 ! R8    R(3,10)                 1.4071         calculate D2E/DX2 analytically  !
 ! R9    R(4,5)                  1.5119         calculate D2E/DX2 analytically  !
 ! R10   R(4,7)                  1.408          calculate D2E/DX2 analytically  !
 ! R11   R(5,6)                  1.4613         calculate D2E/DX2 analytically  !
 ! R12   R(5,15)                 1.0966         calculate D2E/DX2 analytically  !
 ! R13   R(5,16)                 1.095          calculate D2E/DX2 analytically  !
 ! R14   R(6,17)                 1.0187         calculate D2E/DX2 analytically  !
 ! R15   R(6,18)                 1.0211         calculate D2E/DX2 analytically  !
 ! R16   R(7,8)                  1.3949         calculate D2E/DX2 analytically  !
 ! R17   R(7,19)                 1.0879         calculate D2E/DX2 analytically  !
 ! R18   R(8,9)                  1.3899         calculate D2E/DX2 analytically  !
 ! R19   R(8,20)                 1.0866         calculate D2E/DX2 analytically  !
 ! R20   R(9,10)                 1.3943         calculate D2E/DX2 analytically  !
 ! R21   R(9,21)                 1.0865         calculate D2E/DX2 analytically  !
 ! R22   R(10,22)                1.0882         calculate D2E/DX2 analytically  !
 ! A1    A(2,1,11)             106.3368         calculate D2E/DX2 analytically  !
 ! A2    A(2,1,12)             108.9144         calculate D2E/DX2 analytically  !
 ! A3    A(11,1,12)            105.1308         calculate D2E/DX2 analytically  !
 ! A4    A(1,2,3)              111.2977         calculate D2E/DX2 analytically  !
 ! A5    A(1,2,13)             108.9604         calculate D2E/DX2 analytically  !
 ! A6    A(1,2,14)             110.4074         calculate D2E/DX2 analytically  !
 ! A7    A(3,2,13)             110.1327         calculate D2E/DX2 analytically  !
 ! A8    A(3,2,14)             110.1931         calculate D2E/DX2 analytically  !
 ! A9    A(13,2,14)            105.6926         calculate D2E/DX2 analytically  !
 ! A10   A(2,3,4)              122.4016         calculate D2E/DX2 analytically  !
 ! A11   A(2,3,10)             118.4905         calculate D2E/DX2 analytically  !
 ! A12   A(4,3,10)             119.0799         calculate D2E/DX2 analytically  !
 ! A13   A(3,4,5)              122.5411         calculate D2E/DX2 analytically  !
 ! A14   A(3,4,7)              118.9363         calculate D2E/DX2 analytically  !
 ! A15   A(5,4,7)              118.5113         calculate D2E/DX2 analytically  !
 ! A16   A(4,5,6)              111.6559         calculate D2E/DX2 analytically  !
 ! A17   A(4,5,15)             110.043          calculate D2E/DX2 analytically  !
 ! A18   A(4,5,16)             110.1095         calculate D2E/DX2 analytically  !
 ! A19   A(6,5,15)             108.7762         calculate D2E/DX2 analytically  !
 ! A20   A(6,5,16)             110.1677         calculate D2E/DX2 analytically  !
 ! A21   A(15,5,16)            105.9195         calculate D2E/DX2 analytically  !
 ! A22   A(5,6,17)             108.7688         calculate D2E/DX2 analytically  !
 ! A23   A(5,6,18)             108.1204         calculate D2E/DX2 analytically  !
 ! A24   A(17,6,18)            106.0461         calculate D2E/DX2 analytically  !
 ! A25   A(4,7,8)              121.0901         calculate D2E/DX2 analytically  !
 ! A26   A(4,7,19)             120.293          calculate D2E/DX2 analytically  !
 ! A27   A(8,7,19)             118.616          calculate D2E/DX2 analytically  !
 ! A28   A(7,8,9)              119.9163         calculate D2E/DX2 analytically  !
 ! A29   A(7,8,20)             120.0675         calculate D2E/DX2 analytically  !
 ! A30   A(9,8,20)             120.013          calculate D2E/DX2 analytically  !
 ! A31   A(8,9,10)             119.8811         calculate D2E/DX2 analytically  !
 ! A32   A(8,9,21)             120.1771         calculate D2E/DX2 analytically  !
 ! A33   A(10,9,21)            119.9388         calculate D2E/DX2 analytically  !
 ! A34   A(3,10,9)             121.0884         calculate D2E/DX2 analytically  !
 ! A35   A(3,10,22)            119.8978         calculate D2E/DX2 analytically  !
 ! A36   A(9,10,22)            119.0093         calculate D2E/DX2 analytically  !
 ! D1    D(11,1,2,3)           -56.756          calculate D2E/DX2 analytically  !
 ! D2    D(11,1,2,13)         -178.3939         calculate D2E/DX2 analytically  !
 ! D3    D(11,1,2,14)           65.9504         calculate D2E/DX2 analytically  !
 ! D4    D(12,1,2,3)          -169.5844         calculate D2E/DX2 analytically  !
 ! D5    D(12,1,2,13)           68.7777         calculate D2E/DX2 analytically  !
 ! D6    D(12,1,2,14)          -46.878          calculate D2E/DX2 analytically  !
 ! D7    D(1,2,3,4)             79.9791         calculate D2E/DX2 analytically  !
 ! D8    D(1,2,3,10)           -98.0739         calculate D2E/DX2 analytically  !
 ! D9    D(13,2,3,4)          -159.0677         calculate D2E/DX2 analytically  !
 ! D10   D(13,2,3,10)           22.8793         calculate D2E/DX2 analytically  !
 ! D11   D(14,2,3,4)           -42.8505         calculate D2E/DX2 analytically  !
 ! D12   D(14,2,3,10)          139.0965         calculate D2E/DX2 analytically  !
 ! D13   D(2,3,4,5)             -0.0042         calculate D2E/DX2 analytically  !
 ! D14   D(2,3,4,7)           -178.7623         calculate D2E/DX2 analytically  !
 ! D15   D(10,3,4,5)           178.0377         calculate D2E/DX2 analytically  !
 ! D16   D(10,3,4,7)            -0.7203         calculate D2E/DX2 analytically  !
 ! D17   D(2,3,10,9)           179.1494         calculate D2E/DX2 analytically  !
 ! D18   D(2,3,10,22)           -0.0697         calculate D2E/DX2 analytically  !
 ! D19   D(4,3,10,9)             1.0304         calculate D2E/DX2 analytically  !
 ! D20   D(4,3,10,22)         -178.1887         calculate D2E/DX2 analytically  !
 ! D21   D(3,4,5,6)            -71.9689         calculate D2E/DX2 analytically  !
 ! D22   D(3,4,5,15)           167.134          calculate D2E/DX2 analytically  !
 ! D23   D(3,4,5,16)            50.7428         calculate D2E/DX2 analytically  !
 ! D24   D(7,4,5,6)            106.7942         calculate D2E/DX2 analytically  !
 ! D25   D(7,4,5,15)           -14.1029         calculate D2E/DX2 analytically  !
 ! D26   D(7,4,5,16)          -130.4942         calculate D2E/DX2 analytically  !
 ! D27   D(3,4,7,8)             -0.0476         calculate D2E/DX2 analytically  !
 ! D28   D(3,4,7,19)           179.6011         calculate D2E/DX2 analytically  !
 ! D29   D(5,4,7,8)           -178.8561         calculate D2E/DX2 analytically  !
 ! D30   D(5,4,7,19)             0.7926         calculate D2E/DX2 analytically  !
 ! D31   D(4,5,6,17)          -169.001          calculate D2E/DX2 analytically  !
 ! D32   D(4,5,6,18)           -54.2691         calculate D2E/DX2 analytically  !
 ! D33   D(15,5,6,17)          -47.3688         calculate D2E/DX2 analytically  !
 ! D34   D(15,5,6,18)           67.3631         calculate D2E/DX2 analytically  !
 ! D35   D(16,5,6,17)           68.3206         calculate D2E/DX2 analytically  !
 ! D36   D(16,5,6,18)         -176.9475         calculate D2E/DX2 analytically  !
 ! D37   D(4,7,8,9)              0.5325         calculate D2E/DX2 analytically  !
 ! D38   D(4,7,8,20)           179.8864         calculate D2E/DX2 analytically  !
 ! D39   D(19,7,8,9)          -179.1219         calculate D2E/DX2 analytically  !
 ! D40   D(19,7,8,20)            0.2319         calculate D2E/DX2 analytically  !
 ! D41   D(7,8,9,10)            -0.233          calculate D2E/DX2 analytically  !
 ! D42   D(7,8,9,21)           179.1358         calculate D2E/DX2 analytically  !
 ! D43   D(20,8,9,10)         -179.5872         calculate D2E/DX2 analytically  !
 ! D44   D(20,8,9,21)           -0.2184         calculate D2E/DX2 analytically  !
 ! D45   D(8,9,10,3)            -0.554          calculate D2E/DX2 analytically  !
 ! D46   D(8,9,10,22)          178.6719         calculate D2E/DX2 analytically  !
 ! D47   D(21,9,10,3)         -179.9243         calculate D2E/DX2 analytically  !
 ! D48   D(21,9,10,22)          -0.6984         calculate D2E/DX2 analytically  !
 --------------------------------------------------------------------------------
 Trust Radius=3.00D-01 FncErr=1.00D-07 GrdErr=1.00D-06 EigMax=2.50D+02 EigMin=1.00D-04
 Number of steps in this run=    116 maximum allowed number of steps=    132.
 GradGradGradGradGradGradGradGradGradGradGradGradGradGradGradGradGradGrad

                          Input orientation:                          
 ---------------------------------------------------------------------
 Center     Atomic      Atomic             Coordinates (Angstroms)
 Number     Number       Type             X           Y           Z
 ---------------------------------------------------------------------
      1          7           0       -1.458142   -2.080474   -0.059071
      2          6           0       -1.070113   -1.216184    1.048607
      3          6           0        0.178462   -0.429176    0.719836
      4          6           0        0.149825    0.740809   -0.075521
      5          6           0       -1.129460    1.296310   -0.659152
      6          7           0       -1.630047    0.464044   -1.750975
      7          6           0        1.360247    1.402281   -0.358075
      8          6           0        2.574720    0.922903    0.132874
      9          6           0        2.602639   -0.232035    0.905577
     10          6           0        1.415645   -0.905259    1.191661
     11          1           0       -1.576524   -1.467174   -0.877097
     12          1           0       -2.383866   -2.457723    0.125938
     13          1           0       -0.903957   -1.832409    1.939931
     14          1           0       -1.888709   -0.535913    1.307143
     15          1           0       -0.959987    2.311323   -1.038151
     16          1           0       -1.890143    1.390809    0.122868
     17          1           0       -2.377614    0.964754   -2.228560
     18          1           0       -0.880883    0.354751   -2.436205
     19          1           0        1.364570    2.299946   -0.972671
     20          1           0        3.499224    1.445528   -0.096994
     21          1           0        3.547797   -0.616997    1.278433
     22          1           0        1.456313   -1.820114    1.779602
 ---------------------------------------------------------------------
                    Distance matrix (angstroms):
                    1          2          3          4          5
     1  N    0.000000
     2  C    1.457571   0.000000
     3  C    2.451929   1.512089   0.000000
     4  C    3.247379   2.565489   1.415018   0.000000
     5  C    3.445403   3.038518   2.567016   1.511879   0.000000
     6  N    3.060501   3.312756   3.189585   2.460018   1.461277
     7  C    4.490246   3.839500   2.431613   1.408014   2.510083
     8  C    5.032007   4.324242   2.813306   2.440636   3.806269
     9  C    4.564780   3.805012   2.439262   2.815187   4.325827
    10  C    3.347255   2.509210   1.407088   2.432610   3.840570
    11  H    1.029232   2.006935   2.589906   2.915132   2.807884
    12  H    1.016617   2.029455   3.321633   4.085436   4.035179
    13  H    2.089178   1.096266   2.151587   3.434232   4.073692
    14  H    2.106560   1.095312   2.151632   2.774419   2.792816
    15  H    4.527100   4.099999   3.449191   2.150547   1.096636
    16  H    3.502790   2.885456   2.819192   2.150193   1.095046
    17  H    3.850393   4.147996   4.143622   3.327714   2.032451
    18  H    3.451712   3.827213   3.420139   2.604656   2.026386
    19  H    5.290600   4.730371   3.423381   2.170574   2.706615
    20  H    6.083552   5.410726   3.899896   3.422801   4.665084
    21  H    5.384246   4.662289   3.420486   3.901672   5.412182
    22  H    3.455799   2.698502   2.165806   3.421508   4.727139
                    6          7          8          9         10
     6  N    0.000000
     7  C    3.429624   0.000000
     8  C    4.630281   1.394912   0.000000
     9  C    5.045535   2.410673   1.389867   0.000000
    10  C    4.450881   2.780197   2.409702   1.394284   0.000000
    11  H    2.120408   4.138573   4.895441   4.708387   3.680841
    12  H    3.553557   5.399286   6.001355   5.516046   4.240542
    13  H    4.407232   4.568443   4.791492   3.990902   2.607694
    14  H    3.227833   4.133432   4.840377   4.519491   3.326937
    15  H    2.090344   2.583088   3.974061   4.789473   4.578437
    16  H    2.106616   3.285799   4.489325   4.840594   4.164431
    17  H    1.018653   4.202589   5.486687   6.004835   5.439088
    18  H    1.021143   3.230883   4.343288   4.862792   4.474716
    19  H    3.597780   1.087910   2.140780   3.386968   3.867852
    20  H    5.477991   2.155286   1.086593   2.150170   3.395310
    21  H    6.095575   3.397207   2.151854   1.086527   2.153299
    22  H    5.216126   3.868168   3.389202   2.144756   1.088250
                   11         12         13         14         15
    11  H    0.000000
    12  H    1.624521   0.000000
    13  H    2.919143   2.423164   0.000000
    14  H    2.394914   2.309498   1.746728   0.000000
    15  H    3.831852   5.111392   5.103197   3.803904   0.000000
    16  H    3.044069   3.880074   3.829284   2.261586   1.749429
    17  H    2.895249   4.154160   5.231836   3.871980   2.289102
    18  H    2.496827   4.090665   4.892317   3.977644   2.406031
    19  H    4.780205   6.155739   5.541283   4.880929   2.325507
    20  H    5.903865   7.063697   5.855078   5.909952   4.638959
    21  H    5.623859   6.316736   4.661858   5.437187   5.853353
    22  H    4.047310   4.229435   2.365740   3.614077   5.554008
                   16         17         18         19         20
    16  H    0.000000
    17  H    2.438927   0.000000
    18  H    2.939537   1.629548   0.000000
    19  H    3.552449   4.167006   3.311763   0.000000
    20  H    5.394128   6.269924   5.083999   2.460404   0.000000
    21  H    5.910822   7.064803   5.861402   4.282815   2.479550
    22  H    4.924791   6.206436   5.288246   4.955634   4.284801
                   21         22
    21  H    0.000000
    22  H    2.464340   0.000000
 Stoichiometry    C8H12N2
 Framework group  C1[X(C8H12N2)]
 Deg. of freedom    60
 Full point group                 C1      NOp   1
 Largest Abelian subgroup         C1      NOp   1
 Largest concise Abelian subgroup C1      NOp   1
                         Standard orientation:                         
 ---------------------------------------------------------------------
 Center     Atomic      Atomic             Coordinates (Angstroms)
 Number     Number       Type             X           Y           Z
 ---------------------------------------------------------------------
      1          7           0        1.957582    1.618826   -0.637946
      2          6           0        1.127420    1.533526    0.557073
      3          6           0       -0.116768    0.712327    0.304012
      4          6           0       -0.105654   -0.702633    0.310394
      5          6           0        1.149194   -1.504885    0.570250
      6          7           0        2.075123   -1.438379   -0.558272
      7          6           0       -1.301689   -1.394526    0.039672
      8          6           0       -2.485481   -0.708118   -0.230991
      9          6           0       -2.492808    0.681639   -0.246888
     10          6           0       -1.317537    1.385494    0.012642
     11          1           0        2.167961    0.649902   -0.914073
     12          1           0        2.855520    2.024203   -0.387170
     13          1           0        0.852970    2.546713    0.873188
     14          1           0        1.698495    1.108028    1.389258
     15          1           0        0.892474   -2.554957    0.754789
     16          1           0        1.640162   -1.150869    1.482801
     17          1           0        2.810502   -2.129583   -0.420036
     18          1           0        1.572095   -1.725760   -1.399168
     19          1           0       -1.316817   -2.482307    0.032475
     20          1           0       -3.398639   -1.258871   -0.439552
     21          1           0       -3.409311    1.220456   -0.471029
     22          1           0       -1.334413    2.472964   -0.024946
 ---------------------------------------------------------------------
 Rotational constants (GHZ):           1.9093115           1.1950003           0.8062131
 Standard basis: 6-31G(d,p) (6D, 7F)
 There are   210 symmetry adapted cartesian basis functions of A   symmetry.
 There are   210 symmetry adapted basis functions of A   symmetry.
   210 basis functions,   364 primitive gaussians,   210 cartesian basis functions
    37 alpha electrons       37 beta electrons
       nuclear repulsion energy       518.3646137198 Hartrees.
 NAtoms=   22 NActive=   22 NUniq=   22 SFac= 1.00D+00 NAtFMM=   60 NAOKFM=F Big=F
 Integral buffers will be    131072 words long.
 Raffenetti 2 integral format.
 Two-electron integral symmetry is turned on.
 Force inversion solution in PCM.
 ------------------------------------------------------------------------------
 Polarizable Continuum Model (PCM)
 =================================
 Model                : PCM.
 Atomic radii         : UFF (Universal Force Field).
 Polarization charges : Total charges.
 Charge compensation  : None.
 Solution method      : Matrix inversion.
 Cavity type          : Scaled VdW (van der Waals Surface) (Alpha=1.100).
 Cavity algorithm     : GePol (No added spheres)
                        Default sphere list used, NSphG=   22.
                        Lebedev-Laikov grids with approx.  5.0 points / Ang**2.
                        Smoothing algorithm: York/Karplus (Gamma=1.0000).
                        Polarization charges: spherical gaussians, with
                                              point-specific exponents (IZeta= 3).
                        Self-potential: point-specific (ISelfS= 7).
                        Self-field    : sphere-specific E.n sum rule (ISelfD= 2).
 1st derivatives      : Analytical E(r).r(x)/FMM algorithm (CHGder, D1EAlg=3).
                        Cavity 1st derivative terms included.
 2nd derivatives      : Analytical E(r).r(xy)/FMM algorithm (CHGder, D2EAlg=3).
                        Cavity 2nd derivative terms included.
 Solvent              : Water, Eps=  78.355300 Eps(inf)=   1.777849
 ------------------------------------------------------------------------------
 One-electron integrals computed using PRISM.
 NBasis=   210 RedAO= T EigKep=  4.15D-04  NBF=   210
 NBsUse=   210 1.00D-06 EigRej= -1.00D+00 NBFU=   210
 ExpMin= 1.61D-01 ExpMax= 4.17D+03 ExpMxC= 6.27D+02 IAcc=3 IRadAn=         5 AccDes= 0.00D+00
 Harris functional with IExCor=  402 and IRadAn=       5 diagonalized for initial guess.
 HarFok:  IExCor=  402 AccDes= 0.00D+00 IRadAn=         5 IDoV= 1 UseB2=F ITyADJ=14
 ICtDFT=  3500011 ScaDFX=  1.000000  1.000000  1.000000  1.000000
 FoFCou: FMM=F IPFlag=           0 FMFlag=      100000 FMFlg1=           0
         NFxFlg=           0 DoJE=T BraDBF=F KetDBF=T FulRan=T
         wScrn=  0.000000 ICntrl=       500 IOpCl=  0 I1Cent=   200000004 NGrid=           0
         NMat0=    1 NMatS0=      1 NMatT0=    0 NMatD0=    1 NMtDS0=    0 NMtDT0=    0
 Petite list used in FoFCou.
 Keep R1 ints in memory in canonical form, NReq=250131393.
 Requested convergence on RMS density matrix=1.00D-08 within  32 cycles.
 Requested convergence on MAX density matrix=1.00D-06.
 Requested convergence on             energy=1.00D-06.
 No special actions if energy rises.
 Inv3:  Mode=1 IEnd=     7863483.
 Iteration    1 A*A^-1 deviation from unit magnitude is 3.33D-15 for    721.
 Iteration    1 A*A^-1 deviation from orthogonality  is 2.78D-15 for   1064    229.
 Iteration    1 A^-1*A deviation from unit magnitude is 3.33D-15 for    721.
 Iteration    1 A^-1*A deviation from orthogonality  is 7.48D-14 for    866    840.
 Error on total polarization charges =  0.00851
 SCF Done:  E(RB3LYP) =  -421.593774318     A.U. after   12 cycles
            NFock= 12  Conv=0.40D-08     -V/T= 2.0096
 QCSCF skips out because SCF is already converged.
 DoSCS=F DFT=T ScalE2(SS,OS)=  1.000000  1.000000
 Range of M.O.s used for correlation:     1   210
 NBasis=   210 NAE=    37 NBE=    37 NFC=     0 NFV=     0
 NROrb=    210 NOA=    37 NOB=    37 NVA=   173 NVB=   173
 Symmetrizing basis deriv contribution to polar:
 IMax=3 JMax=2 DiffMx= 0.00D+00
 G2DrvN: will do    23 centers at a time, making    1 passes.
 Calling FoFCou, ICntrl=  3107 FMM=F I1Cent=   0 AccDes= 0.00D+00.
 NEqPCM:  Using equilibrium solvation (IEInf=0, Eps=  78.3553, EpsInf=   1.7778)
 G2PCM: DoFxE=T DoFxN=T DoGrad=T DoDP/DQ/DG/TGxP=FFFF NFrqRd=   0 IEInf=0 SqF1=F DoCFld=F IF1Alg=4.
 End of G2Drv F.D. properties file   721 does not exist.
 End of G2Drv F.D. properties file   722 does not exist.
 End of G2Drv F.D. properties file   788 does not exist.
          IDoAtm=1111111111111111111111
 NEqPCM:  Using equilibrium solvation (IEInf=0, Eps=  78.3553, EpsInf=   1.7778)
          Differentiating once with respect to nuclear coordinates.
 Keep R1 ints in memory in canonical form, NReq=252744007.
          There are    69 degrees of freedom in the 1st order CPHF.  IDoFFX=6 NUNeed=     0.
     63 vectors produced by pass  0 Test12= 9.28D-15 1.45D-09 XBig12= 1.14D-01 1.37D-01.
 AX will form    63 AO Fock derivatives at one time.
     63 vectors produced by pass  1 Test12= 9.28D-15 1.45D-09 XBig12= 2.16D-02 3.97D-02.
     63 vectors produced by pass  2 Test12= 9.28D-15 1.45D-09 XBig12= 1.50D-04 2.00D-03.
     63 vectors produced by pass  3 Test12= 9.28D-15 1.45D-09 XBig12= 6.53D-07 1.06D-04.
     63 vectors produced by pass  4 Test12= 9.28D-15 1.45D-09 XBig12= 6.73D-10 2.90D-06.
     38 vectors produced by pass  5 Test12= 9.28D-15 1.45D-09 XBig12= 6.20D-13 8.95D-08.
      2 vectors produced by pass  6 Test12= 9.28D-15 1.45D-09 XBig12= 5.85D-16 3.09D-09.
 InvSVY:  IOpt=1 It=  1 EMax= 5.55D-16
 Solved reduced A of dimension   355 with    69 vectors.
 End of Minotr F.D. properties file   721 does not exist.
 End of Minotr F.D. properties file   722 does not exist.
 End of Minotr F.D. properties file   788 does not exist.

 **********************************************************************

            Population analysis using the SCF density.

 **********************************************************************

 Orbital symmetries:
       Occupied  (A) (A) (A) (A) (A) (A) (A) (A) (A) (A) (A) (A)
                 (A) (A) (A) (A) (A) (A) (A) (A) (A) (A) (A) (A)
                 (A) (A) (A) (A) (A) (A) (A) (A) (A) (A) (A) (A)
                 (A)
       Virtual   (A) (A) (A) (A) (A) (A) (A) (A) (A) (A) (A) (A)
                 (A) (A) (A) (A) (A) (A) (A) (A) (A) (A) (A) (A)
                 (A) (A) (A) (A) (A) (A) (A) (A) (A) (A) (A) (A)
                 (A) (A) (A) (A) (A) (A) (A) (A) (A) (A) (A) (A)
                 (A) (A) (A) (A) (A) (A) (A) (A) (A) (A) (A) (A)
                 (A) (A) (A) (A) (A) (A) (A) (A) (A) (A) (A) (A)
                 (A) (A) (A) (A) (A) (A) (A) (A) (A) (A) (A) (A)
                 (A) (A) (A) (A) (A) (A) (A) (A) (A) (A) (A) (A)
                 (A) (A) (A) (A) (A) (A) (A) (A) (A) (A) (A) (A)
                 (A) (A) (A) (A) (A) (A) (A) (A) (A) (A) (A) (A)
                 (A) (A) (A) (A) (A) (A) (A) (A) (A) (A) (A) (A)
                 (A) (A) (A) (A) (A) (A) (A) (A) (A) (A) (A) (A)
                 (A) (A) (A) (A) (A) (A) (A) (A) (A) (A) (A) (A)
                 (A) (A) (A) (A) (A) (A) (A) (A) (A) (A) (A) (A)
                 (A) (A) (A) (A) (A)
 The electronic state is 1-A.
 Alpha  occ. eigenvalues --  -14.31987 -14.29307 -10.21078 -10.20154 -10.19653
 Alpha  occ. eigenvalues --  -10.19482 -10.18911 -10.18784 -10.18738 -10.18700
 Alpha  occ. eigenvalues --   -0.89454  -0.87008  -0.84357  -0.75628  -0.74846
 Alpha  occ. eigenvalues --   -0.66821  -0.64467  -0.59522  -0.56552  -0.50969
 Alpha  occ. eigenvalues --   -0.48632  -0.47564  -0.46603  -0.43859  -0.43562
 Alpha  occ. eigenvalues --   -0.42352  -0.40306  -0.40116  -0.38291  -0.37097
 Alpha  occ. eigenvalues --   -0.35442  -0.33428  -0.32597  -0.25287  -0.24804
 Alpha  occ. eigenvalues --   -0.24212  -0.21999
 Alpha virt. eigenvalues --   -0.00650  -0.00230   0.08735   0.10295   0.11185
 Alpha virt. eigenvalues --    0.12837   0.13915   0.15320   0.16065   0.16967
 Alpha virt. eigenvalues --    0.17939   0.18138   0.21379   0.21683   0.22229
 Alpha virt. eigenvalues --    0.23717   0.25071   0.26169   0.28799   0.31881
 Alpha virt. eigenvalues --    0.34144   0.35396   0.36780   0.49037   0.51116
 Alpha virt. eigenvalues --    0.51775   0.52728   0.53867   0.54925   0.55953
 Alpha virt. eigenvalues --    0.57577   0.59436   0.60299   0.60361   0.61943
 Alpha virt. eigenvalues --    0.62079   0.63256   0.64887   0.67853   0.70525
 Alpha virt. eigenvalues --    0.70876   0.70992   0.73743   0.75111   0.77621
 Alpha virt. eigenvalues --    0.79263   0.80644   0.81533   0.82070   0.82771
 Alpha virt. eigenvalues --    0.84605   0.85128   0.87499   0.88994   0.90481
 Alpha virt. eigenvalues --    0.92363   0.92771   0.93840   0.96295   0.97337
 Alpha virt. eigenvalues --    0.98024   0.99330   1.00418   1.04891   1.07077
 Alpha virt. eigenvalues --    1.10978   1.11954   1.17139   1.18872   1.20401
 Alpha virt. eigenvalues --    1.26088   1.27936   1.32265   1.33363   1.35126
 Alpha virt. eigenvalues --    1.36562   1.41414   1.41912   1.44123   1.45931
 Alpha virt. eigenvalues --    1.47378   1.56184   1.59627   1.63692   1.68364
 Alpha virt. eigenvalues --    1.75198   1.76579   1.76949   1.81977   1.85048
 Alpha virt. eigenvalues --    1.86232   1.86955   1.87933   1.88838   1.91007
 Alpha virt. eigenvalues --    1.91739   1.96540   1.96671   1.97665   1.99375
 Alpha virt. eigenvalues --    2.00965   2.05302   2.06962   2.08651   2.10278
 Alpha virt. eigenvalues --    2.13056   2.14837   2.17257   2.20380   2.22978
 Alpha virt. eigenvalues --    2.24545   2.26552   2.28636   2.30085   2.30762
 Alpha virt. eigenvalues --    2.32658   2.33548   2.35050   2.38543   2.38896
 Alpha virt. eigenvalues --    2.41839   2.43173   2.44506   2.45024   2.46892
 Alpha virt. eigenvalues --    2.48530   2.52383   2.53954   2.56347   2.57221
 Alpha virt. eigenvalues --    2.59866   2.64036   2.64068   2.65841   2.67851
 Alpha virt. eigenvalues --    2.69237   2.73242   2.75012   2.76964   2.78177
 Alpha virt. eigenvalues --    2.80571   2.84789   2.91303   2.92179   2.95797
 Alpha virt. eigenvalues --    2.97697   2.98722   3.04671   3.10028   3.20368
 Alpha virt. eigenvalues --    3.24119   3.28012   3.28664   3.29983   3.33329
 Alpha virt. eigenvalues --    3.35588   3.37841   3.43126   3.44627   3.47304
 Alpha virt. eigenvalues --    3.56938   3.58754   3.85110   3.99798   4.06291
 Alpha virt. eigenvalues --    4.14088   4.17282   4.21417   4.43447   4.46728
 Alpha virt. eigenvalues --    4.52873   4.66270   4.85141
          Condensed to atoms (all electrons):
               1          2          3          4          5          6
     1  N    6.891953   0.292159  -0.058237  -0.001179   0.001783  -0.026942
     2  C    0.292159   4.896970   0.373617  -0.063204  -0.014427   0.003713
     3  C   -0.058237   0.373617   4.814317   0.517741  -0.060560   0.001261
     4  C   -0.001179  -0.063204   0.517741   4.843838   0.369066  -0.056731
     5  C    0.001783  -0.014427  -0.060560   0.369066   4.918351   0.273984
     6  N   -0.026942   0.003713   0.001261  -0.056731   0.273984   6.806797
     7  C   -0.000003   0.007533  -0.023173   0.509829  -0.061438  -0.001514
     8  C    0.000016  -0.000108  -0.039306  -0.030610   0.007188  -0.000141
     9  C   -0.000160   0.006985  -0.031746  -0.039396  -0.000115   0.000023
    10  C    0.003469  -0.057981   0.514467  -0.026032   0.007383  -0.000097
    11  H    0.324278  -0.040575  -0.006132   0.001937  -0.004974   0.047849
    12  H    0.328460  -0.031402   0.006029   0.000207  -0.000012   0.001128
    13  H   -0.046216   0.375516  -0.025755   0.005930   0.000038  -0.000041
    14  H   -0.054671   0.366740  -0.031012  -0.012866   0.001476  -0.000089
    15  H   -0.000135   0.000167   0.005325  -0.036220   0.380966  -0.049148
    16  H    0.000218   0.001096  -0.007690  -0.024290   0.371567  -0.045452
    17  H    0.000479  -0.000123  -0.000001   0.005418  -0.029115   0.333106
    18  H    0.000809  -0.000167  -0.000095  -0.002628  -0.037338   0.330894
    19  H   -0.000000  -0.000139   0.004601  -0.038264  -0.009970   0.000171
    20  H   -0.000000   0.000009   0.000973   0.003808  -0.000179   0.000001
    21  H    0.000001  -0.000180   0.003790   0.000976   0.000009   0.000000
    22  H    0.000586  -0.009988  -0.038093   0.004667  -0.000142   0.000000
               7          8          9         10         11         12
     1  N   -0.000003   0.000016  -0.000160   0.003469   0.324278   0.328460
     2  C    0.007533  -0.000108   0.006985  -0.057981  -0.040575  -0.031402
     3  C   -0.023173  -0.039306  -0.031746   0.514467  -0.006132   0.006029
     4  C    0.509829  -0.030610  -0.039396  -0.026032   0.001937   0.000207
     5  C   -0.061438   0.007188  -0.000115   0.007383  -0.004974  -0.000012
     6  N   -0.001514  -0.000141   0.000023  -0.000097   0.047849   0.001128
     7  C    4.951927   0.510437  -0.032613  -0.057099  -0.000244   0.000009
     8  C    0.510437   4.850724   0.544258  -0.033375   0.000007  -0.000000
     9  C   -0.032613   0.544258   4.849762   0.512901   0.000003   0.000006
    10  C   -0.057099  -0.033375   0.512901   4.940897  -0.000284  -0.000130
    11  H   -0.000244   0.000007   0.000003  -0.000284   0.444055  -0.029641
    12  H    0.000009  -0.000000   0.000006  -0.000130  -0.029641   0.495942
    13  H   -0.000175   0.000002   0.000199  -0.010068   0.006140  -0.002169
    14  H   -0.000111   0.000018  -0.000283   0.005164  -0.001874  -0.006591
    15  H   -0.009127   0.000387  -0.000011  -0.000169   0.000602   0.000004
    16  H    0.003629  -0.000302   0.000032  -0.000063  -0.001453   0.000035
    17  H    0.000016   0.000006  -0.000001   0.000008  -0.000513  -0.000027
    18  H    0.003425  -0.000150  -0.000015  -0.000054  -0.002343   0.000005
    19  H    0.367782  -0.042484   0.004648   0.000612   0.000008  -0.000000
    20  H   -0.036705   0.368642  -0.040614   0.004382   0.000000   0.000000
    21  H    0.004414  -0.040649   0.368107  -0.036598   0.000000  -0.000000
    22  H    0.000584   0.004696  -0.043264   0.367929   0.000035  -0.000043
              13         14         15         16         17         18
     1  N   -0.046216  -0.054671  -0.000135   0.000218   0.000479   0.000809
     2  C    0.375516   0.366740   0.000167   0.001096  -0.000123  -0.000167
     3  C   -0.025755  -0.031012   0.005325  -0.007690  -0.000001  -0.000095
     4  C    0.005930  -0.012866  -0.036220  -0.024290   0.005418  -0.002628
     5  C    0.000038   0.001476   0.380966   0.371567  -0.029115  -0.037338
     6  N   -0.000041  -0.000089  -0.049148  -0.045452   0.333106   0.330894
     7  C   -0.000175  -0.000111  -0.009127   0.003629   0.000016   0.003425
     8  C    0.000002   0.000018   0.000387  -0.000302   0.000006  -0.000150
     9  C    0.000199  -0.000283  -0.000011   0.000032  -0.000001  -0.000015
    10  C   -0.010068   0.005164  -0.000169  -0.000063   0.000008  -0.000054
    11  H    0.006140  -0.001874   0.000602  -0.001453  -0.000513  -0.002343
    12  H   -0.002169  -0.006591   0.000004   0.000035  -0.000027   0.000005
    13  H    0.644859  -0.052610  -0.000003  -0.000030   0.000002   0.000003
    14  H   -0.052610   0.696165   0.000007   0.004248   0.000043  -0.000012
    15  H   -0.000003   0.000007   0.659763  -0.047279  -0.006300  -0.004441
    16  H   -0.000030   0.004248  -0.047279   0.621085  -0.001855   0.007004
    17  H    0.000002   0.000043  -0.006300  -0.001855   0.464925  -0.027934
    18  H    0.000003  -0.000012  -0.004441   0.007004  -0.027934   0.474047
    19  H    0.000002  -0.000000   0.006216   0.000161  -0.000046   0.000194
    20  H   -0.000000  -0.000000  -0.000008   0.000003  -0.000000   0.000002
    21  H   -0.000009   0.000003  -0.000000  -0.000000   0.000000  -0.000000
    22  H    0.005581   0.000175   0.000003  -0.000002  -0.000000   0.000001
              19         20         21         22
     1  N   -0.000000  -0.000000   0.000001   0.000586
     2  C   -0.000139   0.000009  -0.000180  -0.009988
     3  C    0.004601   0.000973   0.003790  -0.038093
     4  C   -0.038264   0.003808   0.000976   0.004667
     5  C   -0.009970  -0.000179   0.000009  -0.000142
     6  N    0.000171   0.000001   0.000000   0.000000
     7  C    0.367782  -0.036705   0.004414   0.000584
     8  C   -0.042484   0.368642  -0.040649   0.004696
     9  C    0.004648  -0.040614   0.368107  -0.043264
    10  C    0.000612   0.004382  -0.036598   0.367929
    11  H    0.000008   0.000000   0.000000   0.000035
    12  H   -0.000000   0.000000  -0.000000  -0.000043
    13  H    0.000002  -0.000000  -0.000009   0.005581
    14  H   -0.000000  -0.000000   0.000003   0.000175
    15  H    0.006216  -0.000008  -0.000000   0.000003
    16  H    0.000161   0.000003  -0.000000  -0.000002
    17  H   -0.000046  -0.000000   0.000000  -0.000000
    18  H    0.000194   0.000002  -0.000000   0.000001
    19  H    0.614085  -0.005751  -0.000198   0.000017
    20  H   -0.005751   0.612758  -0.005830  -0.000198
    21  H   -0.000198  -0.005830   0.613115  -0.005700
    22  H    0.000017  -0.000198  -0.005700   0.616496
 Mulliken charges:
               1
     1  N   -0.656670
     2  C   -0.106210
     3  C    0.079680
     4  C    0.068005
     5  C   -0.113541
     6  N   -0.618770
     7  C   -0.137384
     8  C   -0.099256
     9  C   -0.098706
    10  C   -0.135263
    11  H    0.263120
    12  H    0.238194
    13  H    0.098807
    14  H    0.086080
    15  H    0.099401
    16  H    0.119336
    17  H    0.261913
    18  H    0.258796
    19  H    0.098353
    20  H    0.098708
    21  H    0.098748
    22  H    0.096661
 Sum of Mulliken charges =  -0.00000
 Mulliken charges with hydrogens summed into heavy atoms:
               1
     1  N   -0.155356
     2  C    0.078676
     3  C    0.079680
     4  C    0.068005
     5  C    0.105196
     6  N   -0.098061
     7  C   -0.039031
     8  C   -0.000548
     9  C    0.000042
    10  C   -0.038602
 APT charges:
               1
     1  N   -1.139188
     2  C   -0.637594
     3  C   -0.289960
     4  C   -0.272055
     5  C   -0.655559
     6  N   -1.313936
     7  C   -0.506288
     8  C   -0.474803
     9  C   -0.469659
    10  C   -0.495433
    11  H    0.238025
    12  H    0.753224
    13  H    0.472961
    14  H    0.337825
    15  H    0.462030
    16  H    0.380496
    17  H    0.829638
    18  H    0.398197
    19  H    0.513486
    20  H    0.680626
    21  H    0.679462
    22  H    0.508505
 Sum of APT charges =  -0.00000
 APT charges with hydrogens summed into heavy atoms:
               1
     1  N   -0.147939
     2  C    0.173192
     3  C   -0.289960
     4  C   -0.272055
     5  C    0.186967
     6  N   -0.086101
     7  C    0.007198
     8  C    0.205823
     9  C    0.209803
    10  C    0.013071
 Electronic spatial extent (au):  <R**2>=           1492.6042
 Charge=             -0.0000 electrons
 Dipole moment (field-independent basis, Debye):
    X=              0.6259    Y=             -3.1608    Z=              1.1173  Tot=              3.4104
 Quadrupole moment (field-independent basis, Debye-Ang):
   XX=            -52.6395   YY=            -53.5206   ZZ=            -63.0394
   XY=             -4.7302   XZ=              3.5239   YZ=              4.6962
 Traceless Quadrupole moment (field-independent basis, Debye-Ang):
   XX=              3.7603   YY=              2.8792   ZZ=             -6.6396
   XY=             -4.7302   XZ=              3.5239   YZ=              4.6962
 Octapole moment (field-independent basis, Debye-Ang**2):
  XXX=             14.6815  YYY=            -18.2524  ZZZ=             -1.8101  XYY=              9.1711
  XXY=             -6.9718  XXZ=             -2.7566  XZZ=              7.6111  YZZ=             -8.0535
  YYZ=              2.9042  XYZ=              7.0132
 Hexadecapole moment (field-independent basis, Debye-Ang**3):
 XXXX=           -995.8824 YYYY=           -665.2726 ZZZZ=           -154.4480 XXXY=             -9.3164
 XXXZ=             14.6466 YYYX=            -33.4985 YYYZ=             25.0671 ZZZX=             -3.9623
 ZZZY=             11.8731 XXYY=           -248.7641 XXZZ=           -221.9490 YYZZ=           -151.7506
 XXYZ=              9.9913 YYXZ=              5.5852 ZZXY=            -12.8435
 N-N= 5.183646137198D+02 E-N=-2.015023336412D+03  KE= 4.175851731819D+02
  Exact polarizability:   0.000   0.000   0.000   0.000   0.000   0.000
 Approx polarizability: 173.262  -0.147 169.697  17.634   0.671  84.831
 D2PCM: PCM CHGder 2nd derivatives, FixD1E=F FixD2E=F DoIter=F DoCFld=F I1PDM=0
 Calling FoFJK, ICntrl=    100147 FMM=F ISym2X=0 I1Cent= 0 IOpClX= 0 NMat=1 NMatS=1 NMatT=0.
 ***** Axes restored to original set *****
 -------------------------------------------------------------------
 Center     Atomic                   Forces (Hartrees/Bohr)
 Number     Number              X              Y              Z
 -------------------------------------------------------------------
      1        7           0.002929901   -0.007982621   -0.015158500
      2        6          -0.005923524    0.003954369    0.004555980
      3        6           0.005251713   -0.002860977    0.002963017
      4        6           0.006389855    0.002932096    0.000152467
      5        6           0.002622945    0.009693064    0.000626571
      6        7          -0.003448877   -0.010504550   -0.006653058
      7        6          -0.001238123   -0.003485052    0.001784458
      8        6           0.001497430    0.003036503   -0.002303046
      9        6           0.001524107   -0.003708033    0.001839954
     10        6          -0.002022428    0.003132644   -0.002826533
     11        1          -0.001753142   -0.002184819    0.003290366
     12        1          -0.001673635   -0.001239542    0.001735463
     13        1           0.002751654    0.000275382   -0.000019037
     14        1          -0.000622516    0.006838084    0.004195028
     15        1           0.005277623    0.004153499    0.005865463
     16        1          -0.002958793   -0.002955029   -0.000956838
     17        1          -0.000587758   -0.001774288   -0.000360570
     18        1          -0.002426908    0.001342977    0.000263105
     19        1          -0.002770407   -0.000509952    0.000550182
     20        1          -0.000458461    0.000445404   -0.000027759
     21        1          -0.000125084    0.000099999    0.000275426
     22        1          -0.002235573    0.001300842    0.000207862
 -------------------------------------------------------------------
 Cartesian Forces:  Max     0.015158500 RMS     0.003957101
 FormGI is forming the generalized inverse of G from B-inverse, IUseBI=4.

 GradGradGradGradGradGradGradGradGradGradGradGradGradGradGradGradGradGrad
 Berny optimization.
 Internal  Forces:  Max     0.014597399 RMS     0.002883008
 Search for a local minimum.
 Step number   1 out of a maximum of  116
 All quantities printed in internal units (Hartrees-Bohrs-Radians)
 Mixed Optimization -- RFO/linear search
 Second derivative matrix not updated -- analytic derivatives used.
 ITU=  0
     Eigenvalues ---    0.00144   0.00292   0.00588   0.00754   0.01643
     Eigenvalues ---    0.01758   0.01775   0.02132   0.02427   0.02491
     Eigenvalues ---    0.02685   0.02807   0.02822   0.03673   0.04418
     Eigenvalues ---    0.05438   0.05547   0.06016   0.06631   0.08931
     Eigenvalues ---    0.09130   0.11020   0.11753   0.12381   0.12560
     Eigenvalues ---    0.13131   0.13396   0.15414   0.15812   0.17668
     Eigenvalues ---    0.18804   0.19285   0.19434   0.19577   0.20792
     Eigenvalues ---    0.22112   0.23266   0.26163   0.30155   0.31372
     Eigenvalues ---    0.32130   0.32290   0.32860   0.33123   0.35493
     Eigenvalues ---    0.35533   0.35771   0.36019   0.36648   0.37766
     Eigenvalues ---    0.39125   0.40981   0.41191   0.43551   0.44337
     Eigenvalues ---    0.44718   0.46500   0.46570   0.50308   0.59936
 RFO step:  Lambda=-4.94411131D-03 EMin= 1.43723260D-03
 Linear search not attempted -- first point.
 Iteration  1 RMS(Cart)=  0.03947414 RMS(Int)=  0.00151825
 Iteration  2 RMS(Cart)=  0.00150984 RMS(Int)=  0.00015378
 Iteration  3 RMS(Cart)=  0.00000239 RMS(Int)=  0.00015377
 Iteration  4 RMS(Cart)=  0.00000000 RMS(Int)=  0.00015377
 Variable       Old X    -DE/DX   Delta X   Delta X   Delta X     New X
                                 (Linear)    (Quad)   (Total)
    R1        2.75441   0.01460   0.00000   0.03588   0.03588   2.79029
    R2        1.94497  -0.00371   0.00000  -0.00590  -0.00590   1.93907
    R3        1.92113   0.00230   0.00000   0.00622   0.00622   1.92735
    R4        2.85743   0.00342   0.00000   0.00998   0.00998   2.86742
    R5        2.07164   0.00025   0.00000  -0.00043  -0.00043   2.07121
    R6        2.06984   0.00570   0.00000   0.01382   0.01382   2.08366
    R7        2.67400  -0.00074   0.00000  -0.00169  -0.00170   2.67230
    R8        2.65901  -0.00420   0.00000  -0.01166  -0.01166   2.64736
    R9        2.85704   0.00174   0.00000   0.00761   0.00761   2.86465
   R10        2.66076  -0.00472   0.00000  -0.01282  -0.01283   2.64793
   R11        2.76141   0.01348   0.00000   0.03093   0.03093   2.79234
   R12        2.07234   0.00263   0.00000   0.00627   0.00627   2.07861
   R13        2.06934   0.00112   0.00000   0.00161   0.00161   2.07095
   R14        1.92498  -0.00027   0.00000   0.00017   0.00017   1.92514
   R15        1.92968  -0.00210   0.00000  -0.00427  -0.00427   1.92541
   R16        2.63600   0.00017   0.00000   0.00143   0.00142   2.63742
   R17        2.05585  -0.00074   0.00000  -0.00120  -0.00120   2.05466
   R18        2.62647   0.00326   0.00000   0.00798   0.00799   2.63446
   R19        2.05336  -0.00017   0.00000  -0.00097  -0.00097   2.05240
   R20        2.63482   0.00098   0.00000   0.00283   0.00284   2.63766
   R21        2.05324  -0.00005   0.00000  -0.00061  -0.00061   2.05263
   R22        2.05649  -0.00106   0.00000  -0.00200  -0.00200   2.05450
    A1        1.85593   0.00058   0.00000  -0.00777  -0.00781   1.84811
    A2        1.90092  -0.00183   0.00000  -0.01821  -0.01825   1.88267
    A3        1.83488  -0.00008   0.00000   0.00884   0.00874   1.84362
    A4        1.94251   0.00323   0.00000   0.00067   0.00049   1.94300
    A5        1.90172  -0.00115   0.00000  -0.00941  -0.00968   1.89204
    A6        1.92697   0.00447   0.00000   0.04406   0.04404   1.97101
    A7        1.92218  -0.00391   0.00000  -0.02941  -0.02966   1.89252
    A8        1.92323  -0.00346   0.00000  -0.01501  -0.01531   1.90792
    A9        1.84468   0.00067   0.00000   0.00931   0.00897   1.85365
   A10        2.13631   0.00166   0.00000  -0.00226  -0.00233   2.13398
   A11        2.06805  -0.00034   0.00000   0.00957   0.00950   2.07754
   A12        2.07834  -0.00129   0.00000  -0.00668  -0.00674   2.07160
   A13        2.13875  -0.00029   0.00000  -0.00481  -0.00481   2.13394
   A14        2.07583   0.00101   0.00000   0.00217   0.00217   2.07800
   A15        2.06841  -0.00072   0.00000   0.00267   0.00267   2.07109
   A16        1.94876  -0.00072   0.00000  -0.00695  -0.00731   1.94146
   A17        1.92061  -0.00516   0.00000  -0.02494  -0.02514   1.89547
   A18        1.92177   0.00177   0.00000   0.00432   0.00366   1.92544
   A19        1.89850   0.00785   0.00000   0.06377   0.06409   1.96259
   A20        1.92279  -0.00392   0.00000  -0.04538  -0.04538   1.87741
   A21        1.84864   0.00027   0.00000   0.01063   0.01116   1.85981
   A22        1.89837   0.00264   0.00000   0.00603   0.00602   1.90439
   A23        1.88706   0.00051   0.00000   0.00743   0.00741   1.89447
   A24        1.85085  -0.00124   0.00000  -0.00361  -0.00365   1.84720
   A25        2.11342   0.00197   0.00000   0.00864   0.00864   2.12206
   A26        2.09951  -0.00379   0.00000  -0.02418  -0.02418   2.07533
   A27        2.07024   0.00182   0.00000   0.01556   0.01556   2.08580
   A28        2.09293  -0.00229   0.00000  -0.00882  -0.00883   2.08411
   A29        2.09557   0.00058   0.00000   0.00041   0.00038   2.09596
   A30        2.09462   0.00171   0.00000   0.00852   0.00850   2.10312
   A31        2.09232  -0.00190   0.00000  -0.00615  -0.00615   2.08617
   A32        2.09749   0.00106   0.00000   0.00453   0.00449   2.10197
   A33        2.09333   0.00084   0.00000   0.00176   0.00171   2.09504
   A34        2.11339   0.00250   0.00000   0.01102   0.01101   2.12440
   A35        2.09261  -0.00340   0.00000  -0.01904  -0.01910   2.07352
   A36        2.07710   0.00091   0.00000   0.00821   0.00816   2.08526
    D1       -0.99058  -0.00285   0.00000  -0.08879  -0.08886  -1.07944
    D2       -3.11356   0.00074   0.00000  -0.04612  -0.04607   3.12355
    D3        1.15105  -0.00190   0.00000  -0.07657  -0.07647   1.07458
    D4       -2.95981  -0.00220   0.00000  -0.08673  -0.08685  -3.04666
    D5        1.20040   0.00139   0.00000  -0.04406  -0.04406   1.15633
    D6       -0.81817  -0.00125   0.00000  -0.07450  -0.07446  -0.89264
    D7        1.39590   0.00310   0.00000   0.02577   0.02564   1.42154
    D8       -1.71171   0.00208   0.00000   0.00406   0.00388  -1.70783
    D9       -2.77626   0.00114   0.00000  -0.00548  -0.00548  -2.78173
   D10        0.39932   0.00012   0.00000  -0.02719  -0.02724   0.37208
   D11       -0.74788  -0.00240   0.00000  -0.02036  -0.02015  -0.76804
   D12        2.42769  -0.00342   0.00000  -0.04207  -0.04191   2.38578
   D13       -0.00007  -0.00092   0.00000  -0.01520  -0.01511  -0.01519
   D14       -3.11999  -0.00118   0.00000  -0.01740  -0.01728  -3.13727
   D15        3.10734   0.00012   0.00000   0.00693   0.00688   3.11422
   D16       -0.01257  -0.00013   0.00000   0.00474   0.00471  -0.00786
   D17        3.12675   0.00082   0.00000   0.00910   0.00910   3.13585
   D18       -0.00122   0.00018   0.00000  -0.00777  -0.00764  -0.00886
   D19        0.01798  -0.00022   0.00000  -0.01195  -0.01195   0.00603
   D20       -3.10998  -0.00087   0.00000  -0.02881  -0.02869  -3.13867
   D21       -1.25609   0.00224   0.00000  -0.00541  -0.00546  -1.26155
   D22        2.91704  -0.00370   0.00000  -0.06440  -0.06429   2.85275
   D23        0.88563  -0.00202   0.00000  -0.06517  -0.06519   0.82044
   D24        1.86391   0.00251   0.00000  -0.00323  -0.00331   1.86060
   D25       -0.24614  -0.00342   0.00000  -0.06222  -0.06214  -0.30828
   D26       -2.27755  -0.00174   0.00000  -0.06299  -0.06304  -2.34059
   D27       -0.00083   0.00038   0.00000   0.00502   0.00504   0.00421
   D28        3.13463   0.00043   0.00000   0.01134   0.01128  -3.13728
   D29       -3.12163   0.00013   0.00000   0.00301   0.00304  -3.11859
   D30        0.01383   0.00018   0.00000   0.00933   0.00928   0.02312
   D31       -2.94962  -0.00069   0.00000  -0.09792  -0.09777  -3.04740
   D32       -0.94717  -0.00051   0.00000  -0.09516  -0.09499  -1.04216
   D33       -0.82674  -0.00231   0.00000  -0.09058  -0.09024  -0.91698
   D34        1.17571  -0.00214   0.00000  -0.08782  -0.08746   1.08825
   D35        1.19242   0.00032   0.00000  -0.06654  -0.06706   1.12536
   D36       -3.08832   0.00049   0.00000  -0.06378  -0.06427   3.13059
   D37        0.00929  -0.00028   0.00000  -0.00773  -0.00772   0.00157
   D38        3.13961   0.00009   0.00000   0.00414   0.00416  -3.13942
   D39       -3.12627  -0.00030   0.00000  -0.01381  -0.01387  -3.14013
   D40        0.00405   0.00006   0.00000  -0.00194  -0.00199   0.00206
   D41       -0.00407  -0.00010   0.00000   0.00050   0.00052  -0.00355
   D42        3.12651   0.00049   0.00000   0.01485   0.01492   3.14143
   D43       -3.13439  -0.00046   0.00000  -0.01131  -0.01136   3.13744
   D44       -0.00381   0.00013   0.00000   0.00303   0.00304  -0.00077
   D45       -0.00967   0.00034   0.00000   0.00938   0.00938  -0.00029
   D46        3.11841   0.00095   0.00000   0.02589   0.02602  -3.13875
   D47       -3.14027  -0.00024   0.00000  -0.00495  -0.00498   3.13794
   D48       -0.01219   0.00036   0.00000   0.01156   0.01167  -0.00052
         Item               Value     Threshold  Converged?
 Maximum Force            0.014597     0.000450     NO 
 RMS     Force            0.002883     0.000300     NO 
 Maximum Displacement     0.156885     0.001800     NO 
 RMS     Displacement     0.039393     0.001200     NO 
 Predicted change in Energy=-2.751440D-03
 GradGradGradGradGradGradGradGradGradGradGradGradGradGradGradGradGradGrad

                          Input orientation:                          
 ---------------------------------------------------------------------
 Center     Atomic      Atomic             Coordinates (Angstroms)
 Number     Number       Type             X           Y           Z
 ---------------------------------------------------------------------
      1          7           0       -1.471518   -2.093919   -0.069508
      2          6           0       -1.078701   -1.202660    1.040254
      3          6           0        0.184335   -0.430482    0.707246
      4          6           0        0.166116    0.742052   -0.083049
      5          6           0       -1.114083    1.301907   -0.670947
      6          7           0       -1.604517    0.461779   -1.783191
      7          6           0        1.373673    1.399393   -0.353498
      8          6           0        2.591102    0.921705    0.133905
      9          6           0        2.611237   -0.238003    0.907322
     10          6           0        1.414455   -0.900249    1.185476
     11          1           0       -1.659545   -1.479908   -0.869846
     12          1           0       -2.368766   -2.515443    0.170236
     13          1           0       -0.885228   -1.817984    1.926394
     14          1           0       -1.874621   -0.494695    1.324998
     15          1           0       -0.933284    2.342373   -0.978578
     16          1           0       -1.900808    1.333795    0.091314
     17          1           0       -2.411475    0.912817   -2.211227
     18          1           0       -0.887400    0.430518   -2.506300
     19          1           0        1.356301    2.302967   -0.958001
     20          1           0        3.512513    1.451719   -0.088942
     21          1           0        3.549376   -0.624586    1.295000
     22          1           0        1.430837   -1.803096    1.790940
 ---------------------------------------------------------------------
                    Distance matrix (angstroms):
                    1          2          3          4          5
     1  N    0.000000
     2  C    1.476556   0.000000
     3  C    2.472290   1.517371   0.000000
     4  C    3.274868   2.567739   1.414120   0.000000
     5  C    3.467150   3.033532   2.566414   1.515907   0.000000
     6  N    3.079933   3.319440   3.193493   2.470663   1.477643
     7  C    4.514310   3.837625   2.426550   1.401226   2.509822
     8  C    5.063619   4.336110   2.819513   2.441290   3.810608
     9  C    4.589936   3.816265   2.442730   2.814242   4.329003
    10  C    3.365809   2.515624   1.400920   2.421705   3.832663
    11  H    1.026112   2.015621   2.643560   2.981475   2.841758
    12  H    1.019909   2.035829   3.339726   4.135342   4.105360
    13  H    2.098452   1.096038   2.134350   3.420084   4.065991
    14  H    2.159781   1.102625   2.150591   2.770695   2.791056
    15  H    4.560350   4.082167   3.432172   2.138149   1.099952
    16  H    3.458234   2.830186   2.799977   2.157021   1.095899
    17  H    3.809323   4.101666   4.130396   3.346981   2.051117
    18  H    3.556956   3.909209   3.495257   2.660657   2.044316
    19  H    5.302696   4.712926   3.408562   2.149078   2.680917
    20  H    6.116575   5.422182   3.905555   3.420823   4.665465
    21  H    5.406495   4.670991   3.421495   3.900405   5.415180
    22  H    3.459698   2.687347   2.147610   3.404282   4.709411
                    6          7          8          9         10
     6  N    0.000000
     7  C    3.434059   0.000000
     8  C    4.635731   1.395665   0.000000
     9  C    5.049865   2.408796   1.394096   0.000000
    10  C    4.447729   2.767392   2.410356   1.395790   0.000000
    11  H    2.146480   4.213953   4.984301   4.789597   3.742970
    12  H    3.641950   5.441148   6.034533   5.525438   4.237018
    13  H    4.413130   4.544454   4.775330   3.969901   2.584518
    14  H    3.263225   4.117807   4.834001   4.512568   3.316920
    15  H    2.152810   2.569433   3.959446   4.772692   4.550781
    16  H    2.088533   3.305206   4.510974   4.847161   4.144769
    17  H    1.018741   4.244439   5.524988   6.023070   5.427941
    18  H    1.018883   3.268903   4.394533   4.933579   4.549581
    19  H    3.582925   1.087277   2.150552   3.392760   3.854668
    20  H    5.480370   2.155774   1.086082   2.158703   3.399668
    21  H    6.100660   3.398194   2.158112   1.086206   2.155429
    22  H    5.207441   3.854584   3.393600   2.150266   1.087193
                   11         12         13         14         15
    11  H    0.000000
    12  H    1.630061   0.000000
    13  H    2.921100   2.402379   0.000000
    14  H    2.415419   2.379302   1.758315   0.000000
    15  H    3.892186   5.194108   5.074421   3.773796   0.000000
    16  H    2.983114   3.878382   3.785847   2.205910   1.760114
    17  H    2.844264   4.174465   5.187159   3.843721   2.397521
    18  H    2.631334   4.246997   4.970367   4.063186   2.447699
    19  H    4.838723   6.194038   5.506943   4.845395   2.290016
    20  H    5.996201   7.098943   5.838892   5.899912   4.620587
    21  H    5.705347   6.313861   4.635576   5.425634   5.836629
    22  H    4.090806   4.191790   2.320070   3.585397   5.517628
                   16         17         18         19         20
    16  H    0.000000
    17  H    2.395767   0.000000
    18  H    2.930957   1.625573   0.000000
    19  H    3.556559   4.207045   3.307187   0.000000
    20  H    5.417604   6.315706   5.123056   2.475709   0.000000
    21  H    5.915118   7.084418   5.937012   4.296063   2.495536
    22  H    4.881463   6.177127   5.369314   4.941861   4.296644
                   21         22
    21  H    0.000000
    22  H    2.474479   0.000000
 Stoichiometry    C8H12N2
 Framework group  C1[X(C8H12N2)]
 Deg. of freedom    60
 Full point group                 C1      NOp   1
 Largest Abelian subgroup         C1      NOp   1
 Largest concise Abelian subgroup C1      NOp   1
                         Standard orientation:                         
 ---------------------------------------------------------------------
 Center     Atomic      Atomic             Coordinates (Angstroms)
 Number     Number       Type             X           Y           Z
 ---------------------------------------------------------------------
      1          7           0        1.990288    1.614159   -0.639800
      2          6           0        1.144858    1.516115    0.566787
      3          6           0       -0.112417    0.711012    0.295709
      4          6           0       -0.120783   -0.703027    0.308243
      5          6           0        1.129813   -1.517370    0.574379
      6          7           0        2.057620   -1.464344   -0.574443
      7          6           0       -1.319308   -1.378950    0.043478
      8          6           0       -2.500506   -0.690248   -0.236414
      9          6           0       -2.492032    0.703686   -0.255933
     10          6           0       -1.304728    1.388185    0.008639
     11          1           0        2.257125    0.651629   -0.874828
     12          1           0        2.857017    2.083319   -0.377346
     13          1           0        0.850290    2.528494    0.866153
     14          1           0        1.676642    1.082455    1.429879
     15          1           0        0.831846   -2.545739    0.826505
     16          1           0        1.661837   -1.123333    1.447694
     17          1           0        2.841467   -2.091058   -0.399380
     18          1           0        1.580648   -1.837764   -1.393697
     19          1           0       -1.323815   -2.466123    0.057765
     20          1           0       -3.416360   -1.238768   -0.436192
     21          1           0       -3.401752    1.256468   -0.472001
     22          1           0       -1.299690    2.475290   -0.004182
 ---------------------------------------------------------------------
 Rotational constants (GHZ):           1.9023390           1.1872788           0.8027060
 Standard basis: 6-31G(d,p) (6D, 7F)
 There are   210 symmetry adapted cartesian basis functions of A   symmetry.
 There are   210 symmetry adapted basis functions of A   symmetry.
   210 basis functions,   364 primitive gaussians,   210 cartesian basis functions
    37 alpha electrons       37 beta electrons
       nuclear repulsion energy       517.2230721986 Hartrees.
 NAtoms=   22 NActive=   22 NUniq=   22 SFac= 1.00D+00 NAtFMM=   60 NAOKFM=F Big=F
 Integral buffers will be    131072 words long.
 Raffenetti 2 integral format.
 Two-electron integral symmetry is turned on.
 ------------------------------------------------------------------------------
 Polarizable Continuum Model (PCM)
 =================================
 Model                : PCM.
 Atomic radii         : UFF (Universal Force Field).
 Polarization charges : Total charges.
 Charge compensation  : None.
 Solution method      : Matrix inversion.
 Cavity type          : Scaled VdW (van der Waals Surface) (Alpha=1.100).
 Cavity algorithm     : GePol (No added spheres)
                        Default sphere list used, NSphG=   22.
                        Lebedev-Laikov grids with approx.  5.0 points / Ang**2.
                        Smoothing algorithm: York/Karplus (Gamma=1.0000).
                        Polarization charges: spherical gaussians, with
                                              point-specific exponents (IZeta= 3).
                        Self-potential: point-specific (ISelfS= 7).
                        Self-field    : sphere-specific E.n sum rule (ISelfD= 2).
 1st derivatives      : Analytical E(r).r(x)/FMM algorithm (CHGder, D1EAlg=3).
                        Cavity 1st derivative terms included.
 Solvent              : Water, Eps=  78.355300 Eps(inf)=   1.777849
 ------------------------------------------------------------------------------
 One-electron integrals computed using PRISM.
 NBasis=   210 RedAO= T EigKep=  4.09D-04  NBF=   210
 NBsUse=   210 1.00D-06 EigRej= -1.00D+00 NBFU=   210
 Initial guess from the checkpoint file:  "GKXVJHDEWHKBFH-UHFFFAOYSA-N_conf_2_0.chk"
 B after Tr=    -0.000000   -0.000000   -0.000000
         Rot=    0.999991    0.000328    0.000977    0.004120 Ang=   0.49 deg.
 ExpMin= 1.61D-01 ExpMax= 4.17D+03 ExpMxC= 6.27D+02 IAcc=2 IRadAn=         4 AccDes= 0.00D+00
 Harris functional with IExCor=  402 and IRadAn=       4 diagonalized for initial guess.
 HarFok:  IExCor=  402 AccDes= 0.00D+00 IRadAn=         4 IDoV= 1 UseB2=F ITyADJ=14
 ICtDFT=  3500011 ScaDFX=  1.000000  1.000000  1.000000  1.000000
 FoFCou: FMM=F IPFlag=           0 FMFlag=      100000 FMFlg1=           0
         NFxFlg=           0 DoJE=T BraDBF=F KetDBF=T FulRan=T
         wScrn=  0.000000 ICntrl=       500 IOpCl=  0 I1Cent=   200000004 NGrid=           0
         NMat0=    1 NMatS0=      1 NMatT0=    0 NMatD0=    1 NMtDS0=    0 NMtDT0=    0
 Petite list used in FoFCou.
 Keep R1 ints in memory in canonical form, NReq=250131393.
 Requested convergence on RMS density matrix=1.00D-08 within  32 cycles.
 Requested convergence on MAX density matrix=1.00D-06.
 Requested convergence on             energy=1.00D-06.
 No special actions if energy rises.
 Inv3:  Mode=1 IEnd=     7892652.
 Iteration    1 A*A^-1 deviation from unit magnitude is 3.11D-15 for   1307.
 Iteration    1 A*A^-1 deviation from orthogonality  is 1.53D-15 for    239     30.
 Iteration    1 A^-1*A deviation from unit magnitude is 3.33D-15 for    750.
 Iteration    1 A^-1*A deviation from orthogonality  is 2.11D-15 for   1188    569.
 Error on total polarization charges =  0.00853
 SCF Done:  E(RB3LYP) =  -421.596556569     A.U. after   10 cycles
            NFock= 10  Conv=0.77D-08     -V/T= 2.0098
 QCSCF skips out because SCF is already converged.
 D1PCM: PCM CHGder 1st derivatives, ID1Alg=3 FixD1E=F DoIter=F DoCFld=F I1PDM=0.
 Calling FoFJK, ICntrl=      2127 FMM=F ISym2X=0 I1Cent= 0 IOpClX= 0 NMat=1 NMatS=1 NMatT=0.
 ***** Axes restored to original set *****
 -------------------------------------------------------------------
 Center     Atomic                   Forces (Hartrees/Bohr)
 Number     Number              X              Y              Z
 -------------------------------------------------------------------
      1        7           0.000172919   -0.000022297   -0.001459141
      2        6          -0.000423866    0.000573862    0.000697472
      3        6           0.000234888   -0.000323062    0.000142581
      4        6          -0.000125213   -0.000181261    0.000295247
      5        6           0.000077925    0.001153235    0.000109366
      6        7           0.000397720   -0.000936549   -0.000779461
      7        6           0.000172723   -0.000133884   -0.000199446
      8        6           0.000043413    0.000032804   -0.000066775
      9        6           0.000032424   -0.000104183   -0.000007882
     10        6           0.000105495    0.000038995   -0.000005924
     11        1          -0.000437713   -0.000463176    0.000367471
     12        1           0.000229605   -0.000388770    0.000244168
     13        1          -0.000100052   -0.000079116    0.000014592
     14        1           0.000224770    0.000446277    0.000126835
     15        1           0.000563184    0.000162350    0.000560643
     16        1          -0.000314313   -0.000110012   -0.000254840
     17        1          -0.000317638   -0.000379913    0.000339267
     18        1          -0.000368099    0.000514018   -0.000395525
     19        1          -0.000083426    0.000055843    0.000069008
     20        1          -0.000015515    0.000030816    0.000008361
     21        1          -0.000007795    0.000010423    0.000027305
     22        1          -0.000061437    0.000103601    0.000166679
 -------------------------------------------------------------------
 Cartesian Forces:  Max     0.001459141 RMS     0.000378941

 GradGradGradGradGradGradGradGradGradGradGradGradGradGradGradGradGradGrad
 Berny optimization.
 Using GEDIIS/GDIIS optimizer.
 FormGI is forming the generalized inverse of G from B-inverse, IUseBI=4.
 Internal  Forces:  Max     0.001174049 RMS     0.000271642
 Search for a local minimum.
 Step number   2 out of a maximum of  116
 All quantities printed in internal units (Hartrees-Bohrs-Radians)
 Mixed Optimization -- En-DIIS/RFO-DIIS
 Update second derivatives using D2CorX and points    1    2
 DE= -2.78D-03 DEPred=-2.75D-03 R= 1.01D+00
 TightC=F SS=  1.41D+00  RLast= 3.36D-01 DXNew= 5.0454D-01 1.0086D+00
 Trust test= 1.01D+00 RLast= 3.36D-01 DXMaxT set to 5.05D-01
 ITU=  1  0
 Use linear search instead of GDIIS.
     Eigenvalues ---    0.00144   0.00292   0.00594   0.00753   0.01647
     Eigenvalues ---    0.01759   0.01775   0.02132   0.02428   0.02492
     Eigenvalues ---    0.02685   0.02797   0.02820   0.03671   0.04429
     Eigenvalues ---    0.05439   0.05549   0.06002   0.06622   0.08938
     Eigenvalues ---    0.09133   0.11020   0.11752   0.12380   0.12568
     Eigenvalues ---    0.13033   0.13417   0.15415   0.15776   0.17674
     Eigenvalues ---    0.18811   0.19291   0.19447   0.19577   0.20785
     Eigenvalues ---    0.22099   0.23242   0.26175   0.30143   0.31372
     Eigenvalues ---    0.32114   0.32305   0.32817   0.33091   0.35471
     Eigenvalues ---    0.35534   0.35766   0.36019   0.36549   0.37068
     Eigenvalues ---    0.38736   0.40973   0.41186   0.43555   0.44338
     Eigenvalues ---    0.44724   0.46516   0.46602   0.50312   0.59906
 RFO step:  Lambda=-3.18332438D-04 EMin= 1.43879409D-03
 Quartic linear search produced a step of  0.15887.
 Iteration  1 RMS(Cart)=  0.04106779 RMS(Int)=  0.00158613
 Iteration  2 RMS(Cart)=  0.00159436 RMS(Int)=  0.00002657
 Iteration  3 RMS(Cart)=  0.00000189 RMS(Int)=  0.00002655
 Iteration  4 RMS(Cart)=  0.00000000 RMS(Int)=  0.00002655
 Variable       Old X    -DE/DX   Delta X   Delta X   Delta X     New X
                                 (Linear)    (Quad)   (Total)
    R1        2.79029   0.00117   0.00570  -0.00324   0.00246   2.79275
    R2        1.93907  -0.00048  -0.00094   0.00018  -0.00076   1.93831
    R3        1.92735   0.00002   0.00099  -0.00087   0.00012   1.92747
    R4        2.86742   0.00025   0.00159  -0.00184  -0.00025   2.86717
    R5        2.07121   0.00004  -0.00007  -0.00023  -0.00030   2.07091
    R6        2.08366   0.00016   0.00220  -0.00216   0.00004   2.08370
    R7        2.67230   0.00031  -0.00027  -0.00005  -0.00032   2.67198
    R8        2.64736   0.00010  -0.00185   0.00163  -0.00022   2.64713
    R9        2.86465   0.00028   0.00121   0.00065   0.00186   2.86651
   R10        2.64793   0.00010  -0.00204   0.00224   0.00020   2.64813
   R11        2.79234   0.00117   0.00491  -0.00414   0.00077   2.79311
   R12        2.07861   0.00009   0.00100  -0.00021   0.00079   2.07940
   R13        2.07095   0.00005   0.00026  -0.00086  -0.00061   2.07034
   R14        1.92514  -0.00006   0.00003   0.00011   0.00013   1.92527
   R15        1.92541   0.00000  -0.00068   0.00066  -0.00002   1.92539
   R16        2.63742  -0.00000   0.00023  -0.00008   0.00015   2.63757
   R17        2.05466   0.00001  -0.00019   0.00034   0.00015   2.05481
   R18        2.63446   0.00004   0.00127  -0.00098   0.00029   2.63475
   R19        2.05240  -0.00000  -0.00015   0.00019   0.00004   2.05244
   R20        2.63766   0.00000   0.00045  -0.00037   0.00008   2.63774
   R21        2.05263   0.00000  -0.00010   0.00014   0.00005   2.05268
   R22        2.05450   0.00001  -0.00032   0.00046   0.00014   2.05464
    A1        1.84811   0.00046  -0.00124  -0.00160  -0.00285   1.84526
    A2        1.88267  -0.00007  -0.00290   0.00316   0.00025   1.88292
    A3        1.84362  -0.00010   0.00139   0.00605   0.00742   1.85104
    A4        1.94300   0.00028   0.00008  -0.00778  -0.00774   1.93526
    A5        1.89204  -0.00028  -0.00154  -0.00123  -0.00281   1.88923
    A6        1.97101   0.00037   0.00700  -0.00215   0.00485   1.97586
    A7        1.89252  -0.00021  -0.00471   0.00800   0.00322   1.89574
    A8        1.90792  -0.00024  -0.00243   0.00358   0.00110   1.90903
    A9        1.85365   0.00004   0.00142   0.00042   0.00178   1.85543
   A10        2.13398   0.00040  -0.00037  -0.00224  -0.00263   2.13135
   A11        2.07754  -0.00029   0.00151   0.00033   0.00182   2.07936
   A12        2.07160  -0.00012  -0.00107   0.00181   0.00073   2.07233
   A13        2.13394   0.00042  -0.00076   0.00134   0.00057   2.13450
   A14        2.07800  -0.00008   0.00035  -0.00088  -0.00054   2.07746
   A15        2.07109  -0.00033   0.00042  -0.00034   0.00008   2.07116
   A16        1.94146   0.00018  -0.00116   0.00489   0.00367   1.94512
   A17        1.89547  -0.00037  -0.00399   0.00040  -0.00365   1.89182
   A18        1.92544  -0.00003   0.00058  -0.00058  -0.00010   1.92534
   A19        1.96259   0.00045   0.01018  -0.00220   0.00803   1.97063
   A20        1.87741  -0.00027  -0.00721  -0.00105  -0.00825   1.86916
   A21        1.85981   0.00003   0.00177  -0.00178   0.00008   1.85989
   A22        1.90439   0.00010   0.00096  -0.00385  -0.00290   1.90149
   A23        1.89447   0.00019   0.00118   0.00295   0.00412   1.89859
   A24        1.84720  -0.00014  -0.00058   0.00138   0.00080   1.84800
   A25        2.12206   0.00012   0.00137  -0.00114   0.00023   2.12229
   A26        2.07533  -0.00013  -0.00384   0.00331  -0.00053   2.07479
   A27        2.08580   0.00002   0.00247  -0.00217   0.00030   2.08610
   A28        2.08411  -0.00003  -0.00140   0.00134  -0.00006   2.08404
   A29        2.09596  -0.00001   0.00006  -0.00007  -0.00002   2.09594
   A30        2.10312   0.00004   0.00135  -0.00127   0.00008   2.10320
   A31        2.08617  -0.00002  -0.00098   0.00090  -0.00008   2.08610
   A32        2.10197   0.00002   0.00071  -0.00063   0.00007   2.10204
   A33        2.09504  -0.00000   0.00027  -0.00026   0.00000   2.09504
   A34        2.12440   0.00013   0.00175  -0.00199  -0.00025   2.12415
   A35        2.07352  -0.00010  -0.00303   0.00287  -0.00017   2.07334
   A36        2.08526  -0.00002   0.00130  -0.00087   0.00042   2.08568
    D1       -1.07944  -0.00042  -0.01412  -0.04479  -0.05891  -1.13834
    D2        3.12355  -0.00016  -0.00732  -0.04918  -0.05650   3.06705
    D3        1.07458  -0.00025  -0.01215  -0.04763  -0.05977   1.01482
    D4       -3.04666  -0.00049  -0.01380  -0.05234  -0.06614  -3.11280
    D5        1.15633  -0.00022  -0.00700  -0.05673  -0.06374   1.09259
    D6       -0.89264  -0.00031  -0.01183  -0.05518  -0.06700  -0.95964
    D7        1.42154   0.00041   0.00407   0.01632   0.02038   1.44192
    D8       -1.70783   0.00023   0.00062   0.02603   0.02662  -1.68121
    D9       -2.78173   0.00010  -0.00087   0.01521   0.01434  -2.76740
   D10        0.37208  -0.00008  -0.00433   0.02492   0.02058   0.39266
   D11       -0.76804  -0.00010  -0.00320   0.02199   0.01882  -0.74921
   D12        2.38578  -0.00028  -0.00666   0.03170   0.02507   2.41085
   D13       -0.01519  -0.00005  -0.00240   0.02328   0.02089   0.00570
   D14       -3.13727  -0.00014  -0.00275   0.01571   0.01298  -3.12429
   D15        3.11422   0.00012   0.00109   0.01360   0.01468   3.12891
   D16       -0.00786   0.00003   0.00075   0.00602   0.00677  -0.00109
   D17        3.13585   0.00009   0.00145  -0.01345  -0.01201   3.12384
   D18       -0.00886   0.00001  -0.00121  -0.01208  -0.01328  -0.02214
   D19        0.00603  -0.00008  -0.00190  -0.00406  -0.00596   0.00008
   D20       -3.13867  -0.00016  -0.00456  -0.00269  -0.00723   3.13728
   D21       -1.26155  -0.00010  -0.00087   0.01324   0.01236  -1.24920
   D22        2.85275  -0.00054  -0.01021   0.01245   0.00226   2.85501
   D23        0.82044  -0.00034  -0.01036   0.01469   0.00433   0.82477
   D24        1.86060  -0.00001  -0.00053   0.02078   0.02024   1.88084
   D25       -0.30828  -0.00044  -0.00987   0.01999   0.01014  -0.29813
   D26       -2.34059  -0.00025  -0.01001   0.02223   0.01221  -2.32838
   D27        0.00421   0.00004   0.00080  -0.00349  -0.00269   0.00152
   D28       -3.13728   0.00008   0.00179  -0.00112   0.00066  -3.13661
   D29       -3.11859  -0.00006   0.00048  -0.01081  -0.01032  -3.12891
   D30        0.02312  -0.00002   0.00147  -0.00844  -0.00697   0.01615
   D31       -3.04740  -0.00042  -0.01553  -0.10646  -0.12198   3.11381
   D32       -1.04216  -0.00043  -0.01509  -0.10528  -0.12036  -1.16252
   D33       -0.91698  -0.00045  -0.01434  -0.10394  -0.11820  -1.03518
   D34        1.08825  -0.00046  -0.01389  -0.10276  -0.11658   0.97167
   D35        1.12536  -0.00032  -0.01065  -0.10802  -0.11875   1.00661
   D36        3.13059  -0.00033  -0.01021  -0.10684  -0.11714   3.01346
   D37        0.00157  -0.00006  -0.00123  -0.00123  -0.00245  -0.00088
   D38       -3.13942   0.00001   0.00066  -0.00043   0.00023  -3.13919
   D39       -3.14013  -0.00010  -0.00220  -0.00362  -0.00583   3.13722
   D40        0.00206  -0.00002  -0.00032  -0.00282  -0.00314  -0.00108
   D41       -0.00355   0.00001   0.00008   0.00330   0.00338  -0.00017
   D42        3.14143   0.00008   0.00237   0.00173   0.00411  -3.13765
   D43        3.13744  -0.00006  -0.00180   0.00249   0.00068   3.13812
   D44       -0.00077   0.00001   0.00048   0.00093   0.00141   0.00064
   D45       -0.00029   0.00006   0.00149  -0.00064   0.00085   0.00056
   D46       -3.13875   0.00014   0.00413  -0.00202   0.00213  -3.13661
   D47        3.13794  -0.00001  -0.00079   0.00092   0.00012   3.13806
   D48       -0.00052   0.00007   0.00185  -0.00046   0.00141   0.00088
         Item               Value     Threshold  Converged?
 Maximum Force            0.001174     0.000450     NO 
 RMS     Force            0.000272     0.000300     YES
 Maximum Displacement     0.169112     0.001800     NO 
[...]
     8  C   -0.046687   0.361210  -0.046715   0.004915
     9  C    0.005033  -0.047124   0.360627  -0.043628
    10  C    0.000858   0.005116  -0.041319   0.352742
    11  H    0.000007   0.000000   0.000000   0.000045
    12  H   -0.000000   0.000000  -0.000000  -0.000001
    13  H    0.000004  -0.000000  -0.000013   0.007656
    14  H   -0.000010  -0.000000   0.000003   0.000093
    15  H    0.007707  -0.000009  -0.000000   0.000004
    16  H    0.000254   0.000003  -0.000000  -0.000007
    17  H   -0.000018  -0.000000   0.000000  -0.000000
    18  H    0.000338   0.000001  -0.000000   0.000000
    19  H    0.690431  -0.006857  -0.000243   0.000022
    20  H   -0.006857   0.702915  -0.006798  -0.000240
    21  H   -0.000243  -0.006798   0.696558  -0.006942
    22  H    0.000022  -0.000240  -0.006942   0.689137
 Mulliken charges:
               1
     1  N   -0.344816
     2  C   -0.211522
     3  C   -0.005786
     4  C    0.036337
     5  C   -0.159984
     6  N   -0.568158
     7  C   -0.147229
     8  C   -0.190664
     9  C   -0.166301
    10  C   -0.143348
    11  H    0.339169
    12  H    0.327939
    13  H    0.155409
    14  H    0.181211
    15  H    0.105739
    16  H    0.100703
    17  H    0.266131
    18  H    0.270421
    19  H    0.045828
    20  H    0.027760
    21  H    0.034329
    22  H    0.046831
 Sum of Mulliken charges =  -0.00000
 Mulliken charges with hydrogens summed into heavy atoms:
               1
     1  N    0.322292
     2  C    0.125099
     3  C   -0.005786
     4  C    0.036337
     5  C    0.046458
     6  N   -0.031606
     7  C   -0.101401
     8  C   -0.162904
     9  C   -0.131972
    10  C   -0.096517
 Electronic spatial extent (au):  <R**2>=           1497.4988
 Charge=              0.0000 electrons
 Dipole moment (field-independent basis, Debye):
    X=             11.6320    Y=              1.3782    Z=             -0.2333  Tot=             11.7157
 Quadrupole moment (field-independent basis, Debye-Ang):
   XX=            -52.4276   YY=            -48.2372   ZZ=            -62.0657
   XY=              3.4750   XZ=             -0.9668   YZ=              2.0426
 Traceless Quadrupole moment (field-independent basis, Debye-Ang):
   XX=              1.8159   YY=              6.0063   ZZ=             -7.8222
   XY=              3.4750   XZ=             -0.9668   YZ=              2.0426
 Octapole moment (field-independent basis, Debye-Ang**2):
  XXX=             92.5602  YYY=              4.5564  ZZZ=             -3.1937  XYY=             39.2660
  XXY=             11.7758  XXZ=             -6.9030  XZZ=             18.8072  YZZ=             -1.4738
  YYZ=             -4.1572  XYZ=              1.7733
 Hexadecapole moment (field-independent basis, Debye-Ang**3):
 XXXX=          -1048.2028 YYYY=           -636.6989 ZZZZ=           -151.0107 XXXY=             27.9257
 XXXZ=            -14.8530 YYYX=             11.1384 YYYZ=             12.7957 ZZZX=            -11.0160
 ZZZY=              8.5776 XXYY=           -234.8461 XXZZ=           -222.7683 YYZZ=           -141.6763
 XXYZ=             -1.1666 YYXZ=            -12.8620 ZZXY=             -1.8594
 N-N= 5.168943573641D+02 E-N=-2.012648244152D+03  KE= 4.175759605307D+02
 Evaluate density.
 Using the total density.
 Monte-Carlo method of calculating molar volume:
 based on  0.001 e/bohr**3 density envelope.
 Number of points per bohr**3 =   20 CutOff= 1.00D-04
 Using the CI density.
 There are       356 points.  Will hold       356 in memory.
 LenV=   805185874 MDV=   805306368.
 Box volume = 5642.269 fraction occupied=0.250
 Integrated density= 1.1467451804152753D+02 error= 4.0674518041527534D+01
 Molar volume = 1410.567 bohr**3/mol (125.878 cm**3/mol)
 Recommended a0 for SCRF calculation =  4.55 angstrom (  8.60 bohr)
 ******************************Gaussian NBO Version 3.1******************************
             N A T U R A L   A T O M I C   O R B I T A L   A N D
          N A T U R A L   B O N D   O R B I T A L   A N A L Y S I S
 ******************************Gaussian NBO Version 3.1******************************
       /RESON  / : Allow strongly delocalized NBO set

 Analyzing the CI density

 Job title: GKXVJHDEWHKBFH-UHFFFAOYSA-N_conf_2                              

 Storage needed:    133984 in NPA ( 805303728 available)
 GSVD:  LWork=       24900 too small for GESVD, short by       12636 words or       12636 for optimal perf.


 NATURAL POPULATIONS:  Natural atomic orbital occupancies 
                                                          
   NAO  Atom  No  lang   Type(AO)    Occupancy
 --------------------------------------------
     1    N    1  S      Cor( 1S)     1.99941
     2    N    1  S      Val( 2S)     1.45326
     3    N    1  S      Ryd( 3S)     0.00100
     4    N    1  S      Ryd( 4S)     0.00000
     5    N    1  px     Val( 2p)     1.30413
     6    N    1  px     Ryd( 3p)     0.00076
     7    N    1  py     Val( 2p)     1.37019
     8    N    1  py     Ryd( 3p)     0.00040
     9    N    1  pz     Val( 2p)     1.30017
    10    N    1  pz     Ryd( 3p)     0.00000
    11    N    1  dxy    Ryd( 3d)     0.00066
    12    N    1  dxz    Ryd( 3d)     0.00055
    13    N    1  dyz    Ryd( 3d)     0.00031
    14    N    1  dx2y2  Ryd( 3d)     0.00063
    15    N    1  dz2    Ryd( 3d)     0.00109

    16    C    2  S      Cor( 1S)     1.99921
    17    C    2  S      Val( 2S)     1.03873
    18    C    2  S      Ryd( 3S)     0.00117
    19    C    2  S      Ryd( 4S)     0.00003
    20    C    2  px     Val( 2p)     1.05884
    21    C    2  px     Ryd( 3p)     0.00270
    22    C    2  py     Val( 2p)     1.22767
    23    C    2  py     Ryd( 3p)     0.00417
    24    C    2  pz     Val( 2p)     0.98121
    25    C    2  pz     Ryd( 3p)     0.00264
    26    C    2  dxy    Ryd( 3d)     0.00065
    27    C    2  dxz    Ryd( 3d)     0.00187
    28    C    2  dyz    Ryd( 3d)     0.00071
    29    C    2  dx2y2  Ryd( 3d)     0.00081
    30    C    2  dz2    Ryd( 3d)     0.00077

    31    C    3  S      Cor( 1S)     1.99897
    32    C    3  S      Val( 2S)     0.85063
    33    C    3  S      Ryd( 3S)     0.00082
    34    C    3  S      Ryd( 4S)     0.00005
    35    C    3  px     Val( 2p)     1.04969
    36    C    3  px     Ryd( 3p)     0.00498
    37    C    3  py     Val( 2p)     1.07108
    38    C    3  py     Ryd( 3p)     0.00403
    39    C    3  pz     Val( 2p)     1.24415
    40    C    3  pz     Ryd( 3p)     0.00615
    41    C    3  dxy    Ryd( 3d)     0.00065
    42    C    3  dxz    Ryd( 3d)     0.00031
    43    C    3  dyz    Ryd( 3d)     0.00056
    44    C    3  dx2y2  Ryd( 3d)     0.00065
    45    C    3  dz2    Ryd( 3d)     0.00034

    46    C    4  S      Cor( 1S)     1.99898
    47    C    4  S      Val( 2S)     0.85874
    48    C    4  S      Ryd( 3S)     0.00082
    49    C    4  S      Ryd( 4S)     0.00005
    50    C    4  px     Val( 2p)     1.06233
    51    C    4  px     Ryd( 3p)     0.00538
    52    C    4  py     Val( 2p)     1.07415
    53    C    4  py     Ryd( 3p)     0.00393
    54    C    4  pz     Val( 2p)     1.16315
    55    C    4  pz     Ryd( 3p)     0.00538
    56    C    4  dxy    Ryd( 3d)     0.00065
    57    C    4  dxz    Ryd( 3d)     0.00041
    58    C    4  dyz    Ryd( 3d)     0.00074
    59    C    4  dx2y2  Ryd( 3d)     0.00067
    60    C    4  dz2    Ryd( 3d)     0.00034

    61    C    5  S      Cor( 1S)     1.99928
    62    C    5  S      Val( 2S)     1.01749
    63    C    5  S      Ryd( 3S)     0.00174
    64    C    5  S      Ryd( 4S)     0.00003
    65    C    5  px     Val( 2p)     1.02508
    66    C    5  px     Ryd( 3p)     0.00381
    67    C    5  py     Val( 2p)     1.20229
    68    C    5  py     Ryd( 3p)     0.00356
    69    C    5  pz     Val( 2p)     1.02168
    70    C    5  pz     Ryd( 3p)     0.00210
    71    C    5  dxy    Ryd( 3d)     0.00082
    72    C    5  dxz    Ryd( 3d)     0.00181
    73    C    5  dyz    Ryd( 3d)     0.00077
    74    C    5  dx2y2  Ryd( 3d)     0.00081
    75    C    5  dz2    Ryd( 3d)     0.00077

    76    N    6  S      Cor( 1S)     1.99960
    77    N    6  S      Val( 2S)     1.45474
    78    N    6  S      Ryd( 3S)     0.00157
    79    N    6  S      Ryd( 4S)     0.00003
    80    N    6  px     Val( 2p)     1.37312
    81    N    6  px     Ryd( 3p)     0.00218
    82    N    6  py     Val( 2p)     1.66211
    83    N    6  py     Ryd( 3p)     0.00524
    84    N    6  pz     Val( 2p)     1.35169
    85    N    6  pz     Ryd( 3p)     0.00231
    86    N    6  dxy    Ryd( 3d)     0.00117
    87    N    6  dxz    Ryd( 3d)     0.00051
    88    N    6  dyz    Ryd( 3d)     0.00098
    89    N    6  dx2y2  Ryd( 3d)     0.00052
    90    N    6  dz2    Ryd( 3d)     0.00053

    91    C    7  S      Cor( 1S)     1.99906
    92    C    7  S      Val( 2S)     0.94633
    93    C    7  S      Ryd( 3S)     0.00055
    94    C    7  S      Ryd( 4S)     0.00004
    95    C    7  px     Val( 2p)     1.07383
    96    C    7  px     Ryd( 3p)     0.00374
    97    C    7  py     Val( 2p)     1.18540
    98    C    7  py     Ryd( 3p)     0.00492
    99    C    7  pz     Val( 2p)     1.01079
   100    C    7  pz     Ryd( 3p)     0.00090
   101    C    7  dxy    Ryd( 3d)     0.00055
   102    C    7  dxz    Ryd( 3d)     0.00112
   103    C    7  dyz    Ryd( 3d)     0.00021
   104    C    7  dx2y2  Ryd( 3d)     0.00083
   105    C    7  dz2    Ryd( 3d)     0.00050

   106    C    8  S      Cor( 1S)     1.99911
   107    C    8  S      Val( 2S)     0.93891
   108    C    8  S      Ryd( 3S)     0.00057
   109    C    8  S      Ryd( 4S)     0.00003
   110    C    8  px     Val( 2p)     1.15038
   111    C    8  px     Ryd( 3p)     0.00460
   112    C    8  py     Val( 2p)     1.09319
   113    C    8  py     Ryd( 3p)     0.00522
   114    C    8  pz     Val( 2p)     1.19440
   115    C    8  pz     Ryd( 3p)     0.00550
   116    C    8  dxy    Ryd( 3d)     0.00065
   117    C    8  dxz    Ryd( 3d)     0.00031
   118    C    8  dyz    Ryd( 3d)     0.00050
   119    C    8  dx2y2  Ryd( 3d)     0.00060
   120    C    8  dz2    Ryd( 3d)     0.00034

   121    C    9  S      Cor( 1S)     1.99911
   122    C    9  S      Val( 2S)     0.94312
   123    C    9  S      Ryd( 3S)     0.00057
   124    C    9  S      Ryd( 4S)     0.00003
   125    C    9  px     Val( 2p)     1.14726
   126    C    9  px     Ryd( 3p)     0.00459
   127    C    9  py     Val( 2p)     1.09809
   128    C    9  py     Ryd( 3p)     0.00505
   129    C    9  pz     Val( 2p)     1.14710
   130    C    9  pz     Ryd( 3p)     0.00423
   131    C    9  dxy    Ryd( 3d)     0.00067
   132    C    9  dxz    Ryd( 3d)     0.00033
   133    C    9  dyz    Ryd( 3d)     0.00065
   134    C    9  dx2y2  Ryd( 3d)     0.00060
   135    C    9  dz2    Ryd( 3d)     0.00035

   136    C   10  S      Cor( 1S)     1.99907
   137    C   10  S      Val( 2S)     0.94529
   138    C   10  S      Ryd( 3S)     0.00053
   139    C   10  S      Ryd( 4S)     0.00003
   140    C   10  px     Val( 2p)     1.07400
   141    C   10  px     Ryd( 3p)     0.00373
   142    C   10  py     Val( 2p)     1.18474
   143    C   10  py     Ryd( 3p)     0.00489
   144    C   10  pz     Val( 2p)     1.01602
   145    C   10  pz     Ryd( 3p)     0.00116
   146    C   10  dxy    Ryd( 3d)     0.00053
   147    C   10  dxz    Ryd( 3d)     0.00112
   148    C   10  dyz    Ryd( 3d)     0.00020
   149    C   10  dx2y2  Ryd( 3d)     0.00082
   150    C   10  dz2    Ryd( 3d)     0.00051

   151    H   11  S      Val( 1S)     0.56705
   152    H   11  S      Ryd( 2S)     0.00193
   153    H   11  px     Ryd( 2p)     0.00029
   154    H   11  py     Ryd( 2p)     0.00078
   155    H   11  pz     Ryd( 2p)     0.00029

   156    H   12  S      Val( 1S)     0.58382
   157    H   12  S      Ryd( 2S)     0.00302
   158    H   12  px     Ryd( 2p)     0.00054
   159    H   12  py     Ryd( 2p)     0.00035
   160    H   12  pz     Ryd( 2p)     0.00035

   161    H   13  S      Val( 1S)     0.73463
   162    H   13  S      Ryd( 2S)     0.00143
   163    H   13  px     Ryd( 2p)     0.00012
   164    H   13  py     Ryd( 2p)     0.00031
   165    H   13  pz     Ryd( 2p)     0.00009

   166    H   14  S      Val( 1S)     0.70904
   167    H   14  S      Ryd( 2S)     0.00068
   168    H   14  px     Ryd( 2p)     0.00012
   169    H   14  py     Ryd( 2p)     0.00017
   170    H   14  pz     Ryd( 2p)     0.00029

   171    H   15  S      Val( 1S)     0.76453
   172    H   15  S      Ryd( 2S)     0.00172
   173    H   15  px     Ryd( 2p)     0.00012
   174    H   15  py     Ryd( 2p)     0.00034
   175    H   15  pz     Ryd( 2p)     0.00009

   176    H   16  S      Val( 1S)     0.77721
   177    H   16  S      Ryd( 2S)     0.00256
   178    H   16  px     Ryd( 2p)     0.00013
   179    H   16  py     Ryd( 2p)     0.00015
   180    H   16  pz     Ryd( 2p)     0.00030

   181    H   17  S      Val( 1S)     0.59675
   182    H   17  S      Ryd( 2S)     0.00326
   183    H   17  px     Ryd( 2p)     0.00046
   184    H   17  py     Ryd( 2p)     0.00053
   185    H   17  pz     Ryd( 2p)     0.00029

   186    H   18  S      Val( 1S)     0.59173
   187    H   18  S      Ryd( 2S)     0.00310
   188    H   18  px     Ryd( 2p)     0.00034
   189    H   18  py     Ryd( 2p)     0.00051
   190    H   18  pz     Ryd( 2p)     0.00045

   191    H   19  S      Val( 1S)     0.78210
   192    H   19  S      Ryd( 2S)     0.00103
   193    H   19  px     Ryd( 2p)     0.00007
   194    H   19  py     Ryd( 2p)     0.00042
   195    H   19  pz     Ryd( 2p)     0.00014

   196    H   20  S      Val( 1S)     0.78760
   197    H   20  S      Ryd( 2S)     0.00053
   198    H   20  px     Ryd( 2p)     0.00030
   199    H   20  py     Ryd( 2p)     0.00015
   200    H   20  pz     Ryd( 2p)     0.00023

   201    H   21  S      Val( 1S)     0.78437
   202    H   21  S      Ryd( 2S)     0.00061
   203    H   21  px     Ryd( 2p)     0.00030
   204    H   21  py     Ryd( 2p)     0.00015
   205    H   21  pz     Ryd( 2p)     0.00021

   206    H   22  S      Val( 1S)     0.78203
   207    H   22  S      Ryd( 2S)     0.00100
   208    H   22  px     Ryd( 2p)     0.00007
   209    H   22  py     Ryd( 2p)     0.00042
   210    H   22  pz     Ryd( 2p)     0.00014

 WARNING:  1 low occupancy (<1.9990e) core orbital  found on  C    3
           1 low occupancy (<1.9990e) core orbital  found on  C    4


 Summary of Natural Population Analysis:                  
                                                          
                                       Natural Population 
                Natural  -----------------------------------------------
    Atom  No    Charge         Core      Valence    Rydberg      Total
 -----------------------------------------------------------------------
      N    1   -0.43256      1.99941     5.42774    0.00541     7.43256
      C    2   -0.32117      1.99921     4.30644    0.01552     6.32117
      C    3   -0.23306      1.99897     4.21555    0.01854     6.23306
      C    4   -0.17574      1.99898     4.15838    0.01837     6.17574
      C    5   -0.28205      1.99928     4.26654    0.01623     6.28205
      N    6   -0.85629      1.99960     5.84165    0.01504     7.85629
      C    7   -0.22878      1.99906     4.21635    0.01337     6.22878
      C    8   -0.39431      1.99911     4.37688    0.01832     6.39431
      C    9   -0.35175      1.99911     4.33557    0.01707     6.35175
      C   10   -0.23263      1.99907     4.22004    0.01352     6.23263
      H   11    0.42967      0.00000     0.56705    0.00328     0.57033
      H   12    0.41192      0.00000     0.58382    0.00426     0.58808
      H   13    0.26342      0.00000     0.73463    0.00195     0.73658
      H   14    0.28970      0.00000     0.70904    0.00127     0.71030
      H   15    0.23320      0.00000     0.76453    0.00226     0.76680
      H   16    0.21966      0.00000     0.77721    0.00313     0.78034
      H   17    0.39870      0.00000     0.59675    0.00455     0.60130
      H   18    0.40387      0.00000     0.59173    0.00440     0.59613
      H   19    0.21624      0.00000     0.78210    0.00166     0.78376
      H   20    0.21119      0.00000     0.78760    0.00121     0.78881
      H   21    0.21435      0.00000     0.78437    0.00128     0.78565
      H   22    0.21633      0.00000     0.78203    0.00163     0.78367
 =======================================================================
   * Total *   -0.00009     19.99180    53.82602    0.18227    74.00009

                                 Natural Population      
 --------------------------------------------------------
   Core                      19.99180 ( 99.9590% of  20)
   Valence                   53.82602 ( 99.6778% of  54)
   Natural Minimal Basis     73.81781 ( 99.7538% of  74)
   Natural Rydberg Basis      0.18227 (  0.2463% of  74)
 --------------------------------------------------------

    Atom  No          Natural Electron Configuration
 ----------------------------------------------------------------------------
      N    1      [core]2S( 1.45)2p( 3.97)
      C    2      [core]2S( 1.04)2p( 3.27)3p( 0.01)
      C    3      [core]2S( 0.85)2p( 3.36)3p( 0.02)
      C    4      [core]2S( 0.86)2p( 3.30)3p( 0.01)
      C    5      [core]2S( 1.02)2p( 3.25)3p( 0.01)
      N    6      [core]2S( 1.45)2p( 4.39)3p( 0.01)
      C    7      [core]2S( 0.95)2p( 3.27)3p( 0.01)
      C    8      [core]2S( 0.94)2p( 3.44)3p( 0.02)
      C    9      [core]2S( 0.94)2p( 3.39)3p( 0.01)
      C   10      [core]2S( 0.95)2p( 3.27)3p( 0.01)
      H   11            1S( 0.57)
      H   12            1S( 0.58)
      H   13            1S( 0.73)
      H   14            1S( 0.71)
      H   15            1S( 0.76)
      H   16            1S( 0.78)
      H   17            1S( 0.60)
      H   18            1S( 0.59)
      H   19            1S( 0.78)
      H   20            1S( 0.79)
      H   21            1S( 0.78)
      H   22            1S( 0.78)


 NBO analysis skipped by request.
 1\1\GINC-DRG2-W008\SP\RB3LYP TD-FC\6-31G(d,p)\C8H12N2\QDUEZ\17-Jul-202
 4\0\\# TD(NStates=10, Root=1) B3LYP/6-31G** SCRF=(Solvent=water) volum
 e pop=NPA density=current Geom=AllCheck Guess=Read\\GKXVJHDEWHKBFH-UHF
 FFAOYSA-N_conf_2\\0,1\N,0,-1.4458066417,-2.1050494219,-0.0771284001\C,
 0,-1.0826418938,-1.1951928278,1.0295701234\C,0,0.1850935719,-0.4259344
 013,0.7083452502\C,0,0.1747714021,0.7419447851,-0.0887322492\C,0,-1.10
 24539078,1.3103851278,-0.6775398108\N,0,-1.6091346267,0.47022666,-1.78
 40590731\C,0,1.3867543844,1.3911838664,-0.3593770737\C,0,2.6001272757,
 0.9114471189,0.1362103254\C,0,2.6113414988,-0.2407928017,0.9211823551\
 C,0,1.4102725809,-0.8954000881,1.1991386534\H,0,-1.6620393961,-1.50340
 91578,-0.8784073443\H,0,-2.3198270692,-2.5680900315,0.1712642837\H,0,-
 0.9063277965,-1.7994816081,1.92666751\H,0,-1.8850884103,-0.4846314054,
 1.2881821296\H,0,-0.9112758808,2.3497117475,-0.983376091\H,0,-1.888114
 9271,1.3487755978,0.0851816984\H,0,-2.4736252676,0.8758440873,-2.13861
 71515\H,0,-0.9465911081,0.5090476327,-2.5569610839\H,0,1.3752230974,2.
 2919138276,-0.9683916239\H,0,3.5248708961,1.4354437543,-0.0871570254\H
 ,0,3.5456422188,-0.6269051484,1.3185239648\H,0,1.4188299997,-1.7910373
 135,1.8154806328\\Version=ES64L-G16RevA.03\State=1-A\HF=-421.5967518\R
 MSD=8.190e-09\Dipole=-4.2758147,-1.3940834,-1.0098597\Quadrupole=0.038
 5573,1.1226704,-1.1612278,3.9916217,0.692647,-4.4240572\PG=C01 [X(C8H1
 2N2)]\\@


 THERE ARE TWO THINGS THAT EVERYBODY THINKS THEY CAN DO BETTER THAN
 ANYONE ELSE - PUNCH THE FIRE, AND EDIT A DAILY PAPER.
 -- UNCLE ESEK, "CENTURY MAGAZINE", 1885
 Job cpu time:       0 days  0 hours 19 minutes 54.5 seconds.
 Elapsed time:       0 days  0 hours  6 minutes 45.1 seconds.
 File lengths (MBytes):  RWF=    406 Int=      0 D2E=      0 Chk=     26 Scr=      1
 Normal termination of Gaussian 16 at Wed Jul 17 18:58:47 2024.
