 Entering Gaussian System, Link 0=g16
 Initial command:
 /opt/sw/arch/manual/gaussian/G16_A03/g16/l1.exe "/scratch/1380831/Gau-36402.inp" -scrdir="/scratch/1380831/"
 Entering Link 1 = /opt/sw/arch/manual/gaussian/G16_A03/g16/l1.exe PID=     36403.
  
 Copyright (c) 1988,1990,1992,1993,1995,1998,2003,2009,2016,
            Gaussian, Inc.  All Rights Reserved.
  
 This is part of the Gaussian(R) 16 program.  It is based on
 the Gaussian(R) 09 system (copyright 2009, Gaussian, Inc.),
 the Gaussian(R) 03 system (copyright 2003, Gaussian, Inc.),
 the Gaussian(R) 98 system (copyright 1998, Gaussian, Inc.),
 the Gaussian(R) 94 system (copyright 1995, Gaussian, Inc.),
 the Gaussian 92(TM) system (copyright 1992, Gaussian, Inc.),
 the Gaussian 90(TM) system (copyright 1990, Gaussian, Inc.),
 the Gaussian 88(TM) system (copyright 1988, Gaussian, Inc.),
 the Gaussian 86(TM) system (copyright 1986, Carnegie Mellon
 University), and the Gaussian 82(TM) system (copyright 1983,
 Carnegie Mellon University). Gaussian is a federally registered
 trademark of Gaussian, Inc.
  
 This software contains proprietary and confidential information,
 including trade secrets, belonging to Gaussian, Inc.
  
 This software is provided under written license and may be
 used, copied, transmitted, or stored only in accord with that
 written license.
  
 The following legend is applicable only to US Government
 contracts under FAR:
  
                    RESTRICTED RIGHTS LEGEND
  
 Use, reproduction and disclosure by the US Government is
 subject to restrictions as set forth in subparagraphs (a)
 and (c) of the Commercial Computer Software - Restricted
 Rights clause in FAR 52.227-19.
  
 Gaussian, Inc.
 340 Quinnipiac St., Bldg. 40, Wallingford CT 06492
  
  
 ---------------------------------------------------------------
 Warning -- This program may not be used in any manner that
 competes with the business of Gaussian, Inc. or will provide
 assistance to any competitor of Gaussian, Inc.  The licensee
 of this program is prohibited from giving any competitor of
 Gaussian, Inc. access to this program.  By using this program,
 the user acknowledges that Gaussian, Inc. is engaged in the
 business of creating and licensing software in the field of
 computational chemistry and represents and warrants to the
 licensee that it is not a competitor of Gaussian, Inc. and that
 it will not use this program in any manner prohibited above.
 ---------------------------------------------------------------
  

 Cite this work as:
 Gaussian 16, Revision A.03,
 M. J. Frisch, G. W. Trucks, H. B. Schlegel, G. E. Scuseria, 
 M. A. Robb, J. R. Cheeseman, G. Scalmani, V. Barone, 
 G. A. Petersson, H. Nakatsuji, X. Li, M. Caricato, A. V. Marenich, 
 J. Bloino, B. G. Janesko, R. Gomperts, B. Mennucci, H. P. Hratchian, 
 J. V. Ortiz, A. F. Izmaylov, J. L. Sonnenberg, D. Williams-Young, 
 F. Ding, F. Lipparini, F. Egidi, J. Goings, B. Peng, A. Petrone, 
 T. Henderson, D. Ranasinghe, V. G. Zakrzewski, J. Gao, N. Rega, 
 G. Zheng, W. Liang, M. Hada, M. Ehara, K. Toyota, R. Fukuda, 
 J. Hasegawa, M. Ishida, T. Nakajima, Y. Honda, O. Kitao, H. Nakai, 
 T. Vreven, K. Throssell, J. A. Montgomery, Jr., J. E. Peralta, 
 F. Ogliaro, M. J. Bearpark, J. J. Heyd, E. N. Brothers, K. N. Kudin, 
 V. N. Staroverov, T. A. Keith, R. Kobayashi, J. Normand, 
 K. Raghavachari, A. P. Rendell, J. C. Burant, S. S. Iyengar, 
 J. Tomasi, M. Cossi, J. M. Millam, M. Klene, C. Adamo, R. Cammi, 
 J. W. Ochterski, R. L. Martin, K. Morokuma, O. Farkas, 
 J. B. Foresman, and D. J. Fox, Gaussian, Inc., Wallingford CT, 2016.
 
 ******************************************
 Gaussian 16:  ES64L-G16RevA.03 25-Dec-2016
                17-Jul-2024 
 ******************************************
 %nprocshared=3
 Will use up to    3 processors via shared memory.
 %mem=6GB
 %Chk=GKXVJHDEWHKBFH-UHFFFAOYSA-N_conf_1_0.chk
 -------------------------------------------------------
 # opt=CalcFc B3LYP/6-31G** SCRF=(Solvent=water) scf=xqc
 -------------------------------------------------------
 1/10=4,18=20,19=15,26=3,38=1/1,3;
 2/9=110,12=2,17=6,18=5,40=1/2;
 3/5=1,6=6,7=101,11=2,25=1,30=1,70=2201,71=2,72=1,74=-5,140=1/1,2,3;
 4//1;
 5/5=2,8=3,13=1,38=5,53=1/2,8;
 8/6=4,10=90,11=11/1;
 11/6=1,8=1,9=11,15=111,16=1/1,2,10;
 10/6=1,13=1/2;
 6/7=2,8=2,9=2,10=2,28=1/1;
 7/10=1,18=20,25=1/1,2,3,16;
 1/10=4,18=20,19=15,26=3/3(2);
 2/9=110/2;
 99//99;
 2/9=110/2;
 3/5=1,6=6,7=101,11=2,25=1,30=1,70=2205,71=1,72=1,74=-5/1,2,3;
 4/5=5,16=3,69=1/1;
 5/5=2,8=3,13=1,38=5,53=1/2,8;
 7//1,2,3,16;
 1/18=20,19=15,26=3/3(-5);
 2/9=110/2;
 6/7=2,8=2,9=2,10=2,19=2,28=1/1;
 99/9=1/99;
 ----------------------------------
 GKXVJHDEWHKBFH-UHFFFAOYSA-N_conf_1
 ----------------------------------
 Symbolic Z-matrix:
 Charge =  0 Multiplicity = 1
 N                     2.31746  -1.40191  -0.55766 
 C                     1.60997  -0.94598   0.63058 
 C                     0.71368   0.23092   0.32005 
 C                    -0.65163   0.09246  -0.026 
 C                    -1.32785  -1.26171  -0.09828 
 N                    -2.39419  -1.32458  -1.09725 
 C                    -1.41073   1.2611   -0.23959 
 C                    -0.83145   2.52862  -0.17475 
 C                     0.52011   2.657     0.11606 
 C                     1.28509   1.51851   0.36169 
 H                     1.64467  -1.61645  -1.29048 
 H                     2.81144  -2.26567  -0.34626 
 H                     2.3424   -0.65636   1.39385 
 H                     1.03787  -1.76697   1.07512 
 H                    -1.73881  -1.50147   0.88832 
 H                    -0.60576  -2.03928  -0.36288 
 H                    -2.73625  -2.28101  -1.16032 
 H                    -1.99753  -1.09803  -2.00862 
 H                    -2.47349   1.18519  -0.46544 
 H                    -1.43796   3.41168  -0.35579 
 H                     0.97941   3.64062   0.15696 
 H                     2.34356   1.63331   0.58901 
 

 GradGradGradGradGradGradGradGradGradGradGradGradGradGradGradGradGradGrad
 Berny optimization.
 Initialization pass.
                           ----------------------------
                           !    Initial Parameters    !
                           ! (Angstroms and Degrees)  !
 --------------------------                            --------------------------
 ! Name  Definition              Value          Derivative Info.                !
 --------------------------------------------------------------------------------
 ! R1    R(1,2)                  1.4561         calculate D2E/DX2 analytically  !
 ! R2    R(1,11)                 1.0177         calculate D2E/DX2 analytically  !
 ! R3    R(1,12)                 1.0172         calculate D2E/DX2 analytically  !
 ! R4    R(2,3)                  1.5116         calculate D2E/DX2 analytically  !
 ! R5    R(2,13)                 1.0968         calculate D2E/DX2 analytically  !
 ! R6    R(2,14)                 1.095          calculate D2E/DX2 analytically  !
 ! R7    R(3,4)                  1.4153         calculate D2E/DX2 analytically  !
 ! R8    R(3,10)                 1.4093         calculate D2E/DX2 analytically  !
 ! R9    R(4,5)                  1.5153         calculate D2E/DX2 analytically  !
 ! R10   R(4,7)                  1.4098         calculate D2E/DX2 analytically  !
 ! R11   R(5,6)                  1.4625         calculate D2E/DX2 analytically  !
 ! R12   R(5,15)                 1.0953         calculate D2E/DX2 analytically  !
 ! R13   R(5,16)                 1.0936         calculate D2E/DX2 analytically  !
 ! R14   R(6,17)                 1.0177         calculate D2E/DX2 analytically  !
 ! R15   R(6,18)                 1.0194         calculate D2E/DX2 analytically  !
 ! R16   R(7,8)                  1.3951         calculate D2E/DX2 analytically  !
 ! R17   R(7,19)                 1.0891         calculate D2E/DX2 analytically  !
 ! R18   R(8,9)                  1.3884         calculate D2E/DX2 analytically  !
 ! R19   R(8,20)                 1.0865         calculate D2E/DX2 analytically  !
 ! R20   R(9,10)                 1.3935         calculate D2E/DX2 analytically  !
 ! R21   R(9,21)                 1.0863         calculate D2E/DX2 analytically  !
 ! R22   R(10,22)                1.0887         calculate D2E/DX2 analytically  !
 ! A1    A(2,1,11)             109.4146         calculate D2E/DX2 analytically  !
 ! A2    A(2,1,12)             109.4038         calculate D2E/DX2 analytically  !
 ! A3    A(11,1,12)            106.9576         calculate D2E/DX2 analytically  !
 ! A4    A(1,2,3)              111.3609         calculate D2E/DX2 analytically  !
 ! A5    A(1,2,13)             109.0327         calculate D2E/DX2 analytically  !
 ! A6    A(1,2,14)             110.5113         calculate D2E/DX2 analytically  !
 ! A7    A(3,2,13)             109.4715         calculate D2E/DX2 analytically  !
 ! A8    A(3,2,14)             110.9391         calculate D2E/DX2 analytically  !
 ! A9    A(13,2,14)            105.3298         calculate D2E/DX2 analytically  !
 ! A10   A(2,3,4)              123.0982         calculate D2E/DX2 analytically  !
 ! A11   A(2,3,10)             117.7012         calculate D2E/DX2 analytically  !
 ! A12   A(4,3,10)             119.1933         calculate D2E/DX2 analytically  !
 ! A13   A(3,4,5)              121.9772         calculate D2E/DX2 analytically  !
 ! A14   A(3,4,7)              118.3838         calculate D2E/DX2 analytically  !
 ! A15   A(5,4,7)              119.5555         calculate D2E/DX2 analytically  !
 ! A16   A(4,5,6)              113.3506         calculate D2E/DX2 analytically  !
 ! A17   A(4,5,15)             108.6676         calculate D2E/DX2 analytically  !
 ! A18   A(4,5,16)             110.6265         calculate D2E/DX2 analytically  !
 ! A19   A(6,5,15)             109.4064         calculate D2E/DX2 analytically  !
 ! A20   A(6,5,16)             106.5937         calculate D2E/DX2 analytically  !
 ! A21   A(15,5,16)            108.0607         calculate D2E/DX2 analytically  !
 ! A22   A(5,6,17)             109.1348         calculate D2E/DX2 analytically  !
 ! A23   A(5,6,18)             108.5049         calculate D2E/DX2 analytically  !
 ! A24   A(17,6,18)            106.5127         calculate D2E/DX2 analytically  !
 ! A25   A(4,7,8)              121.5005         calculate D2E/DX2 analytically  !
 ! A26   A(4,7,19)             119.9365         calculate D2E/DX2 analytically  !
 ! A27   A(8,7,19)             118.5625         calculate D2E/DX2 analytically  !
 ! A28   A(7,8,9)              119.8631         calculate D2E/DX2 analytically  !
 ! A29   A(7,8,20)             119.9274         calculate D2E/DX2 analytically  !
 ! A30   A(9,8,20)             120.209          calculate D2E/DX2 analytically  !
 ! A31   A(8,9,10)             119.721          calculate D2E/DX2 analytically  !
 ! A32   A(8,9,21)             120.2103         calculate D2E/DX2 analytically  !
 ! A33   A(10,9,21)            120.068          calculate D2E/DX2 analytically  !
 ! A34   A(3,10,9)             121.243          calculate D2E/DX2 analytically  !
 ! A35   A(3,10,22)            119.7835         calculate D2E/DX2 analytically  !
 ! A36   A(9,10,22)            118.9735         calculate D2E/DX2 analytically  !
 ! D1    D(11,1,2,3)           -55.5512         calculate D2E/DX2 analytically  !
 ! D2    D(11,1,2,13)         -176.4512         calculate D2E/DX2 analytically  !
 ! D3    D(11,1,2,14)           68.2304         calculate D2E/DX2 analytically  !
 ! D4    D(12,1,2,3)          -172.424          calculate D2E/DX2 analytically  !
 ! D5    D(12,1,2,13)           66.6759         calculate D2E/DX2 analytically  !
 ! D6    D(12,1,2,14)          -48.6424         calculate D2E/DX2 analytically  !
 ! D7    D(1,2,3,4)             92.913          calculate D2E/DX2 analytically  !
 ! D8    D(1,2,3,10)           -86.0953         calculate D2E/DX2 analytically  !
 ! D9    D(13,2,3,4)          -146.4443         calculate D2E/DX2 analytically  !
 ! D10   D(13,2,3,10)           34.5474         calculate D2E/DX2 analytically  !
 ! D11   D(14,2,3,4)           -30.6255         calculate D2E/DX2 analytically  !
 ! D12   D(14,2,3,10)          150.3662         calculate D2E/DX2 analytically  !
 ! D13   D(2,3,4,5)              0.6286         calculate D2E/DX2 analytically  !
 ! D14   D(2,3,4,7)            177.2906         calculate D2E/DX2 analytically  !
 ! D15   D(10,3,4,5)           179.6228         calculate D2E/DX2 analytically  !
 ! D16   D(10,3,4,7)            -3.7152         calculate D2E/DX2 analytically  !
 ! D17   D(2,3,10,9)          -178.6173         calculate D2E/DX2 analytically  !
 ! D18   D(2,3,10,22)            1.4068         calculate D2E/DX2 analytically  !
 ! D19   D(4,3,10,9)             2.3343         calculate D2E/DX2 analytically  !
 ! D20   D(4,3,10,22)         -177.6415         calculate D2E/DX2 analytically  !
 ! D21   D(3,4,5,6)           -148.5941         calculate D2E/DX2 analytically  !
 ! D22   D(3,4,5,15)            89.5449         calculate D2E/DX2 analytically  !
 ! D23   D(3,4,5,16)           -28.9332         calculate D2E/DX2 analytically  !
 ! D24   D(7,4,5,6)             34.782          calculate D2E/DX2 analytically  !
 ! D25   D(7,4,5,15)           -87.0791         calculate D2E/DX2 analytically  !
 ! D26   D(7,4,5,16)           154.4428         calculate D2E/DX2 analytically  !
 ! D27   D(3,4,7,8)              2.8677         calculate D2E/DX2 analytically  !
 ! D28   D(3,4,7,19)          -177.4071         calculate D2E/DX2 analytically  !
 ! D29   D(5,4,7,8)            179.6128         calculate D2E/DX2 analytically  !
 ! D30   D(5,4,7,19)            -0.6621         calculate D2E/DX2 analytically  !
 ! D31   D(4,5,6,17)           174.1446         calculate D2E/DX2 analytically  !
 ! D32   D(4,5,6,18)            58.4625         calculate D2E/DX2 analytically  !
 ! D33   D(15,5,6,17)          -64.4078         calculate D2E/DX2 analytically  !
 ! D34   D(15,5,6,18)          179.9101         calculate D2E/DX2 analytically  !
 ! D35   D(16,5,6,17)           52.2051         calculate D2E/DX2 analytically  !
 ! D36   D(16,5,6,18)          -63.477          calculate D2E/DX2 analytically  !
 ! D37   D(4,7,8,9)             -0.5087         calculate D2E/DX2 analytically  !
 ! D38   D(4,7,8,20)           179.2454         calculate D2E/DX2 analytically  !
 ! D39   D(19,7,8,9)           179.7625         calculate D2E/DX2 analytically  !
 ! D40   D(19,7,8,20)           -0.4834         calculate D2E/DX2 analytically  !
 ! D41   D(7,8,9,10)            -0.9836         calculate D2E/DX2 analytically  !
 ! D42   D(7,8,9,21)           179.3118         calculate D2E/DX2 analytically  !
 ! D43   D(20,8,9,10)          179.2631         calculate D2E/DX2 analytically  !
 ! D44   D(20,8,9,21)           -0.4415         calculate D2E/DX2 analytically  !
 ! D45   D(8,9,10,3)             0.0554         calculate D2E/DX2 analytically  !
 ! D46   D(8,9,10,22)         -179.9685         calculate D2E/DX2 analytically  !
 ! D47   D(21,9,10,3)          179.7604         calculate D2E/DX2 analytically  !
 ! D48   D(21,9,10,22)          -0.2636         calculate D2E/DX2 analytically  !
 --------------------------------------------------------------------------------
 Trust Radius=3.00D-01 FncErr=1.00D-07 GrdErr=1.00D-06 EigMax=2.50D+02 EigMin=1.00D-04
 Number of steps in this run=    116 maximum allowed number of steps=    132.
 GradGradGradGradGradGradGradGradGradGradGradGradGradGradGradGradGradGrad

                          Input orientation:                          
 ---------------------------------------------------------------------
 Center     Atomic      Atomic             Coordinates (Angstroms)
 Number     Number       Type             X           Y           Z
 ---------------------------------------------------------------------
      1          7           0        2.317458   -1.401905   -0.557662
      2          6           0        1.609970   -0.945982    0.630578
      3          6           0        0.713677    0.230923    0.320052
      4          6           0       -0.651633    0.092460   -0.026005
      5          6           0       -1.327848   -1.261713   -0.098282
      6          7           0       -2.394188   -1.324582   -1.097246
      7          6           0       -1.410730    1.261101   -0.239594
      8          6           0       -0.831450    2.528622   -0.174754
      9          6           0        0.520111    2.657003    0.116057
     10          6           0        1.285095    1.518508    0.361686
     11          1           0        1.644666   -1.616455   -1.290475
     12          1           0        2.811441   -2.265668   -0.346264
     13          1           0        2.342396   -0.656360    1.393846
     14          1           0        1.037871   -1.766970    1.075120
     15          1           0       -1.738814   -1.501473    0.888318
     16          1           0       -0.605761   -2.039282   -0.362882
     17          1           0       -2.736250   -2.281008   -1.160318
     18          1           0       -1.997529   -1.098026   -2.008615
     19          1           0       -2.473493    1.185193   -0.465436
     20          1           0       -1.437957    3.411681   -0.355793
     21          1           0        0.979415    3.640624    0.156964
     22          1           0        2.343555    1.633309    0.589014
 ---------------------------------------------------------------------
                    Distance matrix (angstroms):
                    1          2          3          4          5
     1  N    0.000000
     2  C    1.456132   0.000000
     3  C    2.451249   1.511580   0.000000
     4  C    3.366198   2.573774   1.415273   0.000000
     5  C    3.676811   3.043303   2.563354   1.515346   0.000000
     6  N    4.743073   4.377442   3.753286   2.488386   1.462520
     7  C    4.592619   3.840968   2.426432   1.409812   2.528127
     8  C    5.050869   4.322263   2.812769   2.447314   3.823466
     9  C    4.489887   3.799214   2.442324   2.823127   4.337882
    10  C    3.231066   2.500312   1.409301   2.436151   3.843002
    11  H    1.017692   2.034990   2.621706   3.129259   3.222266
    12  H    1.017248   2.034533   3.328296   4.201930   4.266513
    13  H    2.089220   1.096771   2.143136   3.397193   4.007941
    14  H    2.106322   1.094960   2.160280   2.743061   2.688640
    15  H    4.307449   3.404314   3.055950   2.135081   1.095335
    16  H    2.998233   2.663030   2.713143   2.158683   1.093634
    17  H    5.164880   4.886638   4.517000   3.356433   2.037273
    18  H    4.562535   4.472416   3.813061   2.675712   2.030920
    19  H    5.445622   4.734746   3.418431   2.169410   2.726656
    20  H    6.108560   5.408513   3.899169   3.426995   4.681778
    21  H    5.265753   4.653909   3.423927   3.909382   5.424161
    22  H    3.244699   2.681906   2.166918   3.423977   4.725751
                    6          7          8          9         10
     6  N    0.000000
     7  C    2.896293   0.000000
     8  C    4.259146   1.395127   0.000000
     9  C    5.081168   2.408978   1.388441   0.000000
    10  C    4.873271   2.774034   2.405797   1.393450   0.000000
    11  H    4.053994   4.326675   4.955566   4.637391   3.561870
    12  H    5.343051   5.502381   6.023726   5.449460   4.141366
    13  H    5.393264   4.520037   4.762133   3.991471   2.629314
    14  H    4.085819   4.110150   4.848573   4.556250   3.371124
    15  H    2.098398   3.001939   4.265571   4.795003   4.306002
    16  H    2.061203   3.399367   4.577343   4.853046   4.093679
    17  H    1.017710   3.892463   5.266131   6.051196   5.737947
    18  H    1.019440   3.006535   4.227927   4.995296   4.820809
    19  H    2.589295   1.089143   2.141402   3.386152   3.862928
    20  H    4.888386   2.153889   1.086472   2.150864   3.393213
    21  H    6.132497   3.395907   2.150771   1.086345   2.153771
    22  H    5.834279   3.862614   3.386087   2.143965   1.088667
                   11         12         13         14         15
    11  H    0.000000
    12  H    1.635352   0.000000
    13  H    2.934994   2.416166   0.000000
    14  H    2.446814   2.326926   1.742650   0.000000
    15  H    4.025953   4.776297   4.198339   2.795597   0.000000
    16  H    2.470553   3.424733   3.700027   2.200802   1.771595
    17  H    4.432945   5.607121   5.912350   4.416493   2.408208
    18  H    3.748343   5.220440   5.532338   4.378420   2.936312
    19  H    5.048678   6.312937   5.480970   4.839242   3.096866
    20  H    5.971461   7.091528   5.822480   5.915714   5.077146
    21  H    5.493134   6.204341   4.674577   5.485300   5.862151
    22  H    3.818624   4.036791   2.427002   3.674644   5.155791
                   16         17         18         19         20
    16  H    0.000000
    17  H    2.287645   0.000000
    18  H    2.351896   1.632410   0.000000
    19  H    3.727758   3.544919   2.796611   0.000000
    20  H    5.514127   5.894025   4.835535   2.457968   0.000000
    21  H    5.919827   7.113869   6.000561   4.282417   2.481738
    22  H    4.805465   6.647290   5.749164   4.951427   4.284286
                   21         22
    21  H    0.000000
    22  H    2.465129   0.000000
 Stoichiometry    C8H12N2
 Framework group  C1[X(C8H12N2)]
 Deg. of freedom    60
 Full point group                 C1      NOp   1
 Largest Abelian subgroup         C1      NOp   1
 Largest concise Abelian subgroup C1      NOp   1
                         Standard orientation:                         
 ---------------------------------------------------------------------
 Center     Atomic      Atomic             Coordinates (Angstroms)
 Number     Number       Type             X           Y           Z
 ---------------------------------------------------------------------
      1          7           0        1.275908    2.450449   -0.728055
      2          6           0        0.767587    1.900135    0.520577
      3          6           0       -0.208180    0.773464    0.268854
      4          6           0        0.178203   -0.587174    0.220194
      5          6           0        1.614195   -1.021733    0.433173
      6          7           0        1.973940   -2.223135   -0.319276
      7          6           0       -0.823406   -1.562128    0.036311
      8          6           0       -2.159166   -1.207857   -0.155043
      9          6           0       -2.525888    0.131278   -0.156321
     10          6           0       -1.559160    1.112494    0.054285
     11          1           0        1.688478    1.704158   -1.283511
     12          1           0        2.018637    3.115705   -0.526604
     13          1           0        0.268414    2.696718    1.085546
     14          1           0        1.593644    1.567382    1.157635
     15          1           0        1.771295   -1.201202    1.502224
     16          1           0        2.305573   -0.235921    0.116104
     17          1           0        2.969762   -2.400947   -0.207675
     18          1           0        1.821326   -2.041731   -1.310770
     19          1           0       -0.559955   -2.618928    0.037332
     20          1           0       -2.908378   -1.979966   -0.306534
     21          1           0       -3.562591    0.413972   -0.315932
     22          1           0       -1.860257    2.158691    0.051318
 ---------------------------------------------------------------------
 Rotational constants (GHZ):           1.4148311           1.3775562           0.7500797
 Standard basis: 6-31G(d,p) (6D, 7F)
 There are   210 symmetry adapted cartesian basis functions of A   symmetry.
 There are   210 symmetry adapted basis functions of A   symmetry.
   210 basis functions,   364 primitive gaussians,   210 cartesian basis functions
    37 alpha electrons       37 beta electrons
       nuclear repulsion energy       511.2795214806 Hartrees.
 NAtoms=   22 NActive=   22 NUniq=   22 SFac= 1.00D+00 NAtFMM=   60 NAOKFM=F Big=F
 Integral buffers will be    131072 words long.
 Raffenetti 2 integral format.
 Two-electron integral symmetry is turned on.
 Force inversion solution in PCM.
 ------------------------------------------------------------------------------
 Polarizable Continuum Model (PCM)
 =================================
 Model                : PCM.
 Atomic radii         : UFF (Universal Force Field).
 Polarization charges : Total charges.
 Charge compensation  : None.
 Solution method      : Matrix inversion.
 Cavity type          : Scaled VdW (van der Waals Surface) (Alpha=1.100).
 Cavity algorithm     : GePol (No added spheres)
                        Default sphere list used, NSphG=   22.
                        Lebedev-Laikov grids with approx.  5.0 points / Ang**2.
                        Smoothing algorithm: York/Karplus (Gamma=1.0000).
                        Polarization charges: spherical gaussians, with
                                              point-specific exponents (IZeta= 3).
                        Self-potential: point-specific (ISelfS= 7).
                        Self-field    : sphere-specific E.n sum rule (ISelfD= 2).
 1st derivatives      : Analytical E(r).r(x)/FMM algorithm (CHGder, D1EAlg=3).
                        Cavity 1st derivative terms included.
 2nd derivatives      : Analytical E(r).r(xy)/FMM algorithm (CHGder, D2EAlg=3).
                        Cavity 2nd derivative terms included.
 Solvent              : Water, Eps=  78.355300 Eps(inf)=   1.777849
 ------------------------------------------------------------------------------
 One-electron integrals computed using PRISM.
 NBasis=   210 RedAO= T EigKep=  4.20D-04  NBF=   210
 NBsUse=   210 1.00D-06 EigRej= -1.00D+00 NBFU=   210
 ExpMin= 1.61D-01 ExpMax= 4.17D+03 ExpMxC= 6.27D+02 IAcc=3 IRadAn=         5 AccDes= 0.00D+00
 Harris functional with IExCor=  402 and IRadAn=       5 diagonalized for initial guess.
 HarFok:  IExCor=  402 AccDes= 0.00D+00 IRadAn=         5 IDoV= 1 UseB2=F ITyADJ=14
 ICtDFT=  3500011 ScaDFX=  1.000000  1.000000  1.000000  1.000000
 FoFCou: FMM=F IPFlag=           0 FMFlag=      100000 FMFlg1=           0
         NFxFlg=           0 DoJE=T BraDBF=F KetDBF=T FulRan=T
         wScrn=  0.000000 ICntrl=       500 IOpCl=  0 I1Cent=   200000004 NGrid=           0
         NMat0=    1 NMatS0=      1 NMatT0=    0 NMatD0=    1 NMtDS0=    0 NMtDT0=    0
 Petite list used in FoFCou.
 Keep R1 ints in memory in canonical form, NReq=250131393.
 Requested convergence on RMS density matrix=1.00D-08 within  32 cycles.
 Requested convergence on MAX density matrix=1.00D-06.
 Requested convergence on             energy=1.00D-06.
 No special actions if energy rises.
 Inv3:  Mode=1 IEnd=     8326668.
 Iteration    1 A*A^-1 deviation from unit magnitude is 2.89D-15 for   1097.
 Iteration    1 A*A^-1 deviation from orthogonality  is 1.99D-15 for    972    782.
 Iteration    1 A^-1*A deviation from unit magnitude is 2.89D-15 for   1097.
 Iteration    1 A^-1*A deviation from orthogonality  is 4.93D-13 for   1039    972.
 Error on total polarization charges =  0.00836
 SCF Done:  E(RB3LYP) =  -421.588774830     A.U. after   12 cycles
            NFock= 12  Conv=0.38D-08     -V/T= 2.0097
 QCSCF skips out because SCF is already converged.
 DoSCS=F DFT=T ScalE2(SS,OS)=  1.000000  1.000000
 Range of M.O.s used for correlation:     1   210
 NBasis=   210 NAE=    37 NBE=    37 NFC=     0 NFV=     0
 NROrb=    210 NOA=    37 NOB=    37 NVA=   173 NVB=   173
 Symmetrizing basis deriv contribution to polar:
 IMax=3 JMax=2 DiffMx= 0.00D+00
 G2DrvN: will do    23 centers at a time, making    1 passes.
 Calling FoFCou, ICntrl=  3107 FMM=F I1Cent=   0 AccDes= 0.00D+00.
 NEqPCM:  Using equilibrium solvation (IEInf=0, Eps=  78.3553, EpsInf=   1.7778)
 G2PCM: DoFxE=T DoFxN=T DoGrad=T DoDP/DQ/DG/TGxP=FFFF NFrqRd=   0 IEInf=0 SqF1=F DoCFld=F IF1Alg=4.
 End of G2Drv F.D. properties file   721 does not exist.
 End of G2Drv F.D. properties file   722 does not exist.
 End of G2Drv F.D. properties file   788 does not exist.
          IDoAtm=1111111111111111111111
 NEqPCM:  Using equilibrium solvation (IEInf=0, Eps=  78.3553, EpsInf=   1.7778)
          Differentiating once with respect to nuclear coordinates.
 Keep R1 ints in memory in canonical form, NReq=253069501.
          There are    69 degrees of freedom in the 1st order CPHF.  IDoFFX=6 NUNeed=     0.
     63 vectors produced by pass  0 Test12= 9.28D-15 1.45D-09 XBig12= 1.06D-01 1.62D-01.
 AX will form    63 AO Fock derivatives at one time.
     63 vectors produced by pass  1 Test12= 9.28D-15 1.45D-09 XBig12= 1.71D-02 3.83D-02.
     63 vectors produced by pass  2 Test12= 9.28D-15 1.45D-09 XBig12= 1.75D-04 2.38D-03.
     63 vectors produced by pass  3 Test12= 9.28D-15 1.45D-09 XBig12= 1.01D-06 1.25D-04.
     63 vectors produced by pass  4 Test12= 9.28D-15 1.45D-09 XBig12= 9.44D-10 3.97D-06.
     36 vectors produced by pass  5 Test12= 9.28D-15 1.45D-09 XBig12= 7.76D-13 1.17D-07.
      3 vectors produced by pass  6 Test12= 9.28D-15 1.45D-09 XBig12= 5.73D-16 2.56D-09.
 InvSVY:  IOpt=1 It=  1 EMax= 3.33D-16
 Solved reduced A of dimension   354 with    69 vectors.
 End of Minotr F.D. properties file   721 does not exist.
 End of Minotr F.D. properties file   722 does not exist.
 End of Minotr F.D. properties file   788 does not exist.

 **********************************************************************

            Population analysis using the SCF density.

 **********************************************************************

 Orbital symmetries:
       Occupied  (A) (A) (A) (A) (A) (A) (A) (A) (A) (A) (A) (A)
                 (A) (A) (A) (A) (A) (A) (A) (A) (A) (A) (A) (A)
                 (A) (A) (A) (A) (A) (A) (A) (A) (A) (A) (A) (A)
                 (A)
       Virtual   (A) (A) (A) (A) (A) (A) (A) (A) (A) (A) (A) (A)
                 (A) (A) (A) (A) (A) (A) (A) (A) (A) (A) (A) (A)
                 (A) (A) (A) (A) (A) (A) (A) (A) (A) (A) (A) (A)
                 (A) (A) (A) (A) (A) (A) (A) (A) (A) (A) (A) (A)
                 (A) (A) (A) (A) (A) (A) (A) (A) (A) (A) (A) (A)
                 (A) (A) (A) (A) (A) (A) (A) (A) (A) (A) (A) (A)
                 (A) (A) (A) (A) (A) (A) (A) (A) (A) (A) (A) (A)
                 (A) (A) (A) (A) (A) (A) (A) (A) (A) (A) (A) (A)
                 (A) (A) (A) (A) (A) (A) (A) (A) (A) (A) (A) (A)
                 (A) (A) (A) (A) (A) (A) (A) (A) (A) (A) (A) (A)
                 (A) (A) (A) (A) (A) (A) (A) (A) (A) (A) (A) (A)
                 (A) (A) (A) (A) (A) (A) (A) (A) (A) (A) (A) (A)
                 (A) (A) (A) (A) (A) (A) (A) (A) (A) (A) (A) (A)
                 (A) (A) (A) (A) (A) (A) (A) (A) (A) (A) (A) (A)
                 (A) (A) (A) (A) (A)
 The electronic state is 1-A.
 Alpha  occ. eigenvalues --  -14.31128 -14.31063 -10.20983 -10.20642 -10.19694
 Alpha  occ. eigenvalues --  -10.19418 -10.18663 -10.18593 -10.18495 -10.18441
 Alpha  occ. eigenvalues --   -0.88968  -0.87913  -0.84238  -0.75700  -0.74507
 Alpha  occ. eigenvalues --   -0.66888  -0.64852  -0.58911  -0.56763  -0.50827
 Alpha  occ. eigenvalues --   -0.48730  -0.47478  -0.47272  -0.43974  -0.43160
 Alpha  occ. eigenvalues --   -0.41904  -0.41378  -0.39967  -0.38420  -0.37936
 Alpha  occ. eigenvalues --   -0.35130  -0.33259  -0.32888  -0.24807  -0.24433
 Alpha  occ. eigenvalues --   -0.23468  -0.22861
 Alpha virt. eigenvalues --   -0.00507  -0.00118   0.07912   0.10391   0.10665
 Alpha virt. eigenvalues --    0.13476   0.13739   0.15018   0.15928   0.16587
 Alpha virt. eigenvalues --    0.17860   0.18122   0.19356   0.20135   0.21892
 Alpha virt. eigenvalues --    0.23511   0.25064   0.26823   0.27551   0.32373
 Alpha virt. eigenvalues --    0.34112   0.34747   0.35929   0.49500   0.50101
 Alpha virt. eigenvalues --    0.51955   0.52705   0.53928   0.55124   0.56773
 Alpha virt. eigenvalues --    0.57908   0.59269   0.60267   0.60767   0.61508
 Alpha virt. eigenvalues --    0.63016   0.63400   0.65614   0.68683   0.69206
 Alpha virt. eigenvalues --    0.70304   0.71345   0.73226   0.74244   0.75624
 Alpha virt. eigenvalues --    0.76526   0.81090   0.81826   0.82153   0.82749
 Alpha virt. eigenvalues --    0.84066   0.85548   0.87531   0.88525   0.89557
 Alpha virt. eigenvalues --    0.91013   0.93454   0.94454   0.94927   0.95267
 Alpha virt. eigenvalues --    0.97440   1.00622   1.02156   1.05840   1.06148
 Alpha virt. eigenvalues --    1.10609   1.12640   1.13916   1.18601   1.19960
 Alpha virt. eigenvalues --    1.23265   1.27863   1.30724   1.30940   1.33773
 Alpha virt. eigenvalues --    1.35705   1.41231   1.42327   1.43077   1.45441
 Alpha virt. eigenvalues --    1.49959   1.54756   1.59508   1.63720   1.69933
 Alpha virt. eigenvalues --    1.72299   1.76309   1.77479   1.80676   1.82532
 Alpha virt. eigenvalues --    1.85616   1.86116   1.87174   1.89298   1.90203
 Alpha virt. eigenvalues --    1.92753   1.94205   1.96468   1.96881   1.99072
 Alpha virt. eigenvalues --    2.00909   2.03786   2.06721   2.07910   2.08636
 Alpha virt. eigenvalues --    2.11845   2.12782   2.15438   2.18882   2.21696
 Alpha virt. eigenvalues --    2.23248   2.25804   2.28586   2.29241   2.31001
 Alpha virt. eigenvalues --    2.31996   2.33677   2.35209   2.37350   2.39109
 Alpha virt. eigenvalues --    2.42282   2.42429   2.43455   2.45795   2.48040
 Alpha virt. eigenvalues --    2.50844   2.52817   2.54421   2.56352   2.57357
 Alpha virt. eigenvalues --    2.58664   2.62998   2.64560   2.66097   2.68154
 Alpha virt. eigenvalues --    2.69353   2.73476   2.74546   2.77939   2.78657
 Alpha virt. eigenvalues --    2.79695   2.83871   2.91117   2.92519   2.95436
 Alpha virt. eigenvalues --    2.97142   2.99318   3.04422   3.09433   3.20211
 Alpha virt. eigenvalues --    3.24274   3.27516   3.29139   3.29602   3.31390
 Alpha virt. eigenvalues --    3.34206   3.37186   3.43019   3.45357   3.47435
 Alpha virt. eigenvalues --    3.54277   3.56516   3.84921   3.96109   4.03168
 Alpha virt. eigenvalues --    4.13620   4.16293   4.18477   4.39495   4.44978
 Alpha virt. eigenvalues --    4.54311   4.58366   4.84229
          Condensed to atoms (all electrons):
               1          2          3          4          5          6
     1  N    6.820485   0.294955  -0.063592  -0.001669  -0.002511   0.000020
     2  C    0.294955   4.901800   0.369708  -0.062568  -0.012432   0.000112
     3  C   -0.063592   0.369708   4.853886   0.515050  -0.058417   0.002872
     4  C   -0.001669  -0.062568   0.515050   4.899689   0.353565  -0.045123
     5  C   -0.002511  -0.012432  -0.058417   0.353565   4.915113   0.285739
     6  N    0.000020   0.000112   0.002872  -0.045123   0.285739   6.804807
     7  C   -0.000131   0.008137  -0.020719   0.485641  -0.072261  -0.005567
     8  C    0.000028  -0.000064  -0.040941  -0.031370   0.006708   0.000284
     9  C   -0.000073   0.006533  -0.031391  -0.040325  -0.000050   0.000009
    10  C    0.006206  -0.062419   0.506857  -0.026848   0.007499  -0.000093
    11  H    0.339794  -0.040544  -0.005699   0.004944  -0.000296  -0.000157
    12  H    0.335098  -0.031415   0.005773   0.000202  -0.000145  -0.000001
    13  H   -0.045183   0.372868  -0.022168   0.006323  -0.000038  -0.000006
    14  H   -0.055685   0.374203  -0.029515  -0.017697   0.008092  -0.000024
    15  H    0.000006  -0.000023   0.000523  -0.023616   0.372300  -0.039838
    16  H    0.003283   0.004211  -0.012970  -0.038378   0.382456  -0.055788
    17  H   -0.000001  -0.000004  -0.000174   0.004994  -0.032616   0.338765
    18  H    0.000008  -0.000072   0.000606   0.000905  -0.043564   0.340153
    19  H   -0.000000  -0.000121   0.004936  -0.043688  -0.011242   0.016363
    20  H    0.000000   0.000009   0.000978   0.003616  -0.000179  -0.000001
    21  H    0.000000  -0.000181   0.003825   0.000976   0.000011   0.000000
    22  H    0.001447  -0.009192  -0.041005   0.004415  -0.000139   0.000001
               7          8          9         10         11         12
     1  N   -0.000131   0.000028  -0.000073   0.006206   0.339794   0.335098
     2  C    0.008137  -0.000064   0.006533  -0.062419  -0.040544  -0.031415
     3  C   -0.020719  -0.040941  -0.031391   0.506857  -0.005699   0.005773
     4  C    0.485641  -0.031370  -0.040325  -0.026848   0.004944   0.000202
     5  C   -0.072261   0.006708  -0.000050   0.007499  -0.000296  -0.000145
     6  N   -0.005567   0.000284   0.000009  -0.000093  -0.000157  -0.000001
     7  C    4.976419   0.507611  -0.032457  -0.058325  -0.000027   0.000009
     8  C    0.507611   4.862161   0.539539  -0.033744  -0.000014  -0.000001
     9  C   -0.032457   0.539539   4.850978   0.519750  -0.000014   0.000007
    10  C   -0.058325  -0.033744   0.519750   4.936941  -0.000526  -0.000102
    11  H   -0.000027  -0.000014  -0.000014  -0.000526   0.475472  -0.030488
    12  H    0.000009  -0.000001   0.000007  -0.000102  -0.030488   0.474737
    13  H   -0.000133   0.000009   0.000012  -0.011473   0.006942  -0.002372
    14  H   -0.000166   0.000013  -0.000216   0.006508  -0.004085  -0.005754
    15  H   -0.006304  -0.000241   0.000037  -0.000184   0.000025   0.000006
    16  H    0.007699  -0.000123   0.000021  -0.000257   0.002923   0.000278
    17  H    0.000349   0.000004  -0.000000   0.000003  -0.000002   0.000000
    18  H   -0.000163  -0.000235  -0.000018  -0.000010   0.000056   0.000001
    19  H    0.367102  -0.042950   0.004873   0.000543   0.000003  -0.000000
    20  H   -0.037596   0.369617  -0.041155   0.004459  -0.000000   0.000000
    21  H    0.004324  -0.040893   0.368122  -0.037002   0.000000  -0.000000
    22  H    0.000538   0.004814  -0.042827   0.369413   0.000020  -0.000084
              13         14         15         16         17         18
     1  N   -0.045183  -0.055685   0.000006   0.003283  -0.000001   0.000008
     2  C    0.372868   0.374203  -0.000023   0.004211  -0.000004  -0.000072
     3  C   -0.022168  -0.029515   0.000523  -0.012970  -0.000174   0.000606
     4  C    0.006323  -0.017697  -0.023616  -0.038378   0.004994   0.000905
     5  C   -0.000038   0.008092   0.372300   0.382456  -0.032616  -0.043564
     6  N   -0.000006  -0.000024  -0.039838  -0.055788   0.338765   0.340153
     7  C   -0.000133  -0.000166  -0.006304   0.007699   0.000349  -0.000163
     8  C    0.000009   0.000013  -0.000241  -0.000123   0.000004  -0.000235
     9  C    0.000012  -0.000216   0.000037   0.000021  -0.000000  -0.000018
    10  C   -0.011473   0.006508  -0.000184  -0.000257   0.000003  -0.000010
    11  H    0.006942  -0.004085   0.000025   0.002923  -0.000002   0.000056
    12  H   -0.002372  -0.005754   0.000006   0.000278   0.000000   0.000001
    13  H    0.634275  -0.052046   0.000014   0.000291  -0.000000   0.000000
    14  H   -0.052046   0.687630   0.000488  -0.004415   0.000003  -0.000001
    15  H    0.000014   0.000488   0.609861  -0.044407  -0.002421   0.006800
    16  H    0.000291  -0.004415  -0.044407   0.666137  -0.005070  -0.005337
    17  H   -0.000000   0.000003  -0.002421  -0.005070   0.468992  -0.029974
    18  H    0.000000  -0.000001   0.006800  -0.005337  -0.029974   0.479624
    19  H    0.000003   0.000000   0.000051   0.000523  -0.000323  -0.000705
    20  H   -0.000000  -0.000000   0.000002   0.000002  -0.000000   0.000004
    21  H   -0.000009   0.000003  -0.000000  -0.000000  -0.000000  -0.000000
    22  H    0.004272   0.000226   0.000003  -0.000009  -0.000000   0.000000
              19         20         21         22
     1  N   -0.000000   0.000000   0.000000   0.001447
     2  C   -0.000121   0.000009  -0.000181  -0.009192
     3  C    0.004936   0.000978   0.003825  -0.041005
     4  C   -0.043688   0.003616   0.000976   0.004415
     5  C   -0.011242  -0.000179   0.000011  -0.000139
     6  N    0.016363  -0.000001   0.000000   0.000001
     7  C    0.367102  -0.037596   0.004324   0.000538
     8  C   -0.042950   0.369617  -0.040893   0.004814
     9  C    0.004873  -0.041155   0.368122  -0.042827
    10  C    0.000543   0.004459  -0.037002   0.369413
    11  H    0.000003  -0.000000   0.000000   0.000020
    12  H   -0.000000   0.000000  -0.000000  -0.000084
    13  H    0.000003  -0.000000  -0.000009   0.004272
    14  H    0.000000  -0.000000   0.000003   0.000226
    15  H    0.000051   0.000002  -0.000000   0.000003
    16  H    0.000523   0.000002  -0.000000  -0.000009
    17  H   -0.000323  -0.000000  -0.000000  -0.000000
    18  H   -0.000705   0.000004  -0.000000   0.000000
    19  H    0.614418  -0.005800  -0.000194   0.000016
    20  H   -0.005800   0.614994  -0.005768  -0.000199
    21  H   -0.000194  -0.005768   0.616372  -0.005838
    22  H    0.000016  -0.000199  -0.005838   0.619318
 Mulliken charges:
               1
     1  N   -0.632486
     2  C   -0.113499
     3  C    0.061578
     4  C    0.050962
     5  C   -0.097590
     6  N   -0.642526
     7  C   -0.123978
     8  C   -0.100213
     9  C   -0.101354
    10  C   -0.127197
    11  H    0.251675
    12  H    0.254251
    13  H    0.108419
    14  H    0.092438
    15  H    0.126920
    16  H    0.098929
    17  H    0.257476
    18  H    0.251923
    19  H    0.096190
    20  H    0.097018
    21  H    0.096253
    22  H    0.094811
 Sum of Mulliken charges =  -0.00000
 Mulliken charges with hydrogens summed into heavy atoms:
               1
     1  N   -0.126560
     2  C    0.087357
     3  C    0.061578
     4  C    0.050962
     5  C    0.128259
     6  N   -0.133127
     7  C   -0.027788
     8  C   -0.003194
     9  C   -0.005101
    10  C   -0.032386
 APT charges:
               1
     1  N   -1.210441
     2  C   -0.631983
     3  C   -0.263682
     4  C   -0.307272
     5  C   -0.531720
     6  N   -1.284314
     7  C   -0.507390
     8  C   -0.460249
     9  C   -0.471585
    10  C   -0.501657
    11  H    0.274682
    12  H    0.812412
    13  H    0.481071
    14  H    0.341082
    15  H    0.423756
    16  H    0.331168
    17  H    0.808496
    18  H    0.360197
    19  H    0.484949
    20  H    0.659418
    21  H    0.671905
    22  H    0.521156
 Sum of APT charges =  -0.00000
 APT charges with hydrogens summed into heavy atoms:
               1
     1  N   -0.123347
     2  C    0.190171
     3  C   -0.263682
     4  C   -0.307272
     5  C    0.223204
     6  N   -0.115621
     7  C   -0.022441
     8  C    0.199169
     9  C    0.200320
    10  C    0.019499
 Electronic spatial extent (au):  <R**2>=           1576.4009
 Charge=             -0.0000 electrons
 Dipole moment (field-independent basis, Debye):
    X=              2.7468    Y=              0.4927    Z=              0.1508  Tot=              2.7947
 Quadrupole moment (field-independent basis, Debye-Ang):
   XX=            -47.1196   YY=            -63.4335   ZZ=            -61.2949
   XY=              1.9583   XZ=             -1.0694   YZ=              4.4683
 Traceless Quadrupole moment (field-independent basis, Debye-Ang):
   XX=             10.1631   YY=             -6.1509   ZZ=             -4.0122
   XY=              1.9583   XZ=             -1.0694   YZ=              4.4683
 Octapole moment (field-independent basis, Debye-Ang**2):
  XXX=             27.2724  YYY=             15.0057  ZZZ=             -3.7167  XYY=              6.3757
  XXY=             -0.3940  XXZ=             -9.8040  XZZ=             12.8215  YZZ=             -5.5448
  YYZ=              6.5678  XYZ=              0.9955
 Hexadecapole moment (field-independent basis, Debye-Ang**3):
 XXXX=           -854.3885 YYYY=           -992.9886 ZZZZ=           -134.7411 XXXY=            -19.5227
 XXXZ=             -7.7020 YYYX=             47.3150 YYYZ=             34.6973 ZZZX=            -10.4261
 ZZZY=              6.8109 XXYY=           -259.3963 XXZZ=           -187.7777 YYZZ=           -188.8078
 XXYZ=              0.8489 YYXZ=             -6.0659 ZZXY=             -8.2586
 N-N= 5.112795214806D+02 E-N=-2.000684127428D+03  KE= 4.175496919026D+02
  Exact polarizability:   0.000   0.000   0.000   0.000   0.000   0.000
 Approx polarizability: 172.808   0.346 169.285  12.206   6.353  83.791
 D2PCM: PCM CHGder 2nd derivatives, FixD1E=F FixD2E=F DoIter=F DoCFld=F I1PDM=0
 Calling FoFJK, ICntrl=    100147 FMM=F ISym2X=0 I1Cent= 0 IOpClX= 0 NMat=1 NMatS=1 NMatT=0.
 ***** Axes restored to original set *****
 -------------------------------------------------------------------
 Center     Atomic                   Forces (Hartrees/Bohr)
 Number     Number              X              Y              Z
 -------------------------------------------------------------------
      1        7           0.010055260    0.003140560   -0.010734493
      2        6          -0.005509555   -0.006694536    0.006352448
      3        6           0.000790000    0.007309482   -0.000198992
      4        6           0.000109235    0.008614206    0.002564453
      5        6           0.005501612   -0.007774576   -0.007496411
      6        7          -0.012161390    0.009989721   -0.001913112
      7        6          -0.000615346   -0.001411334   -0.001460031
      8        6          -0.004840429   -0.001886855   -0.000923735
      9        6           0.006112210    0.001933821    0.000471786
     10        6          -0.003797451   -0.002437233   -0.000542899
     11        1           0.000398935   -0.002027966    0.000410110
     12        1          -0.000609420   -0.001058846   -0.001041057
     13        1           0.000930604    0.001668224   -0.001952750
     14        1          -0.005456452    0.000891931    0.004885131
     15        1          -0.001919468   -0.002848928    0.000445914
     16        1           0.009182086   -0.000219724    0.009509085
     17        1           0.000798551    0.000690935   -0.000010744
     18        1          -0.000856179   -0.001873882    0.000823504
     19        1           0.003129985   -0.003374156   -0.000431049
     20        1          -0.000428424   -0.000283815    0.000289786
     21        1           0.000404380   -0.000040072    0.000129240
     22        1          -0.001218745   -0.002306957    0.000823816
 -------------------------------------------------------------------
 Cartesian Forces:  Max     0.012161390 RMS     0.004369851
 FormGI is forming the generalized inverse of G from B-inverse, IUseBI=4.

 GradGradGradGradGradGradGradGradGradGradGradGradGradGradGradGradGradGrad
 Berny optimization.
 Internal  Forces:  Max     0.014561825 RMS     0.003243640
 Search for a local minimum.
 Step number   1 out of a maximum of  116
 All quantities printed in internal units (Hartrees-Bohrs-Radians)
 Mixed Optimization -- RFO/linear search
 Second derivative matrix not updated -- analytic derivatives used.
 ITU=  0
     Eigenvalues ---    0.00042   0.00154   0.00241   0.00293   0.01565
     Eigenvalues ---    0.01736   0.01772   0.02062   0.02167   0.02433
     Eigenvalues ---    0.02514   0.02659   0.02843   0.03158   0.03346
     Eigenvalues ---    0.05315   0.05508   0.05850   0.05946   0.09063
     Eigenvalues ---    0.09196   0.10887   0.11425   0.12349   0.12423
     Eigenvalues ---    0.12891   0.13134   0.15186   0.15345   0.16976
     Eigenvalues ---    0.17585   0.18829   0.19105   0.19361   0.19492
     Eigenvalues ---    0.22242   0.22388   0.24241   0.29700   0.31044
     Eigenvalues ---    0.31835   0.32333   0.32753   0.33054   0.33591
     Eigenvalues ---    0.35486   0.35708   0.35849   0.36026   0.37882
     Eigenvalues ---    0.38286   0.40568   0.43215   0.44017   0.44418
     Eigenvalues ---    0.44693   0.44838   0.46479   0.47217   0.50513
 RFO step:  Lambda=-6.07144711D-03 EMin= 4.15322295D-04
 Linear search not attempted -- first point.
 Iteration  1 RMS(Cart)=  0.05094966 RMS(Int)=  0.00126823
 Iteration  2 RMS(Cart)=  0.00208447 RMS(Int)=  0.00019715
 Iteration  3 RMS(Cart)=  0.00000372 RMS(Int)=  0.00019714
 Iteration  4 RMS(Cart)=  0.00000000 RMS(Int)=  0.00019714
 Variable       Old X    -DE/DX   Delta X   Delta X   Delta X     New X
                                 (Linear)    (Quad)   (Total)
    R1        2.75169   0.01404   0.00000   0.03799   0.03799   2.78968
    R2        1.92316  -0.00013   0.00000   0.00254   0.00254   1.92570
    R3        1.92232   0.00039   0.00000   0.00347   0.00347   1.92579
    R4        2.85647   0.00264   0.00000   0.01103   0.01103   2.86750
    R5        2.07260  -0.00030   0.00000  -0.00180  -0.00180   2.07079
    R6        2.06917   0.00417   0.00000   0.00859   0.00859   2.07777
    R7        2.67448  -0.00443   0.00000  -0.00792  -0.00794   2.66654
    R8        2.66319  -0.00548   0.00000  -0.01436  -0.01437   2.64882
    R9        2.86359   0.00151   0.00000   0.01359   0.01359   2.87718
   R10        2.66416  -0.00634   0.00000  -0.01428  -0.01428   2.64988
   R11        2.76376   0.00928   0.00000   0.01259   0.01259   2.77635
   R12        2.06988   0.00175   0.00000   0.00693   0.00693   2.07682
   R13        2.06667   0.00392   0.00000   0.01088   0.01088   2.07755
   R14        1.92319  -0.00092   0.00000   0.00005   0.00005   1.92324
   R15        1.92646  -0.00149   0.00000  -0.00138  -0.00138   1.92508
   R16        2.63641  -0.00061   0.00000  -0.00077  -0.00076   2.63565
   R17        2.05818  -0.00273   0.00000  -0.00822  -0.00822   2.04996
   R18        2.62377   0.00616   0.00000   0.01292   0.01294   2.63671
   R19        2.05313  -0.00004   0.00000  -0.00003  -0.00003   2.05311
   R20        2.63324   0.00040   0.00000   0.00134   0.00134   2.63458
   R21        2.05289   0.00014   0.00000  -0.00027  -0.00027   2.05262
   R22        2.05728  -0.00126   0.00000  -0.00268  -0.00268   2.05461
    A1        1.90965   0.00036   0.00000  -0.00971  -0.00987   1.89978
    A2        1.90946   0.00081   0.00000  -0.01105  -0.01120   1.89825
    A3        1.86676  -0.00154   0.00000  -0.02554  -0.02589   1.84087
    A4        1.94361  -0.00065   0.00000  -0.00757  -0.00784   1.93577
    A5        1.90298  -0.00209   0.00000  -0.02589  -0.02615   1.87683
    A6        1.92879   0.00626   0.00000   0.04706   0.04717   1.97596
    A7        1.91064  -0.00042   0.00000  -0.01257  -0.01303   1.89761
    A8        1.93625  -0.00360   0.00000  -0.01408  -0.01419   1.92206
    A9        1.83835   0.00051   0.00000   0.01321   0.01332   1.85167
   A10        2.14847  -0.00332   0.00000  -0.01271  -0.01267   2.13580
   A11        2.05427   0.00306   0.00000   0.01492   0.01496   2.06923
   A12        2.08031   0.00025   0.00000  -0.00223  -0.00232   2.07800
   A13        2.12890  -0.00118   0.00000  -0.00519  -0.00527   2.12364
   A14        2.06619   0.00315   0.00000   0.00917   0.00899   2.07518
   A15        2.08664  -0.00193   0.00000  -0.00258  -0.00266   2.08398
   A16        1.97834  -0.00859   0.00000  -0.02292  -0.02341   1.95493
   A17        1.89661   0.00463   0.00000   0.00938   0.00852   1.90513
   A18        1.93080  -0.00418   0.00000  -0.01822  -0.01868   1.91212
   A19        1.90950  -0.00268   0.00000  -0.03572  -0.03570   1.87381
   A20        1.86041   0.01456   0.00000   0.10144   0.10179   1.96220
   A21        1.88601  -0.00363   0.00000  -0.03489  -0.03434   1.85167
   A22        1.90476  -0.00093   0.00000  -0.00798  -0.00798   1.89678
   A23        1.89377   0.00094   0.00000   0.00465   0.00464   1.89841
   A24        1.85900  -0.00068   0.00000  -0.01318  -0.01320   1.84580
   A25        2.12058  -0.00056   0.00000  -0.00200  -0.00206   2.11852
   A26        2.09329  -0.00334   0.00000  -0.02734  -0.02732   2.06597
   A27        2.06931   0.00391   0.00000   0.02931   0.02933   2.09864
   A28        2.09201  -0.00128   0.00000  -0.00170  -0.00173   2.09028
   A29        2.09313   0.00016   0.00000  -0.00053  -0.00052   2.09261
   A30        2.09804   0.00111   0.00000   0.00224   0.00226   2.10030
   A31        2.08953  -0.00235   0.00000  -0.00742  -0.00746   2.08207
   A32        2.09807   0.00159   0.00000   0.00570   0.00572   2.10379
   A33        2.09558   0.00077   0.00000   0.00172   0.00174   2.09732
   A34        2.11609   0.00084   0.00000   0.00592   0.00586   2.12195
   A35        2.09062  -0.00274   0.00000  -0.01824  -0.01821   2.07240
   A36        2.07648   0.00189   0.00000   0.01232   0.01235   2.08883
    D1       -0.96955  -0.00138   0.00000  -0.06467  -0.06449  -1.03404
    D2       -3.07966   0.00094   0.00000  -0.02701  -0.02713  -3.10678
    D3        1.19085  -0.00197   0.00000  -0.05427  -0.05405   1.13680
    D4       -3.00937  -0.00020   0.00000  -0.02198  -0.02199  -3.03136
    D5        1.16371   0.00213   0.00000   0.01568   0.01537   1.17908
    D6       -0.84897  -0.00078   0.00000  -0.01158  -0.01156  -0.86053
    D7        1.62164   0.00272   0.00000   0.01340   0.01328   1.63492
    D8       -1.50265   0.00278   0.00000   0.01526   0.01514  -1.48750
    D9       -2.55594  -0.00059   0.00000  -0.03222  -0.03217  -2.58811
   D10        0.60297  -0.00053   0.00000  -0.03036  -0.03031   0.57266
   D11       -0.53452  -0.00230   0.00000  -0.03178  -0.03171  -0.56623
   D12        2.62439  -0.00224   0.00000  -0.02992  -0.02984   2.59454
   D13        0.01097   0.00039   0.00000   0.00765   0.00766   0.01863
   D14        3.09430   0.00099   0.00000   0.03561   0.03570   3.13000
   D15        3.13501   0.00035   0.00000   0.00592   0.00595   3.14096
   D16       -0.06484   0.00096   0.00000   0.03388   0.03399  -0.03086
   D17       -3.11746  -0.00081   0.00000  -0.02352  -0.02348  -3.14094
   D18        0.02455  -0.00081   0.00000  -0.02740  -0.02734  -0.00279
   D19        0.04074  -0.00071   0.00000  -0.02162  -0.02156   0.01918
   D20       -3.10043  -0.00071   0.00000  -0.02550  -0.02543  -3.12585
   D21       -2.59346  -0.00530   0.00000  -0.09979  -0.09973  -2.69319
   D22        1.56285   0.00052   0.00000  -0.04565  -0.04559   1.51726
   D23       -0.50498   0.00458   0.00000   0.00189   0.00163  -0.50335
   D24        0.60706  -0.00608   0.00000  -0.12844  -0.12829   0.47877
   D25       -1.51982  -0.00026   0.00000  -0.07431  -0.07414  -1.59396
   D26        2.69554   0.00380   0.00000  -0.02676  -0.02693   2.66861
   D27        0.05005  -0.00080   0.00000  -0.02675  -0.02683   0.02322
   D28       -3.09634  -0.00096   0.00000  -0.03329  -0.03328  -3.12962
   D29        3.13483  -0.00019   0.00000   0.00041   0.00046   3.13529
   D30       -0.01156  -0.00034   0.00000  -0.00613  -0.00600  -0.01755
   D31        3.03940   0.00040   0.00000   0.05838   0.05827   3.09767
   D32        1.02036   0.00119   0.00000   0.07578   0.07566   1.09603
   D33       -1.12413  -0.00142   0.00000   0.02913   0.02977  -1.09436
   D34        3.14002  -0.00063   0.00000   0.04653   0.04716  -3.09600
   D35        0.91115   0.00085   0.00000   0.02498   0.02447   0.93562
   D36       -1.10788   0.00164   0.00000   0.04239   0.04186  -1.06602
   D37       -0.00888   0.00023   0.00000   0.00604   0.00598  -0.00290
   D38        3.12842   0.00033   0.00000   0.00904   0.00898   3.13740
   D39        3.13745   0.00040   0.00000   0.01264   0.01271  -3.13303
   D40       -0.00844   0.00050   0.00000   0.01564   0.01571   0.00727
   D41       -0.01717   0.00024   0.00000   0.00771   0.00771  -0.00946
   D42        3.12958   0.00017   0.00000   0.00701   0.00704   3.13662
   D43        3.12873   0.00014   0.00000   0.00471   0.00470   3.13343
   D44       -0.00771   0.00007   0.00000   0.00401   0.00403  -0.00367
   D45        0.00097   0.00001   0.00000   0.00020   0.00022   0.00119
   D46       -3.14104   0.00002   0.00000   0.00404   0.00411  -3.13693
   D47        3.13741   0.00009   0.00000   0.00090   0.00090   3.13831
   D48       -0.00460   0.00009   0.00000   0.00474   0.00479   0.00019
         Item               Value     Threshold  Converged?
 Maximum Force            0.014562     0.000450     NO 
 RMS     Force            0.003244     0.000300     NO 
 Maximum Displacement     0.198639     0.001800     NO 
 RMS     Displacement     0.051230     0.001200     NO 
 Predicted change in Energy=-3.320476D-03
 GradGradGradGradGradGradGradGradGradGradGradGradGradGradGradGradGradGrad

                          Input orientation:                          
 ---------------------------------------------------------------------
 Center     Atomic      Atomic             Coordinates (Angstroms)
 Number     Number       Type             X           Y           Z
 ---------------------------------------------------------------------
      1          7           0        2.346562   -1.383026   -0.571049
      2          6           0        1.608167   -0.956779    0.634085
      3          6           0        0.718849    0.234820    0.331174
      4          6           0       -0.637316    0.092524   -0.031726
      5          6           0       -1.302388   -1.274287   -0.119094
      6          7           0       -2.442061   -1.273789   -1.046262
      7          6           0       -1.396256    1.244712   -0.282301
      8          6           0       -0.830967    2.517489   -0.206483
      9          6           0        0.516241    2.658229    0.128259
     10          6           0        1.275722    1.519631    0.393714
     11          1           0        1.676193   -1.630996   -1.297374
     12          1           0        2.849537   -2.243824   -0.359922
     13          1           0        2.347520   -0.661540    1.387083
     14          1           0        1.016538   -1.764655    1.088210
     15          1           0       -1.686336   -1.552547    0.872352
     16          1           0       -0.550725   -2.033361   -0.378854
     17          1           0       -2.820808   -2.217024   -1.097658
     18          1           0       -2.102644   -1.060566   -1.982800
     19          1           0       -2.440854    1.125854   -0.549624
     20          1           0       -1.440482    3.393712   -0.409246
     21          1           0        0.970510    3.643161    0.186399
     22          1           0        2.324998    1.622261    0.659424
 ---------------------------------------------------------------------
                    Distance matrix (angstroms):
                    1          2          3          4          5
     1  N    0.000000
     2  C    1.476233   0.000000
     3  C    2.465945   1.517415   0.000000
     4  C    3.372187   2.566424   1.411074   0.000000
     5  C    3.678440   3.023147   2.562332   1.522539   0.000000
     6  N    4.813384   4.396408   3.763587   2.480564   1.469182
     7  C    4.582256   3.835737   2.422788   1.402254   2.526025
     8  C    5.044166   4.327409   2.810975   2.438954   3.821968
     9  C    4.491197   3.810045   2.440314   2.817647   4.339732
    10  C    3.240815   2.510160   1.401698   2.424325   3.836092
    11  H    1.019034   2.046883   2.655173   3.150350   3.222968
    12  H    1.019084   2.045858   3.340826   4.210033   4.270419
    13  H    2.086822   1.095817   2.137984   3.389820   3.995729
    14  H    2.160496   1.099507   2.158616   2.727380   2.659973
    15  H    4.286772   3.356406   3.045074   2.150363   1.099004
    16  H    2.975592   2.616465   2.694551   2.155778   1.099393
    17  H    5.260664   4.919651   4.536770   3.352292   2.037632
    18  H    4.678938   4.541913   3.872122   2.698794   2.039482
    19  H    5.405025   4.704582   3.399040   2.142134   2.691122
    20  H    6.097959   5.413831   3.897375   3.418397   4.679046
    21  H    5.265910   4.665456   3.420684   3.903807   5.425927
    22  H    3.247503   2.676926   2.147662   3.404863   4.706804
                    6          7          8          9         10
     6  N    0.000000
     7  C    2.831994   0.000000
     8  C    4.204122   1.394727   0.000000
     9  C    5.058836   2.413346   1.395289   0.000000
    10  C    4.868125   2.769846   2.407093   1.394161   0.000000
    11  H    4.141336   4.328973   4.968483   4.666408   3.598139
    12  H    5.423379   5.495695   6.019946   5.450937   4.148307
    13  H    5.407042   4.520675   4.769535   3.994883   2.625460
    14  H    4.093754   4.093429   4.840068   4.553428   3.366902
    15  H    2.080842   3.040071   4.296596   4.809955   4.294318
    16  H    2.144652   3.386740   4.562727   4.838037   4.068971
    17  H    1.017735   3.831158   5.212416   6.033811   5.741807
    18  H    1.018711   2.950421   4.192248   5.014436   4.870174
    19  H    2.450498   1.084792   2.155488   3.398840   3.854593
    20  H    4.816069   2.153200   1.086457   2.158382   3.396276
    21  H    6.110769   3.402032   2.160281   1.086201   2.155346
    22  H    5.832780   3.857088   3.392838   2.151039   1.087251
                   11         12         13         14         15
    11  H    0.000000
    12  H    1.622070   0.000000
    13  H    2.932036   2.409911   0.000000
    14  H    2.478713   2.384654   1.754337   0.000000
    15  H    4.002557   4.750843   4.163033   2.719764   0.000000
    16  H    2.442282   3.406822   3.660636   2.163514   1.756790
    17  H    4.539420   5.718198   5.941808   4.439356   2.368437
    18  H    3.882629   5.343962   5.596365   4.433524   2.926986
    19  H    5.010931   6.275265   5.465724   4.794904   3.124924
    20  H    5.979141   7.084385   5.832738   5.906612   5.115508
    21  H    5.524157   6.203693   4.676350   5.482687   5.875777
    22  H    3.851452   4.032470   2.397028   3.656107   5.120113
                   16         17         18         19         20
    16  H    0.000000
    17  H    2.388239   0.000000
    18  H    2.434630   1.623771   0.000000
    19  H    3.685429   3.408745   2.636060   0.000000
    20  H    5.499610   5.818898   4.770233   2.482665   0.000000
    21  H    5.903945   7.096807   6.022852   4.303019   2.495977
    22  H    4.765645   6.656333   5.812308   4.941818   4.296387
                   21         22
    21  H    0.000000
    22  H    2.478393   0.000000
 Stoichiometry    C8H12N2
 Framework group  C1[X(C8H12N2)]
 Deg. of freedom    60
 Full point group                 C1      NOp   1
 Largest Abelian subgroup         C1      NOp   1
 Largest concise Abelian subgroup C1      NOp   1
                         Standard orientation:                         
 ---------------------------------------------------------------------
 Center     Atomic      Atomic             Coordinates (Angstroms)
 Number     Number       Type             X           Y           Z
 ---------------------------------------------------------------------
      1          7           0        1.049186    2.564391   -0.758998
      2          6           0        0.626068    1.958178    0.518790
      3          6           0       -0.272847    0.759586    0.278207
      4          6           0        0.226825   -0.558411    0.212329
      5          6           0        1.706252   -0.863056    0.403668
      6          7           0        2.103992   -2.106495   -0.270245
      7          6           0       -0.671661   -1.613975    0.000617
      8          6           0       -2.036194   -1.382707   -0.172088
      9          6           0       -2.528107   -0.077633   -0.131673
     10          6           0       -1.645052    0.977554    0.093005
     11          1           0        1.549171    1.864727   -1.305732
     12          1           0        1.731409    3.296055   -0.564650
     13          1           0        0.060917    2.716207    1.072696
     14          1           0        1.469741    1.674813    1.164418
     15          1           0        1.912492   -0.990569    1.475590
     16          1           0        2.304728    0.000029    0.078744
     17          1           0        3.105373   -2.238787   -0.145670
     18          1           0        1.962214   -1.995730   -1.272942
     19          1           0       -0.279714   -2.624774   -0.037273
     20          1           0       -2.710294   -2.218346   -0.338473
     21          1           0       -3.587788    0.117272   -0.269220
     22          1           0       -2.022207    1.996619    0.130078
 ---------------------------------------------------------------------
 Rotational constants (GHZ):           1.4003190           1.3925338           0.7500379
 Standard basis: 6-31G(d,p) (6D, 7F)
 There are   210 symmetry adapted cartesian basis functions of A   symmetry.
 There are   210 symmetry adapted basis functions of A   symmetry.
   210 basis functions,   364 primitive gaussians,   210 cartesian basis functions
    37 alpha electrons       37 beta electrons
       nuclear repulsion energy       511.2053659434 Hartrees.
 NAtoms=   22 NActive=   22 NUniq=   22 SFac= 1.00D+00 NAtFMM=   60 NAOKFM=F Big=F
 Integral buffers will be    131072 words long.
 Raffenetti 2 integral format.
 Two-electron integral symmetry is turned on.
 ------------------------------------------------------------------------------
 Polarizable Continuum Model (PCM)
 =================================
 Model                : PCM.
 Atomic radii         : UFF (Universal Force Field).
 Polarization charges : Total charges.
 Charge compensation  : None.
 Solution method      : Matrix inversion.
 Cavity type          : Scaled VdW (van der Waals Surface) (Alpha=1.100).
 Cavity algorithm     : GePol (No added spheres)
                        Default sphere list used, NSphG=   22.
                        Lebedev-Laikov grids with approx.  5.0 points / Ang**2.
                        Smoothing algorithm: York/Karplus (Gamma=1.0000).
                        Polarization charges: spherical gaussians, with
                                              point-specific exponents (IZeta= 3).
                        Self-potential: point-specific (ISelfS= 7).
                        Self-field    : sphere-specific E.n sum rule (ISelfD= 2).
 1st derivatives      : Analytical E(r).r(x)/FMM algorithm (CHGder, D1EAlg=3).
                        Cavity 1st derivative terms included.
 Solvent              : Water, Eps=  78.355300 Eps(inf)=   1.777849
 ------------------------------------------------------------------------------
 One-electron integrals computed using PRISM.
 NBasis=   210 RedAO= T EigKep=  4.10D-04  NBF=   210
 NBsUse=   210 1.00D-06 EigRej= -1.00D+00 NBFU=   210
 Initial guess from the checkpoint file:  "GKXVJHDEWHKBFH-UHFFFAOYSA-N_conf_1_0.chk"
 B after Tr=    -0.000000   -0.000000   -0.000000
         Rot=    0.999181    0.001358   -0.001974   -0.040395 Ang=   4.64 deg.
 ExpMin= 1.61D-01 ExpMax= 4.17D+03 ExpMxC= 6.27D+02 IAcc=2 IRadAn=         4 AccDes= 0.00D+00
 Harris functional with IExCor=  402 and IRadAn=       4 diagonalized for initial guess.
 HarFok:  IExCor=  402 AccDes= 0.00D+00 IRadAn=         4 IDoV= 1 UseB2=F ITyADJ=14
 ICtDFT=  3500011 ScaDFX=  1.000000  1.000000  1.000000  1.000000
 FoFCou: FMM=F IPFlag=           0 FMFlag=      100000 FMFlg1=           0
         NFxFlg=           0 DoJE=T BraDBF=F KetDBF=T FulRan=T
         wScrn=  0.000000 ICntrl=       500 IOpCl=  0 I1Cent=   200000004 NGrid=           0
         NMat0=    1 NMatS0=      1 NMatT0=    0 NMatD0=    1 NMtDS0=    0 NMtDT0=    0
 Petite list used in FoFCou.
 Keep R1 ints in memory in canonical form, NReq=250131393.
 Requested convergence on RMS density matrix=1.00D-08 within  32 cycles.
 Requested convergence on MAX density matrix=1.00D-06.
 Requested convergence on             energy=1.00D-06.
 No special actions if energy rises.
 Inv3:  Mode=1 IEnd=     8236947.
 Iteration    1 A*A^-1 deviation from unit magnitude is 4.00D-15 for    963.
 Iteration    1 A*A^-1 deviation from orthogonality  is 4.06D-15 for    963    786.
 Iteration    1 A^-1*A deviation from unit magnitude is 2.78D-15 for    259.
 Iteration    1 A^-1*A deviation from orthogonality  is 3.21D-14 for   1473   1454.
 Error on total polarization charges =  0.00836
 SCF Done:  E(RB3LYP) =  -421.592141330     A.U. after   10 cycles
            NFock= 10  Conv=0.81D-08     -V/T= 2.0098
 QCSCF skips out because SCF is already converged.
 D1PCM: PCM CHGder 1st derivatives, ID1Alg=3 FixD1E=F DoIter=F DoCFld=F I1PDM=0.
 Calling FoFJK, ICntrl=      2127 FMM=F ISym2X=0 I1Cent= 0 IOpClX= 0 NMat=1 NMatS=1 NMatT=0.
 ***** Axes restored to original set *****
 -------------------------------------------------------------------
 Center     Atomic                   Forces (Hartrees/Bohr)
 Number     Number              X              Y              Z
 -------------------------------------------------------------------
      1        7           0.000610684    0.000438582   -0.001116426
      2        6          -0.000580981   -0.000651342    0.000569847
      3        6           0.000162303    0.000210040    0.000333341
      4        6          -0.000333169    0.000295881    0.001207117
      5        6           0.000585495   -0.000716806   -0.001003379
      6        7          -0.001275616    0.000890284   -0.000127764
      7        6           0.000094169    0.000306127   -0.000726044
      8        6          -0.000073779   -0.000055543   -0.000048017
      9        6           0.000191997    0.000050818   -0.000093320
     10        6          -0.000029399    0.000227582    0.000024716
     11        1           0.000040373   -0.000456309    0.000059326
     12        1           0.000083695   -0.000009071    0.000002277
     13        1           0.000175812    0.000080976   -0.000160850
     14        1          -0.000379658    0.000264268    0.000328267
     15        1           0.000353165   -0.000494369    0.000113614
     16        1           0.000563834    0.000250589    0.000462123
     17        1          -0.000219850    0.000106057    0.000199259
     18        1          -0.000048824   -0.000553843   -0.000188614
     19        1           0.000149221   -0.000110463   -0.000135079
     20        1          -0.000027347    0.000001413    0.000053562
     21        1           0.000001237   -0.000001784    0.000040235
     22        1          -0.000043362   -0.000073088    0.000205809
 -------------------------------------------------------------------
 Cartesian Forces:  Max     0.001275616 RMS     0.000424805

 GradGradGradGradGradGradGradGradGradGradGradGradGradGradGradGradGradGrad
 Berny optimization.
 Using GEDIIS/GDIIS optimizer.
 FormGI is forming the generalized inverse of G from B-inverse, IUseBI=4.
 Internal  Forces:  Max     0.001270806 RMS     0.000281527
 Search for a local minimum.
 Step number   2 out of a maximum of  116
 All quantities printed in internal units (Hartrees-Bohrs-Radians)
 Mixed Optimization -- En-DIIS/RFO-DIIS
 Update second derivatives using D2CorX and points    1    2
 DE= -3.37D-03 DEPred=-3.32D-03 R= 1.01D+00
 TightC=F SS=  1.41D+00  RLast= 3.06D-01 DXNew= 5.0454D-01 9.1883D-01
 Trust test= 1.01D+00 RLast= 3.06D-01 DXMaxT set to 5.05D-01
 ITU=  1  0
 Use linear search instead of GDIIS.
     Eigenvalues ---    0.00042   0.00153   0.00241   0.00293   0.01566
     Eigenvalues ---    0.01736   0.01772   0.02062   0.02170   0.02433
     Eigenvalues ---    0.02514   0.02659   0.02843   0.03166   0.03346
     Eigenvalues ---    0.05309   0.05508   0.05830   0.05928   0.09065
     Eigenvalues ---    0.09170   0.10894   0.11430   0.12352   0.12428
     Eigenvalues ---    0.12847   0.13095   0.15167   0.15286   0.16976
     Eigenvalues ---    0.17571   0.18842   0.19110   0.19360   0.19517
     Eigenvalues ---    0.22225   0.22366   0.24245   0.29695   0.31056
     Eigenvalues ---    0.31883   0.32348   0.32700   0.33044   0.33574
     Eigenvalues ---    0.35488   0.35706   0.35848   0.36026   0.37154
     Eigenvalues ---    0.38174   0.40582   0.43378   0.44027   0.44418
     Eigenvalues ---    0.44693   0.44838   0.46482   0.47240   0.50526
 RFO step:  Lambda=-8.33706420D-04 EMin= 4.15763028D-04
 Quartic linear search produced a step of  0.12787.
 Iteration  1 RMS(Cart)=  0.09873543 RMS(Int)=  0.02277642
 Iteration  2 RMS(Cart)=  0.04543570 RMS(Int)=  0.00138927
 Iteration  3 RMS(Cart)=  0.00191946 RMS(Int)=  0.00004295
 Iteration  4 RMS(Cart)=  0.00000213 RMS(Int)=  0.00004293
 Iteration  5 RMS(Cart)=  0.00000000 RMS(Int)=  0.00004293
 Variable       Old X    -DE/DX   Delta X   Delta X   Delta X     New X
                                 (Linear)    (Quad)   (Total)
    R1        2.78968   0.00124   0.00486  -0.00050   0.00436   2.79403
    R2        1.92570   0.00004   0.00032   0.00022   0.00054   1.92624
    R3        1.92579   0.00005   0.00044   0.00019   0.00063   1.92642
    R4        2.86750   0.00016   0.00141  -0.00092   0.00049   2.86799
    R5        2.07079   0.00003  -0.00023  -0.00003  -0.00026   2.07054
    R6        2.07777   0.00014   0.00110  -0.00000   0.00110   2.07886
    R7        2.66654   0.00012  -0.00101   0.00309   0.00207   2.66861
    R8        2.64882   0.00013  -0.00184  -0.00183  -0.00367   2.64515
    R9        2.87718   0.00052   0.00174   0.00200   0.00373   2.88091
   R10        2.64988   0.00015  -0.00183  -0.00163  -0.00346   2.64642
   R11        2.77635   0.00127   0.00161  -0.00768  -0.00607   2.77028
   R12        2.07682   0.00010   0.00089  -0.00037   0.00052   2.07733
   R13        2.07755   0.00011   0.00139   0.00324   0.00463   2.08218
   R14        1.92324  -0.00002   0.00001  -0.00082  -0.00081   1.92243
   R15        1.92508   0.00004  -0.00018   0.00034   0.00016   1.92525
   R16        2.63565   0.00002  -0.00010   0.00350   0.00341   2.63906
   R17        2.04996  -0.00010  -0.00105   0.00018  -0.00087   2.04908
   R18        2.63671   0.00016   0.00165  -0.00355  -0.00189   2.63482
   R19        2.05311   0.00001  -0.00000   0.00018   0.00017   2.05328
   R20        2.63458  -0.00001   0.00017   0.00240   0.00257   2.63715
   R21        2.05262   0.00000  -0.00003   0.00004   0.00001   2.05263
   R22        2.05461  -0.00000  -0.00034   0.00055   0.00020   2.05481
    A1        1.89978   0.00011  -0.00126  -0.00027  -0.00156   1.89822
    A2        1.89825  -0.00002  -0.00143  -0.00271  -0.00417   1.89409
    A3        1.84087  -0.00016  -0.00331  -0.00118  -0.00456   1.83632
    A4        1.93577  -0.00001  -0.00100   0.00206   0.00103   1.93680
    A5        1.87683  -0.00018  -0.00334  -0.00163  -0.00501   1.87182
    A6        1.97596   0.00046   0.00603  -0.00294   0.00311   1.97906
    A7        1.89761  -0.00009  -0.00167   0.00284   0.00111   1.89872
    A8        1.92206  -0.00024  -0.00181  -0.00033  -0.00216   1.91990
    A9        1.85167   0.00005   0.00170   0.00013   0.00185   1.85352
   A10        2.13580  -0.00010  -0.00162  -0.00750  -0.00910   2.12669
   A11        2.06923   0.00006   0.00191   0.00513   0.00705   2.07629
   A12        2.07800   0.00004  -0.00030   0.00237   0.00205   2.08005
   A13        2.12364  -0.00017  -0.00067  -0.02241  -0.02309   2.10055
   A14        2.07518  -0.00008   0.00115  -0.00034   0.00077   2.07595
   A15        2.08398   0.00026  -0.00034   0.02271   0.02237   2.10635
   A16        1.95493   0.00015  -0.00299   0.01941   0.01632   1.97125
   A17        1.90513  -0.00008   0.00109  -0.00282  -0.00192   1.90321
   A18        1.91212  -0.00044  -0.00239  -0.01122  -0.01377   1.89835
   A19        1.87381  -0.00031  -0.00456   0.00437  -0.00021   1.87360
   A20        1.96220   0.00091   0.01302  -0.00408   0.00902   1.97122
   A21        1.85167  -0.00026  -0.00439  -0.00676  -0.01113   1.84054
   A22        1.89678   0.00003  -0.00102   0.00034  -0.00068   1.89610
   A23        1.89841   0.00021   0.00059   0.00453   0.00513   1.90354
   A24        1.84580  -0.00017  -0.00169   0.00108  -0.00061   1.84519
   A25        2.11852   0.00004  -0.00026  -0.00245  -0.00273   2.11579
   A26        2.06597  -0.00014  -0.00349   0.00342  -0.00008   2.06589
   A27        2.09864   0.00010   0.00375  -0.00090   0.00285   2.10149
   A28        2.09028   0.00003  -0.00022   0.00257   0.00234   2.09262
   A29        2.09261  -0.00003  -0.00007  -0.00181  -0.00187   2.09074
   A30        2.10030   0.00000   0.00029  -0.00076  -0.00047   2.09983
   A31        2.08207  -0.00005  -0.00095   0.00028  -0.00068   2.08139
   A32        2.10379   0.00003   0.00073  -0.00011   0.00063   2.10441
   A33        2.09732   0.00001   0.00022  -0.00017   0.00005   2.09737
   A34        2.12195   0.00003   0.00075  -0.00225  -0.00153   2.12042
   A35        2.07240  -0.00010  -0.00233   0.00275   0.00043   2.07284
   A36        2.08883   0.00007   0.00158  -0.00050   0.00109   2.08992
    D1       -1.03404  -0.00031  -0.00825  -0.03911  -0.04733  -1.08136
    D2       -3.10678  -0.00008  -0.00347  -0.04273  -0.04621   3.13020
    D3        1.13680  -0.00029  -0.00691  -0.04016  -0.04703   1.08977
    D4       -3.03136  -0.00017  -0.00281  -0.03613  -0.03895  -3.07031
    D5        1.17908   0.00006   0.00197  -0.03975  -0.03783   1.14125
    D6       -0.86053  -0.00015  -0.00148  -0.03718  -0.03866  -0.89918
    D7        1.63492   0.00013   0.00170   0.00823   0.00991   1.64483
    D8       -1.48750   0.00013   0.00194   0.00789   0.00981  -1.47769
    D9       -2.58811  -0.00016  -0.00411   0.00919   0.00508  -2.58303
   D10        0.57266  -0.00016  -0.00388   0.00885   0.00498   0.57763
   D11       -0.56623  -0.00029  -0.00405   0.01078   0.00674  -0.55949
   D12        2.59454  -0.00029  -0.00382   0.01044   0.00663   2.60117
   D13        0.01863   0.00002   0.00098   0.00825   0.00926   0.02789
   D14        3.13000   0.00020   0.00456   0.00726   0.01184  -3.14134
   D15        3.14096   0.00002   0.00076   0.00862   0.00942  -3.13281
   D16       -0.03086   0.00020   0.00435   0.00763   0.01200  -0.01886
   D17       -3.14094  -0.00012  -0.00300  -0.00557  -0.00855   3.13370
   D18       -0.00279  -0.00016  -0.00350  -0.00528  -0.00877  -0.01155
   D19        0.01918  -0.00011  -0.00276  -0.00579  -0.00852   0.01066
   D20       -3.12585  -0.00016  -0.00325  -0.00550  -0.00874  -3.13459
   D21       -2.69319  -0.00071  -0.01275  -0.27712  -0.28983  -2.98302
   D22        1.51726  -0.00036  -0.00583  -0.29271  -0.29850   1.21876
   D23       -0.50335   0.00024   0.00021  -0.27678  -0.27668  -0.78003
   D24        0.47877  -0.00089  -0.01640  -0.27573  -0.29207   0.18670
   D25       -1.59396  -0.00054  -0.00948  -0.29132  -0.30074  -1.89471
   D26        2.66861   0.00006  -0.00344  -0.27539  -0.27892   2.38969
   D27        0.02322  -0.00016  -0.00343  -0.00469  -0.00812   0.01510
   D28       -3.12962  -0.00018  -0.00426   0.00287  -0.00140  -3.13102
   D29        3.13529   0.00001   0.00006  -0.00644  -0.00633   3.12896
   D30       -0.01755  -0.00000  -0.00077   0.00111   0.00039  -0.01716
   D31        3.09767   0.00038   0.00745   0.08971   0.09718  -3.08834
   D32        1.09603   0.00044   0.00968   0.08586   0.09555   1.19158
   D33       -1.09436   0.00016   0.00381   0.10055   0.10446  -0.98990
   D34       -3.09600   0.00023   0.00603   0.09670   0.10283  -2.99317
   D35        0.93562   0.00015   0.00313   0.09277   0.09577   1.03139
   D36       -1.06602   0.00022   0.00535   0.08892   0.09414  -0.97188
   D37       -0.00290   0.00004   0.00076  -0.00049   0.00028  -0.00262
   D38        3.13740   0.00007   0.00115   0.00003   0.00117   3.13857
   D39       -3.13303   0.00005   0.00162  -0.00820  -0.00656  -3.13959
   D40        0.00727   0.00008   0.00201  -0.00769  -0.00567   0.00160
   D41       -0.00946   0.00005   0.00099   0.00251   0.00349  -0.00597
   D42        3.13662   0.00006   0.00090   0.00200   0.00290   3.13952
   D43        3.13343   0.00002   0.00060   0.00200   0.00260   3.13603
   D44       -0.00367   0.00002   0.00052   0.00148   0.00201  -0.00166
   D45        0.00119  -0.00001   0.00003   0.00066   0.00068   0.00187
   D46       -3.13693   0.00003   0.00053   0.00036   0.00090  -3.13603
   D47        3.13831  -0.00002   0.00011   0.00117   0.00127   3.13958
   D48        0.00019   0.00003   0.00061   0.00087   0.00149   0.00168
         Item               Value     Threshold  Converged?
 Maximum Force            0.001271     0.000450     NO 
 RMS     Force            0.000282     0.000300     YES
[...]
     6  N    0.019390   0.000003   0.000000   0.000001
     7  C    0.365202  -0.037438   0.004118   0.000577
     8  C   -0.043918   0.370015  -0.040430   0.004832
     9  C    0.004758  -0.041777   0.368573  -0.044330
    10  C    0.000448   0.004418  -0.036646   0.368294
    11  H    0.000003  -0.000000   0.000000   0.000047
    12  H   -0.000000   0.000000  -0.000000  -0.000060
    13  H    0.000003  -0.000000  -0.000008   0.005652
    14  H   -0.000002  -0.000000   0.000003   0.000239
    15  H    0.000167   0.000003  -0.000000   0.000000
    16  H    0.000601   0.000002   0.000000  -0.000002
    17  H   -0.000265  -0.000000  -0.000000  -0.000000
    18  H   -0.001338   0.000005  -0.000000  -0.000000
    19  H    0.617512  -0.005755  -0.000179   0.000018
    20  H   -0.005755   0.627163  -0.005722  -0.000199
    21  H   -0.000179  -0.005722   0.615942  -0.005892
    22  H    0.000018  -0.000199  -0.005892   0.633466
 Mulliken charges:
               1
     1  N   -0.605003
     2  C   -0.134527
     3  C    0.056397
     4  C    0.063874
     5  C   -0.114902
     6  N   -0.615842
     7  C   -0.131458
     8  C   -0.133648
     9  C   -0.093119
    10  C   -0.148546
    11  H    0.248575
    12  H    0.246866
    13  H    0.104201
    14  H    0.095065
    15  H    0.143065
    16  H    0.123724
    17  H    0.270007
    18  H    0.267947
    19  H    0.093961
    20  H    0.084497
    21  H    0.095692
    22  H    0.083175
 Sum of Mulliken charges =  -0.00000
 Mulliken charges with hydrogens summed into heavy atoms:
               1
     1  N   -0.109563
     2  C    0.064739
     3  C    0.056397
     4  C    0.063874
     5  C    0.151886
     6  N   -0.077888
     7  C   -0.037497
     8  C   -0.049150
     9  C    0.002573
    10  C   -0.065370
 Electronic spatial extent (au):  <R**2>=           1585.7864
 Charge=              0.0000 electrons
 Dipole moment (field-independent basis, Debye):
    X=              2.2743    Y=              3.9813    Z=             -0.2449  Tot=              4.5916
 Quadrupole moment (field-independent basis, Debye-Ang):
   XX=            -58.2327   YY=            -50.2147   ZZ=            -61.6469
   XY=              5.8873   XZ=             -5.7629   YZ=              0.8185
 Traceless Quadrupole moment (field-independent basis, Debye-Ang):
   XX=             -1.5346   YY=              6.4834   ZZ=             -4.9488
   XY=              5.8873   XZ=             -5.7629   YZ=              0.8185
 Octapole moment (field-independent basis, Debye-Ang**2):
  XXX=             21.9017  YYY=             30.8279  ZZZ=             -3.4421  XYY=              1.4114
  XXY=             18.5823  XXZ=             -1.8296  XZZ=             10.4212  YZZ=             10.5413
  YYZ=             -5.5388  XYZ=             -3.3814
 Hexadecapole moment (field-independent basis, Debye-Ang**3):
 XXXX=           -943.4926 YYYY=           -867.0076 ZZZZ=           -129.8538 XXXY=             77.9854
 XXXZ=            -51.3292 YYYX=            -16.2632 YYYZ=             -8.2629 ZZZX=             -7.7855
 ZZZY=             -6.3727 XXYY=           -271.5714 XXZZ=           -186.1915 YYZZ=           -190.4064
 XXYZ=              9.6735 YYXZ=              0.5289 ZZXY=              6.1193
 N-N= 5.106945981956D+02 E-N=-1.999601079844D+03  KE= 4.177049386081D+02
 Evaluate density.
 Using the total density.
 Monte-Carlo method of calculating molar volume:
 based on  0.001 e/bohr**3 density envelope.
 Number of points per bohr**3 =   20 CutOff= 1.00D-04
 Using the CI density.
 There are       366 points.  Will hold       366 in memory.
 LenV=   805183734 MDV=   805306368.
 Box volume = 6160.150 fraction occupied=0.238
 Integrated density= 1.1185836110224380D+02 error= 3.7858361102243805D+01
 Molar volume = 1464.298 bohr**3/mol (130.672 cm**3/mol)
 Recommended a0 for SCRF calculation =  4.60 angstrom (  8.70 bohr)
 ******************************Gaussian NBO Version 3.1******************************
             N A T U R A L   A T O M I C   O R B I T A L   A N D
          N A T U R A L   B O N D   O R B I T A L   A N A L Y S I S
 ******************************Gaussian NBO Version 3.1******************************
       /RESON  / : Allow strongly delocalized NBO set

 Analyzing the CI density

 Job title: GKXVJHDEWHKBFH-UHFFFAOYSA-N_conf_1                              

 Storage needed:    133984 in NPA ( 805303728 available)
 GSVD:  LWork=       24900 too small for GESVD, short by       12636 words or       12636 for optimal perf.


 NATURAL POPULATIONS:  Natural atomic orbital occupancies 
                                                          
   NAO  Atom  No  lang   Type(AO)    Occupancy
 --------------------------------------------
     1    N    1  S      Cor( 1S)     1.99966
     2    N    1  S      Val( 2S)     1.45832
     3    N    1  S      Ryd( 3S)     0.00104
     4    N    1  S      Ryd( 4S)     0.00001
     5    N    1  px     Val( 2p)     1.57176
     6    N    1  px     Ryd( 3p)     0.00357
     7    N    1  py     Val( 2p)     1.47197
     8    N    1  py     Ryd( 3p)     0.00306
     9    N    1  pz     Val( 2p)     1.37754
    10    N    1  pz     Ryd( 3p)     0.00286
    11    N    1  dxy    Ryd( 3d)     0.00083
    12    N    1  dxz    Ryd( 3d)     0.00107
    13    N    1  dyz    Ryd( 3d)     0.00059
    14    N    1  dx2y2  Ryd( 3d)     0.00122
    15    N    1  dz2    Ryd( 3d)     0.00078

    16    C    2  S      Cor( 1S)     1.99930
    17    C    2  S      Val( 2S)     1.01824
    18    C    2  S      Ryd( 3S)     0.00163
    19    C    2  S      Ryd( 4S)     0.00003
    20    C    2  px     Val( 2p)     1.20331
    21    C    2  px     Ryd( 3p)     0.00477
    22    C    2  py     Val( 2p)     1.05987
    23    C    2  py     Ryd( 3p)     0.00246
    24    C    2  pz     Val( 2p)     0.99547
    25    C    2  pz     Ryd( 3p)     0.00227
    26    C    2  dxy    Ryd( 3d)     0.00069
    27    C    2  dxz    Ryd( 3d)     0.00154
    28    C    2  dyz    Ryd( 3d)     0.00126
    29    C    2  dx2y2  Ryd( 3d)     0.00068
    30    C    2  dz2    Ryd( 3d)     0.00086

    31    C    3  S      Cor( 1S)     1.99900
    32    C    3  S      Val( 2S)     0.87814
    33    C    3  S      Ryd( 3S)     0.00098
    34    C    3  S      Ryd( 4S)     0.00005
    35    C    3  px     Val( 2p)     1.07136
    36    C    3  px     Ryd( 3p)     0.00414
    37    C    3  py     Val( 2p)     1.06384
    38    C    3  py     Ryd( 3p)     0.00504
    39    C    3  pz     Val( 2p)     1.05505
    40    C    3  pz     Ryd( 3p)     0.00536
    41    C    3  dxy    Ryd( 3d)     0.00072
    42    C    3  dxz    Ryd( 3d)     0.00066
    43    C    3  dyz    Ryd( 3d)     0.00051
    44    C    3  dx2y2  Ryd( 3d)     0.00075
    45    C    3  dz2    Ryd( 3d)     0.00035

    46    C    4  S      Cor( 1S)     1.99899
    47    C    4  S      Val( 2S)     0.89008
    48    C    4  S      Ryd( 3S)     0.00067
    49    C    4  S      Ryd( 4S)     0.00005
    50    C    4  px     Val( 2p)     1.07171
    51    C    4  px     Ryd( 3p)     0.00480
    52    C    4  py     Val( 2p)     1.06113
    53    C    4  py     Ryd( 3p)     0.00425
    54    C    4  pz     Val( 2p)     0.97699
    55    C    4  pz     Ryd( 3p)     0.00356
    56    C    4  dxy    Ryd( 3d)     0.00073
    57    C    4  dxz    Ryd( 3d)     0.00074
    58    C    4  dyz    Ryd( 3d)     0.00065
    59    C    4  dx2y2  Ryd( 3d)     0.00075
    60    C    4  dz2    Ryd( 3d)     0.00038

    61    C    5  S      Cor( 1S)     1.99929
    62    C    5  S      Val( 2S)     1.02175
    63    C    5  S      Ryd( 3S)     0.00213
    64    C    5  S      Ryd( 4S)     0.00003
    65    C    5  px     Val( 2p)     0.91483
    66    C    5  px     Ryd( 3p)     0.00360
    67    C    5  py     Val( 2p)     1.13557
    68    C    5  py     Ryd( 3p)     0.00174
    69    C    5  pz     Val( 2p)     1.20539
    70    C    5  pz     Ryd( 3p)     0.00101
    71    C    5  dxy    Ryd( 3d)     0.00142
    72    C    5  dxz    Ryd( 3d)     0.00089
    73    C    5  dyz    Ryd( 3d)     0.00071
    74    C    5  dx2y2  Ryd( 3d)     0.00089
    75    C    5  dz2    Ryd( 3d)     0.00107

    76    N    6  S      Cor( 1S)     1.99964
    77    N    6  S      Val( 2S)     1.44032
    78    N    6  S      Ryd( 3S)     0.00040
    79    N    6  S      Ryd( 4S)     0.00001
    80    N    6  px     Val( 2p)     1.31973
    81    N    6  px     Ryd( 3p)     0.00239
    82    N    6  py     Val( 2p)     1.64640
    83    N    6  py     Ryd( 3p)     0.00403
    84    N    6  pz     Val( 2p)     1.45878
    85    N    6  pz     Ryd( 3p)     0.00270
    86    N    6  dxy    Ryd( 3d)     0.00120
    87    N    6  dxz    Ryd( 3d)     0.00024
    88    N    6  dyz    Ryd( 3d)     0.00072
    89    N    6  dx2y2  Ryd( 3d)     0.00090
    90    N    6  dz2    Ryd( 3d)     0.00134

    91    C    7  S      Cor( 1S)     1.99908
    92    C    7  S      Val( 2S)     0.95850
    93    C    7  S      Ryd( 3S)     0.00066
    94    C    7  S      Ryd( 4S)     0.00004
    95    C    7  px     Val( 2p)     1.20106
    96    C    7  px     Ryd( 3p)     0.00445
    97    C    7  py     Val( 2p)     1.05824
    98    C    7  py     Ryd( 3p)     0.00491
    99    C    7  pz     Val( 2p)     1.00968
   100    C    7  pz     Ryd( 3p)     0.00475
   101    C    7  dxy    Ryd( 3d)     0.00064
   102    C    7  dxz    Ryd( 3d)     0.00035
   103    C    7  dyz    Ryd( 3d)     0.00069
   104    C    7  dx2y2  Ryd( 3d)     0.00075
   105    C    7  dz2    Ryd( 3d)     0.00038

   106    C    8  S      Cor( 1S)     1.99915
   107    C    8  S      Val( 2S)     0.96486
   108    C    8  S      Ryd( 3S)     0.00066
   109    C    8  S      Ryd( 4S)     0.00003
   110    C    8  px     Val( 2p)     1.07181
   111    C    8  px     Ryd( 3p)     0.00527
   112    C    8  py     Val( 2p)     1.17229
   113    C    8  py     Ryd( 3p)     0.00476
   114    C    8  pz     Val( 2p)     1.06566
   115    C    8  pz     Ryd( 3p)     0.00514
   116    C    8  dxy    Ryd( 3d)     0.00068
   117    C    8  dxz    Ryd( 3d)     0.00057
   118    C    8  dyz    Ryd( 3d)     0.00039
   119    C    8  dx2y2  Ryd( 3d)     0.00069
   120    C    8  dz2    Ryd( 3d)     0.00036

   121    C    9  S      Cor( 1S)     1.99913
   122    C    9  S      Val( 2S)     0.97222
   123    C    9  S      Ryd( 3S)     0.00059
   124    C    9  S      Ryd( 4S)     0.00003
   125    C    9  px     Val( 2p)     1.11473
   126    C    9  px     Ryd( 3p)     0.00496
   127    C    9  py     Val( 2p)     1.13409
   128    C    9  py     Ryd( 3p)     0.00477
   129    C    9  pz     Val( 2p)     0.97078
   130    C    9  pz     Ryd( 3p)     0.00359
   131    C    9  dxy    Ryd( 3d)     0.00077
   132    C    9  dxz    Ryd( 3d)     0.00063
   133    C    9  dyz    Ryd( 3d)     0.00051
   134    C    9  dx2y2  Ryd( 3d)     0.00066
   135    C    9  dz2    Ryd( 3d)     0.00039

   136    C   10  S      Cor( 1S)     1.99908
   137    C   10  S      Val( 2S)     0.95800
   138    C   10  S      Ryd( 3S)     0.00072
   139    C   10  S      Ryd( 4S)     0.00005
   140    C   10  px     Val( 2p)     1.18868
   141    C   10  px     Ryd( 3p)     0.00480
   142    C   10  py     Val( 2p)     1.06051
   143    C   10  py     Ryd( 3p)     0.00458
   144    C   10  pz     Val( 2p)     1.03338
   145    C   10  pz     Ryd( 3p)     0.00512
   146    C   10  dxy    Ryd( 3d)     0.00065
   147    C   10  dxz    Ryd( 3d)     0.00036
   148    C   10  dyz    Ryd( 3d)     0.00066
   149    C   10  dx2y2  Ryd( 3d)     0.00074
   150    C   10  dz2    Ryd( 3d)     0.00038

   151    H   11  S      Val( 1S)     0.61402
   152    H   11  S      Ryd( 2S)     0.00254
   153    H   11  px     Ryd( 2p)     0.00061
   154    H   11  py     Ryd( 2p)     0.00039
   155    H   11  pz     Ryd( 2p)     0.00041

   156    H   12  S      Val( 1S)     0.61144
   157    H   12  S      Ryd( 2S)     0.00311
   158    H   12  px     Ryd( 2p)     0.00044
   159    H   12  py     Ryd( 2p)     0.00063
   160    H   12  pz     Ryd( 2p)     0.00033

   161    H   13  S      Val( 1S)     0.76213
   162    H   13  S      Ryd( 2S)     0.00256
   163    H   13  px     Ryd( 2p)     0.00029
   164    H   13  py     Ryd( 2p)     0.00010
   165    H   13  pz     Ryd( 2p)     0.00017

   166    H   14  S      Val( 1S)     0.77993
   167    H   14  S      Ryd( 2S)     0.00205
   168    H   14  px     Ryd( 2p)     0.00020
   169    H   14  py     Ryd( 2p)     0.00021
   170    H   14  pz     Ryd( 2p)     0.00017

   171    H   15  S      Val( 1S)     0.74116
   172    H   15  S      Ryd( 2S)     0.00215
   173    H   15  px     Ryd( 2p)     0.00008
   174    H   15  py     Ryd( 2p)     0.00013
   175    H   15  pz     Ryd( 2p)     0.00038

   176    H   16  S      Val( 1S)     0.75741
   177    H   16  S      Ryd( 2S)     0.00321
   178    H   16  px     Ryd( 2p)     0.00012
   179    H   16  py     Ryd( 2p)     0.00029
   180    H   16  pz     Ryd( 2p)     0.00017

   181    H   17  S      Val( 1S)     0.59391
   182    H   17  S      Ryd( 2S)     0.00120
   183    H   17  px     Ryd( 2p)     0.00039
   184    H   17  py     Ryd( 2p)     0.00062
   185    H   17  pz     Ryd( 2p)     0.00035

   186    H   18  S      Val( 1S)     0.60010
   187    H   18  S      Ryd( 2S)     0.00184
   188    H   18  px     Ryd( 2p)     0.00028
   189    H   18  py     Ryd( 2p)     0.00048
   190    H   18  pz     Ryd( 2p)     0.00064

   191    H   19  S      Val( 1S)     0.75523
   192    H   19  S      Ryd( 2S)     0.00170
   193    H   19  px     Ryd( 2p)     0.00041
   194    H   19  py     Ryd( 2p)     0.00008
   195    H   19  pz     Ryd( 2p)     0.00016

   196    H   20  S      Val( 1S)     0.76439
   197    H   20  S      Ryd( 2S)     0.00081
   198    H   20  px     Ryd( 2p)     0.00010
   199    H   20  py     Ryd( 2p)     0.00035
   200    H   20  pz     Ryd( 2p)     0.00019

   201    H   21  S      Val( 1S)     0.76165
   202    H   21  S      Ryd( 2S)     0.00083
   203    H   21  px     Ryd( 2p)     0.00021
   204    H   21  py     Ryd( 2p)     0.00028
   205    H   21  pz     Ryd( 2p)     0.00014

   206    H   22  S      Val( 1S)     0.76571
   207    H   22  S      Ryd( 2S)     0.00116
   208    H   22  px     Ryd( 2p)     0.00040
   209    H   22  py     Ryd( 2p)     0.00007
   210    H   22  pz     Ryd( 2p)     0.00017

 WARNING:  1 low occupancy (<1.9990e) core orbital  found on  C    4


 Summary of Natural Population Analysis:                  
                                                          
                                       Natural Population 
                Natural  -----------------------------------------------
    Atom  No    Charge         Core      Valence    Rydberg      Total
 -----------------------------------------------------------------------
      N    1   -0.89428      1.99966     5.87959    0.01503     7.89428
      C    2   -0.29238      1.99930     4.27689    0.01619     6.29238
      C    3   -0.08596      1.99900     4.06839    0.01856     6.08596
      C    4   -0.01548      1.99899     3.99992    0.01657     6.01548
      C    5   -0.29032      1.99929     4.27754    0.01349     6.29032
      N    6   -0.87881      1.99964     5.86522    0.01394     7.87881
      C    7   -0.24419      1.99908     4.22749    0.01761     6.24419
      C    8   -0.29232      1.99915     4.27461    0.01856     6.29232
      C    9   -0.20786      1.99913     4.19183    0.01690     6.20786
      C   10   -0.25770      1.99908     4.24057    0.01805     6.25770
      H   11    0.38203      0.00000     0.61402    0.00395     0.61797
      H   12    0.38404      0.00000     0.61144    0.00451     0.61596
      H   13    0.23475      0.00000     0.76213    0.00312     0.76525
      H   14    0.21745      0.00000     0.77993    0.00263     0.78255
      H   15    0.25610      0.00000     0.74116    0.00274     0.74390
      H   16    0.23879      0.00000     0.75741    0.00380     0.76121
      H   17    0.40352      0.00000     0.59391    0.00256     0.59648
      H   18    0.39666      0.00000     0.60010    0.00324     0.60334
      H   19    0.24242      0.00000     0.75523    0.00235     0.75758
      H   20    0.23416      0.00000     0.76439    0.00145     0.76584
      H   21    0.23689      0.00000     0.76165    0.00146     0.76311
      H   22    0.23249      0.00000     0.76571    0.00180     0.76751
 =======================================================================
   * Total *   -0.00000     19.99233    53.80914    0.19853    74.00000

                                 Natural Population      
 --------------------------------------------------------
   Core                      19.99233 ( 99.9617% of  20)
   Valence                   53.80914 ( 99.6466% of  54)
   Natural Minimal Basis     73.80147 ( 99.7317% of  74)
   Natural Rydberg Basis      0.19853 (  0.2683% of  74)
 --------------------------------------------------------

    Atom  No          Natural Electron Configuration
 ----------------------------------------------------------------------------
      N    1      [core]2S( 1.46)2p( 4.42)3p( 0.01)
      C    2      [core]2S( 1.02)2p( 3.26)3p( 0.01)3d( 0.01)
      C    3      [core]2S( 0.88)2p( 3.19)3p( 0.01)
      C    4      [core]2S( 0.89)2p( 3.11)3p( 0.01)
      C    5      [core]2S( 1.02)2p( 3.26)3p( 0.01)
      N    6      [core]2S( 1.44)2p( 4.42)3p( 0.01)
      C    7      [core]2S( 0.96)2p( 3.27)3p( 0.01)
      C    8      [core]2S( 0.96)2p( 3.31)3p( 0.02)
      C    9      [core]2S( 0.97)2p( 3.22)3p( 0.01)
      C   10      [core]2S( 0.96)2p( 3.28)3p( 0.01)
      H   11            1S( 0.61)
      H   12            1S( 0.61)
      H   13            1S( 0.76)
      H   14            1S( 0.78)
      H   15            1S( 0.74)
      H   16            1S( 0.76)
      H   17            1S( 0.59)
      H   18            1S( 0.60)
      H   19            1S( 0.76)
      H   20            1S( 0.76)
      H   21            1S( 0.76)
      H   22            1S( 0.77)


 NBO analysis skipped by request.
 1\1\GINC-DRG2-W002\SP\RB3LYP TD-FC\6-31G(d,p)\C8H12N2\QDUEZ\17-Jul-202
 4\0\\# TD(NStates=10, Root=1) B3LYP/6-31G** SCRF=(Solvent=water) volum
 e pop=NPA density=current Geom=AllCheck Guess=Read\\GKXVJHDEWHKBFH-UHF
 FFAOYSA-N_conf_1\\0,1\N,0,2.4035610625,-1.3465489806,-0.5265049417\C,0
 ,1.5937584894,-0.9650546947,0.6508190511\C,0,0.7169362005,0.2334615432
 ,0.3382946123\C,0,-0.6236873722,0.0925388145,-0.0814792468\C,0,-1.2627
 595782,-1.2856773105,-0.2038521247\N,0,-2.5511573504,-1.25528719,-0.90
 59505408\C,0,-1.3684163193,1.2438540051,-0.3683039486\C,0,-0.806571169
 2,2.5169567198,-0.2590998606\C,0,0.5202204684,2.6574275243,0.147349539
 9\C,0,1.267479484,1.5170517161,0.4425813593\H,0,1.7770332195,-1.620908
 9661,-1.2822110295\H,0,2.9315748267,-2.1878628545,-0.2973825444\H,0,2.
 2918482127,-0.6927586515,1.450349949\H,0,0.9812003853,-1.7889748496,1.
 0448276127\H,0,-1.449274591,-1.6832623751,0.8031046975\H,0,-0.53906670
 04,-1.9760633522,-0.6655557727\H,0,-2.955087671,-2.1887428615,-0.88217
 56075\H,0,-2.3908999436,-1.051195714,-1.8910200314\H,0,-2.4011140425,1
 .1267670471,-0.677960024\H,0,-1.4056547928,3.3937352757,-0.4889998698\
 H,0,0.9687391266,3.6425806938,0.2375899231\H,0,2.3013380551,1.61796446
 06,0.7638863012\\Version=ES64L-G16RevA.03\State=1-A\HF=-421.5926305\RM
 SD=3.608e-09\Dipole=-0.4047959,-1.7270495,-0.3417621\Quadrupole=-4.738
 2332,6.4185575,-1.6803242,1.6178187,4.2322412,1.7772157\PG=C01 [X(C8H1
 2N2)]\\@


 THERE ARE PEOPLE SO ADDICTED TO EXAGERATING THEY
 CAN'T TELL THE TRUTH WITHOUT LYING. -- FORTUNE COOKIE
 Job cpu time:       0 days  0 hours 20 minutes 24.9 seconds.
 Elapsed time:       0 days  0 hours  6 minutes 55.2 seconds.
 File lengths (MBytes):  RWF=    407 Int=      0 D2E=      0 Chk=     26 Scr=      1
 Normal termination of Gaussian 16 at Wed Jul 17 18:52:52 2024.
