 Entering Gaussian System, Link 0=g16
 Initial command:
 /opt/sw/arch/manual/gaussian/G16_A03/g16/l1.exe "/scratch/1030810.jesse.materianova.be/Gau-27661.inp" -scrdir="/scratch/1030810.jesse.materianova.be/"
 Entering Link 1 = /opt/sw/arch/manual/gaussian/G16_A03/g16/l1.exe PID=     27663.
  
 Copyright (c) 1988,1990,1992,1993,1995,1998,2003,2009,2016,
            Gaussian, Inc.  All Rights Reserved.
  
 This is part of the Gaussian(R) 16 program.  It is based on
 the Gaussian(R) 09 system (copyright 2009, Gaussian, Inc.),
 the Gaussian(R) 03 system (copyright 2003, Gaussian, Inc.),
 the Gaussian(R) 98 system (copyright 1998, Gaussian, Inc.),
 the Gaussian(R) 94 system (copyright 1995, Gaussian, Inc.),
 the Gaussian 92(TM) system (copyright 1992, Gaussian, Inc.),
 the Gaussian 90(TM) system (copyright 1990, Gaussian, Inc.),
 the Gaussian 88(TM) system (copyright 1988, Gaussian, Inc.),
 the Gaussian 86(TM) system (copyright 1986, Carnegie Mellon
 University), and the Gaussian 82(TM) system (copyright 1983,
 Carnegie Mellon University). Gaussian is a federally registered
 trademark of Gaussian, Inc.
  
 This software contains proprietary and confidential information,
 including trade secrets, belonging to Gaussian, Inc.
  
 This software is provided under written license and may be
 used, copied, transmitted, or stored only in accord with that
 written license.
  
 The following legend is applicable only to US Government
 contracts under FAR:
  
                    RESTRICTED RIGHTS LEGEND
  
 Use, reproduction and disclosure by the US Government is
 subject to restrictions as set forth in subparagraphs (a)
 and (c) of the Commercial Computer Software - Restricted
 Rights clause in FAR 52.227-19.
  
 Gaussian, Inc.
 340 Quinnipiac St., Bldg. 40, Wallingford CT 06492
  
  
 ---------------------------------------------------------------
 Warning -- This program may not be used in any manner that
 competes with the business of Gaussian, Inc. or will provide
 assistance to any competitor of Gaussian, Inc.  The licensee
 of this program is prohibited from giving any competitor of
 Gaussian, Inc. access to this program.  By using this program,
 the user acknowledges that Gaussian, Inc. is engaged in the
 business of creating and licensing software in the field of
 computational chemistry and represents and warrants to the
 licensee that it is not a competitor of Gaussian, Inc. and that
 it will not use this program in any manner prohibited above.
 ---------------------------------------------------------------
  

 Cite this work as:
 Gaussian 16, Revision A.03,
 M. J. Frisch, G. W. Trucks, H. B. Schlegel, G. E. Scuseria, 
 M. A. Robb, J. R. Cheeseman, G. Scalmani, V. Barone, 
 G. A. Petersson, H. Nakatsuji, X. Li, M. Caricato, A. V. Marenich, 
 J. Bloino, B. G. Janesko, R. Gomperts, B. Mennucci, H. P. Hratchian, 
 J. V. Ortiz, A. F. Izmaylov, J. L. Sonnenberg, D. Williams-Young, 
 F. Ding, F. Lipparini, F. Egidi, J. Goings, B. Peng, A. Petrone, 
 T. Henderson, D. Ranasinghe, V. G. Zakrzewski, J. Gao, N. Rega, 
 G. Zheng, W. Liang, M. Hada, M. Ehara, K. Toyota, R. Fukuda, 
 J. Hasegawa, M. Ishida, T. Nakajima, Y. Honda, O. Kitao, H. Nakai, 
 T. Vreven, K. Throssell, J. A. Montgomery, Jr., J. E. Peralta, 
 F. Ogliaro, M. J. Bearpark, J. J. Heyd, E. N. Brothers, K. N. Kudin, 
 V. N. Staroverov, T. A. Keith, R. Kobayashi, J. Normand, 
 K. Raghavachari, A. P. Rendell, J. C. Burant, S. S. Iyengar, 
 J. Tomasi, M. Cossi, J. M. Millam, M. Klene, C. Adamo, R. Cammi, 
 J. W. Ochterski, R. L. Martin, K. Morokuma, O. Farkas, 
 J. B. Foresman, and D. J. Fox, Gaussian, Inc., Wallingford CT, 2016.
 
 ******************************************
 Gaussian 16:  EM64L-G16RevA.03 25-Dec-2016
                 9-Jul-2024 
 ******************************************
 %nprocshared=4
 Will use up to    4 processors via shared memory.
 %mem=8GB
 %Chk=NAQMVNRVTILPCV-UHFFFAOYSA-N_conf_0_0.chk
 -------------------------------------------------------
 # opt=CalcFc B3LYP/6-31G** SCRF=(Solvent=water) scf=xqc
 -------------------------------------------------------
 1/10=4,18=20,19=15,26=3,38=1/1,3;
 2/9=110,12=2,17=6,18=5,40=1/2;
 3/5=1,6=6,7=101,11=2,25=1,30=1,70=2201,71=2,72=1,74=-5,140=1/1,2,3;
 4//1;
 5/5=2,8=3,13=1,38=5,53=1/2,8;
 8/6=4,10=90,11=11/1;
 11/6=1,8=1,9=11,15=111,16=1/1,2,10;
 10/6=1,13=1/2;
 6/7=2,8=2,9=2,10=2,28=1/1;
 7/10=1,18=20,25=1/1,2,3,16;
 1/10=4,18=20,19=15,26=3/3(2);
 2/9=110/2;
 99//99;
 2/9=110/2;
 3/5=1,6=6,7=101,11=2,25=1,30=1,70=2205,71=1,72=1,74=-5/1,2,3;
 4/5=5,16=3,69=1/1;
 5/5=2,8=3,13=1,38=5,53=1/2,8;
 7//1,2,3,16;
 1/18=20,19=15,26=3/3(-5);
 2/9=110/2;
 6/7=2,8=2,9=2,10=2,19=2,28=1/1;
 99/9=1/99;
 ----------------------------------
 NAQMVNRVTILPCV-UHFFFAOYSA-N_conf_0
 ----------------------------------
 Symbolic Z-matrix:
 Charge =  0 Multiplicity = 1
 N                    -2.2682    1.43466  -0.88323 
 C                    -2.81893   0.09858  -1.04454 
 C                    -2.07224  -0.964    -0.23274 
 C                    -0.61455  -1.18926  -0.65372 
 C                     0.3821   -0.299     0.09603 
 C                     1.82168  -0.59773  -0.33725 
 C                     2.87033   0.16545   0.4749 
 N                     2.74036   1.60946   0.32991 
 H                    -2.87489   2.11445  -1.33836 
 H                    -2.24166   1.68386   0.10466 
 H                    -3.86834   0.10916  -0.72892 
 H                    -2.80481  -0.16843  -2.10686 
 H                    -2.61055  -1.91018  -0.37514 
 H                    -2.13185  -0.7372    0.83882 
 H                    -0.50558  -1.05815  -1.73685 
 H                    -0.36053  -2.23534  -0.4387 
 H                     0.28253  -0.4705    1.17472 
 H                     0.15873   0.75603  -0.08609 
 H                     1.9388   -0.36651  -1.4036 
 H                     2.01833  -1.67129  -0.22533 
 H                     3.86885  -0.13757   0.14081 
 H                     2.78659  -0.09785   1.53477 
 H                     2.77011   1.86127  -0.65719 
 H                     3.53371   2.07008   0.7723 
 

 GradGradGradGradGradGradGradGradGradGradGradGradGradGradGradGradGradGrad
 Berny optimization.
 Initialization pass.
                           ----------------------------
                           !    Initial Parameters    !
                           ! (Angstroms and Degrees)  !
 --------------------------                            --------------------------
 ! Name  Definition              Value          Derivative Info.                !
 --------------------------------------------------------------------------------
 ! R1    R(1,2)                  1.4541         calculate D2E/DX2 analytically  !
 ! R2    R(1,9)                  1.0185         calculate D2E/DX2 analytically  !
 ! R3    R(1,10)                 1.0192         calculate D2E/DX2 analytically  !
 ! R4    R(2,3)                  1.5315         calculate D2E/DX2 analytically  !
 ! R5    R(2,11)                 1.0959         calculate D2E/DX2 analytically  !
 ! R6    R(2,12)                 1.0955         calculate D2E/DX2 analytically  !
 ! R7    R(3,4)                  1.5339         calculate D2E/DX2 analytically  !
 ! R8    R(3,13)                 1.0979         calculate D2E/DX2 analytically  !
 ! R9    R(3,14)                 1.0969         calculate D2E/DX2 analytically  !
 ! R10   R(4,5)                  1.5323         calculate D2E/DX2 analytically  !
 ! R11   R(4,15)                 1.0965         calculate D2E/DX2 analytically  !
 ! R12   R(4,16)                 1.0977         calculate D2E/DX2 analytically  !
 ! R13   R(5,6)                  1.5328         calculate D2E/DX2 analytically  !
 ! R14   R(5,17)                 1.0968         calculate D2E/DX2 analytically  !
 ! R15   R(5,18)                 1.0937         calculate D2E/DX2 analytically  !
 ! R16   R(6,7)                  1.5303         calculate D2E/DX2 analytically  !
 ! R17   R(6,19)                 1.0974         calculate D2E/DX2 analytically  !
 ! R18   R(6,20)                 1.0971         calculate D2E/DX2 analytically  !
 ! R19   R(7,8)                  1.4571         calculate D2E/DX2 analytically  !
 ! R20   R(7,21)                 1.0957         calculate D2E/DX2 analytically  !
 ! R21   R(7,22)                 1.0953         calculate D2E/DX2 analytically  !
 ! R22   R(8,23)                 1.0191         calculate D2E/DX2 analytically  !
 ! R23   R(8,24)                 1.0185         calculate D2E/DX2 analytically  !
 ! A1    A(2,1,9)              109.7605         calculate D2E/DX2 analytically  !
 ! A2    A(2,1,10)             110.0019         calculate D2E/DX2 analytically  !
 ! A3    A(9,1,10)             106.5867         calculate D2E/DX2 analytically  !
 ! A4    A(1,2,3)              113.2055         calculate D2E/DX2 analytically  !
 ! A5    A(1,2,11)             108.7748         calculate D2E/DX2 analytically  !
 ! A6    A(1,2,12)             109.0657         calculate D2E/DX2 analytically  !
 ! A7    A(3,2,11)             108.7176         calculate D2E/DX2 analytically  !
 ! A8    A(3,2,12)             109.7937         calculate D2E/DX2 analytically  !
 ! A9    A(11,2,12)            107.0966         calculate D2E/DX2 analytically  !
 ! A10   A(2,3,4)              114.8176         calculate D2E/DX2 analytically  !
 ! A11   A(2,3,13)             106.8664         calculate D2E/DX2 analytically  !
 ! A12   A(2,3,14)             110.3564         calculate D2E/DX2 analytically  !
 ! A13   A(4,3,13)             107.6854         calculate D2E/DX2 analytically  !
 ! A14   A(4,3,14)             110.4942         calculate D2E/DX2 analytically  !
 ! A15   A(13,3,14)            106.1563         calculate D2E/DX2 analytically  !
 ! A16   A(3,4,5)              113.484          calculate D2E/DX2 analytically  !
 ! A17   A(3,4,15)             110.3652         calculate D2E/DX2 analytically  !
 ! A18   A(3,4,16)             107.8238         calculate D2E/DX2 analytically  !
 ! A19   A(5,4,15)             110.4399         calculate D2E/DX2 analytically  !
 ! A20   A(5,4,16)             107.8967         calculate D2E/DX2 analytically  !
 ! A21   A(15,4,16)            106.5258         calculate D2E/DX2 analytically  !
 ! A22   A(4,5,6)              111.0589         calculate D2E/DX2 analytically  !
 ! A23   A(4,5,17)             109.3493         calculate D2E/DX2 analytically  !
 ! A24   A(4,5,18)             110.2516         calculate D2E/DX2 analytically  !
 ! A25   A(6,5,17)             109.4392         calculate D2E/DX2 analytically  !
 ! A26   A(6,5,18)             109.4365         calculate D2E/DX2 analytically  !
 ! A27   A(17,5,18)            107.2221         calculate D2E/DX2 analytically  !
 ! A28   A(5,6,7)              113.3525         calculate D2E/DX2 analytically  !
 ! A29   A(5,6,19)             109.5031         calculate D2E/DX2 analytically  !
 ! A30   A(5,6,20)             109.282          calculate D2E/DX2 analytically  !
 ! A31   A(7,6,19)             109.7241         calculate D2E/DX2 analytically  !
 ! A32   A(7,6,20)             108.1215         calculate D2E/DX2 analytically  !
 ! A33   A(19,6,20)            106.6286         calculate D2E/DX2 analytically  !
 ! A34   A(6,7,8)              112.3532         calculate D2E/DX2 analytically  !
 ! A35   A(6,7,21)             108.9506         calculate D2E/DX2 analytically  !
 ! A36   A(6,7,22)             109.955          calculate D2E/DX2 analytically  !
 ! A37   A(8,7,21)             108.9675         calculate D2E/DX2 analytically  !
 ! A38   A(8,7,22)             109.1301         calculate D2E/DX2 analytically  !
 ! A39   A(21,7,22)            107.3523         calculate D2E/DX2 analytically  !
 ! A40   A(7,8,23)             109.7941         calculate D2E/DX2 analytically  !
 ! A41   A(7,8,24)             109.6029         calculate D2E/DX2 analytically  !
 ! A42   A(23,8,24)            106.6323         calculate D2E/DX2 analytically  !
 ! D1    D(9,1,2,3)           -172.2765         calculate D2E/DX2 analytically  !
 ! D2    D(9,1,2,11)           -51.3119         calculate D2E/DX2 analytically  !
 ! D3    D(9,1,2,12)            65.1763         calculate D2E/DX2 analytically  !
 ! D4    D(10,1,2,3)           -55.3038         calculate D2E/DX2 analytically  !
 ! D5    D(10,1,2,11)           65.6608         calculate D2E/DX2 analytically  !
 ! D6    D(10,1,2,12)         -177.8511         calculate D2E/DX2 analytically  !
 ! D7    D(1,2,3,4)            -64.4402         calculate D2E/DX2 analytically  !
 ! D8    D(1,2,3,13)           176.2226         calculate D2E/DX2 analytically  !
 ! D9    D(1,2,3,14)            61.2222         calculate D2E/DX2 analytically  !
 ! D10   D(11,2,3,4)           174.5628         calculate D2E/DX2 analytically  !
 ! D11   D(11,2,3,13)           55.2257         calculate D2E/DX2 analytically  !
 ! D12   D(11,2,3,14)          -59.7748         calculate D2E/DX2 analytically  !
 ! D13   D(12,2,3,4)            57.7015         calculate D2E/DX2 analytically  !
 ! D14   D(12,2,3,13)          -61.6356         calculate D2E/DX2 analytically  !
 ! D15   D(12,2,3,14)         -176.636          calculate D2E/DX2 analytically  !
 ! D16   D(2,3,4,5)             90.4202         calculate D2E/DX2 analytically  !
 ! D17   D(2,3,4,15)           -34.151          calculate D2E/DX2 analytically  !
 ! D18   D(2,3,4,16)          -150.1313         calculate D2E/DX2 analytically  !
 ! D19   D(13,3,4,5)          -150.7001         calculate D2E/DX2 analytically  !
 ! D20   D(13,3,4,15)           84.7286         calculate D2E/DX2 analytically  !
 ! D21   D(13,3,4,16)          -31.2516         calculate D2E/DX2 analytically  !
 ! D22   D(14,3,4,5)           -35.1706         calculate D2E/DX2 analytically  !
 ! D23   D(14,3,4,15)         -159.7418         calculate D2E/DX2 analytically  !
 ! D24   D(14,3,4,16)           84.2779         calculate D2E/DX2 analytically  !
 ! D25   D(3,4,5,6)            178.3522         calculate D2E/DX2 analytically  !
 ! D26   D(3,4,5,17)            57.4758         calculate D2E/DX2 analytically  !
 ! D27   D(3,4,5,18)           -60.1723         calculate D2E/DX2 analytically  !
 ! D28   D(15,4,5,6)           -57.117          calculate D2E/DX2 analytically  !
 ! D29   D(15,4,5,17)         -177.9934         calculate D2E/DX2 analytically  !
 ! D30   D(15,4,5,18)           64.3586         calculate D2E/DX2 analytically  !
 ! D31   D(16,4,5,6)            58.9453         calculate D2E/DX2 analytically  !
 ! D32   D(16,4,5,17)          -61.9311         calculate D2E/DX2 analytically  !
 ! D33   D(16,4,5,18)         -179.5792         calculate D2E/DX2 analytically  !
 ! D34   D(4,5,6,7)           -174.4276         calculate D2E/DX2 analytically  !
 ! D35   D(4,5,6,19)            62.6913         calculate D2E/DX2 analytically  !
 ! D36   D(4,5,6,20)           -53.7662         calculate D2E/DX2 analytically  !
 ! D37   D(17,5,6,7)           -53.6042         calculate D2E/DX2 analytically  !
 ! D38   D(17,5,6,19)         -176.4853         calculate D2E/DX2 analytically  !
 ! D39   D(17,5,6,20)           67.0573         calculate D2E/DX2 analytically  !
 ! D40   D(18,5,6,7)            63.6208         calculate D2E/DX2 analytically  !
 ! D41   D(18,5,6,19)          -59.2603         calculate D2E/DX2 analytically  !
 ! D42   D(18,5,6,20)         -175.7177         calculate D2E/DX2 analytically  !
 ! D43   D(5,6,7,8)            -61.9296         calculate D2E/DX2 analytically  !
 ! D44   D(5,6,7,21)           177.2214         calculate D2E/DX2 analytically  !
 ! D45   D(5,6,7,22)            59.8247         calculate D2E/DX2 analytically  !
 ! D46   D(19,6,7,8)            60.8294         calculate D2E/DX2 analytically  !
 ! D47   D(19,6,7,21)          -60.0196         calculate D2E/DX2 analytically  !
 ! D48   D(19,6,7,22)         -177.4164         calculate D2E/DX2 analytically  !
 ! D49   D(20,6,7,8)           176.7549         calculate D2E/DX2 analytically  !
 ! D50   D(20,6,7,21)           55.9059         calculate D2E/DX2 analytically  !
 ! D51   D(20,6,7,22)          -61.4909         calculate D2E/DX2 analytically  !
 ! D52   D(6,7,8,23)           -54.9624         calculate D2E/DX2 analytically  !
 ! D53   D(6,7,8,24)          -171.7764         calculate D2E/DX2 analytically  !
 ! D54   D(21,7,8,23)           65.8768         calculate D2E/DX2 analytically  !
 ! D55   D(21,7,8,24)          -50.9372         calculate D2E/DX2 analytically  !
 ! D56   D(22,7,8,23)         -177.1855         calculate D2E/DX2 analytically  !
 ! D57   D(22,7,8,24)           66.0005         calculate D2E/DX2 analytically  !
 --------------------------------------------------------------------------------
 Trust Radius=3.00D-01 FncErr=1.00D-07 GrdErr=1.00D-06 EigMax=2.50D+02 EigMin=1.00D-04
 Number of steps in this run=    132 maximum allowed number of steps=    144.
 GradGradGradGradGradGradGradGradGradGradGradGradGradGradGradGradGradGrad

                          Input orientation:                          
 ---------------------------------------------------------------------
 Center     Atomic      Atomic             Coordinates (Angstroms)
 Number     Number       Type             X           Y           Z
 ---------------------------------------------------------------------
      1          7           0       -2.268198    1.434664   -0.883229
      2          6           0       -2.818927    0.098578   -1.044537
      3          6           0       -2.072244   -0.963995   -0.232737
      4          6           0       -0.614548   -1.189262   -0.653722
      5          6           0        0.382099   -0.298996    0.096029
      6          6           0        1.821676   -0.597731   -0.337251
      7          6           0        2.870328    0.165451    0.474903
      8          7           0        2.740361    1.609463    0.329907
      9          1           0       -2.874887    2.114446   -1.338361
     10          1           0       -2.241658    1.683864    0.104663
     11          1           0       -3.868339    0.109164   -0.728919
     12          1           0       -2.804811   -0.168429   -2.106857
     13          1           0       -2.610545   -1.910180   -0.375136
     14          1           0       -2.131848   -0.737195    0.838817
     15          1           0       -0.505576   -1.058149   -1.736850
     16          1           0       -0.360533   -2.235340   -0.438699
     17          1           0        0.282531   -0.470501    1.174716
     18          1           0        0.158729    0.756026   -0.086086
     19          1           0        1.938800   -0.366509   -1.403601
     20          1           0        2.018329   -1.671290   -0.225328
     21          1           0        3.868847   -0.137574    0.140810
     22          1           0        2.786593   -0.097853    1.534773
     23          1           0        2.770111    1.861271   -0.657186
     24          1           0        3.533708    2.070075    0.772298
 ---------------------------------------------------------------------
                    Distance matrix (angstroms):
                    1          2          3          4          5
     1  N    0.000000
     2  C    1.454115   0.000000
     3  C    2.493011   1.531540   0.000000
     4  C    3.110020   2.582742   1.533900   0.000000
     5  C    3.314906   3.421334   2.564003   1.532321   0.000000
     6  C    4.599542   4.745555   3.912503   2.526905   1.532760
     7  C    5.464419   5.889040   5.119123   3.905561   2.559402
     8  N    5.156348   5.922631   5.486386   4.478371   3.042748
     9  H    1.018489   2.037937   3.368003   4.061078   4.300016
    10  H    1.019184   2.041331   2.674639   3.387844   3.288754
    11  H    2.083558   1.095898   2.150308   3.504101   4.348950
    12  H    2.086894   1.095453   2.163771   2.819743   3.876358
    13  H    3.400492   2.127588   1.097867   2.140405   3.431302
    14  H    2.775069   2.172007   1.096913   2.175830   2.657759
    15  H    3.170114   2.677482   2.173860   1.096463   2.173413
    16  H    4.160015   3.443532   2.142123   1.097742   2.141697
    17  H    3.790911   3.855902   2.787369   2.159758   1.096765
    18  H    2.643097   3.196452   2.820855   2.168943   1.093677
    19  H    4.605849   4.793872   4.220947   2.785468   2.162583
    20  H    5.334239   5.215610   4.151278   2.710704   2.159563
    21  H    6.417469   6.796112   6.009914   4.673132   3.490769
    22  H    5.809152   6.173595   5.242384   4.189086   2.809276
    23  H    5.061388   5.873200   5.622338   4.556499   3.307066
    24  H    6.066846   6.895191   6.453090   5.464873   4.000309
                    6          7          8          9         10
     6  C    0.000000
     7  C    1.530266   0.000000
     8  N    2.482094   1.457081   0.000000
     9  H    5.515054   6.331983   5.879553   0.000000
    10  H    4.680987   5.345564   4.987663   1.633615   0.000000
    11  H    5.747119   6.845582   6.859077   2.319380   2.412598
    12  H    4.971939   6.243730   6.312500   2.409775   2.939209
    13  H    4.622612   5.922059   6.443382   4.146721   3.644645
    14  H    4.127098   5.095976   5.431779   3.663887   2.532304
    15  H    2.754444   4.217319   4.682281   3.979672   3.731459
    16  H    2.730218   4.127582   4.998881   5.104117   4.381099
    17  H    2.161295   2.755152   3.328795   4.792368   3.486808
    18  H    2.158965   2.831299   2.750678   3.551947   2.580528
    19  H    1.097399   2.163216   2.748093   5.415808   4.894397
    20  H    1.097146   2.142392   3.404843   6.286033   5.432627
    21  H    2.152022   1.095665   2.088391   7.262058   6.376300
    22  H    2.164582   1.095292   2.090160   6.723207   5.522955
    23  H    2.654915   2.041439   1.019140   5.691582   5.072447
    24  H    3.358473   2.038653   1.018465   6.747365   5.826641
                   11         12         13         14         15
    11  H    0.000000
    12  H    1.762630   0.000000
    13  H    2.405195   2.463797   0.000000
    14  H    2.487875   3.074633   1.754630   0.000000
    15  H    3.699557   2.492988   2.647851   3.062977   0.000000
    16  H    4.229141   3.609621   2.274274   2.648404   1.758411
    17  H    4.603212   4.515711   3.583938   2.452179   3.073053
    18  H    4.129037   3.704147   3.855008   2.886503   2.541172
    19  H    5.865521   4.799547   4.912963   4.662191   2.562108
    20  H    6.170615   5.390865   4.637455   4.385078   3.005119
    21  H    7.789824   7.042064   6.737273   6.070840   4.848571
    22  H    7.032445   6.673098   6.005112   5.008410   4.739626
    23  H    6.866152   6.107453   6.576842   5.746238   4.518718
    24  H    7.803148   7.312814   7.410187   6.323268   5.691873
                   16         17         18         19         20
    16  H    0.000000
    17  H    2.476146   0.000000
    18  H    3.056508   1.763325   0.000000
    19  H    3.116168   3.066229   2.482858   0.000000
    20  H    2.454112   2.532787   3.060941   1.759860   0.000000
    21  H    4.756480   3.747193   3.822954   2.482478   2.431204
    22  H    4.285772   2.557114   3.203429   3.070011   2.482717
    23  H    5.160512   3.870539   2.892583   2.492231   3.637398
    24  H    5.930280   4.145674   3.722100   3.635272   4.158057
                   21         22         23         24
    21  H    0.000000
    22  H    1.765215   0.000000
    23  H    2.416485   2.939919   0.000000
    24  H    2.320519   2.416498   1.634045   0.000000
 Stoichiometry    C6H16N2
 Framework group  C1[X(C6H16N2)]
 Deg. of freedom    66
 Full point group                 C1      NOp   1
 Largest Abelian subgroup         C1      NOp   1
 Largest concise Abelian subgroup C1      NOp   1
                         Standard orientation:                         
 ---------------------------------------------------------------------
 Center     Atomic      Atomic             Coordinates (Angstroms)
 Number     Number       Type             X           Y           Z
 ---------------------------------------------------------------------
      1          7           0       -2.219714    1.576796   -0.117579
      2          6           0       -2.909269    0.298368   -0.185299
      3          6           0       -2.116216   -0.849277    0.446837
      4          6           0       -0.795982   -1.184612   -0.258417
      5          6           0        0.404525   -0.406883    0.291063
      6          6           0        1.698045   -0.813445   -0.423687
      7          6           0        2.950166   -0.168692    0.174810
      8          7           0        2.924614    1.285017    0.079078
      9          1           0       -2.840396    2.319970   -0.433438
     10          1           0       -1.977217    1.791328    0.848810
     11          1           0       -3.870885    0.388425    0.332559
     12          1           0       -3.128301    0.064997   -1.232953
     13          1           0       -2.754861   -1.741083    0.400728
     14          1           0       -1.943397   -0.652358    1.512001
     15          1           0       -0.890693   -1.028949   -1.339634
     16          1           0       -0.599769   -2.254846   -0.113033
     17          1           0        0.503912   -0.603432    1.365485
     18          1           0        0.245504    0.668598    0.171969
     19          1           0        1.623594   -0.559317   -1.488657
     20          1           0        1.815517   -1.902879   -0.368338
     21          1           0        3.832165   -0.545045   -0.355208
     22          1           0        3.053058   -0.457412    1.226341
     23          1           0        2.782283    1.564583   -0.890576
     24          1           0        3.827578    1.661980    0.361611
 ---------------------------------------------------------------------
 Rotational constants (GHZ):           3.4875386           0.8197292           0.7027103
 Standard basis: 6-31G(d,p) (6D, 7F)
 There are   200 symmetry adapted cartesian basis functions of A   symmetry.
 There are   200 symmetry adapted basis functions of A   symmetry.
   200 basis functions,   336 primitive gaussians,   200 cartesian basis functions
    33 alpha electrons       33 beta electrons
       nuclear repulsion energy       394.6449353828 Hartrees.
 NAtoms=   24 NActive=   24 NUniq=   24 SFac= 1.00D+00 NAtFMM=   60 NAOKFM=F Big=F
 Integral buffers will be    131072 words long.
 Raffenetti 2 integral format.
 Two-electron integral symmetry is turned on.
 Force inversion solution in PCM.
 ------------------------------------------------------------------------------
 Polarizable Continuum Model (PCM)
 =================================
 Model                : PCM.
 Atomic radii         : UFF (Universal Force Field).
 Polarization charges : Total charges.
 Charge compensation  : None.
 Solution method      : Matrix inversion.
 Cavity type          : Scaled VdW (van der Waals Surface) (Alpha=1.100).
 Cavity algorithm     : GePol (No added spheres)
                        Default sphere list used, NSphG=   24.
                        Lebedev-Laikov grids with approx.  5.0 points / Ang**2.
                        Smoothing algorithm: York/Karplus (Gamma=1.0000).
                        Polarization charges: spherical gaussians, with
                                              point-specific exponents (IZeta= 3).
                        Self-potential: point-specific (ISelfS= 7).
                        Self-field    : sphere-specific E.n sum rule (ISelfD= 2).
 1st derivatives      : Analytical E(r).r(x)/FMM algorithm (CHGder, D1EAlg=3).
                        Cavity 1st derivative terms included.
 2nd derivatives      : Analytical E(r).r(xy)/FMM algorithm (CHGder, D2EAlg=3).
                        Cavity 2nd derivative terms included.
 Solvent              : Water, Eps=  78.355300 Eps(inf)=   1.777849
 ------------------------------------------------------------------------------
 One-electron integrals computed using PRISM.
 NBasis=   200 RedAO= T EigKep=  3.24D-03  NBF=   200
 NBsUse=   200 1.00D-06 EigRej= -1.00D+00 NBFU=   200
 ExpMin= 1.61D-01 ExpMax= 4.17D+03 ExpMxC= 6.27D+02 IAcc=3 IRadAn=         5 AccDes= 0.00D+00
 Harris functional with IExCor=  402 and IRadAn=       5 diagonalized for initial guess.
 HarFok:  IExCor=  402 AccDes= 0.00D+00 IRadAn=         5 IDoV= 1 UseB2=F ITyADJ=14
 ICtDFT=  3500011 ScaDFX=  1.000000  1.000000  1.000000  1.000000
 FoFCou: FMM=F IPFlag=           0 FMFlag=      100000 FMFlg1=           0
         NFxFlg=           0 DoJE=T BraDBF=F KetDBF=T FulRan=T
         wScrn=  0.000000 ICntrl=       500 IOpCl=  0 I1Cent=   200000004 NGrid=           0
         NMat0=    1 NMatS0=      1 NMatT0=    0 NMatD0=    1 NMtDS0=    0 NMtDT0=    0
 Petite list used in FoFCou.
 Keep R1 ints in memory in canonical form, NReq=206134434.
 Requested convergence on RMS density matrix=1.00D-08 within  32 cycles.
 Requested convergence on MAX density matrix=1.00D-06.
 Requested convergence on             energy=1.00D-06.
 No special actions if energy rises.
 Inv3:  Mode=1 IEnd=     8467200.
 Iteration    1 A*A^-1 deviation from unit magnitude is 6.22D-15 for    137.
 Iteration    1 A*A^-1 deviation from orthogonality  is 4.03D-15 for   1641    681.
 Iteration    1 A^-1*A deviation from unit magnitude is 6.22D-15 for    977.
 Iteration    1 A^-1*A deviation from orthogonality  is 2.70D-15 for   1519    912.
 Error on total polarization charges =  0.00913
 SCF Done:  E(RB3LYP) =  -347.794696526     A.U. after   11 cycles
            NFock= 11  Conv=0.22D-08     -V/T= 2.0096
 QCSCF skips out because SCF is already converged.
 DoSCS=F DFT=T ScalE2(SS,OS)=  1.000000  1.000000
 Range of M.O.s used for correlation:     1   200
 NBasis=   200 NAE=    33 NBE=    33 NFC=     0 NFV=     0
 NROrb=    200 NOA=    33 NOB=    33 NVA=   167 NVB=   167
 Symmetrizing basis deriv contribution to polar:
 IMax=3 JMax=2 DiffMx= 0.00D+00
 G2DrvN: will do    25 centers at a time, making    1 passes.
 Calling FoFCou, ICntrl=  3107 FMM=F I1Cent=   0 AccDes= 0.00D+00.
 NEqPCM:  Using equilibrium solvation (IEInf=0, Eps=  78.3553, EpsInf=   1.7778)
 G2PCM: DoFxE=T DoFxN=T DoGrad=T DoDP/DQ/DG/TGxP=FFFF NFrqRd=   0 IEInf=0 SqF1=F DoCFld=F IF1Alg=4.
 End of G2Drv F.D. properties file   721 does not exist.
 End of G2Drv F.D. properties file   722 does not exist.
 End of G2Drv F.D. properties file   788 does not exist.
          IDoAtm=111111111111111111111111
 NEqPCM:  Using equilibrium solvation (IEInf=0, Eps=  78.3553, EpsInf=   1.7778)
          Differentiating once with respect to nuclear coordinates.
 Keep R1 ints in memory in canonical form, NReq=209756119.
          There are    75 degrees of freedom in the 1st order CPHF.  IDoFFX=6 NUNeed=     0.
     69 vectors produced by pass  0 Test12= 7.35D-15 1.33D-09 XBig12= 7.47D-02 4.60D-02.
 AX will form    69 AO Fock derivatives at one time.
     69 vectors produced by pass  1 Test12= 7.35D-15 1.33D-09 XBig12= 3.40D-03 1.13D-02.
     69 vectors produced by pass  2 Test12= 7.35D-15 1.33D-09 XBig12= 4.41D-05 7.85D-04.
     69 vectors produced by pass  3 Test12= 7.35D-15 1.33D-09 XBig12= 7.12D-08 2.35D-05.
     69 vectors produced by pass  4 Test12= 7.35D-15 1.33D-09 XBig12= 5.71D-11 7.46D-07.
     24 vectors produced by pass  5 Test12= 7.35D-15 1.33D-09 XBig12= 3.17D-14 2.01D-08.
 InvSVY:  IOpt=1 It=  1 EMax= 3.89D-16
 Solved reduced A of dimension   369 with    75 vectors.
 End of Minotr F.D. properties file   721 does not exist.
 End of Minotr F.D. properties file   722 does not exist.
 End of Minotr F.D. properties file   788 does not exist.

 **********************************************************************

            Population analysis using the SCF density.

 **********************************************************************

 Orbital symmetries:
       Occupied  (A) (A) (A) (A) (A) (A) (A) (A) (A) (A) (A) (A)
                 (A) (A) (A) (A) (A) (A) (A) (A) (A) (A) (A) (A)
                 (A) (A) (A) (A) (A) (A) (A) (A) (A)
       Virtual   (A) (A) (A) (A) (A) (A) (A) (A) (A) (A) (A) (A)
                 (A) (A) (A) (A) (A) (A) (A) (A) (A) (A) (A) (A)
                 (A) (A) (A) (A) (A) (A) (A) (A) (A) (A) (A) (A)
                 (A) (A) (A) (A) (A) (A) (A) (A) (A) (A) (A) (A)
                 (A) (A) (A) (A) (A) (A) (A) (A) (A) (A) (A) (A)
                 (A) (A) (A) (A) (A) (A) (A) (A) (A) (A) (A) (A)
                 (A) (A) (A) (A) (A) (A) (A) (A) (A) (A) (A) (A)
                 (A) (A) (A) (A) (A) (A) (A) (A) (A) (A) (A) (A)
                 (A) (A) (A) (A) (A) (A) (A) (A) (A) (A) (A) (A)
                 (A) (A) (A) (A) (A) (A) (A) (A) (A) (A) (A) (A)
                 (A) (A) (A) (A) (A) (A) (A) (A) (A) (A) (A) (A)
                 (A) (A) (A) (A) (A) (A) (A) (A) (A) (A) (A) (A)
                 (A) (A) (A) (A) (A) (A) (A) (A) (A) (A) (A) (A)
                 (A) (A) (A) (A) (A) (A) (A) (A) (A) (A) (A)
 The electronic state is 1-A.
 Alpha  occ. eigenvalues --  -14.30426 -14.30346 -10.19746 -10.19655 -10.17302
 Alpha  occ. eigenvalues --  -10.17148 -10.16951 -10.16430  -0.87458  -0.87297
 Alpha  occ. eigenvalues --   -0.78654  -0.73813  -0.67740  -0.61738  -0.57166
 Alpha  occ. eigenvalues --   -0.56452  -0.48462  -0.47886  -0.45307  -0.44840
 Alpha  occ. eigenvalues --   -0.43761  -0.42845  -0.39785  -0.38310  -0.37579
 Alpha  occ. eigenvalues --   -0.35742  -0.33915  -0.33019  -0.32089  -0.31162
 Alpha  occ. eigenvalues --   -0.30221  -0.22778  -0.22288
 Alpha virt. eigenvalues --    0.08421   0.08880   0.11775   0.12050   0.13380
 Alpha virt. eigenvalues --    0.14090   0.15384   0.15861   0.16914   0.17746
 Alpha virt. eigenvalues --    0.18102   0.18571   0.19825   0.20355   0.21588
 Alpha virt. eigenvalues --    0.22212   0.22606   0.24329   0.25122   0.27538
 Alpha virt. eigenvalues --    0.29103   0.30150   0.30934   0.51124   0.51529
 Alpha virt. eigenvalues --    0.52322   0.54286   0.55502   0.57182   0.58392
 Alpha virt. eigenvalues --    0.59475   0.63269   0.64774   0.66273   0.69487
 Alpha virt. eigenvalues --    0.70109   0.70710   0.73085   0.74185   0.76561
 Alpha virt. eigenvalues --    0.78073   0.78254   0.80073   0.82568   0.83888
 Alpha virt. eigenvalues --    0.84729   0.86372   0.87596   0.87925   0.88760
 Alpha virt. eigenvalues --    0.89921   0.91103   0.91862   0.93288   0.94333
 Alpha virt. eigenvalues --    0.95224   0.95425   0.96565   0.97105   1.00886
 Alpha virt. eigenvalues --    1.01797   1.04381   1.09107   1.11990   1.18449
 Alpha virt. eigenvalues --    1.24124   1.30658   1.31350   1.37624   1.38591
 Alpha virt. eigenvalues --    1.44661   1.48828   1.51671   1.54746   1.57710
 Alpha virt. eigenvalues --    1.58552   1.64893   1.66742   1.71821   1.73839
 Alpha virt. eigenvalues --    1.78081   1.79573   1.80693   1.84291   1.85927
 Alpha virt. eigenvalues --    1.86711   1.88052   1.89118   1.90591   1.93612
 Alpha virt. eigenvalues --    1.95961   2.00485   2.02197   2.04943   2.06666
 Alpha virt. eigenvalues --    2.10309   2.11599   2.12501   2.13649   2.15780
 Alpha virt. eigenvalues --    2.18574   2.19582   2.23945   2.24410   2.25887
 Alpha virt. eigenvalues --    2.27559   2.28779   2.30209   2.30685   2.32452
 Alpha virt. eigenvalues --    2.33968   2.38210   2.38845   2.40834   2.41271
 Alpha virt. eigenvalues --    2.42656   2.45137   2.47856   2.50909   2.53389
 Alpha virt. eigenvalues --    2.58755   2.59226   2.61711   2.63039   2.67412
 Alpha virt. eigenvalues --    2.68547   2.71149   2.74281   2.76921   2.79795
 Alpha virt. eigenvalues --    2.80801   2.80902   2.82805   2.86847   2.87676
 Alpha virt. eigenvalues --    2.89506   2.91821   2.93029   2.94027   2.95632
 Alpha virt. eigenvalues --    2.95962   2.99224   2.99647   3.23021   3.25945
 Alpha virt. eigenvalues --    3.28393   3.30814   3.31529   3.33827   3.34993
 Alpha virt. eigenvalues --    3.38768   3.40381   3.45173   3.46026   3.47602
 Alpha virt. eigenvalues --    3.52960   3.56553   3.59325   3.60533   4.00202
 Alpha virt. eigenvalues --    4.01305   4.29403   4.40349   4.51418   4.60671
 Alpha virt. eigenvalues --    4.68732   4.76222
          Condensed to atoms (all electrons):
               1          2          3          4          5          6
     1  N    6.799027   0.302145  -0.057075   0.005533  -0.008554   0.000090
     2  C    0.302145   4.771876   0.385031  -0.040243  -0.002067   0.000011
     3  C   -0.057075   0.385031   4.948392   0.353531  -0.035417   0.003791
     4  C    0.005533  -0.040243   0.353531   4.907559   0.378318  -0.039943
     5  C   -0.008554  -0.002067  -0.035417   0.378318   4.921605   0.363806
     6  C    0.000090   0.000011   0.003791  -0.039943   0.363806   4.942984
     7  C    0.000007   0.000000  -0.000155   0.003859  -0.040577   0.371496
     8  N   -0.000010   0.000000   0.000005   0.000211  -0.001496  -0.054450
     9  H    0.337824  -0.033353   0.006045  -0.000115   0.000136  -0.000001
    10  H    0.338844  -0.039533  -0.004992  -0.001505   0.001296  -0.000012
    11  H   -0.056502   0.386480  -0.045029   0.006189  -0.000216   0.000003
    12  H   -0.046447   0.385211  -0.030666  -0.009926   0.000076   0.000001
    13  H    0.004373  -0.033064   0.370060  -0.032184   0.004313  -0.000174
    14  H   -0.005200  -0.037146   0.383055  -0.044351  -0.008309   0.000186
    15  H    0.000666  -0.008554  -0.041370   0.383765  -0.038954  -0.003421
    16  H   -0.000007   0.004442  -0.035831   0.379355  -0.041424  -0.005511
    17  H    0.000275  -0.000127  -0.005761  -0.039296   0.379418  -0.040917
    18  H    0.015969  -0.000200  -0.002299  -0.036880   0.373827  -0.034661
    19  H    0.000032  -0.000001  -0.000003  -0.004156  -0.041934   0.380777
    20  H   -0.000004  -0.000003   0.000113  -0.004359  -0.039555   0.377251
    21  H    0.000000   0.000000   0.000002  -0.000107   0.005887  -0.041729
    22  H    0.000000   0.000000  -0.000002  -0.000017  -0.009445  -0.030786
    23  H    0.000001   0.000000   0.000000  -0.000066  -0.000767  -0.005518
    24  H   -0.000000   0.000000  -0.000000  -0.000001   0.000165   0.005702
               7          8          9         10         11         12
     1  N    0.000007  -0.000010   0.337824   0.338844  -0.056502  -0.046447
     2  C    0.000000   0.000000  -0.033353  -0.039533   0.386480   0.385211
     3  C   -0.000155   0.000005   0.006045  -0.004992  -0.045029  -0.030666
     4  C    0.003859   0.000211  -0.000115  -0.001505   0.006189  -0.009926
     5  C   -0.040577  -0.001496   0.000136   0.001296  -0.000216   0.000076
     6  C    0.371496  -0.054450  -0.000001  -0.000012   0.000003   0.000001
     7  C    4.795834   0.299332  -0.000000  -0.000001  -0.000000  -0.000000
     8  N    0.299332   6.807666  -0.000000  -0.000001  -0.000000   0.000000
     9  H   -0.000000  -0.000000   0.479860  -0.031196  -0.006157  -0.002374
    10  H   -0.000001  -0.000001  -0.031196   0.482946  -0.004728   0.006880
    11  H   -0.000000  -0.000000  -0.006157  -0.004728   0.701931  -0.050255
    12  H   -0.000000   0.000000  -0.002374   0.006880  -0.050255   0.642328
    13  H    0.000002  -0.000000  -0.000256  -0.000129  -0.001975  -0.003609
    14  H   -0.000004   0.000000   0.000027   0.005779  -0.005958   0.005899
    15  H    0.000111  -0.000004  -0.000095   0.000144   0.000212   0.005073
    16  H   -0.000023  -0.000005   0.000005  -0.000011  -0.000207   0.000081
    17  H   -0.003170  -0.000514  -0.000009   0.000028   0.000021   0.000002
    18  H   -0.005780   0.011026  -0.000065  -0.001074   0.000153  -0.000169
    19  H   -0.036688  -0.005370  -0.000000  -0.000000   0.000000  -0.000006
    20  H   -0.033035   0.004096   0.000000   0.000001  -0.000000   0.000001
    21  H    0.383750  -0.055134  -0.000000  -0.000000   0.000000  -0.000000
    22  H    0.384357  -0.046140   0.000000   0.000000  -0.000000  -0.000000
    23  H   -0.040045   0.340507   0.000000   0.000000   0.000000  -0.000000
    24  H   -0.033296   0.339556   0.000000   0.000000  -0.000000   0.000000
              13         14         15         16         17         18
     1  N    0.004373  -0.005200   0.000666  -0.000007   0.000275   0.015969
     2  C   -0.033064  -0.037146  -0.008554   0.004442  -0.000127  -0.000200
     3  C    0.370060   0.383055  -0.041370  -0.035831  -0.005761  -0.002299
     4  C   -0.032184  -0.044351   0.383765   0.379355  -0.039296  -0.036880
     5  C    0.004313  -0.008309  -0.038954  -0.041424   0.379418   0.373827
     6  C   -0.000174   0.000186  -0.003421  -0.005511  -0.040917  -0.034661
     7  C    0.000002  -0.000004   0.000111  -0.000023  -0.003170  -0.005780
     8  N   -0.000000   0.000000  -0.000004  -0.000005  -0.000514   0.011026
     9  H   -0.000256   0.000027  -0.000095   0.000005  -0.000009  -0.000065
    10  H   -0.000129   0.005779   0.000144  -0.000011   0.000028  -0.001074
    11  H   -0.001975  -0.005958   0.000212  -0.000207   0.000021   0.000153
    12  H   -0.003609   0.005899   0.005073   0.000081   0.000002  -0.000169
    13  H    0.645548  -0.035795   0.001025  -0.009686   0.000139   0.000002
    14  H   -0.035795   0.638419   0.005493   0.000544   0.005426  -0.000369
    15  H    0.001025   0.005493   0.643198  -0.040008   0.005962  -0.004989
    16  H   -0.009686   0.000544  -0.040008   0.658202  -0.006324   0.005855
    17  H    0.000139   0.005426   0.005962  -0.006324   0.654121  -0.037067
    18  H    0.000002  -0.000369  -0.004989   0.005855  -0.037067   0.612867
    19  H    0.000003   0.000007   0.004794  -0.000432   0.006144  -0.006388
    20  H   -0.000007   0.000014  -0.000594   0.006191  -0.005128   0.005631
    21  H   -0.000000   0.000000   0.000005  -0.000012   0.000019   0.000277
    22  H    0.000000  -0.000002   0.000007   0.000018   0.005541  -0.000629
    23  H   -0.000000  -0.000000  -0.000002   0.000002   0.000105  -0.000148
    24  H    0.000000   0.000000  -0.000000   0.000000  -0.000037  -0.000209
              19         20         21         22         23         24
     1  N    0.000032  -0.000004   0.000000   0.000000   0.000001  -0.000000
     2  C   -0.000001  -0.000003   0.000000   0.000000   0.000000   0.000000
     3  C   -0.000003   0.000113   0.000002  -0.000002   0.000000  -0.000000
     4  C   -0.004156  -0.004359  -0.000107  -0.000017  -0.000066  -0.000001
     5  C   -0.041934  -0.039555   0.005887  -0.009445  -0.000767   0.000165
     6  C    0.380777   0.377251  -0.041729  -0.030786  -0.005518   0.005702
     7  C   -0.036688  -0.033035   0.383750   0.384357  -0.040045  -0.033296
     8  N   -0.005370   0.004096  -0.055134  -0.046140   0.340507   0.339556
     9  H   -0.000000   0.000000  -0.000000   0.000000   0.000000   0.000000
    10  H   -0.000000   0.000001  -0.000000   0.000000   0.000000   0.000000
    11  H    0.000000  -0.000000   0.000000  -0.000000   0.000000  -0.000000
    12  H   -0.000006   0.000001  -0.000000  -0.000000  -0.000000   0.000000
    13  H    0.000003  -0.000007  -0.000000   0.000000  -0.000000   0.000000
    14  H    0.000007   0.000014   0.000000  -0.000002  -0.000000   0.000000
    15  H    0.004794  -0.000594   0.000005   0.000007  -0.000002  -0.000000
    16  H   -0.000432   0.006191  -0.000012   0.000018   0.000002   0.000000
    17  H    0.006144  -0.005128   0.000019   0.005541   0.000105  -0.000037
    18  H   -0.006388   0.005631   0.000277  -0.000629  -0.000148  -0.000209
    19  H    0.643779  -0.037502  -0.006157   0.006072   0.006072   0.000022
    20  H   -0.037502   0.641581  -0.001442  -0.003367  -0.000088  -0.000243
    21  H   -0.006157  -0.001442   0.699101  -0.050268  -0.003957  -0.005605
    22  H    0.006072  -0.003367  -0.050268   0.643731   0.006774  -0.002290
    23  H    0.006072  -0.000088  -0.003957   0.006774   0.482562  -0.032056
    24  H    0.000022  -0.000243  -0.005605  -0.002290  -0.032056   0.478692
 Mulliken charges:
               1
     1  N   -0.630986
     2  C   -0.040905
     3  C   -0.191424
     4  C   -0.165171
     5  C   -0.160128
     6  C   -0.188975
     7  C   -0.045973
     8  N   -0.639275
     9  H    0.249725
    10  H    0.247265
    11  H    0.076036
    12  H    0.097898
    13  H    0.091412
    14  H    0.092286
    15  H    0.087537
    16  H    0.084786
    17  H    0.081148
    18  H    0.105322
    19  H    0.090934
    20  H    0.090450
    21  H    0.075370
    22  H    0.096447
    23  H    0.246624
    24  H    0.249600
 Sum of Mulliken charges =  -0.00000
 Mulliken charges with hydrogens summed into heavy atoms:
               1
     1  N   -0.133995
     2  C    0.133028
     3  C   -0.007727
     4  C    0.007151
     5  C    0.026341
     6  C   -0.007591
     7  C    0.125844
     8  N   -0.143052
 APT charges:
               1
     1  N   -1.252745
     2  C   -0.876587
     3  C   -0.827535
     4  C   -0.678985
     5  C   -0.502130
     6  C   -0.698977
     7  C   -0.826429
     8  N   -1.414806
     9  H    0.835119
    10  H    0.366777
    11  H    0.542998
    12  H    0.398847
    13  H    0.516261
    14  H    0.282904
    15  H    0.293461
    16  H    0.402453
    17  H    0.318291
    18  H    0.195608
    19  H    0.291398
    20  H    0.399606
    21  H    0.540692
    22  H    0.367354
    23  H    0.400161
    24  H    0.926265
 Sum of APT charges =  -0.00000
 APT charges with hydrogens summed into heavy atoms:
               1
     1  N   -0.050850
     2  C    0.065258
     3  C   -0.028370
     4  C    0.016930
     5  C    0.011768
     6  C   -0.007973
     7  C    0.081617
     8  N   -0.088379
 Electronic spatial extent (au):  <R**2>=           1684.3468
 Charge=              0.0000 electrons
 Dipole moment (field-independent basis, Debye):
    X=             -0.2038    Y=             -0.1390    Z=             -0.0570  Tot=              0.2532
 Quadrupole moment (field-independent basis, Debye-Ang):
   XX=            -41.0607   YY=            -51.3811   ZZ=            -51.3656
   XY=             -1.6282   XZ=             -2.6523   YZ=             -0.5484
 Traceless Quadrupole moment (field-independent basis, Debye-Ang):
   XX=              6.8751   YY=             -3.4453   ZZ=             -3.4298
   XY=             -1.6282   XZ=             -2.6523   YZ=             -0.5484
 Octapole moment (field-independent basis, Debye-Ang**2):
  XXX=             19.1325  YYY=             13.5985  ZZZ=             -0.2886  XYY=             -6.4378
  XXY=             25.5909  XXZ=             -3.5199  XZZ=              0.9278  YZZ=              4.5913
  YYZ=             -0.5371  XYZ=             -5.8411
 Hexadecapole moment (field-independent basis, Debye-Ang**3):
 XXXX=          -1510.0356 YYYY=           -378.6014 ZZZZ=           -128.2596 XXXY=             23.4484
 XXXZ=             10.1122 YYYX=            -20.4972 YYYZ=             -4.4317 ZZZX=             -2.5367
 ZZZY=             -1.2741 XXYY=           -296.3341 XXZZ=           -293.4162 YYZZ=            -87.5379
 XXYZ=             -8.2582 YYXZ=             -7.0600 ZZXY=             -0.4080
 N-N= 3.946449353828D+02 E-N=-1.595876634874D+03  KE= 3.444868889553D+02
  Exact polarizability:   0.000   0.000   0.000   0.000   0.000   0.000
 Approx polarizability: 103.027   1.119 106.124   4.151  -1.432 104.336
 D2PCM: PCM CHGder 2nd derivatives, FixD1E=F FixD2E=F DoIter=F DoCFld=F I1PDM=0
 Calling FoFJK, ICntrl=    100147 FMM=F ISym2X=0 I1Cent= 0 IOpClX= 0 NMat=1 NMatS=1 NMatT=0.
 ***** Axes restored to original set *****
 -------------------------------------------------------------------
 Center     Atomic                   Forces (Hartrees/Bohr)
 Number     Number              X              Y              Z
 -------------------------------------------------------------------
      1        7           0.013305411    0.010570470   -0.002822334
      2        6          -0.008603738    0.000219923    0.008687594
      3        6          -0.003801278   -0.004229671   -0.010072298
      4        6           0.000038102    0.000395586    0.009707707
      5        6           0.003932125   -0.001590272   -0.008363546
      6        6          -0.000404123    0.002812441    0.008027498
      7        6           0.008019672   -0.001937217   -0.008595062
      8        7          -0.009164470    0.011945751    0.003764418
      9        1           0.000469370   -0.000451295    0.001493632
     10        1          -0.002234103   -0.000407823   -0.001488661
     11        1          -0.006457849   -0.008041100   -0.000868794
     12        1           0.001097028   -0.000273815   -0.001154194
     13        1          -0.002566180    0.001248157    0.001210831
     14        1           0.000145853    0.001048951    0.000693567
     15        1          -0.000379437    0.000583815   -0.000843535
     16        1           0.001675157   -0.000625712   -0.001434161
     17        1          -0.000253416   -0.000259792    0.001324305
     18        1          -0.001211025   -0.000531197    0.000753134
     19        1           0.000982422    0.000260265   -0.001088200
     20        1           0.000726689   -0.000660159   -0.000670519
     21        1           0.003836457   -0.009224768    0.001046392
     22        1          -0.000687491    0.000161365    0.001411797
     23        1           0.002308069   -0.000866467    0.001078565
     24        1          -0.000773246   -0.000147435   -0.001798136
 -------------------------------------------------------------------
 Cartesian Forces:  Max     0.013305411 RMS     0.004529951
 FormGI is forming the generalized inverse of G from B-inverse, IUseBI=4.

 GradGradGradGradGradGradGradGradGradGradGradGradGradGradGradGradGradGrad
 Berny optimization.
 Internal  Forces:  Max     0.012971579 RMS     0.002789362
 Search for a local minimum.
 Step number   1 out of a maximum of  132
 All quantities printed in internal units (Hartrees-Bohrs-Radians)
 Mixed Optimization -- RFO/linear search
 Second derivative matrix not updated -- analytic derivatives used.
 ITU=  0
     Eigenvalues ---    0.00129   0.00174   0.00217   0.00282   0.00319
     Eigenvalues ---    0.00356   0.00425   0.03089   0.03098   0.03315
     Eigenvalues ---    0.03504   0.03908   0.03923   0.03973   0.04031
     Eigenvalues ---    0.04158   0.04211   0.04633   0.04760   0.05183
     Eigenvalues ---    0.05190   0.06653   0.07166   0.07270   0.07422
     Eigenvalues ---    0.08436   0.08615   0.09674   0.11096   0.11599
     Eigenvalues ---    0.12348   0.12605   0.13327   0.14908   0.14927
     Eigenvalues ---    0.16789   0.16959   0.17838   0.20291   0.22246
     Eigenvalues ---    0.22582   0.24021   0.24410   0.27726   0.28444
     Eigenvalues ---    0.29295   0.31230   0.31858   0.32019   0.32434
     Eigenvalues ---    0.32565   0.32773   0.32998   0.33039   0.33112
     Eigenvalues ---    0.33280   0.33414   0.33611   0.34223   0.35429
     Eigenvalues ---    0.37959   0.38268   0.44020   0.44023   0.44377
     Eigenvalues ---    0.44400
 RFO step:  Lambda=-5.61318741D-03 EMin= 1.29458688D-03
 Linear search not attempted -- first point.
 Iteration  1 RMS(Cart)=  0.04382128 RMS(Int)=  0.00114260
 Iteration  2 RMS(Cart)=  0.00138934 RMS(Int)=  0.00020100
 Iteration  3 RMS(Cart)=  0.00000227 RMS(Int)=  0.00020099
 Iteration  4 RMS(Cart)=  0.00000000 RMS(Int)=  0.00020099
 Variable       Old X    -DE/DX   Delta X   Delta X   Delta X     New X
                                 (Linear)    (Quad)   (Total)
    R1        2.74788   0.01297   0.00000   0.03130   0.03130   2.77918
    R2        1.92467  -0.00125   0.00000   0.00007   0.00007   1.92474
    R3        1.92598  -0.00161   0.00000  -0.00025  -0.00025   1.92573
    R4        2.89419   0.00026   0.00000   0.00295   0.00295   2.89714
    R5        2.07095   0.00585   0.00000   0.01451   0.01451   2.08546
    R6        2.07011   0.00120   0.00000   0.00468   0.00468   2.07478
    R7        2.89865   0.00697   0.00000   0.01431   0.01431   2.91296
    R8        2.07467   0.00003   0.00000  -0.00090  -0.00090   2.07376
    R9        2.07287   0.00089   0.00000   0.00543   0.00543   2.07829
   R10        2.89567   0.00323   0.00000   0.00520   0.00520   2.90086
   R11        2.07202   0.00086   0.00000   0.00526   0.00526   2.07727
   R12        2.07443   0.00070   0.00000   0.00204   0.00204   2.07648
   R13        2.89650   0.00318   0.00000   0.00164   0.00164   2.89814
   R14        2.07258   0.00137   0.00000   0.00626   0.00626   2.07885
   R15        2.06675  -0.00039   0.00000  -0.00174  -0.00174   2.06501
   R16        2.89178   0.00076   0.00000   0.00290   0.00290   2.89469
   R17        2.07378   0.00121   0.00000   0.00553   0.00553   2.07931
   R18        2.07331   0.00071   0.00000   0.00298   0.00298   2.07629
   R19        2.75348   0.01122   0.00000   0.02736   0.02736   2.78085
   R20        2.07051   0.00573   0.00000   0.01425   0.01425   2.08476
   R21        2.06980   0.00138   0.00000   0.00505   0.00505   2.07485
   R22        1.92589  -0.00119   0.00000   0.00066   0.00066   1.92655
   R23        1.92462  -0.00145   0.00000  -0.00027  -0.00027   1.92435
    A1        1.91568   0.00046   0.00000  -0.01229  -0.01257   1.90311
    A2        1.91989  -0.00197   0.00000  -0.02299  -0.02327   1.89662
    A3        1.86029  -0.00052   0.00000  -0.02087  -0.02151   1.83878
    A4        1.97581  -0.00316   0.00000  -0.00677  -0.00718   1.96863
    A5        1.89848   0.00782   0.00000   0.06597   0.06605   1.96453
    A6        1.90356  -0.00090   0.00000  -0.02200  -0.02221   1.88135
    A7        1.89748  -0.00266   0.00000  -0.01074  -0.01124   1.88624
    A8        1.91626   0.00020   0.00000  -0.01440  -0.01487   1.90139
    A9        1.86919  -0.00114   0.00000  -0.01149  -0.01146   1.85773
   A10        2.00395   0.00303   0.00000   0.01946   0.01929   2.02324
   A11        1.86517  -0.00177   0.00000  -0.00247  -0.00299   1.86218
   A12        1.92608  -0.00169   0.00000  -0.01898  -0.01894   1.90714
   A13        1.87946   0.00168   0.00000   0.02246   0.02229   1.90175
   A14        1.92849  -0.00154   0.00000  -0.01417  -0.01401   1.91448
   A15        1.85278   0.00019   0.00000  -0.00648  -0.00645   1.84633
   A16        1.98067   0.00575   0.00000   0.02522   0.02498   2.00565
   A17        1.92624  -0.00274   0.00000  -0.02121  -0.02103   1.90521
   A18        1.88188   0.00005   0.00000   0.01364   0.01317   1.89505
   A19        1.92754  -0.00222   0.00000  -0.01688  -0.01671   1.91083
   A20        1.88315  -0.00157   0.00000   0.00858   0.00803   1.89119
   A21        1.85923   0.00051   0.00000  -0.00990  -0.00979   1.84943
   A22        1.93834   0.00727   0.00000   0.03035   0.03031   1.96865
   A23        1.90851  -0.00195   0.00000  -0.00586  -0.00592   1.90259
   A24        1.92425  -0.00301   0.00000  -0.01508  -0.01533   1.90892
   A25        1.91008  -0.00230   0.00000  -0.00807  -0.00805   1.90202
   A26        1.91003  -0.00117   0.00000   0.00666   0.00672   1.91675
   A27        1.87138   0.00091   0.00000  -0.00948  -0.00960   1.86178
   A28        1.97837   0.00430   0.00000   0.02114   0.02108   1.99945
   A29        1.91119  -0.00074   0.00000   0.00031   0.00042   1.91161
   A30        1.90733  -0.00088   0.00000   0.00405   0.00395   1.91128
   A31        1.91505  -0.00222   0.00000  -0.01524  -0.01527   1.89977
   A32        1.88708  -0.00105   0.00000  -0.00116  -0.00136   1.88572
   A33        1.86102   0.00038   0.00000  -0.01096  -0.01102   1.85000
   A34        1.96093  -0.00361   0.00000  -0.01183  -0.01220   1.94873
   A35        1.90155  -0.00207   0.00000  -0.00673  -0.00707   1.89448
   A36        1.91908   0.00058   0.00000  -0.01058  -0.01107   1.90801
   A37        1.90184   0.00753   0.00000   0.06511   0.06520   1.96704
   A38        1.90468  -0.00085   0.00000  -0.02122  -0.02147   1.88321
   A39        1.87365  -0.00142   0.00000  -0.01410  -0.01400   1.85965
   A40        1.91627  -0.00196   0.00000  -0.02312  -0.02338   1.89289
   A41        1.91293   0.00082   0.00000  -0.00884  -0.00909   1.90384
   A42        1.86108  -0.00081   0.00000  -0.02401  -0.02459   1.83649
    D1       -3.00679  -0.00043   0.00000  -0.03621  -0.03650  -3.04329
    D2       -0.89556  -0.00036   0.00000  -0.00783  -0.00770  -0.90326
    D3        1.13754   0.00213   0.00000   0.00296   0.00257   1.14011
    D4       -0.96523  -0.00194   0.00000  -0.08238  -0.08231  -1.04754
    D5        1.14600  -0.00188   0.00000  -0.05400  -0.05351   1.09249
    D6       -3.10409   0.00062   0.00000  -0.04321  -0.04324   3.13586
    D7       -1.12469   0.00432   0.00000   0.04328   0.04315  -1.08154
    D8        3.07567   0.00159   0.00000   0.00492   0.00484   3.08051
    D9        1.06853   0.00321   0.00000   0.02357   0.02339   1.09192
   D10        3.04670  -0.00167   0.00000  -0.02845  -0.02831   3.01839
   D11        0.96387  -0.00440   0.00000  -0.06681  -0.06662   0.89725
   D12       -1.04327  -0.00279   0.00000  -0.04816  -0.04808  -1.09134
   D13        1.00708   0.00111   0.00000  -0.00037  -0.00037   1.00671
   D14       -1.07574  -0.00161   0.00000  -0.03872  -0.03868  -1.11443
   D15       -3.08288  -0.00000   0.00000  -0.02008  -0.02014  -3.10302
   D16        1.57813  -0.00178   0.00000  -0.06240  -0.06267   1.51546
   D17       -0.59605  -0.00101   0.00000  -0.04237  -0.04250  -0.63855
   D18       -2.62028  -0.00018   0.00000  -0.02688  -0.02689  -2.64718
   D19       -2.63021  -0.00095   0.00000  -0.03765  -0.03762  -2.66783
   D20        1.47879  -0.00018   0.00000  -0.01763  -0.01745   1.46134
   D21       -0.54544   0.00065   0.00000  -0.00214  -0.00184  -0.54729
   D22       -0.61384  -0.00059   0.00000  -0.04020  -0.04036  -0.65420
   D23       -2.78802   0.00018   0.00000  -0.02017  -0.02019  -2.80822
   D24        1.47093   0.00101   0.00000  -0.00468  -0.00458   1.46634
   D25        3.11283   0.00097   0.00000   0.01663   0.01678   3.12961
   D26        1.00314   0.00047   0.00000   0.01116   0.01129   1.01443
   D27       -1.05020   0.00231   0.00000   0.03512   0.03511  -1.01510
   D28       -0.99688  -0.00008   0.00000  -0.00572  -0.00568  -1.00256
   D29       -3.10657  -0.00058   0.00000  -0.01120  -0.01117  -3.11774
   D30        1.12327   0.00126   0.00000   0.01276   0.01265   1.13592
   D31        1.02879  -0.00157   0.00000  -0.02181  -0.02182   1.00696
   D32       -1.08090  -0.00206   0.00000  -0.02728  -0.02732  -1.10822
   D33       -3.13425  -0.00023   0.00000  -0.00332  -0.00350  -3.13774
   D34       -3.04434  -0.00080   0.00000  -0.02883  -0.02877  -3.07310
   D35        1.09417  -0.00039   0.00000  -0.02414  -0.02409   1.07008
   D36       -0.93840   0.00008   0.00000  -0.01344  -0.01331  -0.95171
   D37       -0.93557  -0.00009   0.00000  -0.02202  -0.02203  -0.95760
   D38       -3.08025   0.00032   0.00000  -0.01733  -0.01735  -3.09760
   D39        1.17037   0.00079   0.00000  -0.00662  -0.00657   1.16380
   D40        1.11039  -0.00100   0.00000  -0.03429  -0.03440   1.07600
   D41       -1.03429  -0.00058   0.00000  -0.02960  -0.02972  -1.06400
   D42       -3.06685  -0.00012   0.00000  -0.01889  -0.01894  -3.08579
   D43       -1.08088   0.00306   0.00000   0.02435   0.02428  -1.05659
   D44        3.09310  -0.00268   0.00000  -0.04541  -0.04527   3.04783
   D45        1.04414  -0.00008   0.00000  -0.01833  -0.01827   1.02587
   D46        1.06167   0.00347   0.00000   0.02829   0.02812   1.08980
   D47       -1.04754  -0.00226   0.00000  -0.04146  -0.04143  -1.08897
   D48       -3.09650   0.00033   0.00000  -0.01438  -0.01443  -3.11093
   D49        3.08495   0.00214   0.00000   0.00639   0.00630   3.09125
   D50        0.97574  -0.00360   0.00000  -0.06336  -0.06325   0.91249
   D51       -1.07322  -0.00100   0.00000  -0.03629  -0.03625  -1.10947
   D52       -0.95928  -0.00198   0.00000  -0.08920  -0.08906  -1.04833
   D53       -2.99806  -0.00035   0.00000  -0.04153  -0.04171  -3.03978
   D54        1.14977  -0.00177   0.00000  -0.06077  -0.06036   1.08940
   D55       -0.88902  -0.00013   0.00000  -0.01310  -0.01302  -0.90204
   D56       -3.09247   0.00030   0.00000  -0.05288  -0.05294   3.13777
   D57        1.15193   0.00193   0.00000  -0.00521  -0.00560   1.14633
         Item               Value     Threshold  Converged?
 Maximum Force            0.012972     0.000450     NO 
 RMS     Force            0.002789     0.000300     NO 
 Maximum Displacement     0.130039     0.001800     NO 
 RMS     Displacement     0.043352     0.001200     NO 
 Predicted change in Energy=-3.063060D-03
 GradGradGradGradGradGradGradGradGradGradGradGradGradGradGradGradGradGrad

                          Input orientation:                          
 ---------------------------------------------------------------------
 Center     Atomic      Atomic             Coordinates (Angstroms)
 Number     Number       Type             X           Y           Z
 ---------------------------------------------------------------------
      1          7           0       -2.226153    1.449790   -0.835048
      2          6           0       -2.826807    0.122157   -1.033812
      3          6           0       -2.097439   -0.981739   -0.259322
      4          6           0       -0.623408   -1.214629   -0.645491
      5          6           0        0.386811   -0.325496    0.092981
      6          6           0        1.837651   -0.608878   -0.315403
      7          6           0        2.886331    0.189504    0.465159
      8          7           0        2.710418    1.639268    0.284254
      9          1           0       -2.806073    2.149167   -1.295442
     10          1           0       -2.263123    1.679309    0.157131
     11          1           0       -3.892728    0.092845   -0.749498
     12          1           0       -2.784917   -0.107847   -2.106561
     13          1           0       -2.660537   -1.908733   -0.426248
     14          1           0       -2.170234   -0.777471    0.818872
     15          1           0       -0.508553   -1.077302   -1.730060
     16          1           0       -0.370874   -2.265164   -0.445449
     17          1           0        0.281924   -0.487204    1.176042
     18          1           0        0.148268    0.724786   -0.091741
     19          1           0        1.963647   -0.406256   -1.389545
     20          1           0        2.054471   -1.677629   -0.181402
     21          1           0        3.888668   -0.158732    0.163299
     22          1           0        2.787908   -0.031337    1.536170
     23          1           0        2.803913    1.854382   -0.707884
     24          1           0        3.480835    2.127210    0.737416
 ---------------------------------------------------------------------
                    Distance matrix (angstroms):
                    1          2          3          4          5
     1  N    0.000000
     2  C    1.470680   0.000000
     3  C    2.502071   1.533101   0.000000
     4  C    3.115101   2.606292   1.541470   0.000000
     5  C    3.292485   3.434734   2.593505   1.535071   0.000000
     6  C    4.585047   4.775740   3.953113   2.555916   1.533629
     7  C    5.423684   5.906894   5.170555   3.939975   2.579019
     8  N    5.065420   5.890653   5.502785   4.485929   3.048940
     9  H    1.018527   2.043929   3.373170   4.062214   4.271555
    10  H    1.019051   2.039806   2.698529   3.421659   3.323479
    11  H    2.150834   1.103577   2.148969   3.522607   4.381693
    12  H    2.086910   1.097928   2.156063   2.834045   3.865904
    13  H    3.411082   2.126334   1.097389   2.163271   3.473121
    14  H    2.774756   2.161680   1.099785   2.174429   2.696235
    15  H    3.183927   2.701438   2.167202   1.099245   2.165725
    16  H    4.170699   3.475210   2.159363   1.098824   2.150885
    17  H    3.753250   3.862511   2.822446   2.160268   1.100079
    18  H    2.591527   3.178322   2.825511   2.159504   1.092757
    19  H    4.615929   4.832620   4.254527   2.810683   2.165829
    20  H    5.341511   5.271879   4.210545   2.756951   2.164402
    21  H    6.401178   6.827121   6.057179   4.704029   3.506531
    22  H    5.740838   6.176843   5.290904   4.218638   2.816840
    23  H    5.047914   5.900156   5.680496   4.601006   3.351960
    24  H    5.958293   6.851557   6.463450   5.470387   4.000506
                    6          7          8          9         10
     6  C    0.000000
     7  C    1.531802   0.000000
     8  N    2.485050   1.471560   0.000000
     9  H    5.489213   6.272436   5.760826   0.000000
    10  H    4.719686   5.369476   4.975326   1.620348   0.000000
    11  H    5.789482   6.887697   6.860147   2.389002   2.448359
    12  H    4.982712   6.234197   6.242365   2.398431   2.930955
    13  H    4.683546   5.997078   6.476132   4.152496   3.656818
    14  H    4.168710   5.160330   5.472404   3.666036   2.546036
    15  H    2.779451   4.236628   4.668939   3.984670   3.773448
    16  H    2.763653   4.178993   5.027069   5.112631   4.416173
    17  H    2.158587   2.783204   3.348843   4.753358   3.494170
    18  H    2.163955   2.844934   2.746318   3.493693   2.605352
    19  H    1.100324   2.155504   2.746532   5.411956   4.960582
    20  H    1.098724   2.143879   3.413050   6.285725   5.479530
    21  H    2.153708   1.103208   2.153070   7.230068   6.420511
    22  H    2.159829   1.097963   2.089072   6.638166   5.508264
    23  H    2.674949   2.038293   1.019487   5.648369   5.143322
    24  H    3.360753   2.045059   1.018325   6.607436   5.790544
                   11         12         13         14         15
    11  H    0.000000
    12  H    1.763276   0.000000
    13  H    2.372573   2.466195   0.000000
    14  H    2.486810   3.063396   1.752277   0.000000
    15  H    3.712599   2.502685   2.649951   3.057473   0.000000
    16  H    4.249248   3.638807   2.317319   2.655078   1.755049
    17  H    4.633777   4.508316   3.639527   2.494976   3.068958
    18  H    4.142662   3.654634   3.864803   2.908857   2.522503
    19  H    5.912351   4.811655   4.956658   4.701476   2.584187
    20  H    6.231090   5.439681   4.727013   4.433843   3.054148
    21  H    7.838789   7.049226   6.804568   6.125595   4.874847
    22  H    7.061912   6.658207   6.087795   5.065017   4.756990
    23  H    6.924576   6.086186   6.640826   5.830933   4.540049
    24  H    7.792239   7.234870   7.440390   6.354399   5.680893
                   16         17         18         19         20
    16  H    0.000000
    17  H    2.493296   0.000000
    18  H    3.055228   1.758994   0.000000
    19  H    3.129991   3.068710   2.501829   0.000000
    20  H    2.509425   2.530156   3.068101   1.756203   0.000000
    21  H    4.790754   3.760604   3.851784   2.485618   2.406272
    22  H    4.346803   2.572442   3.192102   3.062642   2.489631
    23  H    5.207572   3.923344   2.950944   2.506230   3.648828
    24  H    5.960519   4.154586   3.709487   3.639268   4.165998
                   21         22         23         24
    21  H    0.000000
    22  H    1.764278   0.000000
    23  H    2.447096   2.931206   0.000000
    24  H    2.391960   2.403640   1.619120   0.000000
 Stoichiometry    C6H16N2
 Framework group  C1[X(C6H16N2)]
 Deg. of freedom    66
 Full point group                 C1      NOp   1
 Largest Abelian subgroup         C1      NOp   1
 Largest concise Abelian subgroup C1      NOp   1
                         Standard orientation:                         
 ---------------------------------------------------------------------
 Center     Atomic      Atomic             Coordinates (Angstroms)
 Number     Number       Type             X           Y           Z
 ---------------------------------------------------------------------
      1          7           0       -2.160873    1.595043   -0.095053
      2          6           0       -2.911070    0.333707   -0.190639
      3          6           0       -2.154922   -0.854467    0.415071
      4          6           0       -0.810347   -1.207753   -0.250841
      5          6           0        0.401578   -0.436235    0.289936
      6          6           0        1.714487   -0.837016   -0.393922
      7          6           0        2.963449   -0.160584    0.179619
      8          7           0        2.893982    1.303949    0.053889
      9          1           0       -2.749281    2.357540   -0.426372
     10          1           0       -1.986030    1.796854    0.888393
     11          1           0       -3.901086    0.392203    0.293436
     12          1           0       -3.096522    0.133406   -1.254093
     13          1           0       -2.824511   -1.721340    0.348419
     14          1           0       -2.001059   -0.677158    1.489508
     15          1           0       -0.892068   -1.048625   -1.335433
     16          1           0       -0.624657   -2.282369   -0.116186
     17          1           0        0.490448   -0.620487    1.370828
     18          1           0        0.232457    0.636404    0.167612
     19          1           0        1.651808   -0.614212   -1.469628
     20          1           0        1.850961   -1.924543   -0.317405
     21          1           0        3.852334   -0.588638   -0.314063
     22          1           0        3.050752   -0.403919    1.246713
     23          1           0        2.816371    1.539642   -0.934938
     24          1           0        3.779278    1.706386    0.356014
 ---------------------------------------------------------------------
 Rotational constants (GHZ):           3.4152680           0.8230649           0.7006994
 Standard basis: 6-31G(d,p) (6D, 7F)
 There are   200 symmetry adapted cartesian basis functions of A   symmetry.
 There are   200 symmetry adapted basis functions of A   symmetry.
   200 basis functions,   336 primitive gaussians,   200 cartesian basis functions
    33 alpha electrons       33 beta electrons
       nuclear repulsion energy       393.3069029680 Hartrees.
 NAtoms=   24 NActive=   24 NUniq=   24 SFac= 1.00D+00 NAtFMM=   60 NAOKFM=F Big=F
 Integral buffers will be    131072 words long.
 Raffenetti 2 integral format.
 Two-electron integral symmetry is turned on.
 ------------------------------------------------------------------------------
 Polarizable Continuum Model (PCM)
 =================================
 Model                : PCM.
 Atomic radii         : UFF (Universal Force Field).
 Polarization charges : Total charges.
 Charge compensation  : None.
 Solution method      : Matrix inversion.
 Cavity type          : Scaled VdW (van der Waals Surface) (Alpha=1.100).
 Cavity algorithm     : GePol (No added spheres)
                        Default sphere list used, NSphG=   24.
                        Lebedev-Laikov grids with approx.  5.0 points / Ang**2.
                        Smoothing algorithm: York/Karplus (Gamma=1.0000).
                        Polarization charges: spherical gaussians, with
                                              point-specific exponents (IZeta= 3).
                        Self-potential: point-specific (ISelfS= 7).
                        Self-field    : sphere-specific E.n sum rule (ISelfD= 2).
 1st derivatives      : Analytical E(r).r(x)/FMM algorithm (CHGder, D1EAlg=3).
                        Cavity 1st derivative terms included.
 Solvent              : Water, Eps=  78.355300 Eps(inf)=   1.777849
 ------------------------------------------------------------------------------
 One-electron integrals computed using PRISM.
 NBasis=   200 RedAO= T EigKep=  3.33D-03  NBF=   200
 NBsUse=   200 1.00D-06 EigRej= -1.00D+00 NBFU=   200
 Initial guess from the checkpoint file:  "NAQMVNRVTILPCV-UHFFFAOYSA-N_conf_0_0.chk"
 B after Tr=    -0.000000   -0.000000    0.000000
         Rot=    0.999997    0.000808    0.001375    0.002042 Ang=   0.30 deg.
 ExpMin= 1.61D-01 ExpMax= 4.17D+03 ExpMxC= 6.27D+02 IAcc=2 IRadAn=         4 AccDes= 0.00D+00
 Harris functional with IExCor=  402 and IRadAn=       4 diagonalized for initial guess.
 HarFok:  IExCor=  402 AccDes= 0.00D+00 IRadAn=         4 IDoV= 1 UseB2=F ITyADJ=14
 ICtDFT=  3500011 ScaDFX=  1.000000  1.000000  1.000000  1.000000
 FoFCou: FMM=F IPFlag=           0 FMFlag=      100000 FMFlg1=           0
         NFxFlg=           0 DoJE=T BraDBF=F KetDBF=T FulRan=T
         wScrn=  0.000000 ICntrl=       500 IOpCl=  0 I1Cent=   200000004 NGrid=           0
         NMat0=    1 NMatS0=      1 NMatT0=    0 NMatD0=    1 NMtDS0=    0 NMtDT0=    0
 Petite list used in FoFCou.
 Keep R1 ints in memory in canonical form, NReq=206134434.
 Requested convergence on RMS density matrix=1.00D-08 within  32 cycles.
 Requested convergence on MAX density matrix=1.00D-06.
 Requested convergence on             energy=1.00D-06.
 No special actions if energy rises.
 Inv3:  Mode=1 IEnd=     8598747.
 Iteration    1 A*A^-1 deviation from unit magnitude is 6.33D-15 for   1222.
 Iteration    1 A*A^-1 deviation from orthogonality  is 4.43D-15 for   1243    474.
 Iteration    1 A^-1*A deviation from unit magnitude is 6.11D-15 for    606.
 Iteration    1 A^-1*A deviation from orthogonality  is 2.76D-15 for   1620   1066.
 Error on total polarization charges =  0.00912
 SCF Done:  E(RB3LYP) =  -347.797804423     A.U. after    9 cycles
            NFock=  9  Conv=0.57D-08     -V/T= 2.0100
 QCSCF skips out because SCF is already converged.
 D1PCM: PCM CHGder 1st derivatives, ID1Alg=3 FixD1E=F DoIter=F DoCFld=F I1PDM=0.
 Calling FoFJK, ICntrl=      2127 FMM=F ISym2X=0 I1Cent= 0 IOpClX= 0 NMat=1 NMatS=1 NMatT=0.
 ***** Axes restored to original set *****
 -------------------------------------------------------------------
 Center     Atomic                   Forces (Hartrees/Bohr)
 Number     Number              X              Y              Z
 -------------------------------------------------------------------
      1        7           0.001220975    0.000554361    0.000100524
      2        6          -0.000962135    0.000243708    0.001150879
      3        6          -0.000096185   -0.000397294   -0.001454915
      4        6          -0.000024088   -0.000056765    0.001184099
      5        6           0.000320543   -0.000025277   -0.000973906
      6        6          -0.000250885    0.000090620    0.000957627
      7        6           0.000903267   -0.000064780   -0.000961615
      8        7          -0.001002839    0.000745650   -0.000165969
      9        1           0.000092129    0.000034763   -0.000100422
     10        1          -0.000389684    0.000277510   -0.000065324
     11        1          -0.000280571   -0.000752617   -0.000289044
     12        1           0.000019609    0.000097567   -0.000096834
     13        1          -0.000262717    0.000123031    0.000178430
     14        1           0.000077869   -0.000090328    0.000068744
     15        1          -0.000055320   -0.000183616   -0.000079699
     16        1           0.000153177   -0.000001760   -0.000204537
     17        1          -0.000068434   -0.000041816    0.000040746
     18        1          -0.000007166    0.000076744    0.000369547
     19        1          -0.000072441   -0.000133160   -0.000095558
     20        1           0.000201686    0.000007509   -0.000170164
     21        1           0.000013019   -0.000815879    0.000267951
     22        1           0.000049101    0.000097074    0.000113841
     23        1           0.000534981    0.000164595    0.000079671
     24        1          -0.000113889    0.000050158    0.000145929
 -------------------------------------------------------------------
 Cartesian Forces:  Max     0.001454915 RMS     0.000468407

 GradGradGradGradGradGradGradGradGradGradGradGradGradGradGradGradGradGrad
 Berny optimization.
 Using GEDIIS/GDIIS optimizer.
 FormGI is forming the generalized inverse of G from B-inverse, IUseBI=4.
 Internal  Forces:  Max     0.001140113 RMS     0.000241071
 Search for a local minimum.
 Step number   2 out of a maximum of  132
 All quantities printed in internal units (Hartrees-Bohrs-Radians)
 Mixed Optimization -- En-DIIS/RFO-DIIS
 Update second derivatives using D2CorX and points    1    2
 DE= -3.11D-03 DEPred=-3.06D-03 R= 1.01D+00
 TightC=F SS=  1.41D+00  RLast= 3.02D-01 DXNew= 5.0454D-01 9.0689D-01
 Trust test= 1.01D+00 RLast= 3.02D-01 DXMaxT set to 5.05D-01
 ITU=  1  0
 Use linear search instead of GDIIS.
     Eigenvalues ---    0.00129   0.00174   0.00217   0.00283   0.00319
     Eigenvalues ---    0.00356   0.00425   0.03090   0.03120   0.03315
     Eigenvalues ---    0.03504   0.03908   0.03918   0.03972   0.04029
     Eigenvalues ---    0.04157   0.04206   0.04630   0.04758   0.05158
     Eigenvalues ---    0.05182   0.06652   0.07172   0.07269   0.07423
     Eigenvalues ---    0.08430   0.08613   0.09672   0.11077   0.11602
     Eigenvalues ---    0.12312   0.12598   0.13325   0.14889   0.14914
     Eigenvalues ---    0.16795   0.16954   0.17854   0.20278   0.22238
     Eigenvalues ---    0.22545   0.23968   0.24390   0.27715   0.28429
     Eigenvalues ---    0.29203   0.31224   0.31872   0.32028   0.32419
     Eigenvalues ---    0.32565   0.32772   0.32998   0.33027   0.33090
     Eigenvalues ---    0.33260   0.33412   0.33610   0.34198   0.35405
     Eigenvalues ---    0.37331   0.38093   0.44021   0.44032   0.44377
     Eigenvalues ---    0.44400
 RFO step:  Lambda=-3.89649673D-04 EMin= 1.29426655D-03
 Quartic linear search produced a step of  0.13388.
 Iteration  1 RMS(Cart)=  0.08599953 RMS(Int)=  0.00370895
 Iteration  2 RMS(Cart)=  0.00446916 RMS(Int)=  0.00003309
 Iteration  3 RMS(Cart)=  0.00001810 RMS(Int)=  0.00003020
 Iteration  4 RMS(Cart)=  0.00000000 RMS(Int)=  0.00003020
 Variable       Old X    -DE/DX   Delta X   Delta X   Delta X     New X
                                 (Linear)    (Quad)   (Total)
    R1        2.77918   0.00114   0.00419  -0.00157   0.00262   2.78180
    R2        1.92474   0.00002   0.00001   0.00044   0.00045   1.92519
    R3        1.92573   0.00001  -0.00003   0.00042   0.00039   1.92612
    R4        2.89714   0.00012   0.00039   0.00097   0.00137   2.89851
    R5        2.08546   0.00022   0.00194  -0.00126   0.00068   2.08614
    R6        2.07478   0.00008   0.00063  -0.00036   0.00027   2.07505
    R7        2.91296   0.00043   0.00192  -0.00395  -0.00203   2.91093
    R8        2.07376   0.00000  -0.00012   0.00062   0.00050   2.07427
    R9        2.07829   0.00005   0.00073  -0.00006   0.00067   2.07896
   R10        2.90086   0.00025   0.00070  -0.00053   0.00017   2.90103
   R11        2.07727   0.00005   0.00070   0.00027   0.00098   2.07825
   R12        2.07648   0.00000   0.00027   0.00030   0.00057   2.07705
   R13        2.89814   0.00016   0.00022  -0.00136  -0.00114   2.89700
   R14        2.07885   0.00005   0.00084   0.00005   0.00089   2.07974
   R15        2.06501   0.00001  -0.00023  -0.00083  -0.00107   2.06394
   R16        2.89469   0.00010   0.00039   0.00052   0.00091   2.89559
   R17        2.07931   0.00006   0.00074  -0.00000   0.00074   2.08005
   R18        2.07629   0.00001   0.00040  -0.00009   0.00031   2.07660
   R19        2.78085   0.00102   0.00366  -0.00207   0.00159   2.78244
   R20        2.08476   0.00019   0.00191  -0.00114   0.00077   2.08553
   R21        2.07485   0.00009   0.00068  -0.00091  -0.00024   2.07461
   R22        1.92655   0.00001   0.00009   0.00002   0.00011   1.92666
   R23        1.92435   0.00000  -0.00004   0.00048   0.00045   1.92480
    A1        1.90311   0.00002  -0.00168  -0.00134  -0.00306   1.90005
    A2        1.89662   0.00009  -0.00312   0.00396   0.00080   1.89743
    A3        1.83878  -0.00015  -0.00288   0.00046  -0.00251   1.83627
    A4        1.96863  -0.00008  -0.00096   0.00682   0.00580   1.97443
    A5        1.96453   0.00059   0.00884  -0.00277   0.00608   1.97061
    A6        1.88135  -0.00013  -0.00297  -0.00140  -0.00439   1.87695
[...]
    10  H    0.000013   0.000002  -0.000000   0.000002   0.000005   0.000002
    11  H    0.000001   0.000000  -0.000000   0.000000   0.000000   0.000000
    12  H    0.000015   0.000001   0.000000   0.000000   0.000000   0.000000
    13  H    0.000013   0.000007  -0.000000   0.000000   0.000000   0.000000
    14  H    0.000026   0.000015   0.000000   0.000001   0.000000   0.000000
    15  H    0.005634  -0.000360   0.000003   0.000011   0.000009   0.000000
    16  H    0.000027   0.005719  -0.000008   0.000022   0.000004   0.000000
    17  H    0.006357  -0.005235  -0.000016   0.005796   0.000106   0.000018
    18  H   -0.004535   0.006151   0.000317  -0.000411   0.000144  -0.000103
    19  H    0.643977  -0.036711  -0.004648   0.006152   0.005869   0.000057
    20  H   -0.036711   0.636708  -0.000510  -0.002647  -0.000110  -0.000231
    21  H   -0.004648  -0.000510   0.685688  -0.047285  -0.005184  -0.003043
    22  H    0.006152  -0.002647  -0.047285   0.638567   0.006958  -0.003631
    23  H    0.005869  -0.000110  -0.005184   0.006958   0.487132  -0.030019
    24  H    0.000057  -0.000231  -0.003043  -0.003631  -0.030019   0.483266
 Mulliken charges:
               1
     1  N   -0.068752
     2  C   -0.066348
     3  C   -0.153099
     4  C   -0.161853
     5  C   -0.153338
     6  C   -0.182490
     7  C   -0.056857
     8  N   -0.628479
     9  H   -0.015787
    10  H    0.009755
    11  H    0.087046
    12  H    0.092962
    13  H    0.047112
    14  H    0.061396
    15  H    0.084126
    16  H    0.074370
    17  H    0.079310
    18  H    0.085735
    19  H    0.091425
    20  H    0.094260
    21  H    0.081999
    22  H    0.099778
    23  H    0.247483
    24  H    0.250249
 Sum of Mulliken charges =  -0.00000
 Mulliken charges with hydrogens summed into heavy atoms:
               1
     1  N   -0.074785
     2  C    0.113659
     3  C   -0.044591
     4  C   -0.003357
     5  C    0.011706
     6  C    0.003195
     7  C    0.124919
     8  N   -0.130747
 Electronic spatial extent (au):  <R**2>=           1695.3352
 Charge=             -0.0000 electrons
 Dipole moment (field-independent basis, Debye):
    X=              1.5543    Y=             -0.7315    Z=             -1.1937  Tot=              2.0918
 Quadrupole moment (field-independent basis, Debye-Ang):
   XX=            -45.8055   YY=            -58.0688   ZZ=            -54.3121
   XY=              2.7604   XZ=             -0.2832   YZ=             -1.3330
 Traceless Quadrupole moment (field-independent basis, Debye-Ang):
   XX=              6.9233   YY=             -5.3400   ZZ=             -1.5833
   XY=              2.7604   XZ=             -0.2832   YZ=             -1.3330
 Octapole moment (field-independent basis, Debye-Ang**2):
  XXX=             50.4532  YYY=             -4.7506  ZZZ=             -4.8974  XYY=             17.4028
  XXY=              7.7257  XXZ=             -6.3202  XZZ=             11.6855  YZZ=              0.5172
  YYZ=             -1.2367  XYZ=             -3.1169
 Hexadecapole moment (field-independent basis, Debye-Ang**3):
 XXXX=          -1598.3840 YYYY=           -486.9304 ZZZZ=           -139.9920 XXXY=            101.8363
 XXXZ=              5.4346 YYYX=             41.1924 YYYZ=             -3.0572 ZZZX=              1.3346
 ZZZY=             -5.8849 XXYY=           -373.5729 XXZZ=           -309.5625 YYZZ=           -103.7041
 XXYZ=             -2.7815 YYXZ=             -5.1310 ZZXY=             15.7565
 N-N= 3.930901314087D+02 E-N=-1.591063670606D+03  KE= 3.445505534694D+02
 Evaluate density.
 Using the total density.
 Monte-Carlo method of calculating molar volume:
 based on  0.001 e/bohr**3 density envelope.
 Number of points per bohr**3 =   20 CutOff= 1.00D-04
 Using the CI density.
 There are       362 points.  Will hold       362 in memory.
 LenV=  1073627776 MDV=  1073741824.
 Box volume = 5947.186 fraction occupied=0.235
 Integrated density= 6.0252501278015608D+01 error=-5.7474987219843925D+00
 Molar volume = 1396.439 bohr**3/mol (124.617 cm**3/mol)
 Recommended a0 for SCRF calculation =  4.54 angstrom (  8.58 bohr)
 ******************************Gaussian NBO Version 3.1******************************
             N A T U R A L   A T O M I C   O R B I T A L   A N D
          N A T U R A L   B O N D   O R B I T A L   A N A L Y S I S
 ******************************Gaussian NBO Version 3.1******************************
       /RESON  / : Allow strongly delocalized NBO set

 Analyzing the CI density

 Job title: NAQMVNRVTILPCV-UHFFFAOYSA-N_conf_0                              

 Storage needed:    121952 in NPA (1073738704 available)
 GSVD:  LWork=       21190 too small for GESVD, short by       15575 words or       15575 for optimal perf.


 NATURAL POPULATIONS:  Natural atomic orbital occupancies 
                                                          
   NAO  Atom  No  lang   Type(AO)    Occupancy
 --------------------------------------------
     1    N    1  S      Cor( 1S)     1.99934
     2    N    1  S      Val( 2S)     1.51715
     3    N    1  S      Ryd( 3S)     0.01654
     4    N    1  S      Ryd( 4S)     0.00003
     5    N    1  px     Val( 2p)     1.14587
     6    N    1  px     Ryd( 3p)     0.00000
     7    N    1  py     Val( 2p)     1.34205
     8    N    1  py     Ryd( 3p)     0.00325
     9    N    1  pz     Val( 2p)     1.37482
    10    N    1  pz     Ryd( 3p)     0.00144
    11    N    1  dxy    Ryd( 3d)     0.00095
    12    N    1  dxz    Ryd( 3d)     0.00000
    13    N    1  dyz    Ryd( 3d)     0.00025
    14    N    1  dx2y2  Ryd( 3d)     0.00009
    15    N    1  dz2    Ryd( 3d)     0.00087

    16    C    2  S      Cor( 1S)     1.99930
    17    C    2  S      Val( 2S)     1.06165
    18    C    2  S      Ryd( 3S)     0.00217
    19    C    2  S      Ryd( 4S)     0.00004
    20    C    2  px     Val( 2p)     1.12588
    21    C    2  px     Ryd( 3p)     0.00277
    22    C    2  py     Val( 2p)     0.91957
    23    C    2  py     Ryd( 3p)     0.00644
    24    C    2  pz     Val( 2p)     1.22767
    25    C    2  pz     Ryd( 3p)     0.00233
    26    C    2  dxy    Ryd( 3d)     0.00118
    27    C    2  dxz    Ryd( 3d)     0.00048
    28    C    2  dyz    Ryd( 3d)     0.00058
    29    C    2  dx2y2  Ryd( 3d)     0.00095
    30    C    2  dz2    Ryd( 3d)     0.00124

    31    C    3  S      Cor( 1S)     1.99932
    32    C    3  S      Val( 2S)     1.04288
    33    C    3  S      Ryd( 3S)     0.00101
    34    C    3  S      Ryd( 4S)     0.00002
    35    C    3  px     Val( 2p)     1.09526
    36    C    3  px     Ryd( 3p)     0.00261
    37    C    3  py     Val( 2p)     1.12295
    38    C    3  py     Ryd( 3p)     0.00395
    39    C    3  pz     Val( 2p)     1.20329
    40    C    3  pz     Ryd( 3p)     0.00217
    41    C    3  dxy    Ryd( 3d)     0.00098
    42    C    3  dxz    Ryd( 3d)     0.00037
    43    C    3  dyz    Ryd( 3d)     0.00026
    44    C    3  dx2y2  Ryd( 3d)     0.00046
    45    C    3  dz2    Ryd( 3d)     0.00105

    46    C    4  S      Cor( 1S)     1.99933
    47    C    4  S      Val( 2S)     1.03846
    48    C    4  S      Ryd( 3S)     0.00081
    49    C    4  S      Ryd( 4S)     0.00002
    50    C    4  px     Val( 2p)     1.02549
    51    C    4  px     Ryd( 3p)     0.00268
    52    C    4  py     Val( 2p)     1.19297
    53    C    4  py     Ryd( 3p)     0.00294
    54    C    4  pz     Val( 2p)     1.19337
    55    C    4  pz     Ryd( 3p)     0.00229
    56    C    4  dxy    Ryd( 3d)     0.00053
    57    C    4  dxz    Ryd( 3d)     0.00044
    58    C    4  dyz    Ryd( 3d)     0.00017
    59    C    4  dx2y2  Ryd( 3d)     0.00091
    60    C    4  dz2    Ryd( 3d)     0.00112

    61    C    5  S      Cor( 1S)     1.99932
    62    C    5  S      Val( 2S)     1.03453
    63    C    5  S      Ryd( 3S)     0.00100
    64    C    5  S      Ryd( 4S)     0.00002
    65    C    5  px     Val( 2p)     1.03479
    66    C    5  px     Ryd( 3p)     0.00476
    67    C    5  py     Val( 2p)     1.19140
    68    C    5  py     Ryd( 3p)     0.00230
    69    C    5  pz     Val( 2p)     1.19063
    70    C    5  pz     Ryd( 3p)     0.00237
    71    C    5  dxy    Ryd( 3d)     0.00052
    72    C    5  dxz    Ryd( 3d)     0.00046
    73    C    5  dyz    Ryd( 3d)     0.00018
    74    C    5  dx2y2  Ryd( 3d)     0.00087
    75    C    5  dz2    Ryd( 3d)     0.00110

    76    C    6  S      Cor( 1S)     1.99932
    77    C    6  S      Val( 2S)     1.03786
    78    C    6  S      Ryd( 3S)     0.00100
    79    C    6  S      Ryd( 4S)     0.00002
    80    C    6  px     Val( 2p)     1.03699
    81    C    6  px     Ryd( 3p)     0.00218
    82    C    6  py     Val( 2p)     1.19232
    83    C    6  py     Ryd( 3p)     0.00345
    84    C    6  pz     Val( 2p)     1.19570
    85    C    6  pz     Ryd( 3p)     0.00228
    86    C    6  dxy    Ryd( 3d)     0.00052
    87    C    6  dxz    Ryd( 3d)     0.00043
    88    C    6  dyz    Ryd( 3d)     0.00017
    89    C    6  dx2y2  Ryd( 3d)     0.00089
    90    C    6  dz2    Ryd( 3d)     0.00113

    91    C    7  S      Cor( 1S)     1.99936
    92    C    7  S      Val( 2S)     1.02233
    93    C    7  S      Ryd( 3S)     0.00185
    94    C    7  S      Ryd( 4S)     0.00004
    95    C    7  px     Val( 2p)     1.13541
    96    C    7  px     Ryd( 3p)     0.00200
    97    C    7  py     Val( 2p)     0.89102
    98    C    7  py     Ryd( 3p)     0.00292
    99    C    7  pz     Val( 2p)     1.19752
   100    C    7  pz     Ryd( 3p)     0.00195
   101    C    7  dxy    Ryd( 3d)     0.00134
   102    C    7  dxz    Ryd( 3d)     0.00040
   103    C    7  dyz    Ryd( 3d)     0.00067
   104    C    7  dx2y2  Ryd( 3d)     0.00118
   105    C    7  dz2    Ryd( 3d)     0.00129

   106    N    8  S      Cor( 1S)     1.99968
   107    N    8  S      Val( 2S)     1.44954
   108    N    8  S      Ryd( 3S)     0.00062
   109    N    8  S      Ryd( 4S)     0.00001
   110    N    8  px     Val( 2p)     1.69276
   111    N    8  px     Ryd( 3p)     0.00454
   112    N    8  py     Val( 2p)     1.34268
   113    N    8  py     Ryd( 3p)     0.00266
   114    N    8  pz     Val( 2p)     1.42653
   115    N    8  pz     Ryd( 3p)     0.00236
   116    N    8  dxy    Ryd( 3d)     0.00108
   117    N    8  dxz    Ryd( 3d)     0.00086
   118    N    8  dyz    Ryd( 3d)     0.00026
   119    N    8  dx2y2  Ryd( 3d)     0.00125
   120    N    8  dz2    Ryd( 3d)     0.00114

   121    H    9  S      Val( 1S)     0.73964
   122    H    9  S      Ryd( 2S)     0.08428
   123    H    9  px     Ryd( 2p)     0.00041
   124    H    9  py     Ryd( 2p)     0.00053
   125    H    9  pz     Ryd( 2p)     0.00024

   126    H   10  S      Val( 1S)     0.71499
   127    H   10  S      Ryd( 2S)     0.08205
   128    H   10  px     Ryd( 2p)     0.00017
   129    H   10  py     Ryd( 2p)     0.00025
   130    H   10  pz     Ryd( 2p)     0.00079

   131    H   11  S      Val( 1S)     0.72663
   132    H   11  S      Ryd( 2S)     0.03787
   133    H   11  px     Ryd( 2p)     0.00036
   134    H   11  py     Ryd( 2p)     0.00008
   135    H   11  pz     Ryd( 2p)     0.00013

   136    H   12  S      Val( 1S)     0.75370
   137    H   12  S      Ryd( 2S)     0.02188
   138    H   12  px     Ryd( 2p)     0.00008
   139    H   12  py     Ryd( 2p)     0.00007
   140    H   12  pz     Ryd( 2p)     0.00036

   141    H   13  S      Val( 1S)     0.78488
   142    H   13  S      Ryd( 2S)     0.01552
   143    H   13  px     Ryd( 2p)     0.00018
   144    H   13  py     Ryd( 2p)     0.00026
   145    H   13  pz     Ryd( 2p)     0.00009

   146    H   14  S      Val( 1S)     0.76753
   147    H   14  S      Ryd( 2S)     0.01887
   148    H   14  px     Ryd( 2p)     0.00009
   149    H   14  py     Ryd( 2p)     0.00013
   150    H   14  pz     Ryd( 2p)     0.00035

   151    H   15  S      Val( 1S)     0.76756
   152    H   15  S      Ryd( 2S)     0.00476
   153    H   15  px     Ryd( 2p)     0.00010
   154    H   15  py     Ryd( 2p)     0.00010
   155    H   15  pz     Ryd( 2p)     0.00036

   156    H   16  S      Val( 1S)     0.76941
   157    H   16  S      Ryd( 2S)     0.00782
   158    H   16  px     Ryd( 2p)     0.00011
   159    H   16  py     Ryd( 2p)     0.00035
   160    H   16  pz     Ryd( 2p)     0.00010

   161    H   17  S      Val( 1S)     0.77141
   162    H   17  S      Ryd( 2S)     0.00532
   163    H   17  px     Ryd( 2p)     0.00010
   164    H   17  py     Ryd( 2p)     0.00010
   165    H   17  pz     Ryd( 2p)     0.00035

   166    H   18  S      Val( 1S)     0.76730
   167    H   18  S      Ryd( 2S)     0.00642
   168    H   18  px     Ryd( 2p)     0.00013
   169    H   18  py     Ryd( 2p)     0.00035
   170    H   18  pz     Ryd( 2p)     0.00009

   171    H   19  S      Val( 1S)     0.76938
   172    H   19  S      Ryd( 2S)     0.00197
   173    H   19  px     Ryd( 2p)     0.00010
   174    H   19  py     Ryd( 2p)     0.00010
   175    H   19  pz     Ryd( 2p)     0.00036

   176    H   20  S      Val( 1S)     0.75915
   177    H   20  S      Ryd( 2S)     0.00160
   178    H   20  px     Ryd( 2p)     0.00010
   179    H   20  py     Ryd( 2p)     0.00036
   180    H   20  pz     Ryd( 2p)     0.00010

   181    H   21  S      Val( 1S)     0.78760
   182    H   21  S      Ryd( 2S)     0.00208
   183    H   21  px     Ryd( 2p)     0.00032
   184    H   21  py     Ryd( 2p)     0.00012
   185    H   21  pz     Ryd( 2p)     0.00012

   186    H   22  S      Val( 1S)     0.77454
   187    H   22  S      Ryd( 2S)     0.00176
   188    H   22  px     Ryd( 2p)     0.00010
   189    H   22  py     Ryd( 2p)     0.00006
   190    H   22  pz     Ryd( 2p)     0.00039

   191    H   23  S      Val( 1S)     0.61466
   192    H   23  S      Ryd( 2S)     0.00226
   193    H   23  px     Ryd( 2p)     0.00051
   194    H   23  py     Ryd( 2p)     0.00031
   195    H   23  pz     Ryd( 2p)     0.00060

   196    H   24  S      Val( 1S)     0.60767
   197    H   24  S      Ryd( 2S)     0.00190
   198    H   24  px     Ryd( 2p)     0.00067
   199    H   24  py     Ryd( 2p)     0.00037
   200    H   24  pz     Ryd( 2p)     0.00037


 Summary of Natural Population Analysis:                  
                                                          
                                       Natural Population 
                Natural  -----------------------------------------------
    Atom  No    Charge         Core      Valence    Rydberg      Total
 -----------------------------------------------------------------------
      N    1   -0.40266      1.99934     5.37988    0.02344     7.40266
      C    2   -0.35225      1.99930     4.33477    0.01818     6.35225
      C    3   -0.47657      1.99932     4.46438    0.01287     6.47657
      C    4   -0.46153      1.99933     4.45029    0.01191     6.46153
      C    5   -0.46427      1.99932     4.45135    0.01360     6.46427
      C    6   -0.47428      1.99932     4.46288    0.01208     6.47428
      C    7   -0.25927      1.99936     4.24628    0.01364     6.25927
      N    8   -0.92597      1.99968     5.91151    0.01479     7.92597
      H    9    0.17490      0.00000     0.73964    0.08546     0.82510
      H   10    0.20175      0.00000     0.71499    0.08326     0.79825
      H   11    0.23494      0.00000     0.72663    0.03843     0.76506
      H   12    0.22390      0.00000     0.75370    0.02240     0.77610
      H   13    0.19906      0.00000     0.78488    0.01606     0.80094
      H   14    0.21305      0.00000     0.76753    0.01943     0.78695
      H   15    0.22712      0.00000     0.76756    0.00532     0.77288
      H   16    0.22222      0.00000     0.76941    0.00837     0.77778
      H   17    0.22272      0.00000     0.77141    0.00587     0.77728
      H   18    0.22570      0.00000     0.76730    0.00700     0.77430
      H   19    0.22809      0.00000     0.76938    0.00253     0.77191
      H   20    0.23869      0.00000     0.75915    0.00216     0.76131
      H   21    0.20976      0.00000     0.78760    0.00265     0.79024
      H   22    0.22314      0.00000     0.77454    0.00231     0.77686
      H   23    0.38166      0.00000     0.61466    0.00368     0.61834
      H   24    0.38903      0.00000     0.60767    0.00331     0.61097
 =======================================================================
   * Total *   -0.00108     15.99497    49.57739    0.42873    66.00108

                                 Natural Population      
 --------------------------------------------------------
   Core                      15.99497 ( 99.9685% of  16)
   Valence                   49.57739 ( 99.1548% of  50)
   Natural Minimal Basis     65.57235 ( 99.3520% of  66)
   Natural Rydberg Basis      0.42873 (  0.6496% of  66)
 --------------------------------------------------------

    Atom  No          Natural Electron Configuration
 ----------------------------------------------------------------------------
      N    1      [core]2S( 1.52)2p( 3.86)3S( 0.02)
      C    2      [core]2S( 1.06)2p( 3.27)3p( 0.01)
      C    3      [core]2S( 1.04)2p( 3.42)3p( 0.01)
      C    4      [core]2S( 1.04)2p( 3.41)3p( 0.01)
      C    5      [core]2S( 1.03)2p( 3.42)3p( 0.01)
      C    6      [core]2S( 1.04)2p( 3.43)3p( 0.01)
      C    7      [core]2S( 1.02)2p( 3.22)3p( 0.01)
      N    8      [core]2S( 1.45)2p( 4.46)3p( 0.01)
      H    9            1S( 0.74)2S( 0.08)
      H   10            1S( 0.71)2S( 0.08)
      H   11            1S( 0.73)2S( 0.04)
      H   12            1S( 0.75)2S( 0.02)
      H   13            1S( 0.78)2S( 0.02)
      H   14            1S( 0.77)2S( 0.02)
      H   15            1S( 0.77)
      H   16            1S( 0.77)2S( 0.01)
      H   17            1S( 0.77)2S( 0.01)
      H   18            1S( 0.77)2S( 0.01)
      H   19            1S( 0.77)
      H   20            1S( 0.76)
      H   21            1S( 0.79)
      H   22            1S( 0.77)
      H   23            1S( 0.61)
      H   24            1S( 0.61)


 NBO analysis skipped by request.
 1\1\GINC-CN33\SP\RB3LYP TD-FC\6-31G(d,p)\C6H16N2\QDUEZ\09-Jul-2024\0\\
 # TD(NStates=10, Root=1) B3LYP/6-31G** SCRF=(Solvent=water) volume pop
 =NPA density=current Geom=AllCheck Guess=Read\\NAQMVNRVTILPCV-UHFFFAOY
 SA-N_conf_0\\0,1\N,0,-2.2339355562,1.4715405137,-0.6779719889\C,0,-2.8
 003547944,0.1582743514,-1.0269626806\C,0,-2.1019943637,-1.0060648043,-
 0.3134947454\C,0,-0.6182283588,-1.2332487558,-0.6603105511\C,0,0.37831
 15782,-0.33972379,0.0914391899\C,0,1.8381505178,-0.6398475652,-0.26842
 34039\C,0,2.8649473764,0.2288842715,0.4657178003\N,0,2.7187920764,1.65
 2200644,0.1169217494\H,0,-2.7758935086,2.1982986567,-1.1425619913\H,0,
 -2.3704515935,1.6320644012,0.3191994949\H,0,-3.8814176365,0.0870269737
 ,-0.8151985522\H,0,-2.6903273173,0.0274071906,-2.1117141074\H,0,-2.667
 0382671,-1.9125770079,-0.5658910108\H,0,-2.2110130708,-0.8815127192,0.
 774174173\H,0,-0.4803760367,-1.104790184,-1.7438529144\H,0,-0.37001596
 52,-2.2832480635,-0.4505616473\H,0,0.2413802356,-0.4851931304,1.173710
 5185\H,0,0.1533344329,0.7098731057,-0.1111232292\H,0,1.9824397529,-0.5
 183138283,-1.3527595129\H,0,2.0634832438,-1.6933671956,-0.0521297909\H
 ,0,3.8742299131,-0.1659997846,0.2585445133\H,0,2.7113299278,0.13395340
 43,1.5487098597\H,0,2.9606623533,1.7721865814,-0.8661154211\H,0,3.4139
 850606,2.1921767348,0.6290719991\\Version=EM64L-G16RevA.03\State=1-A\H
 F=-347.7980402\RMSD=1.459e-09\Dipole=0.7090999,-0.2282208,-0.3498793\Q
 uadrupole=4.5270913,-3.4934047,-1.0336866,3.0231793,0.8990903,-0.47768
 24\PG=C01 [X(C6H16N2)]\\@


 MANHOOD BEGINS BY TRYING TO SHAVE FACE,
 AND ENDS BY TRYING TO SAVE FACE.
 Job cpu time:       0 days  0 hours 56 minutes 36.7 seconds.
 Elapsed time:       0 days  0 hours 25 minutes  6.8 seconds.
 File lengths (MBytes):  RWF=    378 Int=      0 D2E=      0 Chk=     24 Scr=      1
 Normal termination of Gaussian 16 at Tue Jul  9 19:05:12 2024.
