 Entering Gaussian System, Link 0=g16
 Initial command:
 /opt/sw/arch/manual/gaussian/G16_A03/g16/l1.exe "/scratch/1030812.jesse.materianova.be/Gau-27703.inp" -scrdir="/scratch/1030812.jesse.materianova.be/"
 Entering Link 1 = /opt/sw/arch/manual/gaussian/G16_A03/g16/l1.exe PID=     27708.
  
 Copyright (c) 1988,1990,1992,1993,1995,1998,2003,2009,2016,
            Gaussian, Inc.  All Rights Reserved.
  
 This is part of the Gaussian(R) 16 program.  It is based on
 the Gaussian(R) 09 system (copyright 2009, Gaussian, Inc.),
 the Gaussian(R) 03 system (copyright 2003, Gaussian, Inc.),
 the Gaussian(R) 98 system (copyright 1998, Gaussian, Inc.),
 the Gaussian(R) 94 system (copyright 1995, Gaussian, Inc.),
 the Gaussian 92(TM) system (copyright 1992, Gaussian, Inc.),
 the Gaussian 90(TM) system (copyright 1990, Gaussian, Inc.),
 the Gaussian 88(TM) system (copyright 1988, Gaussian, Inc.),
 the Gaussian 86(TM) system (copyright 1986, Carnegie Mellon
 University), and the Gaussian 82(TM) system (copyright 1983,
 Carnegie Mellon University). Gaussian is a federally registered
 trademark of Gaussian, Inc.
  
 This software contains proprietary and confidential information,
 including trade secrets, belonging to Gaussian, Inc.
  
 This software is provided under written license and may be
 used, copied, transmitted, or stored only in accord with that
 written license.
  
 The following legend is applicable only to US Government
 contracts under FAR:
  
                    RESTRICTED RIGHTS LEGEND
  
 Use, reproduction and disclosure by the US Government is
 subject to restrictions as set forth in subparagraphs (a)
 and (c) of the Commercial Computer Software - Restricted
 Rights clause in FAR 52.227-19.
  
 Gaussian, Inc.
 340 Quinnipiac St., Bldg. 40, Wallingford CT 06492
  
  
 ---------------------------------------------------------------
 Warning -- This program may not be used in any manner that
 competes with the business of Gaussian, Inc. or will provide
 assistance to any competitor of Gaussian, Inc.  The licensee
 of this program is prohibited from giving any competitor of
 Gaussian, Inc. access to this program.  By using this program,
 the user acknowledges that Gaussian, Inc. is engaged in the
 business of creating and licensing software in the field of
 computational chemistry and represents and warrants to the
 licensee that it is not a competitor of Gaussian, Inc. and that
 it will not use this program in any manner prohibited above.
 ---------------------------------------------------------------
  

 Cite this work as:
 Gaussian 16, Revision A.03,
 M. J. Frisch, G. W. Trucks, H. B. Schlegel, G. E. Scuseria, 
 M. A. Robb, J. R. Cheeseman, G. Scalmani, V. Barone, 
 G. A. Petersson, H. Nakatsuji, X. Li, M. Caricato, A. V. Marenich, 
 J. Bloino, B. G. Janesko, R. Gomperts, B. Mennucci, H. P. Hratchian, 
 J. V. Ortiz, A. F. Izmaylov, J. L. Sonnenberg, D. Williams-Young, 
 F. Ding, F. Lipparini, F. Egidi, J. Goings, B. Peng, A. Petrone, 
 T. Henderson, D. Ranasinghe, V. G. Zakrzewski, J. Gao, N. Rega, 
 G. Zheng, W. Liang, M. Hada, M. Ehara, K. Toyota, R. Fukuda, 
 J. Hasegawa, M. Ishida, T. Nakajima, Y. Honda, O. Kitao, H. Nakai, 
 T. Vreven, K. Throssell, J. A. Montgomery, Jr., J. E. Peralta, 
 F. Ogliaro, M. J. Bearpark, J. J. Heyd, E. N. Brothers, K. N. Kudin, 
 V. N. Staroverov, T. A. Keith, R. Kobayashi, J. Normand, 
 K. Raghavachari, A. P. Rendell, J. C. Burant, S. S. Iyengar, 
 J. Tomasi, M. Cossi, J. M. Millam, M. Klene, C. Adamo, R. Cammi, 
 J. W. Ochterski, R. L. Martin, K. Morokuma, O. Farkas, 
 J. B. Foresman, and D. J. Fox, Gaussian, Inc., Wallingford CT, 2016.
 
 ******************************************
 Gaussian 16:  EM64L-G16RevA.03 25-Dec-2016
                 9-Jul-2024 
 ******************************************
 %nprocshared=4
 Will use up to    4 processors via shared memory.
 %mem=8GB
 %Chk=NAQMVNRVTILPCV-UHFFFAOYSA-N_conf_2_0.chk
 -------------------------------------------------------
 # opt=CalcFc B3LYP/6-31G** SCRF=(Solvent=water) scf=xqc
 -------------------------------------------------------
 1/10=4,18=20,19=15,26=3,38=1/1,3;
 2/9=110,12=2,17=6,18=5,40=1/2;
 3/5=1,6=6,7=101,11=2,25=1,30=1,70=2201,71=2,72=1,74=-5,140=1/1,2,3;
 4//1;
 5/5=2,8=3,13=1,38=5,53=1/2,8;
 8/6=4,10=90,11=11/1;
 11/6=1,8=1,9=11,15=111,16=1/1,2,10;
 10/6=1,13=1/2;
 6/7=2,8=2,9=2,10=2,28=1/1;
 7/10=1,18=20,25=1/1,2,3,16;
 1/10=4,18=20,19=15,26=3/3(2);
 2/9=110/2;
 99//99;
 2/9=110/2;
 3/5=1,6=6,7=101,11=2,25=1,30=1,70=2205,71=1,72=1,74=-5/1,2,3;
 4/5=5,16=3,69=1/1;
 5/5=2,8=3,13=1,38=5,53=1/2,8;
 7//1,2,3,16;
 1/18=20,19=15,26=3/3(-5);
 2/9=110/2;
 6/7=2,8=2,9=2,10=2,19=2,28=1/1;
 99/9=1/99;
 ----------------------------------
 NAQMVNRVTILPCV-UHFFFAOYSA-N_conf_2
 ----------------------------------
 Symbolic Z-matrix:
 Charge =  0 Multiplicity = 1
 N                     3.83986   0.97836   0.97123 
 C                     2.7056    0.06512   0.88911 
 C                     1.59021   0.6509    0.02357 
 C                     0.39834  -0.30599  -0.0656 
 C                    -0.71964   0.2803   -0.93032 
 C                    -1.88827  -0.68637  -1.15424 
 C                    -2.61932  -1.15165   0.10787 
 N                    -3.21655  -0.05419   0.85861 
 H                     4.18716   1.17842   0.03391 
 H                     3.53283   1.87252   1.35256 
 H                     3.04736  -0.88875   0.47303 
 H                     2.33613  -0.13386   1.90089 
 H                     1.97154   0.85468  -0.98497 
 H                     1.25818   1.60896   0.4431 
 H                     0.02523  -0.50679   0.94491 
 H                     0.72703  -1.26291  -0.48858 
 H                    -0.30957   0.54689  -1.9127 
 H                    -1.08256   1.21421  -0.48558 
 H                    -2.60889  -0.2058   -1.82849 
 H                    -1.51758  -1.57232  -1.68502 
 H                    -1.94576  -1.71432   0.762 
 H                    -3.41792  -1.84338  -0.18273 
 H                    -2.48856   0.57213   1.19808 
 H                    -3.80486   0.50385   0.241 
 

 GradGradGradGradGradGradGradGradGradGradGradGradGradGradGradGradGradGrad
 Berny optimization.
 Initialization pass.
                           ----------------------------
                           !    Initial Parameters    !
                           ! (Angstroms and Degrees)  !
 --------------------------                            --------------------------
 ! Name  Definition              Value          Derivative Info.                !
 --------------------------------------------------------------------------------
 ! R1    R(1,2)                  1.4585         calculate D2E/DX2 analytically  !
 ! R2    R(1,9)                  1.0194         calculate D2E/DX2 analytically  !
 ! R3    R(1,10)                 1.0194         calculate D2E/DX2 analytically  !
 ! R4    R(2,3)                  1.5285         calculate D2E/DX2 analytically  !
 ! R5    R(2,11)                 1.0954         calculate D2E/DX2 analytically  !
 ! R6    R(2,12)                 1.0954         calculate D2E/DX2 analytically  !
 ! R7    R(3,4)                  1.5311         calculate D2E/DX2 analytically  !
 ! R8    R(3,13)                 1.0973         calculate D2E/DX2 analytically  !
 ! R9    R(3,14)                 1.0973         calculate D2E/DX2 analytically  !
 ! R10   R(4,5)                  1.5301         calculate D2E/DX2 analytically  !
 ! R11   R(4,15)                 1.0957         calculate D2E/DX2 analytically  !
 ! R12   R(4,16)                 1.0966         calculate D2E/DX2 analytically  !
 ! R13   R(5,6)                  1.5331         calculate D2E/DX2 analytically  !
 ! R14   R(5,17)                 1.0974         calculate D2E/DX2 analytically  !
 ! R15   R(5,18)                 1.0962         calculate D2E/DX2 analytically  !
 ! R16   R(6,7)                  1.531          calculate D2E/DX2 analytically  !
 ! R17   R(6,19)                 1.0977         calculate D2E/DX2 analytically  !
 ! R18   R(6,20)                 1.0973         calculate D2E/DX2 analytically  !
 ! R19   R(7,8)                  1.4576         calculate D2E/DX2 analytically  !
 ! R20   R(7,21)                 1.0946         calculate D2E/DX2 analytically  !
 ! R21   R(7,22)                 1.0958         calculate D2E/DX2 analytically  !
 ! R22   R(8,23)                 1.0186         calculate D2E/DX2 analytically  !
 ! R23   R(8,24)                 1.0193         calculate D2E/DX2 analytically  !
 ! A1    A(2,1,9)              109.6366         calculate D2E/DX2 analytically  !
 ! A2    A(2,1,10)             109.6361         calculate D2E/DX2 analytically  !
 ! A3    A(9,1,10)             105.9277         calculate D2E/DX2 analytically  !
 ! A4    A(1,2,3)              111.0639         calculate D2E/DX2 analytically  !
 ! A5    A(1,2,11)             108.9054         calculate D2E/DX2 analytically  !
 ! A6    A(1,2,12)             108.9082         calculate D2E/DX2 analytically  !
 ! A7    A(3,2,11)             110.2617         calculate D2E/DX2 analytically  !
 ! A8    A(3,2,12)             110.2757         calculate D2E/DX2 analytically  !
 ! A9    A(11,2,12)            107.3329         calculate D2E/DX2 analytically  !
 ! A10   A(2,3,4)              111.1938         calculate D2E/DX2 analytically  !
 ! A11   A(2,3,13)             109.7574         calculate D2E/DX2 analytically  !
 ! A12   A(2,3,14)             109.8098         calculate D2E/DX2 analytically  !
 ! A13   A(4,3,13)             109.4546         calculate D2E/DX2 analytically  !
 ! A14   A(4,3,14)             109.4132         calculate D2E/DX2 analytically  !
 ! A15   A(13,3,14)            107.1216         calculate D2E/DX2 analytically  !
 ! A16   A(3,4,5)              111.2365         calculate D2E/DX2 analytically  !
 ! A17   A(3,4,15)             109.0198         calculate D2E/DX2 analytically  !
 ! A18   A(3,4,16)             109.5415         calculate D2E/DX2 analytically  !
 ! A19   A(5,4,15)             110.0345         calculate D2E/DX2 analytically  !
 ! A20   A(5,4,16)             109.5946         calculate D2E/DX2 analytically  !
 ! A21   A(15,4,16)            107.3285         calculate D2E/DX2 analytically  !
 ! A22   A(4,5,6)              113.4469         calculate D2E/DX2 analytically  !
 ! A23   A(4,5,17)             109.0234         calculate D2E/DX2 analytically  !
 ! A24   A(4,5,18)             109.8188         calculate D2E/DX2 analytically  !
 ! A25   A(6,5,17)             107.8949         calculate D2E/DX2 analytically  !
 ! A26   A(6,5,18)             110.1251         calculate D2E/DX2 analytically  !
 ! A27   A(17,5,18)            106.2556         calculate D2E/DX2 analytically  !
 ! A28   A(5,6,7)              115.7995         calculate D2E/DX2 analytically  !
 ! A29   A(5,6,19)             108.3072         calculate D2E/DX2 analytically  !
 ! A30   A(5,6,20)             108.7979         calculate D2E/DX2 analytically  !
 ! A31   A(7,6,19)             109.0238         calculate D2E/DX2 analytically  !
 ! A32   A(7,6,20)             108.343          calculate D2E/DX2 analytically  !
 ! A33   A(19,6,20)            106.1492         calculate D2E/DX2 analytically  !
 ! A34   A(6,7,8)              113.0432         calculate D2E/DX2 analytically  !
 ! A35   A(6,7,21)             110.796          calculate D2E/DX2 analytically  !
 ! A36   A(6,7,22)             108.7379         calculate D2E/DX2 analytically  !
 ! A37   A(8,7,21)             109.3507         calculate D2E/DX2 analytically  !
 ! A38   A(8,7,22)             108.2566         calculate D2E/DX2 analytically  !
 ! A39   A(21,7,22)            106.4062         calculate D2E/DX2 analytically  !
 ! A40   A(7,8,23)             109.9856         calculate D2E/DX2 analytically  !
 ! A41   A(7,8,24)             109.6699         calculate D2E/DX2 analytically  !
 ! A42   A(23,8,24)            106.1291         calculate D2E/DX2 analytically  !
 ! D1    D(9,1,2,3)            -57.8237         calculate D2E/DX2 analytically  !
 ! D2    D(9,1,2,11)            63.7888         calculate D2E/DX2 analytically  !
 ! D3    D(9,1,2,12)          -179.4556         calculate D2E/DX2 analytically  !
 ! D4    D(10,1,2,3)            58.0676         calculate D2E/DX2 analytically  !
 ! D5    D(10,1,2,11)          179.6801         calculate D2E/DX2 analytically  !
 ! D6    D(10,1,2,12)          -63.5643         calculate D2E/DX2 analytically  !
 ! D7    D(1,2,3,4)            179.9536         calculate D2E/DX2 analytically  !
 ! D8    D(1,2,3,13)            58.6992         calculate D2E/DX2 analytically  !
 ! D9    D(1,2,3,14)           -58.8089         calculate D2E/DX2 analytically  !
 ! D10   D(11,2,3,4)            59.1373         calculate D2E/DX2 analytically  !
 ! D11   D(11,2,3,13)          -62.117          calculate D2E/DX2 analytically  !
 ! D12   D(11,2,3,14)         -179.6252         calculate D2E/DX2 analytically  !
 ! D13   D(12,2,3,4)           -59.2173         calculate D2E/DX2 analytically  !
 ! D14   D(12,2,3,13)          179.5283         calculate D2E/DX2 analytically  !
 ! D15   D(12,2,3,14)           62.0202         calculate D2E/DX2 analytically  !
 ! D16   D(2,3,4,5)            179.9223         calculate D2E/DX2 analytically  !
 ! D17   D(2,3,4,15)            58.4069         calculate D2E/DX2 analytically  !
 ! D18   D(2,3,4,16)           -58.7646         calculate D2E/DX2 analytically  !
 ! D19   D(13,3,4,5)           -58.6463         calculate D2E/DX2 analytically  !
 ! D20   D(13,3,4,15)          179.8384         calculate D2E/DX2 analytically  !
 ! D21   D(13,3,4,16)           62.6669         calculate D2E/DX2 analytically  !
 ! D22   D(14,3,4,5)            58.4528         calculate D2E/DX2 analytically  !
 ! D23   D(14,3,4,15)          -63.0625         calculate D2E/DX2 analytically  !
 ! D24   D(14,3,4,16)          179.7659         calculate D2E/DX2 analytically  !
 ! D25   D(3,4,5,6)            174.9967         calculate D2E/DX2 analytically  !
 ! D26   D(3,4,5,17)            54.7442         calculate D2E/DX2 analytically  !
 ! D27   D(3,4,5,18)           -61.2956         calculate D2E/DX2 analytically  !
 ! D28   D(15,4,5,6)           -64.0817         calculate D2E/DX2 analytically  !
 ! D29   D(15,4,5,17)          175.6657         calculate D2E/DX2 analytically  !
 ! D30   D(15,4,5,18)           59.626          calculate D2E/DX2 analytically  !
 ! D31   D(16,4,5,6)            53.7146         calculate D2E/DX2 analytically  !
 ! D32   D(16,4,5,17)          -66.5379         calculate D2E/DX2 analytically  !
 ! D33   D(16,4,5,18)          177.4223         calculate D2E/DX2 analytically  !
 ! D34   D(4,5,6,7)             60.5094         calculate D2E/DX2 analytically  !
 ! D35   D(4,5,6,19)          -176.7191         calculate D2E/DX2 analytically  !
 ! D36   D(4,5,6,20)           -61.7523         calculate D2E/DX2 analytically  !
 ! D37   D(17,5,6,7)          -178.6004         calculate D2E/DX2 analytically  !
 ! D38   D(17,5,6,19)          -55.8289         calculate D2E/DX2 analytically  !
 ! D39   D(17,5,6,20)           59.138          calculate D2E/DX2 analytically  !
 ! D40   D(18,5,6,7)           -63.031          calculate D2E/DX2 analytically  !
 ! D41   D(18,5,6,19)           59.7405         calculate D2E/DX2 analytically  !
 ! D42   D(18,5,6,20)          174.7073         calculate D2E/DX2 analytically  !
 ! D43   D(5,6,7,8)             60.4978         calculate D2E/DX2 analytically  !
 ! D44   D(5,6,7,21)           -62.6446         calculate D2E/DX2 analytically  !
 ! D45   D(5,6,7,22)          -179.2516         calculate D2E/DX2 analytically  !
 ! D46   D(19,6,7,8)           -61.8949         calculate D2E/DX2 analytically  !
 ! D47   D(19,6,7,21)          174.9627         calculate D2E/DX2 analytically  !
 ! D48   D(19,6,7,22)           58.3557         calculate D2E/DX2 analytically  !
 ! D49   D(20,6,7,8)          -176.9996         calculate D2E/DX2 analytically  !
 ! D50   D(20,6,7,21)           59.8581         calculate D2E/DX2 analytically  !
 ! D51   D(20,6,7,22)          -56.7489         calculate D2E/DX2 analytically  !
 ! D52   D(6,7,8,23)           -63.4017         calculate D2E/DX2 analytically  !
 ! D53   D(6,7,8,24)            52.9529         calculate D2E/DX2 analytically  !
 ! D54   D(21,7,8,23)           60.5374         calculate D2E/DX2 analytically  !
 ! D55   D(21,7,8,24)          176.892          calculate D2E/DX2 analytically  !
 ! D56   D(22,7,8,23)          176.0731         calculate D2E/DX2 analytically  !
 ! D57   D(22,7,8,24)          -67.5723         calculate D2E/DX2 analytically  !
 --------------------------------------------------------------------------------
 Trust Radius=3.00D-01 FncErr=1.00D-07 GrdErr=1.00D-06 EigMax=2.50D+02 EigMin=1.00D-04
 Number of steps in this run=    132 maximum allowed number of steps=    144.
 GradGradGradGradGradGradGradGradGradGradGradGradGradGradGradGradGradGrad

                          Input orientation:                          
 ---------------------------------------------------------------------
 Center     Atomic      Atomic             Coordinates (Angstroms)
 Number     Number       Type             X           Y           Z
 ---------------------------------------------------------------------
      1          7           0        3.839861    0.978361    0.971229
      2          6           0        2.705600    0.065121    0.889110
      3          6           0        1.590215    0.650895    0.023566
      4          6           0        0.398341   -0.305991   -0.065602
      5          6           0       -0.719635    0.280297   -0.930318
      6          6           0       -1.888274   -0.686365   -1.154236
      7          6           0       -2.619323   -1.151647    0.107867
      8          7           0       -3.216545   -0.054194    0.858615
      9          1           0        4.187163    1.178416    0.033913
     10          1           0        3.532833    1.872517    1.352564
     11          1           0        3.047364   -0.888755    0.473028
     12          1           0        2.336129   -0.133863    1.900892
     13          1           0        1.971540    0.854675   -0.984974
     14          1           0        1.258180    1.608957    0.443095
     15          1           0        0.025227   -0.506789    0.944909
     16          1           0        0.727032   -1.262909   -0.488576
     17          1           0       -0.309571    0.546893   -1.912697
     18          1           0       -1.082560    1.214214   -0.485577
     19          1           0       -2.608894   -0.205802   -1.828489
     20          1           0       -1.517581   -1.572324   -1.685019
     21          1           0       -1.945764   -1.714317    0.761999
     22          1           0       -3.417916   -1.843375   -0.182728
     23          1           0       -2.488563    0.572129    1.198079
     24          1           0       -3.804859    0.503855    0.240998
 ---------------------------------------------------------------------
                    Distance matrix (angstroms):
                    1          2          3          4          5
     1  N    0.000000
     2  C    1.458527   0.000000
     3  C    2.462967   1.528522   0.000000
     4  C    3.816889   2.524409   1.531060   0.000000
     5  C    4.989207   3.884437   2.526390   1.530142   0.000000
     6  C    6.332492   5.083667   3.908372   2.560941   1.533066
     7  C    6.855902   5.517759   4.580008   3.138713   2.595593
     8  N    7.132442   5.923425   4.929442   3.739650   3.089777
     9  H    1.019413   2.041033   2.650004   4.070447   5.080652
    10  H    1.019410   2.041025   2.651859   4.072116   5.082342
    11  H    2.088631   1.095357   2.166984   2.765332   4.186447
    12  H    2.088666   1.095357   2.167161   2.766180   4.186284
    13  H    2.707887   2.162042   1.097310   2.160404   2.752331
    14  H    2.709549   2.162726   1.097331   2.159890   2.750156
    15  H    4.093629   2.741276   2.153670   1.095750   2.165825
    16  H    4.104147   2.752528   2.161023   1.096648   2.160895
    17  H    5.071586   4.144089   2.714612   2.154137   1.097404
    18  H    5.138885   4.190504   2.778539   2.163439   1.096225
    19  H    7.129314   5.975164   4.668679   3.487302   2.147628
    20  H    6.501064   5.209858   4.185733   2.810136   2.153717
    21  H    6.384963   4.981740   4.317714   2.857120   2.888911
    22  H    7.872048   6.502971   5.598689   4.115955   3.514199
    23  H    6.345505   5.227986   4.245246   3.271422   2.782866
    24  H    7.694163   6.557332   5.401456   4.291473   3.307653
                    6          7          8          9         10
     6  C    0.000000
     7  C    1.530955   0.000000
     8  N    2.493093   1.457635   0.000000
     9  H    6.465295   7.194644   7.550785   0.000000
    10  H    6.497717   6.967342   7.036356   1.627502   0.000000
    11  H    5.200911   5.684522   6.331013   2.401074   2.938347
    12  H    5.242581   5.367246   5.650211   2.938369   2.399651
    13  H    4.159522   5.127929   5.580421   2.460065   2.989601
    14  H    4.209531   4.771619   4.791857   2.988601   2.463867
    15  H    2.846075   2.847828   3.274351   4.581653   4.258002
    16  H    2.759590   3.400914   4.339092   4.266798   4.592734
    17  H    2.142076   3.507516   4.061031   4.940519   5.213758
    18  H    2.169904   2.882900   2.823049   5.295387   5.011384
    19  H    1.097657   2.155042   2.759121   7.181295   7.222141
    20  H    1.097300   2.145984   3.414860   6.562423   6.826457
    21  H    2.175304   1.094608   2.092899   6.819883   6.574889
    22  H    2.149954   1.095758   2.079931   8.186292   8.029812
    23  H    2.734510   2.043787   1.018566   6.803542   6.162149
    24  H    2.652659   2.040565   1.019304   8.023112   7.546558
                   11         12         13         14         15
    11  H    0.000000
    12  H    1.764798   0.000000
    13  H    2.514500   3.072190   0.000000
    14  H    3.072562   2.514870   1.765561   0.000000
    15  H    3.082512   2.528487   3.060420   2.499675   0.000000
    16  H    2.539412   3.094106   2.505868   3.065574   1.766105
    17  H    4.361396   4.691121   2.481707   3.022512   3.064024
    18  H    4.732617   4.381778   3.115476   2.548984   2.497065
    19  H    6.144645   6.194087   4.776664   4.838152   3.836786
    20  H    5.095405   5.457014   4.307477   4.728030   3.229882
    21  H    5.069160   4.704202   4.999691   4.627214   2.318703
    22  H    6.568193   6.353970   6.080240   5.846036   3.861769
    23  H    5.771167   4.926461   4.973738   3.960189   2.747235
    24  H    6.996153   6.393252   5.915478   5.186180   4.023239
                   16         17         18         19         20
    16  H    0.000000
    17  H    2.525480   0.000000
    18  H    3.067697   1.754850   0.000000
    19  H    3.747166   2.420853   2.479830   0.000000
    20  H    2.562323   2.449940   3.064751   1.754689   0.000000
    21  H    2.985221   3.865772   3.298160   3.070177   2.488252
    22  H    4.196556   4.285788   3.859334   2.458596   2.437544
    23  H    4.068442   3.798101   2.285567   3.127263   3.722062
    24  H    4.918513   4.105764   2.905759   2.493336   3.640289
                   21         22         23         24
    21  H    0.000000
    22  H    1.753966   0.000000
    23  H    2.390111   2.933426   0.000000
    24  H    2.940742   2.416352   1.628896   0.000000
 Stoichiometry    C6H16N2
 Framework group  C1[X(C6H16N2)]
 Deg. of freedom    66
 Full point group                 C1      NOp   1
 Largest Abelian subgroup         C1      NOp   1
 Largest concise Abelian subgroup C1      NOp   1
                         Standard orientation:                         
 ---------------------------------------------------------------------
 Center     Atomic      Atomic             Coordinates (Angstroms)
 Number     Number       Type             X           Y           Z
 ---------------------------------------------------------------------
      1          7           0       -4.026871   -0.361229   -0.128440
      2          6           0       -2.729973   -0.368228    0.538874
      3          6           0       -1.650565    0.246652   -0.351733
      4          6           0       -0.287963    0.241849    0.346434
      5          6           0        0.793741    0.855454   -0.545048
      6          6           0        2.154041    0.987672    0.149499
      7          6           0        2.786830   -0.320959    0.630006
      8          7           0        3.040875   -1.263177   -0.452762
      9          1           0       -4.277512    0.594315   -0.380066
     10          1           0       -3.962826   -0.874240   -1.007027
     11          1           0       -2.810838    0.190411    1.477591
     12          1           0       -2.468132   -1.400534    0.794980
     13          1           0       -1.925318    1.277166   -0.609879
     14          1           0       -1.580454   -0.314255   -1.292266
     15          1           0       -0.022047   -0.789602    0.603463
     16          1           0       -0.354600    0.805496    1.284783
     17          1           0        0.474792    1.858505   -0.855621
     18          1           0        0.895309    0.267322   -1.464555
     19          1           0        2.846197    1.487677   -0.540259
     20          1           0        2.046819    1.656731    1.012593
     21          1           0        2.159748   -0.800393    1.388345
     22          1           0        3.741358   -0.092334    1.117132
     23          1           0        2.161518   -1.544402   -0.883016
     24          1           0        3.581298   -0.805661   -1.185976
 ---------------------------------------------------------------------
 Rotational constants (GHZ):           4.8981476           0.6507933           0.6253988
 Standard basis: 6-31G(d,p) (6D, 7F)
 There are   200 symmetry adapted cartesian basis functions of A   symmetry.
 There are   200 symmetry adapted basis functions of A   symmetry.
   200 basis functions,   336 primitive gaussians,   200 cartesian basis functions
    33 alpha electrons       33 beta electrons
       nuclear repulsion energy       390.4480171465 Hartrees.
 NAtoms=   24 NActive=   24 NUniq=   24 SFac= 1.00D+00 NAtFMM=   60 NAOKFM=F Big=F
 Integral buffers will be    131072 words long.
 Raffenetti 2 integral format.
 Two-electron integral symmetry is turned on.
 Force inversion solution in PCM.
 ------------------------------------------------------------------------------
 Polarizable Continuum Model (PCM)
 =================================
 Model                : PCM.
 Atomic radii         : UFF (Universal Force Field).
 Polarization charges : Total charges.
 Charge compensation  : None.
 Solution method      : Matrix inversion.
 Cavity type          : Scaled VdW (van der Waals Surface) (Alpha=1.100).
 Cavity algorithm     : GePol (No added spheres)
                        Default sphere list used, NSphG=   24.
                        Lebedev-Laikov grids with approx.  5.0 points / Ang**2.
                        Smoothing algorithm: York/Karplus (Gamma=1.0000).
                        Polarization charges: spherical gaussians, with
                                              point-specific exponents (IZeta= 3).
                        Self-potential: point-specific (ISelfS= 7).
                        Self-field    : sphere-specific E.n sum rule (ISelfD= 2).
 1st derivatives      : Analytical E(r).r(x)/FMM algorithm (CHGder, D1EAlg=3).
                        Cavity 1st derivative terms included.
 2nd derivatives      : Analytical E(r).r(xy)/FMM algorithm (CHGder, D2EAlg=3).
                        Cavity 2nd derivative terms included.
 Solvent              : Water, Eps=  78.355300 Eps(inf)=   1.777849
 ------------------------------------------------------------------------------
 One-electron integrals computed using PRISM.
 NBasis=   200 RedAO= T EigKep=  2.77D-03  NBF=   200
 NBsUse=   200 1.00D-06 EigRej= -1.00D+00 NBFU=   200
 ExpMin= 1.61D-01 ExpMax= 4.17D+03 ExpMxC= 6.27D+02 IAcc=3 IRadAn=         5 AccDes= 0.00D+00
 Harris functional with IExCor=  402 and IRadAn=       5 diagonalized for initial guess.
 HarFok:  IExCor=  402 AccDes= 0.00D+00 IRadAn=         5 IDoV= 1 UseB2=F ITyADJ=14
 ICtDFT=  3500011 ScaDFX=  1.000000  1.000000  1.000000  1.000000
 FoFCou: FMM=F IPFlag=           0 FMFlag=      100000 FMFlg1=           0
         NFxFlg=           0 DoJE=T BraDBF=F KetDBF=T FulRan=T
         wScrn=  0.000000 ICntrl=       500 IOpCl=  0 I1Cent=   200000004 NGrid=           0
         NMat0=    1 NMatS0=      1 NMatT0=    0 NMatD0=    1 NMtDS0=    0 NMtDT0=    0
 Petite list used in FoFCou.
 Keep R1 ints in memory in canonical form, NReq=206134434.
 Requested convergence on RMS density matrix=1.00D-08 within  32 cycles.
 Requested convergence on MAX density matrix=1.00D-06.
 Requested convergence on             energy=1.00D-06.
 No special actions if energy rises.
 Inv3:  Mode=1 IEnd=     8296707.
 Iteration    1 A*A^-1 deviation from unit magnitude is 8.66D-15 for    982.
 Iteration    1 A*A^-1 deviation from orthogonality  is 3.21D-15 for   1392    383.
 Iteration    1 A^-1*A deviation from unit magnitude is 8.44D-15 for    982.
 Iteration    1 A^-1*A deviation from orthogonality  is 2.75D-15 for   1476    806.
 Error on total polarization charges =  0.00919
 SCF Done:  E(RB3LYP) =  -347.798841908     A.U. after   11 cycles
            NFock= 11  Conv=0.19D-08     -V/T= 2.0096
 QCSCF skips out because SCF is already converged.
 DoSCS=F DFT=T ScalE2(SS,OS)=  1.000000  1.000000
 Range of M.O.s used for correlation:     1   200
 NBasis=   200 NAE=    33 NBE=    33 NFC=     0 NFV=     0
 NROrb=    200 NOA=    33 NOB=    33 NVA=   167 NVB=   167
 Symmetrizing basis deriv contribution to polar:
 IMax=3 JMax=2 DiffMx= 0.00D+00
 G2DrvN: will do    25 centers at a time, making    1 passes.
 Calling FoFCou, ICntrl=  3107 FMM=F I1Cent=   0 AccDes= 0.00D+00.
 NEqPCM:  Using equilibrium solvation (IEInf=0, Eps=  78.3553, EpsInf=   1.7778)
 G2PCM: DoFxE=T DoFxN=T DoGrad=T DoDP/DQ/DG/TGxP=FFFF NFrqRd=   0 IEInf=0 SqF1=F DoCFld=F IF1Alg=4.
 End of G2Drv F.D. properties file   721 does not exist.
 End of G2Drv F.D. properties file   722 does not exist.
 End of G2Drv F.D. properties file   788 does not exist.
          IDoAtm=111111111111111111111111
 NEqPCM:  Using equilibrium solvation (IEInf=0, Eps=  78.3553, EpsInf=   1.7778)
          Differentiating once with respect to nuclear coordinates.
 Keep R1 ints in memory in canonical form, NReq=209635308.
          There are    75 degrees of freedom in the 1st order CPHF.  IDoFFX=6 NUNeed=     0.
     69 vectors produced by pass  0 Test12= 7.35D-15 1.33D-09 XBig12= 7.23D-02 7.02D-02.
 AX will form    69 AO Fock derivatives at one time.
     69 vectors produced by pass  1 Test12= 7.35D-15 1.33D-09 XBig12= 4.32D-03 1.02D-02.
     69 vectors produced by pass  2 Test12= 7.35D-15 1.33D-09 XBig12= 3.61D-05 9.17D-04.
     69 vectors produced by pass  3 Test12= 7.35D-15 1.33D-09 XBig12= 8.32D-08 3.98D-05.
     69 vectors produced by pass  4 Test12= 7.35D-15 1.33D-09 XBig12= 8.80D-11 1.62D-06.
     24 vectors produced by pass  5 Test12= 7.35D-15 1.33D-09 XBig12= 5.57D-14 4.26D-08.
 InvSVY:  IOpt=1 It=  1 EMax= 4.16D-16
 Solved reduced A of dimension   369 with    75 vectors.
 End of Minotr F.D. properties file   721 does not exist.
 End of Minotr F.D. properties file   722 does not exist.
 End of Minotr F.D. properties file   788 does not exist.

 **********************************************************************

            Population analysis using the SCF density.

 **********************************************************************

 Orbital symmetries:
       Occupied  (A) (A) (A) (A) (A) (A) (A) (A) (A) (A) (A) (A)
                 (A) (A) (A) (A) (A) (A) (A) (A) (A) (A) (A) (A)
                 (A) (A) (A) (A) (A) (A) (A) (A) (A)
       Virtual   (A) (A) (A) (A) (A) (A) (A) (A) (A) (A) (A) (A)
                 (A) (A) (A) (A) (A) (A) (A) (A) (A) (A) (A) (A)
                 (A) (A) (A) (A) (A) (A) (A) (A) (A) (A) (A) (A)
                 (A) (A) (A) (A) (A) (A) (A) (A) (A) (A) (A) (A)
                 (A) (A) (A) (A) (A) (A) (A) (A) (A) (A) (A) (A)
                 (A) (A) (A) (A) (A) (A) (A) (A) (A) (A) (A) (A)
                 (A) (A) (A) (A) (A) (A) (A) (A) (A) (A) (A) (A)
                 (A) (A) (A) (A) (A) (A) (A) (A) (A) (A) (A) (A)
                 (A) (A) (A) (A) (A) (A) (A) (A) (A) (A) (A) (A)
                 (A) (A) (A) (A) (A) (A) (A) (A) (A) (A) (A) (A)
                 (A) (A) (A) (A) (A) (A) (A) (A) (A) (A) (A) (A)
                 (A) (A) (A) (A) (A) (A) (A) (A) (A) (A) (A) (A)
                 (A) (A) (A) (A) (A) (A) (A) (A) (A) (A) (A) (A)
                 (A) (A) (A) (A) (A) (A) (A) (A) (A) (A) (A)
 The electronic state is 1-A.
 Alpha  occ. eigenvalues --  -14.30664 -14.30443 -10.19848 -10.19815 -10.17272
 Alpha  occ. eigenvalues --  -10.17200 -10.17001 -10.16994  -0.87679  -0.87498
 Alpha  occ. eigenvalues --   -0.79066  -0.73664  -0.67508  -0.62545  -0.58582
 Alpha  occ. eigenvalues --   -0.55800  -0.49596  -0.48947  -0.46065  -0.43718
 Alpha  occ. eigenvalues --   -0.42316  -0.41561  -0.41246  -0.39155  -0.36779
 Alpha  occ. eigenvalues --   -0.35955  -0.34728  -0.33214  -0.32207  -0.32054
 Alpha  occ. eigenvalues --   -0.31265  -0.23018  -0.22559
 Alpha virt. eigenvalues --    0.07371   0.08969   0.11176   0.11657   0.12680
 Alpha virt. eigenvalues --    0.13992   0.14556   0.15969   0.16812   0.18025
 Alpha virt. eigenvalues --    0.19132   0.19424   0.20166   0.20744   0.21683
 Alpha virt. eigenvalues --    0.22546   0.23291   0.24681   0.25327   0.26367
 Alpha virt. eigenvalues --    0.27919   0.30756   0.31866   0.50090   0.52120
 Alpha virt. eigenvalues --    0.53532   0.55276   0.55932   0.56784   0.58963
 Alpha virt. eigenvalues --    0.60310   0.63001   0.63796   0.66431   0.67450
 Alpha virt. eigenvalues --    0.69304   0.71109   0.72242   0.73562   0.74273
 Alpha virt. eigenvalues --    0.76298   0.78198   0.79600   0.81324   0.82796
 Alpha virt. eigenvalues --    0.84970   0.86129   0.86966   0.88410   0.89104
 Alpha virt. eigenvalues --    0.90588   0.91410   0.91933   0.92423   0.93661
 Alpha virt. eigenvalues --    0.94327   0.95949   0.96494   0.96733   0.98821
 Alpha virt. eigenvalues --    0.99686   1.03907   1.06826   1.18034   1.20351
 Alpha virt. eigenvalues --    1.29075   1.30620   1.34226   1.37907   1.41480
 Alpha virt. eigenvalues --    1.42677   1.43172   1.49173   1.52462   1.56154
 Alpha virt. eigenvalues --    1.60032   1.61753   1.69360   1.69850   1.73425
 Alpha virt. eigenvalues --    1.74647   1.75409   1.78158   1.83840   1.85241
 Alpha virt. eigenvalues --    1.85543   1.89358   1.90419   1.94791   1.96743
 Alpha virt. eigenvalues --    1.97601   1.98810   2.01224   2.06556   2.07072
 Alpha virt. eigenvalues --    2.09232   2.10494   2.12548   2.16564   2.17186
 Alpha virt. eigenvalues --    2.19577   2.22925   2.24210   2.24335   2.26212
 Alpha virt. eigenvalues --    2.26548   2.27578   2.27750   2.30304   2.30841
 Alpha virt. eigenvalues --    2.32064   2.33366   2.36342   2.39012   2.39199
 Alpha virt. eigenvalues --    2.42539   2.45635   2.46769   2.48234   2.54651
 Alpha virt. eigenvalues --    2.57847   2.61399   2.63574   2.65496   2.68262
 Alpha virt. eigenvalues --    2.68433   2.70874   2.71375   2.73712   2.78460
 Alpha virt. eigenvalues --    2.80898   2.83690   2.84875   2.86689   2.90420
 Alpha virt. eigenvalues --    2.91691   2.91968   2.92875   2.93578   2.94498
 Alpha virt. eigenvalues --    2.95456   2.98864   2.99809   3.23546   3.26445
 Alpha virt. eigenvalues --    3.28591   3.29309   3.30986   3.32293   3.33194
 Alpha virt. eigenvalues --    3.34854   3.37990   3.42226   3.44214   3.50909
 Alpha virt. eigenvalues --    3.55765   3.58614   3.59547   3.60221   3.97570
 Alpha virt. eigenvalues --    4.01436   4.29598   4.41363   4.51371   4.58867
 Alpha virt. eigenvalues --    4.65468   4.76469
          Condensed to atoms (all electrons):
               1          2          3          4          5          6
     1  N    6.772703   0.311662  -0.071264   0.005850  -0.000143   0.000001
     2  C    0.311662   4.805758   0.380958  -0.037064   0.003387  -0.000128
     3  C   -0.071264   0.380958   4.990350   0.334628  -0.030875   0.003498
     4  C    0.005850  -0.037064   0.334628   4.937514   0.365412  -0.040320
     5  C   -0.000143   0.003387  -0.030875   0.365412   4.936712   0.357505
     6  C    0.000001  -0.000128   0.003498  -0.040320   0.357505   5.025108
     7  C   -0.000000   0.000003   0.000176  -0.003954  -0.042571   0.371495
     8  N   -0.000000  -0.000000   0.000005  -0.001738  -0.005785  -0.075838
     9  H    0.348335  -0.046255  -0.002846   0.000059  -0.000001   0.000000
    10  H    0.348280  -0.046150  -0.002810   0.000061   0.000000   0.000000
    11  H   -0.036485   0.386334  -0.045263  -0.001860  -0.000053   0.000007
    12  H   -0.036325   0.386135  -0.045068  -0.002052  -0.000056   0.000007
    13  H   -0.000677  -0.038933   0.379513  -0.034818  -0.004866   0.000047
    14  H   -0.000678  -0.039025   0.379409  -0.034560  -0.004162   0.000154
    15  H    0.000063  -0.004063  -0.039727   0.385812  -0.038482  -0.005497
    16  H    0.000058  -0.004201  -0.040066   0.385785  -0.041208  -0.002687
    17  H   -0.000003   0.000096  -0.005026  -0.040890   0.382333  -0.033003
    18  H   -0.000002   0.000025  -0.003662  -0.041804   0.374316  -0.040295
    19  H   -0.000000   0.000002  -0.000143   0.004948  -0.035602   0.371813
    20  H    0.000000  -0.000002   0.000064  -0.008077  -0.035018   0.349871
    21  H   -0.000000   0.000006  -0.000106   0.003699  -0.007485  -0.045436
    22  H    0.000000  -0.000000  -0.000003   0.000003   0.005106  -0.044365
    23  H   -0.000000  -0.000002  -0.000049   0.000188   0.004152  -0.004578
    24  H   -0.000000   0.000000   0.000001   0.000098  -0.001236  -0.002601
               7          8          9         10         11         12
     1  N   -0.000000  -0.000000   0.348335   0.348280  -0.036485  -0.036325
     2  C    0.000003  -0.000000  -0.046255  -0.046150   0.386334   0.386135
     3  C    0.000176   0.000005  -0.002846  -0.002810  -0.045263  -0.045068
     4  C   -0.003954  -0.001738   0.000059   0.000061  -0.001860  -0.002052
     5  C   -0.042571  -0.005785  -0.000001   0.000000  -0.000053  -0.000056
     6  C    0.371495  -0.075838   0.000000   0.000000   0.000007   0.000007
     7  C    4.792622   0.328723  -0.000000   0.000000   0.000000  -0.000003
     8  N    0.328723   6.760298   0.000000  -0.000000  -0.000000  -0.000000
     9  H   -0.000000   0.000000   0.481538  -0.034482  -0.005527   0.006576
    10  H    0.000000  -0.000000  -0.034482   0.481517   0.006576  -0.005570
    11  H    0.000000  -0.000000  -0.005527   0.006576   0.628044  -0.038208
    12  H   -0.000003  -0.000000   0.006576  -0.005570  -0.038208   0.627834
    13  H    0.000003  -0.000001   0.005868  -0.000436  -0.005908   0.005834
    14  H   -0.000021  -0.000002  -0.000439   0.005825   0.005834  -0.005926
    15  H    0.002832   0.000419   0.000017   0.000006  -0.000523   0.005166
    16  H   -0.001196   0.000085   0.000007   0.000015   0.004971  -0.000482
    17  H    0.005006   0.000210  -0.000002   0.000001   0.000003   0.000005
    18  H   -0.008831   0.008950   0.000001  -0.000002   0.000003   0.000004
    19  H   -0.037414  -0.004325   0.000000   0.000000  -0.000000  -0.000000
    20  H   -0.031218   0.006323   0.000000  -0.000000  -0.000002   0.000000
    21  H    0.389486  -0.038076   0.000000   0.000000   0.000001  -0.000004
    22  H    0.386039  -0.040698   0.000000   0.000000  -0.000000   0.000000
    23  H   -0.044249   0.350220  -0.000000   0.000000   0.000000   0.000000
    24  H   -0.045735   0.347345   0.000000   0.000000  -0.000000  -0.000000
              13         14         15         16         17         18
     1  N   -0.000677  -0.000678   0.000063   0.000058  -0.000003  -0.000002
     2  C   -0.038933  -0.039025  -0.004063  -0.004201   0.000096   0.000025
     3  C    0.379513   0.379409  -0.039727  -0.040066  -0.005026  -0.003662
     4  C   -0.034818  -0.034560   0.385812   0.385785  -0.040890  -0.041804
     5  C   -0.004866  -0.004162  -0.038482  -0.041208   0.382333   0.374316
     6  C    0.000047   0.000154  -0.005497  -0.002687  -0.033003  -0.040295
     7  C    0.000003  -0.000021   0.002832  -0.001196   0.005006  -0.008831
     8  N   -0.000001  -0.000002   0.000419   0.000085   0.000210   0.008950
     9  H    0.005868  -0.000439   0.000017   0.000007  -0.000002   0.000001
    10  H   -0.000436   0.005825   0.000006   0.000015   0.000001  -0.000002
    11  H   -0.005908   0.005834  -0.000523   0.004971   0.000003   0.000003
    12  H    0.005834  -0.005926   0.005166  -0.000482   0.000005   0.000004
    13  H    0.638291  -0.040250   0.005947  -0.005882   0.005487  -0.000583
    14  H   -0.040250   0.638310  -0.005963   0.005937  -0.000573   0.004642
    15  H    0.005947  -0.005963   0.636875  -0.040321   0.006007  -0.006531
    16  H   -0.005882   0.005937  -0.040321   0.639522  -0.005222   0.006154
    17  H    0.005487  -0.000573   0.006007  -0.005222   0.640732  -0.038120
    18  H   -0.000583   0.004642  -0.006531   0.006154  -0.038120   0.651092
    19  H   -0.000008   0.000003  -0.000047   0.000041  -0.003713  -0.003370
    20  H    0.000000   0.000005  -0.000188   0.005543  -0.004597   0.006901
    21  H   -0.000001   0.000008   0.001560   0.000652   0.000008   0.000288
    22  H    0.000000  -0.000000  -0.000011  -0.000035  -0.000147   0.000096
    23  H    0.000002  -0.000000   0.001039  -0.000016  -0.000092   0.003476
    24  H   -0.000000  -0.000001  -0.000032  -0.000000  -0.000033   0.001071
              19         20         21         22         23         24
     1  N   -0.000000   0.000000  -0.000000   0.000000  -0.000000  -0.000000
     2  C    0.000002  -0.000002   0.000006  -0.000000  -0.000002   0.000000
     3  C   -0.000143   0.000064  -0.000106  -0.000003  -0.000049   0.000001
     4  C    0.004948  -0.008077   0.003699   0.000003   0.000188   0.000098
     5  C   -0.035602  -0.035018  -0.007485   0.005106   0.004152  -0.001236
     6  C    0.371813   0.349871  -0.045436  -0.044365  -0.004578  -0.002601
     7  C   -0.037414  -0.031218   0.389486   0.386039  -0.044249  -0.045735
     8  N   -0.004325   0.006323  -0.038076  -0.040698   0.350220   0.347345
     9  H    0.000000   0.000000   0.000000   0.000000  -0.000000   0.000000
    10  H    0.000000  -0.000000   0.000000   0.000000   0.000000   0.000000
    11  H   -0.000000  -0.000002   0.000001  -0.000000   0.000000  -0.000000
    12  H   -0.000000   0.000000  -0.000004   0.000000   0.000000  -0.000000
    13  H   -0.000008   0.000000  -0.000001   0.000000   0.000002  -0.000000
    14  H    0.000003   0.000005   0.000008  -0.000000  -0.000000  -0.000001
    15  H   -0.000047  -0.000188   0.001560  -0.000011   0.001039  -0.000032
    16  H    0.000041   0.005543   0.000652  -0.000035  -0.000016  -0.000000
    17  H   -0.003713  -0.004597   0.000008  -0.000147  -0.000092  -0.000033
    18  H   -0.003370   0.006901   0.000288   0.000096   0.003476   0.001071
    19  H    0.650079  -0.034483   0.005858  -0.005015  -0.000304   0.005633
    20  H   -0.034483   0.662790  -0.001538  -0.000618   0.000014   0.000056
    21  H    0.005858  -0.001538   0.622422  -0.036833  -0.006476   0.006572
    22  H   -0.005015  -0.000618  -0.036833   0.636316   0.006586  -0.004739
    23  H   -0.000304   0.000014  -0.006476   0.006586   0.472980  -0.034963
    24  H    0.005633   0.000056   0.006572  -0.004739  -0.034963   0.479864
 Mulliken charges:
               1
     1  N   -0.641374
     2  C   -0.058541
     3  C   -0.181691
     4  C   -0.176921
     5  C   -0.181379
     6  C   -0.184757
     7  C   -0.061192
     8  N   -0.636114
     9  H    0.247152
    10  H    0.247171
    11  H    0.102059
    12  H    0.102133
    13  H    0.091373
    14  H    0.091472
    15  H    0.095641
    16  H    0.092547
    17  H    0.091534
    18  H    0.086180
    19  H    0.086048
    20  H    0.084172
    21  H    0.105396
    22  H    0.098317
    23  H    0.252073
    24  H    0.248700
 Sum of Mulliken charges =  -0.00000
 Mulliken charges with hydrogens summed into heavy atoms:
               1
     1  N   -0.147051
     2  C    0.145651
     3  C    0.001155
     4  C    0.011267
     5  C   -0.003665
     6  C   -0.014537
     7  C    0.142522
     8  N   -0.135341
 APT charges:
               1
     1  N   -1.029670
     2  C   -0.607371
     3  C   -0.595755
     4  C   -0.574869
     5  C   -0.652645
     6  C   -0.817862
     7  C   -0.803132
     8  N   -0.732529
     9  H    0.530587
    10  H    0.428195
    11  H    0.363564
    12  H    0.275521
    13  H    0.357050
    14  H    0.273283
    15  H    0.255531
    16  H    0.334017
    17  H    0.376976
    18  H    0.275115
    19  H    0.481718
    20  H    0.333739
    21  H    0.168210
    22  H    0.644436
    23  H    0.077172
    24  H    0.638718
 Sum of APT charges =  -0.00000
 APT charges with hydrogens summed into heavy atoms:
               1
     1  N   -0.070888
     2  C    0.031714
     3  C    0.034579
     4  C    0.014678
     5  C   -0.000554
     6  C   -0.002405
     7  C    0.009514
     8  N   -0.016638
 Electronic spatial extent (au):  <R**2>=           1881.7452
 Charge=              0.0000 electrons
 Dipole moment (field-independent basis, Debye):
    X=              0.2427    Y=              1.9380    Z=             -1.7722  Tot=              2.6373
 Quadrupole moment (field-independent basis, Debye-Ang):
   XX=            -66.2827   YY=            -55.3354   ZZ=            -49.9798
   XY=              1.7326   XZ=              2.7805   YZ=              1.7218
 Traceless Quadrupole moment (field-independent basis, Debye-Ang):
   XX=             -9.0834   YY=              1.8639   ZZ=              7.2195
   XY=              1.7326   XZ=              2.7805   YZ=              1.7218
 Octapole moment (field-independent basis, Debye-Ang**2):
  XXX=             39.6954  YYY=              4.5698  ZZZ=             -5.2095  XYY=            -18.3879
  XXY=             42.4408  XXZ=            -31.0982  XZZ=              0.9065  YZZ=             -3.5510
  YYZ=             -2.4569  XYZ=             -2.4312
 Hexadecapole moment (field-independent basis, Debye-Ang**3):
 XXXX=          -2383.3455 YYYY=           -268.8666 ZZZZ=           -172.5284 XXXY=            -23.5271
 XXXZ=             75.3112 YYYX=             23.1280 YYYZ=              2.1416 ZZZX=             -3.8016
 ZZZY=              8.3449 XXYY=           -429.7358 XXZZ=           -332.7439 YYZZ=            -68.1509
 XXYZ=             17.4383 YYXZ=              4.2241 ZZXY=             -3.1555
 N-N= 3.904480171465D+02 E-N=-1.586673664686D+03  KE= 3.445071448094D+02
  Exact polarizability:   0.000   0.000   0.000   0.000   0.000   0.000
 Approx polarizability: 105.444  -0.417 104.454   1.233   3.212 105.709
 D2PCM: PCM CHGder 2nd derivatives, FixD1E=F FixD2E=F DoIter=F DoCFld=F I1PDM=0
 Calling FoFJK, ICntrl=    100147 FMM=F ISym2X=0 I1Cent= 0 IOpClX= 0 NMat=1 NMatS=1 NMatT=0.
 ***** Axes restored to original set *****
 -------------------------------------------------------------------
 Center     Atomic                   Forces (Hartrees/Bohr)
 Number     Number              X              Y              Z
 -------------------------------------------------------------------
      1        7           0.015969676   -0.000124133    0.008043907
      2        6          -0.000168433    0.013600860   -0.007134503
      3        6          -0.007536086   -0.014355269    0.003763829
      4        6          -0.001590905    0.009579266   -0.004739033
      5        6          -0.002140518   -0.006499587   -0.000924677
      6        6           0.002480257   -0.004226097   -0.006588944
      7        6          -0.000902581    0.004804749   -0.006597930
      8        7          -0.005756637    0.002047664    0.012195166
      9        1          -0.001636548    0.000182668    0.001059078
     10        1          -0.000354475   -0.001173670   -0.001558321
     11        1           0.000274569   -0.000996026    0.000004383
     12        1          -0.000106148   -0.000542085    0.000876850
     13        1           0.001390993    0.000457088   -0.000075913
     14        1           0.001163263    0.000852338    0.000645077
     15        1           0.000224466   -0.001567665    0.000943313
     16        1          -0.000179560   -0.001534203    0.000302353
     17        1           0.000302387    0.001169762    0.000240838
     18        1          -0.000141489    0.001001765    0.000616342
     19        1          -0.002256947   -0.000873664    0.000138327
     20        1           0.001045403   -0.000946182   -0.001958358
     21        1           0.000205577    0.000652044    0.001494164
     22        1          -0.000510330   -0.001027801    0.000246260
     23        1          -0.001247508   -0.000172644   -0.001101543
     24        1           0.001471577   -0.000309176    0.000109337
 -------------------------------------------------------------------
 Cartesian Forces:  Max     0.015969676 RMS     0.004349712
 FormGI is forming the generalized inverse of G from B-inverse, IUseBI=4.

 GradGradGradGradGradGradGradGradGradGradGradGradGradGradGradGradGradGrad
 Berny optimization.
 Internal  Forces:  Max     0.020862695 RMS     0.003711334
 Search for a local minimum.
 Step number   1 out of a maximum of  132
 All quantities printed in internal units (Hartrees-Bohrs-Radians)
 Mixed Optimization -- RFO/linear search
 Second derivative matrix not updated -- analytic derivatives used.
 ITU=  0
     Eigenvalues ---    0.00183   0.00226   0.00272   0.00274   0.00282
     Eigenvalues ---    0.00348   0.00402   0.03122   0.03240   0.03386
     Eigenvalues ---    0.03559   0.03796   0.03910   0.03978   0.04045
     Eigenvalues ---    0.04113   0.04168   0.04650   0.04668   0.05003
     Eigenvalues ---    0.05182   0.06624   0.06974   0.07170   0.07472
     Eigenvalues ---    0.08104   0.08366   0.09454   0.10553   0.11435
     Eigenvalues ---    0.12389   0.12887   0.13697   0.14570   0.14679
     Eigenvalues ---    0.16428   0.18480   0.18598   0.19350   0.22421
     Eigenvalues ---    0.22579   0.24548   0.24851   0.27553   0.28028
     Eigenvalues ---    0.29215   0.31085   0.32251   0.32704   0.32766
     Eigenvalues ---    0.32799   0.32931   0.33121   0.33193   0.33304
     Eigenvalues ---    0.33416   0.33577   0.33769   0.34028   0.34289
     Eigenvalues ---    0.37986   0.38712   0.43987   0.44088   0.44139
     Eigenvalues ---    0.44442
 RFO step:  Lambda=-5.86535557D-03 EMin= 1.83413638D-03
 Linear search not attempted -- first point.
 Iteration  1 RMS(Cart)=  0.04690947 RMS(Int)=  0.00045988
 Iteration  2 RMS(Cart)=  0.00064718 RMS(Int)=  0.00013709
 Iteration  3 RMS(Cart)=  0.00000030 RMS(Int)=  0.00013709
 Variable       Old X    -DE/DX   Delta X   Delta X   Delta X     New X
                                 (Linear)    (Quad)   (Total)
    R1        2.75622   0.01060   0.00000   0.02042   0.02042   2.77663
    R2        1.92641  -0.00150   0.00000  -0.00002  -0.00002   1.92639
    R3        1.92641  -0.00151   0.00000  -0.00004  -0.00004   1.92637
    R4        2.88849   0.00674   0.00000   0.01202   0.01202   2.90050
    R5        2.06992   0.00095   0.00000   0.00436   0.00436   2.07429
    R6        2.06992   0.00094   0.00000   0.00436   0.00436   2.07429
    R7        2.89328   0.00602   0.00000   0.00553   0.00553   2.89881
    R8        2.07361   0.00064   0.00000   0.00412   0.00412   2.07773
    R9        2.07365   0.00064   0.00000   0.00414   0.00414   2.07780
   R10        2.89155   0.00497   0.00000   0.00962   0.00962   2.90117
   R11        2.07067   0.00108   0.00000   0.00448   0.00448   2.07515
   R12        2.07236   0.00117   0.00000   0.00519   0.00519   2.07755
   R13        2.89708   0.00450   0.00000   0.00812   0.00812   2.90519
   R14        2.07379   0.00018   0.00000   0.00103   0.00103   2.07482
   R15        2.07156   0.00115   0.00000   0.00486   0.00486   2.07643
   R16        2.89309   0.00663   0.00000   0.01589   0.01589   2.90898
   R17        2.07427   0.00101   0.00000   0.00255   0.00255   2.07682
   R18        2.07360   0.00206   0.00000   0.00367   0.00367   2.07726
   R19        2.75453   0.00922   0.00000   0.02319   0.02319   2.77772
   R20        2.06851   0.00068   0.00000   0.00331   0.00331   2.07182
   R21        2.07068   0.00096   0.00000   0.00240   0.00240   2.07308
   R22        1.92481  -0.00136   0.00000  -0.00053  -0.00053   1.92428
   R23        1.92621  -0.00109   0.00000   0.00029   0.00029   1.92650
    A1        1.91352  -0.00121   0.00000  -0.01572  -0.01593   1.89759
    A2        1.91351  -0.00120   0.00000  -0.01577  -0.01597   1.89754
    A3        1.84879   0.00002   0.00000  -0.01594  -0.01640   1.83239
    A4        1.93843   0.02086   0.00000   0.07486   0.07473   2.01316
    A5        1.90076  -0.00655   0.00000  -0.01763  -0.01786   1.88290
    A6        1.90081  -0.00657   0.00000  -0.01766  -0.01789   1.88292
    A7        1.92443  -0.00549   0.00000  -0.01511  -0.01531   1.90913
    A8        1.92467  -0.00546   0.00000  -0.01524  -0.01544   1.90924
    A9        1.87331   0.00250   0.00000  -0.01240  -0.01294   1.86037
   A10        1.94070   0.01089   0.00000   0.03701   0.03696   1.97765
   A11        1.91563  -0.00393   0.00000  -0.01504  -0.01533   1.90030
   A12        1.91654  -0.00407   0.00000  -0.01645  -0.01675   1.89980
   A13        1.91034  -0.00251   0.00000   0.00122   0.00132   1.91166
   A14        1.90962  -0.00237   0.00000   0.00239   0.00251   1.91213
   A15        1.86962   0.00162   0.00000  -0.01091  -0.01117   1.85846
   A16        1.94144   0.00783   0.00000   0.03101   0.03088   1.97232
   A17        1.90275  -0.00238   0.00000  -0.00258  -0.00278   1.89998
   A18        1.91186  -0.00203   0.00000  -0.00401  -0.00404   1.90782
   A19        1.92046  -0.00177   0.00000   0.00035   0.00018   1.92064
   A20        1.91279  -0.00248   0.00000  -0.00754  -0.00760   1.90518
   A21        1.87324   0.00055   0.00000  -0.01904  -0.01910   1.85413
   A22        1.98002   0.00607   0.00000   0.02159   0.02155   2.00157
   A23        1.90282  -0.00206   0.00000  -0.00604  -0.00624   1.89657
   A24        1.91670  -0.00193   0.00000  -0.00690  -0.00687   1.90983
   A25        1.88312  -0.00108   0.00000   0.00742   0.00737   1.89049
   A26        1.92205  -0.00196   0.00000  -0.00953  -0.00947   1.91257
   A27        1.85451   0.00063   0.00000  -0.00819  -0.00822   1.84629
   A28        2.02108   0.00008   0.00000  -0.00445  -0.00446   2.01662
   A29        1.89032   0.00188   0.00000   0.00845   0.00838   1.89870
   A30        1.89888  -0.00109   0.00000   0.00598   0.00597   1.90485
   A31        1.90282  -0.00220   0.00000  -0.01369  -0.01368   1.88915
   A32        1.89094   0.00152   0.00000   0.00377   0.00378   1.89472
   A33        1.85265  -0.00022   0.00000   0.00032   0.00028   1.85294
   A34        1.97298   0.01471   0.00000   0.05485   0.05483   2.02781
   A35        1.93376  -0.00363   0.00000  -0.01107  -0.01078   1.92297
   A36        1.89783  -0.00352   0.00000  -0.00534  -0.00553   1.89230
   A37        1.90853  -0.00594   0.00000  -0.02816  -0.02817   1.88036
   A38        1.88943  -0.00422   0.00000  -0.01050  -0.01092   1.87852
   A39        1.85714   0.00186   0.00000  -0.00296  -0.00325   1.85389
   A40        1.91961   0.00037   0.00000  -0.00831  -0.00841   1.91120
   A41        1.91410  -0.00105   0.00000  -0.01160  -0.01170   1.90240
   A42        1.85230  -0.00042   0.00000  -0.01480  -0.01503   1.83728
    D1       -1.00921   0.00068   0.00000   0.01673   0.01660  -0.99261
    D2        1.11333   0.00282   0.00000   0.03404   0.03380   1.14712
    D3       -3.13209  -0.00149   0.00000  -0.00040  -0.00041  -3.13250
    D4        1.01347  -0.00067   0.00000  -0.02041  -0.02028   0.99319
    D5        3.13601   0.00146   0.00000  -0.00310  -0.00309   3.13292
    D6       -1.10941  -0.00285   0.00000  -0.03755  -0.03730  -1.14671
    D7        3.14078  -0.00004   0.00000  -0.00085  -0.00084   3.13994
    D8        1.02450  -0.00138   0.00000  -0.01655  -0.01640   1.00810
    D9       -1.02641   0.00139   0.00000   0.01540   0.01524  -1.01116
   D10        1.03214  -0.00188   0.00000  -0.01794  -0.01789   1.01425
   D11       -1.08415  -0.00322   0.00000  -0.03364  -0.03344  -1.11759
   D12       -3.13505  -0.00045   0.00000  -0.00169  -0.00180  -3.13685
   D13       -1.03354   0.00181   0.00000   0.01613   0.01609  -1.01745
   D14        3.13336   0.00047   0.00000   0.00043   0.00053   3.13390
   D15        1.08246   0.00324   0.00000   0.03238   0.03218   1.11463
   D16        3.14024   0.00016   0.00000   0.00154   0.00155  -3.14140
   D17        1.01939  -0.00108   0.00000  -0.01710  -0.01711   1.00229
   D18       -1.02564   0.00078   0.00000   0.00959   0.00961  -1.01603
   D19       -1.02357   0.00063   0.00000   0.00758   0.00767  -1.01590
   D20        3.13877  -0.00060   0.00000  -0.01106  -0.01099   3.12779
   D21        1.09374   0.00126   0.00000   0.01563   0.01573   1.10947
   D22        1.02019  -0.00023   0.00000  -0.00351  -0.00360   1.01660
   D23       -1.10065  -0.00146   0.00000  -0.02215  -0.02226  -1.12291
   D24        3.13751   0.00040   0.00000   0.00455   0.00446  -3.14122
   D25        3.05427   0.00024   0.00000   0.00873   0.00868   3.06295
   D26        0.95547  -0.00090   0.00000  -0.01053  -0.01054   0.94493
   D27       -1.06981   0.00059   0.00000   0.00661   0.00655  -1.06326
   D28       -1.11844   0.00121   0.00000   0.02612   0.02614  -1.09230
   D29        3.06594   0.00008   0.00000   0.00686   0.00692   3.07287
   D30        1.04067   0.00157   0.00000   0.02400   0.02401   1.06468
   D31        0.93750  -0.00066   0.00000  -0.00141  -0.00140   0.93610
   D32       -1.16131  -0.00180   0.00000  -0.02066  -0.02062  -1.18192
   D33        3.09660  -0.00030   0.00000  -0.00352  -0.00353   3.09307
   D34        1.05609   0.00105   0.00000   0.03464   0.03459   1.09067
   D35       -3.08433  -0.00031   0.00000   0.02015   0.02006  -3.06427
   D36       -1.07778  -0.00015   0.00000   0.02813   0.02808  -1.04970
   D37       -3.11716   0.00155   0.00000   0.04593   0.04600  -3.07117
   D38       -0.97440   0.00019   0.00000   0.03143   0.03147  -0.94293
   D39        1.03215   0.00035   0.00000   0.03941   0.03949   1.07164
   D40       -1.10010   0.00065   0.00000   0.03525   0.03526  -1.06484
   D41        1.04267  -0.00071   0.00000   0.02076   0.02073   1.06340
   D42        3.04922  -0.00055   0.00000   0.02874   0.02876   3.07797
   D43        1.05588  -0.00005   0.00000  -0.00078  -0.00081   1.05508
   D44       -1.09335  -0.00028   0.00000   0.00436   0.00436  -1.08900
   D45       -3.12853   0.00163   0.00000   0.01743   0.01752  -3.11101
   D46       -1.08027  -0.00084   0.00000   0.00207   0.00201  -1.07826
   D47        3.05368  -0.00108   0.00000   0.00722   0.00717   3.06085
   D48        1.01850   0.00083   0.00000   0.02029   0.02034   1.03884
   D49       -3.08923  -0.00023   0.00000   0.00690   0.00686  -3.08237
   D50        1.04472  -0.00047   0.00000   0.01205   0.01202   1.05675
   D51       -0.99046   0.00144   0.00000   0.02512   0.02519  -0.96527
   D52       -1.10657   0.00068   0.00000   0.02586   0.02594  -1.08063
   D53        0.92420  -0.00022   0.00000  -0.00364  -0.00343   0.92077
   D54        1.05658   0.00196   0.00000   0.02932   0.02900   1.08558
   D55        3.08735   0.00106   0.00000  -0.00018  -0.00037   3.08698
   D56        3.07306  -0.00131   0.00000   0.00504   0.00509   3.07814
   D57       -1.17936  -0.00221   0.00000  -0.02446  -0.02429  -1.20364
         Item               Value     Threshold  Converged?
 Maximum Force            0.020863     0.000450     NO 
 RMS     Force            0.003711     0.000300     NO 
 Maximum Displacement     0.174405     0.001800     NO 
 RMS     Displacement     0.046593     0.001200     NO 
 Predicted change in Energy=-3.054319D-03
 GradGradGradGradGradGradGradGradGradGradGradGradGradGradGradGradGradGrad

                          Input orientation:                          
 ---------------------------------------------------------------------
 Center     Atomic      Atomic             Coordinates (Angstroms)
 Number     Number       Type             X           Y           Z
 ---------------------------------------------------------------------
      1          7           0        3.922075    0.973541    1.007966
      2          6           0        2.750940    0.095887    0.877190
      3          6           0        1.605118    0.652442    0.020921
      4          6           0        0.408589   -0.301487   -0.086092
      5          6           0       -0.733052    0.261889   -0.944117
      6          6           0       -1.906343   -0.706142   -1.167243
      7          6           0       -2.662219   -1.136877    0.102702
      8          7           0       -3.295440   -0.059991    0.877286
      9          1           0        4.273258    1.191620    0.076141
     10          1           0        3.619314    1.868129    1.391641
     11          1           0        3.090629   -0.858783    0.455186
     12          1           0        2.378852   -0.122306    1.886551
     13          1           0        1.988627    0.875330   -0.985121
     14          1           0        1.275137    1.610276    0.448258
     15          1           0        0.043503   -0.527775    0.924541
     16          1           0        0.743029   -1.257671   -0.513325
     17          1           0       -0.328622    0.545699   -1.924617
     18          1           0       -1.104158    1.192597   -0.493095
     19          1           0       -2.625763   -0.238077   -1.853658
     20          1           0       -1.538019   -1.607274   -1.677761
     21          1           0       -1.990394   -1.682072    0.776069
     22          1           0       -3.448520   -1.845508   -0.185461
     23          1           0       -2.580854    0.583964    1.211338
     24          1           0       -3.885687    0.492588    0.256348
 ---------------------------------------------------------------------
                    Distance matrix (angstroms):
                    1          2          3          4          5
     1  N    0.000000
     2  C    1.469332   0.000000
     3  C    2.538829   1.534880   0.000000
     4  C    3.894515   2.563675   1.533987   0.000000
     5  C    5.097773   3.934834   2.559467   1.535234   0.000000
     6  C    6.443859   5.149101   3.948144   2.586801   1.537362
     7  C    6.973255   5.605518   4.628014   3.188005   2.602702
     8  N    7.292311   6.048390   5.025574   3.834872   3.160213
     9  H    1.019404   2.039549   2.722633   4.146247   5.193118
    10  H    1.019392   2.039504   2.722820   4.147250   5.194118
    11  H    2.086691   1.097666   2.163129   2.792293   4.223090
    12  H    2.086703   1.097665   2.163209   2.793808   4.224244
    13  H    2.778536   2.157975   1.099490   2.165565   2.790256
    14  H    2.779386   2.157626   1.099523   2.165934   2.791000
    15  H    4.159835   2.778743   2.155941   1.098122   2.172209
    16  H    4.171207   2.792375   2.162672   1.099394   2.161820
    17  H    5.181845   4.187619   2.745153   2.154385   1.097948
    18  H    5.250161   4.235828   2.810011   2.164796   1.098798
    19  H    7.247834   6.039702   4.712475   3.512207   2.158607
    20  H    6.609565   5.274817   4.227427   2.833332   2.163325
    21  H    6.485626   5.064742   4.352920   2.899043   2.884256
    22  H    7.981039   6.582671   5.641065   4.155859   3.520007
    23  H    6.517762   5.364504   4.352487   3.376998   2.857287
    24  H    7.858588   6.677398   5.498175   4.380482   3.381338
                    6          7          8          9         10
     6  C    0.000000
     7  C    1.539364   0.000000
     8  N    2.554838   1.469909   0.000000
     9  H    6.582931   7.315972   7.713207   0.000000
    10  H    6.611175   7.081601   7.196946   1.617358   0.000000
    11  H    5.255977   5.770341   6.449660   2.397173   2.931298
    12  H    5.294281   5.442781   5.763687   2.931341   2.396980
    13  H    4.207732   5.182924   5.680207   2.538869   3.048571
    14  H    4.254109   4.813421   4.885083   3.049996   2.540005
    15  H    2.865183   2.892638   3.371884   4.644021   4.329545
    16  H    2.784056   3.462629   4.435930   4.336936   4.655377
    17  H    2.151725   3.519482   4.125473   5.059402   5.322836
    18  H    2.168683   2.865130   2.872044   5.407461   5.130278
    19  H    1.099007   2.153257   2.817487   7.305111   7.346363
    20  H    1.099241   2.157579   3.465671   6.684379   6.935252
    21  H    2.176227   1.096362   2.084355   6.926856   6.667209
    22  H    2.154150   1.097026   2.083491   8.301714   8.138343
    23  H    2.788725   2.048655   1.018285   6.974007   6.334324
    24  H    2.716868   2.043438   1.019460   8.190819   7.714016
                   11         12         13         14         15
    11  H    0.000000
    12  H    1.760066   0.000000
    13  H    2.509191   3.064972   0.000000
    14  H    3.064687   2.507730   1.761757   0.000000
    15  H    3.100780   2.558070   3.065782   2.512972   0.000000
    16  H    2.570671   3.118393   2.514717   3.071303   1.757710
    17  H    4.396283   4.722462   2.522093   3.055471   3.067331
    18  H    4.764833   4.418489   3.147708   2.592614   2.507288
    19  H    6.196222   6.248899   4.825622   4.892059   3.863586
    20  H    5.151124   5.500120   4.368100   4.773513   3.230867
    21  H    5.157282   4.770361   5.047247   4.648731   2.343327
    22  H    6.644135   6.420353   6.132291   5.887018   3.893938
    23  H    5.900763   5.055038   5.078334   4.062545   2.864519
    24  H    7.108778   6.502316   6.016253   5.283953   4.114141
                   16         17         18         19         20
    16  H    0.000000
    17  H    2.528305   0.000000
    18  H    3.068603   1.751910   0.000000
    19  H    3.766275   2.428208   2.492637   0.000000
    20  H    2.584823   2.481707   3.070984   1.757506   0.000000
    21  H    3.051927   3.875325   3.264951   3.066639   2.496301
    22  H    4.245249   4.298406   3.849773   2.458383   2.435925
    23  H    4.173043   3.861117   2.335841   3.173636   3.773052
    24  H    5.008076   4.172786   2.964554   2.563866   3.696180
                   21         22         23         24
    21  H    0.000000
    22  H    1.754248   0.000000
    23  H    2.381811   2.933637   0.000000
    24  H    2.931108   2.419298   1.619551   0.000000
 Stoichiometry    C6H16N2
 Framework group  C1[X(C6H16N2)]
 Deg. of freedom    66
 Full point group                 C1      NOp   1
 Largest Abelian subgroup         C1      NOp   1
 Largest concise Abelian subgroup C1      NOp   1
                         Standard orientation:                         
 ---------------------------------------------------------------------
 Center     Atomic      Atomic             Coordinates (Angstroms)
 Number     Number       Type             X           Y           Z
 ---------------------------------------------------------------------
      1          7           0       -4.109816   -0.392841   -0.099736
      2          6           0       -2.779307   -0.338413    0.521327
      3          6           0       -1.664469    0.236958   -0.362947
      4          6           0       -0.297164    0.274244    0.331463
      5          6           0        0.812481    0.851099   -0.558969
      6          6           0        2.175675    1.007561    0.134357
      7          6           0        2.825130   -0.299312    0.624188
      8          7           0        3.118773   -1.304144   -0.407664
      9          1           0       -4.369243    0.546022   -0.400432
     10          1           0       -4.047609   -0.937219   -0.959354
     11          1           0       -2.860105    0.257511    1.439596
     12          1           0       -2.509991   -1.356460    0.831032
     13          1           0       -1.946256    1.252994   -0.674626
     14          1           0       -1.594443   -0.363019   -1.281682
     15          1           0       -0.033185   -0.742818    0.650481
     16          1           0       -0.371863    0.874626    1.249411
     17          1           0        0.494703    1.837413   -0.921862
     18          1           0        0.924685    0.224898   -1.454871
     19          1           0        2.871765    1.498347   -0.560195
     20          1           0        2.068213    1.687495    0.991370
     21          1           0        2.192494   -0.774767    1.382952
     22          1           0        3.769377   -0.050921    1.124355
     23          1           0        2.250960   -1.600417   -0.850410
     24          1           0        3.663725   -0.867615   -1.150475
 ---------------------------------------------------------------------
 Rotational constants (GHZ):           4.8434395           0.6290218           0.6029589
 Standard basis: 6-31G(d,p) (6D, 7F)
 There are   200 symmetry adapted cartesian basis functions of A   symmetry.
 There are   200 symmetry adapted basis functions of A   symmetry.
   200 basis functions,   336 primitive gaussians,   200 cartesian basis functions
    33 alpha electrons       33 beta electrons
       nuclear repulsion energy       386.6371095706 Hartrees.
 NAtoms=   24 NActive=   24 NUniq=   24 SFac= 1.00D+00 NAtFMM=   60 NAOKFM=F Big=F
 Integral buffers will be    131072 words long.
 Raffenetti 2 integral format.
 Two-electron integral symmetry is turned on.
 ------------------------------------------------------------------------------
 Polarizable Continuum Model (PCM)
 =================================
 Model                : PCM.
 Atomic radii         : UFF (Universal Force Field).
 Polarization charges : Total charges.
 Charge compensation  : None.
 Solution method      : Matrix inversion.
 Cavity type          : Scaled VdW (van der Waals Surface) (Alpha=1.100).
 Cavity algorithm     : GePol (No added spheres)
                        Default sphere list used, NSphG=   24.
                        Lebedev-Laikov grids with approx.  5.0 points / Ang**2.
                        Smoothing algorithm: York/Karplus (Gamma=1.0000).
                        Polarization charges: spherical gaussians, with
                                              point-specific exponents (IZeta= 3).
                        Self-potential: point-specific (ISelfS= 7).
                        Self-field    : sphere-specific E.n sum rule (ISelfD= 2).
 1st derivatives      : Analytical E(r).r(x)/FMM algorithm (CHGder, D1EAlg=3).
                        Cavity 1st derivative terms included.
 Solvent              : Water, Eps=  78.355300 Eps(inf)=   1.777849
 ------------------------------------------------------------------------------
 One-electron integrals computed using PRISM.
 NBasis=   200 RedAO= T EigKep=  3.01D-03  NBF=   200
 NBsUse=   200 1.00D-06 EigRej= -1.00D+00 NBFU=   200
 Initial guess from the checkpoint file:  "NAQMVNRVTILPCV-UHFFFAOYSA-N_conf_2_0.chk"
 B after Tr=    -0.000000    0.000000    0.000000
         Rot=    0.999861    0.016663    0.000763   -0.000704 Ang=   1.91 deg.
 ExpMin= 1.61D-01 ExpMax= 4.17D+03 ExpMxC= 6.27D+02 IAcc=2 IRadAn=         4 AccDes= 0.00D+00
 Harris functional with IExCor=  402 and IRadAn=       4 diagonalized for initial guess.
 HarFok:  IExCor=  402 AccDes= 0.00D+00 IRadAn=         4 IDoV= 1 UseB2=F ITyADJ=14
 ICtDFT=  3500011 ScaDFX=  1.000000  1.000000  1.000000  1.000000
 FoFCou: FMM=F IPFlag=           0 FMFlag=      100000 FMFlg1=           0
         NFxFlg=           0 DoJE=T BraDBF=F KetDBF=T FulRan=T
         wScrn=  0.000000 ICntrl=       500 IOpCl=  0 I1Cent=   200000004 NGrid=           0
         NMat0=    1 NMatS0=      1 NMatT0=    0 NMatD0=    1 NMtDS0=    0 NMtDT0=    0
 Petite list used in FoFCou.
 Keep R1 ints in memory in canonical form, NReq=206134434.
 Requested convergence on RMS density matrix=1.00D-08 within  32 cycles.
 Requested convergence on MAX density matrix=1.00D-06.
 Requested convergence on             energy=1.00D-06.
 No special actions if energy rises.
 Inv3:  Mode=1 IEnd=     8659803.
 Iteration    1 A*A^-1 deviation from unit magnitude is 6.55D-15 for   1329.
 Iteration    1 A*A^-1 deviation from orthogonality  is 3.50D-15 for   1524    906.
 Iteration    1 A^-1*A deviation from unit magnitude is 6.33D-15 for    309.
 Iteration    1 A^-1*A deviation from orthogonality  is 3.33D-15 for   1590      8.
 Error on total polarization charges =  0.00923
 SCF Done:  E(RB3LYP) =  -347.802009008     A.U. after    9 cycles
            NFock=  9  Conv=0.30D-08     -V/T= 2.0099
 QCSCF skips out because SCF is already converged.
 D1PCM: PCM CHGder 1st derivatives, ID1Alg=3 FixD1E=F DoIter=F DoCFld=F I1PDM=0.
 Calling FoFJK, ICntrl=      2127 FMM=F ISym2X=0 I1Cent= 0 IOpClX= 0 NMat=1 NMatS=1 NMatT=0.
 ***** Axes restored to original set *****
 -------------------------------------------------------------------
 Center     Atomic                   Forces (Hartrees/Bohr)
 Number     Number              X              Y              Z
 -------------------------------------------------------------------
      1        7           0.001435834   -0.000179845    0.000823112
      2        6          -0.000239655    0.001452433   -0.000848155
      3        6          -0.000631255   -0.001303802    0.000337964
      4        6          -0.000147989    0.000938505   -0.000499334
      5        6          -0.000019590   -0.000680968   -0.000169172
      6        6           0.000356615   -0.000289980   -0.000392375
      7        6          -0.000277726    0.000701217   -0.000745707
      8        7          -0.000564997    0.000016453    0.001048937
      9        1          -0.000042047    0.000137925    0.000048810
     10        1           0.000046185    0.000063495   -0.000151369
     11        1          -0.000081360   -0.000228527    0.000341515
     12        1           0.000105117   -0.000417007   -0.000011449
     13        1          -0.000054237    0.000214164    0.000027274
     14        1           0.000043278    0.000099185   -0.000202154
     15        1           0.000047359   -0.000364857   -0.000023269
     16        1          -0.000044895   -0.000126073    0.000154621
     17        1          -0.000205261    0.000390108    0.000023818
     18        1           0.000096247   -0.000036858    0.000160311
     19        1           0.000055934   -0.000063441   -0.000145502
     20        1          -0.000024380   -0.000181678    0.000110820
     21        1          -0.000052250   -0.000020785    0.000066494
     22        1           0.000165753   -0.000286424    0.000129050
     23        1          -0.000036490    0.000103719   -0.000122645
     24        1           0.000069811    0.000063042    0.000038404
 -------------------------------------------------------------------
 Cartesian Forces:  Max     0.001452433 RMS     0.000434523

 GradGradGradGradGradGradGradGradGradGradGradGradGradGradGradGradGradGrad
 Berny optimization.
 Using GEDIIS/GDIIS optimizer.
 FormGI is forming the generalized inverse of G from B-inverse, IUseBI=4.
 Internal  Forces:  Max     0.001929893 RMS     0.000323691
 Search for a local minimum.
 Step number   2 out of a maximum of  132
 All quantities printed in internal units (Hartrees-Bohrs-Radians)
 Mixed Optimization -- En-DIIS/RFO-DIIS
 Update second derivatives using D2CorX and points    1    2
 DE= -3.17D-03 DEPred=-3.05D-03 R= 1.04D+00
 TightC=F SS=  1.41D+00  RLast= 2.04D-01 DXNew= 5.0454D-01 6.1100D-01
 Trust test= 1.04D+00 RLast= 2.04D-01 DXMaxT set to 5.05D-01
 ITU=  1  0
 Use linear search instead of GDIIS.
     Eigenvalues ---    0.00184   0.00226   0.00272   0.00274   0.00282
     Eigenvalues ---    0.00348   0.00402   0.03123   0.03249   0.03386
     Eigenvalues ---    0.03561   0.03799   0.03909   0.03976   0.04045
     Eigenvalues ---    0.04111   0.04167   0.04633   0.04656   0.04996
     Eigenvalues ---    0.05177   0.06632   0.06974   0.07170   0.07469
     Eigenvalues ---    0.08089   0.08360   0.09451   0.10549   0.11432
     Eigenvalues ---    0.12381   0.12880   0.13690   0.14561   0.14674
     Eigenvalues ---    0.16413   0.18479   0.18596   0.19330   0.22411
     Eigenvalues ---    0.22572   0.24419   0.24593   0.27532   0.28028
     Eigenvalues ---    0.29037   0.31064   0.32230   0.32703   0.32761
     Eigenvalues ---    0.32803   0.32923   0.33108   0.33191   0.33306
     Eigenvalues ---    0.33415   0.33487   0.33732   0.34042   0.34194
     Eigenvalues ---    0.37314   0.38287   0.43987   0.44089   0.44139
     Eigenvalues ---    0.44443
 RFO step:  Lambda=-1.79797510D-04 EMin= 1.83570665D-03
 Quartic linear search produced a step of  0.11288.
 Iteration  1 RMS(Cart)=  0.06476333 RMS(Int)=  0.00136114
 Iteration  2 RMS(Cart)=  0.00194382 RMS(Int)=  0.00001754
 Iteration  3 RMS(Cart)=  0.00000139 RMS(Int)=  0.00001752
 Iteration  4 RMS(Cart)=  0.00000000 RMS(Int)=  0.00001752
 Variable       Old X    -DE/DX   Delta X   Delta X   Delta X     New X
                                 (Linear)    (Quad)   (Total)
    R1        2.77663   0.00122   0.00230  -0.00001   0.00229   2.77893
    R2        1.92639  -0.00003  -0.00000   0.00028   0.00028   1.92667
    R3        1.92637  -0.00002  -0.00000   0.00033   0.00032   1.92669
    R4        2.90050   0.00073   0.00136  -0.00040   0.00095   2.90146
    R5        2.07429   0.00004   0.00049  -0.00006   0.00044   2.07472
    R6        2.07429   0.00004   0.00049  -0.00003   0.00046   2.07475
    R7        2.89881   0.00038   0.00062  -0.00064  -0.00001   2.89880
    R8        2.07773   0.00000   0.00047  -0.00013   0.00034   2.07807
    R9        2.07780  -0.00001   0.00047  -0.00021   0.00026   2.07806
   R10        2.90117   0.00022   0.00109  -0.00117  -0.00009   2.90109
   R11        2.07515   0.00004   0.00051  -0.00045   0.00006   2.07521
   R12        2.07755   0.00004   0.00059  -0.00028   0.00031   2.07786
   R13        2.90519   0.00020   0.00092  -0.00160  -0.00069   2.90451
   R14        2.07482   0.00000   0.00012   0.00000   0.00012   2.07494
   R15        2.07643   0.00000   0.00055   0.00013   0.00068   2.07710
   R16        2.90898   0.00052   0.00179   0.00013   0.00192   2.91090
   R17        2.07682   0.00003   0.00029  -0.00031  -0.00002   2.07680
   R18        2.07726   0.00009   0.00041  -0.00027   0.00015   2.07741
   R19        2.77772   0.00088   0.00262  -0.00069   0.00193   2.77965
   R20        2.07182   0.00002   0.00037   0.00015   0.00052   2.07235
   R21        2.07308   0.00003   0.00027  -0.00021   0.00006   2.07314
   R22        1.92428   0.00000  -0.00006   0.00019   0.00013   1.92441
   R23        1.92650  -0.00003   0.00003   0.00022   0.00026   1.92676
    A1        1.89759   0.00006  -0.00180   0.00110  -0.00073   1.89687
    A2        1.89754   0.00007  -0.00180   0.00121  -0.00062   1.89692
    A3        1.83239  -0.00014  -0.00185  -0.00093  -0.00284   1.82955
    A4        2.01316   0.00193   0.00844   0.00078   0.00918   2.02235
    A5        1.88290  -0.00059  -0.00202   0.00073  -0.00133   1.88157
    A6        1.88292  -0.00059  -0.00202   0.00099  -0.00107   1.88185
    A7        1.90913  -0.00043  -0.00173   0.00116  -0.00060   1.90853
[...]
    12  H    0.000000   0.000002   0.000025   0.000000   0.000020   0.000000
    13  H    0.000032   0.000072   0.000021   0.000001   0.000045   0.000002
    14  H    0.000070   0.000071   0.000181   0.000003   0.001528   0.000042
    15  H    0.001853   0.004634   0.035138   0.001782   0.027690   0.001766
    16  H    0.001207   0.012018   0.004508   0.000300   0.000893   0.000086
    17  H    0.013853   0.007507   0.001463   0.000333   0.003662   0.001477
    18  H    0.022902   0.011743   0.009173   0.002271   0.103436   0.027828
    19  H    0.704439  -0.006580   0.012482   0.012762   0.015459   0.039346
    20  H   -0.006580   0.611683   0.007691   0.006996   0.002842   0.002631
    21  H    0.012482   0.007691   0.664343   0.009943   0.055164   0.026317
    22  H    0.012762   0.006996   0.009943   0.649069   0.028443   0.038366
    23  H    0.015459   0.002842   0.055164   0.028443   1.202857   0.286419
    24  H    0.039346   0.002631   0.026317   0.038366   0.286419   0.930328
 Mulliken charges:
               1
     1  N   -0.640321
     2  C   -0.059948
     3  C   -0.178558
     4  C   -0.136180
     5  C   -0.119215
     6  C   -0.171190
     7  C   -0.108832
     8  N   -0.084737
     9  H    0.246925
    10  H    0.247280
    11  H    0.097124
    12  H    0.096567
    13  H    0.081551
    14  H    0.071994
    15  H    0.015275
    16  H    0.066048
    17  H    0.057326
    18  H   -0.013067
    19  H    0.083686
    20  H    0.125159
    21  H    0.113941
    22  H    0.127924
    23  H   -0.013068
    24  H    0.094314
 Sum of Mulliken charges =  -0.00000
 Mulliken charges with hydrogens summed into heavy atoms:
               1
     1  N   -0.146116
     2  C    0.133744
     3  C   -0.025012
     4  C   -0.054857
     5  C   -0.074956
     6  C    0.037655
     7  C    0.133032
     8  N   -0.003490
 Electronic spatial extent (au):  <R**2>=           1954.8438
 Charge=             -0.0000 electrons
 Dipole moment (field-independent basis, Debye):
    X=              3.9772    Y=              0.8473    Z=             -0.1007  Tot=              4.0677
 Quadrupole moment (field-independent basis, Debye-Ang):
   XX=            -55.1273   YY=            -53.8991   ZZ=            -54.4397
   XY=             -4.0778   XZ=              7.9189   YZ=              1.1272
 Traceless Quadrupole moment (field-independent basis, Debye-Ang):
   XX=             -0.6386   YY=              0.5896   ZZ=              0.0490
   XY=             -4.0778   XZ=              7.9189   YZ=              1.1272
 Octapole moment (field-independent basis, Debye-Ang**2):
  XXX=             76.8917  YYY=             -0.2167  ZZZ=              4.1744  XYY=             -3.3618
  XXY=             12.2665  XXZ=            -22.9381  XZZ=             -4.0959  YZZ=              0.0358
  YYZ=              0.2922  XYZ=             -2.8675
 Hexadecapole moment (field-independent basis, Debye-Ang**3):
 XXXX=          -2420.9288 YYYY=           -268.5259 ZZZZ=           -194.7066 XXXY=           -113.2589
 XXXZ=            146.7502 YYYX=              2.9073 YYYZ=              1.0194 ZZZX=             19.0955
 ZZZY=              1.1071 XXYY=           -388.9452 XXZZ=           -374.9316 YYZZ=            -74.8943
 XXYZ=             21.6859 YYXZ=              9.7624 ZZXY=              2.8010
 N-N= 3.857269974594D+02 E-N=-1.576193042894D+03  KE= 3.445192262407D+02
 Evaluate density.
 Using the total density.
 Monte-Carlo method of calculating molar volume:
 based on  0.001 e/bohr**3 density envelope.
 Number of points per bohr**3 =   20 CutOff= 1.00D-04
 Using the CI density.
 There are       369 points.  Will hold       369 in memory.
 LenV=  1073626348 MDV=  1073741824.
 Box volume = 6308.855 fraction occupied=0.182
 Integrated density= 3.2100814931689911D+01 error=-3.3899185068310089D+01
 Molar volume = 1145.510 bohr**3/mol (102.224 cm**3/mol)
 Recommended a0 for SCRF calculation =  4.28 angstrom (  8.09 bohr)
 ******************************Gaussian NBO Version 3.1******************************
             N A T U R A L   A T O M I C   O R B I T A L   A N D
          N A T U R A L   B O N D   O R B I T A L   A N A L Y S I S
 ******************************Gaussian NBO Version 3.1******************************
       /RESON  / : Allow strongly delocalized NBO set

 Analyzing the CI density

 Job title: NAQMVNRVTILPCV-UHFFFAOYSA-N_conf_2                              

 Storage needed:    121952 in NPA (1073738704 available)
 GSVD:  LWork=       21190 too small for GESVD, short by       15575 words or       15575 for optimal perf.


 NATURAL POPULATIONS:  Natural atomic orbital occupancies 
                                                          
   NAO  Atom  No  lang   Type(AO)    Occupancy
 --------------------------------------------
     1    N    1  S      Cor( 1S)     1.99971
     2    N    1  S      Val( 2S)     1.44426
     3    N    1  S      Ryd( 3S)     0.00027
     4    N    1  S      Ryd( 4S)     0.00001
     5    N    1  px     Val( 2p)     1.50478
     6    N    1  px     Ryd( 3p)     0.00451
     7    N    1  py     Val( 2p)     1.42322
     8    N    1  py     Ryd( 3p)     0.00225
     9    N    1  pz     Val( 2p)     1.53787
    10    N    1  pz     Ryd( 3p)     0.00352
    11    N    1  dxy    Ryd( 3d)     0.00053
    12    N    1  dxz    Ryd( 3d)     0.00100
    13    N    1  dyz    Ryd( 3d)     0.00124
    14    N    1  dx2y2  Ryd( 3d)     0.00098
    15    N    1  dz2    Ryd( 3d)     0.00085

    16    C    2  S      Cor( 1S)     1.99936
    17    C    2  S      Val( 2S)     1.01810
    18    C    2  S      Ryd( 3S)     0.00156
    19    C    2  S      Ryd( 4S)     0.00004
    20    C    2  px     Val( 2p)     0.90469
    21    C    2  px     Ryd( 3p)     0.00488
    22    C    2  py     Val( 2p)     1.22051
    23    C    2  py     Ryd( 3p)     0.00264
    24    C    2  pz     Val( 2p)     1.10322
    25    C    2  pz     Ryd( 3p)     0.00105
    26    C    2  dxy    Ryd( 3d)     0.00068
    27    C    2  dxz    Ryd( 3d)     0.00107
    28    C    2  dyz    Ryd( 3d)     0.00105
    29    C    2  dx2y2  Ryd( 3d)     0.00133
    30    C    2  dz2    Ryd( 3d)     0.00074

    31    C    3  S      Cor( 1S)     1.99932
    32    C    3  S      Val( 2S)     1.04269
    33    C    3  S      Ryd( 3S)     0.00094
    34    C    3  S      Ryd( 4S)     0.00002
    35    C    3  px     Val( 2p)     1.05003
    36    C    3  px     Ryd( 3p)     0.00289
    37    C    3  py     Val( 2p)     1.22112
    38    C    3  py     Ryd( 3p)     0.00270
    39    C    3  pz     Val( 2p)     1.15756
    40    C    3  pz     Ryd( 3p)     0.00222
    41    C    3  dxy    Ryd( 3d)     0.00041
    42    C    3  dxz    Ryd( 3d)     0.00065
    43    C    3  dyz    Ryd( 3d)     0.00099
    44    C    3  dx2y2  Ryd( 3d)     0.00071
    45    C    3  dz2    Ryd( 3d)     0.00035

    46    C    4  S      Cor( 1S)     1.99933
    47    C    4  S      Val( 2S)     1.04224
    48    C    4  S      Ryd( 3S)     0.00111
    49    C    4  S      Ryd( 4S)     0.00003
    50    C    4  px     Val( 2p)     1.04074
    51    C    4  px     Ryd( 3p)     0.00359
    52    C    4  py     Val( 2p)     1.22631
    53    C    4  py     Ryd( 3p)     0.00288
    54    C    4  pz     Val( 2p)     1.15103
    55    C    4  pz     Ryd( 3p)     0.00325
    56    C    4  dxy    Ryd( 3d)     0.00038
    57    C    4  dxz    Ryd( 3d)     0.00064
    58    C    4  dyz    Ryd( 3d)     0.00098
    59    C    4  dx2y2  Ryd( 3d)     0.00073
    60    C    4  dz2    Ryd( 3d)     0.00038

    61    C    5  S      Cor( 1S)     1.99932
    62    C    5  S      Val( 2S)     1.04447
    63    C    5  S      Ryd( 3S)     0.00093
    64    C    5  S      Ryd( 4S)     0.00004
    65    C    5  px     Val( 2p)     1.02668
    66    C    5  px     Ryd( 3p)     0.00228
    67    C    5  py     Val( 2p)     1.22487
    68    C    5  py     Ryd( 3p)     0.00370
    69    C    5  pz     Val( 2p)     1.16419
    70    C    5  pz     Ryd( 3p)     0.00421
    71    C    5  dxy    Ryd( 3d)     0.00044
    72    C    5  dxz    Ryd( 3d)     0.00066
    73    C    5  dyz    Ryd( 3d)     0.00092
    74    C    5  dx2y2  Ryd( 3d)     0.00075
    75    C    5  dz2    Ryd( 3d)     0.00035

    76    C    6  S      Cor( 1S)     1.99926
    77    C    6  S      Val( 2S)     1.05031
    78    C    6  S      Ryd( 3S)     0.00076
    79    C    6  S      Ryd( 4S)     0.00002
    80    C    6  px     Val( 2p)     1.10426
    81    C    6  px     Ryd( 3p)     0.00229
    82    C    6  py     Val( 2p)     1.07383
    83    C    6  py     Ryd( 3p)     0.00173
    84    C    6  pz     Val( 2p)     1.21235
    85    C    6  pz     Ryd( 3p)     0.00283
    86    C    6  dxy    Ryd( 3d)     0.00064
    87    C    6  dxz    Ryd( 3d)     0.00077
    88    C    6  dyz    Ryd( 3d)     0.00086
    89    C    6  dx2y2  Ryd( 3d)     0.00054
    90    C    6  dz2    Ryd( 3d)     0.00038

    91    C    7  S      Cor( 1S)     1.99933
    92    C    7  S      Val( 2S)     1.05286
    93    C    7  S      Ryd( 3S)     0.00155
    94    C    7  S      Ryd( 4S)     0.00004
    95    C    7  px     Val( 2p)     1.21981
    96    C    7  px     Ryd( 3p)     0.00322
    97    C    7  py     Val( 2p)     0.98554
    98    C    7  py     Ryd( 3p)     0.00378
    99    C    7  pz     Val( 2p)     1.08805
   100    C    7  pz     Ryd( 3p)     0.00703
   101    C    7  dxy    Ryd( 3d)     0.00075
   102    C    7  dxz    Ryd( 3d)     0.00100
   103    C    7  dyz    Ryd( 3d)     0.00147
   104    C    7  dx2y2  Ryd( 3d)     0.00083
   105    C    7  dz2    Ryd( 3d)     0.00045

   106    N    8  S      Cor( 1S)     1.99935
   107    N    8  S      Val( 2S)     1.48250
   108    N    8  S      Ryd( 3S)     0.01453
   109    N    8  S      Ryd( 4S)     0.00000
   110    N    8  px     Val( 2p)     1.36554
   111    N    8  px     Ryd( 3p)     0.00126
   112    N    8  py     Val( 2p)     1.17669
   113    N    8  py     Ryd( 3p)     0.00000
   114    N    8  pz     Val( 2p)     1.33205
   115    N    8  pz     Ryd( 3p)     0.00578
   116    N    8  dxy    Ryd( 3d)     0.00009
   117    N    8  dxz    Ryd( 3d)     0.00061
   118    N    8  dyz    Ryd( 3d)     0.00042
   119    N    8  dx2y2  Ryd( 3d)     0.00045
   120    N    8  dz2    Ryd( 3d)     0.00030

   121    H    9  S      Val( 1S)     0.61498
   122    H    9  S      Ryd( 2S)     0.00156
   123    H    9  px     Ryd( 2p)     0.00040
   124    H    9  py     Ryd( 2p)     0.00054
   125    H    9  pz     Ryd( 2p)     0.00049

   126    H   10  S      Val( 1S)     0.61484
   127    H   10  S      Ryd( 2S)     0.00153
   128    H   10  px     Ryd( 2p)     0.00038
   129    H   10  py     Ryd( 2p)     0.00044
   130    H   10  pz     Ryd( 2p)     0.00061

   131    H   11  S      Val( 1S)     0.77675
   132    H   11  S      Ryd( 2S)     0.00173
   133    H   11  px     Ryd( 2p)     0.00007
   134    H   11  py     Ryd( 2p)     0.00021
   135    H   11  pz     Ryd( 2p)     0.00027

   136    H   12  S      Val( 1S)     0.77691
   137    H   12  S      Ryd( 2S)     0.00210
   138    H   12  px     Ryd( 2p)     0.00009
   139    H   12  py     Ryd( 2p)     0.00032
   140    H   12  pz     Ryd( 2p)     0.00014

   141    H   13  S      Val( 1S)     0.77304
   142    H   13  S      Ryd( 2S)     0.00325
   143    H   13  px     Ryd( 2p)     0.00012
   144    H   13  py     Ryd( 2p)     0.00030
   145    H   13  pz     Ryd( 2p)     0.00014

   146    H   14  S      Val( 1S)     0.77701
   147    H   14  S      Ryd( 2S)     0.00677
   148    H   14  px     Ryd( 2p)     0.00010
   149    H   14  py     Ryd( 2p)     0.00020
   150    H   14  pz     Ryd( 2p)     0.00026

   151    H   15  S      Val( 1S)     0.80018
   152    H   15  S      Ryd( 2S)     0.02736
   153    H   15  px     Ryd( 2p)     0.00013
   154    H   15  py     Ryd( 2p)     0.00029
   155    H   15  pz     Ryd( 2p)     0.00014

   156    H   16  S      Val( 1S)     0.77536
   157    H   16  S      Ryd( 2S)     0.00648
   158    H   16  px     Ryd( 2p)     0.00010
   159    H   16  py     Ryd( 2p)     0.00020
   160    H   16  pz     Ryd( 2p)     0.00025

   161    H   17  S      Val( 1S)     0.77513
   162    H   17  S      Ryd( 2S)     0.00994
   163    H   17  px     Ryd( 2p)     0.00012
   164    H   17  py     Ryd( 2p)     0.00028
   165    H   17  pz     Ryd( 2p)     0.00016

   166    H   18  S      Val( 1S)     0.81023
   167    H   18  S      Ryd( 2S)     0.03558
   168    H   18  px     Ryd( 2p)     0.00010
   169    H   18  py     Ryd( 2p)     0.00023
   170    H   18  pz     Ryd( 2p)     0.00024

   171    H   19  S      Val( 1S)     0.75668
   172    H   19  S      Ryd( 2S)     0.01628
   173    H   19  px     Ryd( 2p)     0.00020
   174    H   19  py     Ryd( 2p)     0.00016
   175    H   19  pz     Ryd( 2p)     0.00020

   176    H   20  S      Val( 1S)     0.73748
   177    H   20  S      Ryd( 2S)     0.00508
   178    H   20  px     Ryd( 2p)     0.00011
   179    H   20  py     Ryd( 2p)     0.00023
   180    H   20  pz     Ryd( 2p)     0.00022

   181    H   21  S      Val( 1S)     0.74744
   182    H   21  S      Ryd( 2S)     0.01720
   183    H   21  px     Ryd( 2p)     0.00019
   184    H   21  py     Ryd( 2p)     0.00011
   185    H   21  pz     Ryd( 2p)     0.00024

   186    H   22  S      Val( 1S)     0.73522
   187    H   22  S      Ryd( 2S)     0.01221
   188    H   22  px     Ryd( 2p)     0.00028
   189    H   22  py     Ryd( 2p)     0.00010
   190    H   22  pz     Ryd( 2p)     0.00017

   191    H   23  S      Val( 1S)     0.74050
   192    H   23  S      Ryd( 2S)     0.08461
   193    H   23  px     Ryd( 2p)     0.00065
   194    H   23  py     Ryd( 2p)     0.00017
   195    H   23  pz     Ryd( 2p)     0.00031

   196    H   24  S      Val( 1S)     0.67021
   197    H   24  S      Ryd( 2S)     0.06374
   198    H   24  px     Ryd( 2p)     0.00034
   199    H   24  py     Ryd( 2p)     0.00036
   200    H   24  pz     Ryd( 2p)     0.00051


 Summary of Natural Population Analysis:                  
                                                          
                                       Natural Population 
                Natural  -----------------------------------------------
    Atom  No    Charge         Core      Valence    Rydberg      Total
 -----------------------------------------------------------------------
      N    1   -0.92498      1.99971     5.91013    0.01515     7.92498
      C    2   -0.26092      1.99936     4.24652    0.01504     6.26092
      C    3   -0.48260      1.99932     4.47140    0.01188     6.48260
      C    4   -0.47363      1.99933     4.46032    0.01398     6.47363
      C    5   -0.47380      1.99932     4.46021    0.01427     6.47380
      C    6   -0.45084      1.99926     4.44075    0.01083     6.45084
      C    7   -0.36570      1.99933     4.34626    0.02011     6.36570
      N    8   -0.37956      1.99935     5.35678    0.02343     7.37956
      H    9    0.38204      0.00000     0.61498    0.00298     0.61796
      H   10    0.38220      0.00000     0.61484    0.00296     0.61780
      H   11    0.22097      0.00000     0.77675    0.00229     0.77903
      H   12    0.22044      0.00000     0.77691    0.00266     0.77956
      H   13    0.22316      0.00000     0.77304    0.00380     0.77684
      H   14    0.21566      0.00000     0.77701    0.00732     0.78434
      H   15    0.17189      0.00000     0.80018    0.02792     0.82811
      H   16    0.21761      0.00000     0.77536    0.00703     0.78239
      H   17    0.21437      0.00000     0.77513    0.01050     0.78563
      H   18    0.15361      0.00000     0.81023    0.03616     0.84639
      H   19    0.22647      0.00000     0.75668    0.01685     0.77353
      H   20    0.25689      0.00000     0.73748    0.00563     0.74311
      H   21    0.23481      0.00000     0.74744    0.01774     0.76519
      H   22    0.25202      0.00000     0.73522    0.01275     0.74798
      H   23    0.17376      0.00000     0.74050    0.08574     0.82624
      H   24    0.26484      0.00000     0.67021    0.06495     0.73516
 =======================================================================
   * Total *   -0.00131     15.99498    49.57433    0.43200    66.00131

                                 Natural Population      
 --------------------------------------------------------
   Core                      15.99498 ( 99.9686% of  16)
   Valence                   49.57433 ( 99.1487% of  50)
   Natural Minimal Basis     65.56931 ( 99.3474% of  66)
   Natural Rydberg Basis      0.43200 (  0.6546% of  66)
 --------------------------------------------------------

    Atom  No          Natural Electron Configuration
 ----------------------------------------------------------------------------
      N    1      [core]2S( 1.44)2p( 4.47)3p( 0.01)
      C    2      [core]2S( 1.02)2p( 3.23)3p( 0.01)
      C    3      [core]2S( 1.04)2p( 3.43)3p( 0.01)
      C    4      [core]2S( 1.04)2p( 3.42)3p( 0.01)
      C    5      [core]2S( 1.04)2p( 3.42)3p( 0.01)
      C    6      [core]2S( 1.05)2p( 3.39)3p( 0.01)
      C    7      [core]2S( 1.05)2p( 3.29)3p( 0.01)
      N    8      [core]2S( 1.48)2p( 3.87)3S( 0.01)3p( 0.01)
      H    9            1S( 0.61)
      H   10            1S( 0.61)
      H   11            1S( 0.78)
      H   12            1S( 0.78)
      H   13            1S( 0.77)
      H   14            1S( 0.78)2S( 0.01)
      H   15            1S( 0.80)2S( 0.03)
      H   16            1S( 0.78)2S( 0.01)
      H   17            1S( 0.78)2S( 0.01)
      H   18            1S( 0.81)2S( 0.04)
      H   19            1S( 0.76)2S( 0.02)
      H   20            1S( 0.74)2S( 0.01)
      H   21            1S( 0.75)2S( 0.02)
      H   22            1S( 0.74)2S( 0.01)
      H   23            1S( 0.74)2S( 0.08)
      H   24            1S( 0.67)2S( 0.06)


 NBO analysis skipped by request.
 1\1\GINC-CN33\SP\RB3LYP TD-FC\6-31G(d,p)\C6H16N2\QDUEZ\09-Jul-2024\0\\
 # TD(NStates=10, Root=1) B3LYP/6-31G** SCRF=(Solvent=water) volume pop
 =NPA density=current Geom=AllCheck Guess=Read\\NAQMVNRVTILPCV-UHFFFAOY
 SA-N_conf_2\\0,1\N,0,3.9396640771,0.9770247096,1.0127881157\C,0,2.7810
 021668,0.0865370118,0.84681941\C,0,1.6107951156,0.6530624281,0.0299305
 642\C,0,0.4349248034,-0.3224125958,-0.1080926352\C,0,-0.7306310981,0.2
 476530146,-0.9285259862\C,0,-1.9008786396,-0.7259935115,-1.1430624543\
 C,0,-2.6834717511,-1.1108795261,0.1265840922\N,0,-3.3601831182,-0.0162
 636597,0.838986625\H,0,4.2778245751,1.2488348376,0.0901711403\H,0,3.62
 49271944,1.8464676919,1.4422641822\H,0,3.1351710714,-0.8414003627,0.37
 89716338\H,0,2.4250644082,-0.1911441382,1.8476133271\H,0,1.9758153397,
 0.9327432667,-0.9689463588\H,0,1.2637742112,1.5831511357,0.502893516\H
 ,0,0.086485745,-0.6046414052,0.8945284736\H,0,0.7864043711,-1.25127658
 71,-0.5798950431\H,0,-0.3518139061,0.5602079413,-1.9104978659\H,0,-1.0
 996333828,1.1649014812,-0.4483728956\H,0,-2.6058453057,-0.2827413208,-
 1.8602152868\H,0,-1.5245390916,-1.6458631643,-1.6128764093\H,0,-2.0185
 338734,-1.6101203076,0.8416062628\H,0,-3.4457693746,-1.8510557558,-0.1
 464805157\H,0,-2.6687862066,0.6619910042,1.1537414761\H,0,-3.951767331
 2,0.4912178121,0.1817145606\\Version=EM64L-G16RevA.03\State=1-A\HF=-34
 7.8021143\RMSD=4.537e-09\Dipole=-1.4705142,-0.3343998,-0.5356598\Quadr
 upole=-1.2447912,2.3276239,-1.0828327,4.5449568,-4.431915,0.6305336\PG
 =C01 [X(C6H16N2)]\\@


 LAWS OF PROGRAMMING DEFINITION:  A WORKING PROGRAM
                                  IS ONE THAT HAS
                                  ONLY UNOBSERVED
                                  BUGS.
 Job cpu time:       0 days  0 hours 57 minutes  0.4 seconds.
 Elapsed time:       0 days  0 hours 25 minutes 32.1 seconds.
 File lengths (MBytes):  RWF=    379 Int=      0 D2E=      0 Chk=     24 Scr=      1
 Normal termination of Gaussian 16 at Tue Jul  9 19:03:25 2024.
