 Entering Gaussian System, Link 0=g16
 Initial command:
 /opt/sw/arch/manual/gaussian/G16_A03/g16/l1.exe "/scratch/1032045.jesse.materianova.be/Gau-73124.inp" -scrdir="/scratch/1032045.jesse.materianova.be/"
 Entering Link 1 = /opt/sw/arch/manual/gaussian/G16_A03/g16/l1.exe PID=     73130.
  
 Copyright (c) 1988,1990,1992,1993,1995,1998,2003,2009,2016,
            Gaussian, Inc.  All Rights Reserved.
  
 This is part of the Gaussian(R) 16 program.  It is based on
 the Gaussian(R) 09 system (copyright 2009, Gaussian, Inc.),
 the Gaussian(R) 03 system (copyright 2003, Gaussian, Inc.),
 the Gaussian(R) 98 system (copyright 1998, Gaussian, Inc.),
 the Gaussian(R) 94 system (copyright 1995, Gaussian, Inc.),
 the Gaussian 92(TM) system (copyright 1992, Gaussian, Inc.),
 the Gaussian 90(TM) system (copyright 1990, Gaussian, Inc.),
 the Gaussian 88(TM) system (copyright 1988, Gaussian, Inc.),
 the Gaussian 86(TM) system (copyright 1986, Carnegie Mellon
 University), and the Gaussian 82(TM) system (copyright 1983,
 Carnegie Mellon University). Gaussian is a federally registered
 trademark of Gaussian, Inc.
  
 This software contains proprietary and confidential information,
 including trade secrets, belonging to Gaussian, Inc.
  
 This software is provided under written license and may be
 used, copied, transmitted, or stored only in accord with that
 written license.
  
 The following legend is applicable only to US Government
 contracts under FAR:
  
                    RESTRICTED RIGHTS LEGEND
  
 Use, reproduction and disclosure by the US Government is
 subject to restrictions as set forth in subparagraphs (a)
 and (c) of the Commercial Computer Software - Restricted
 Rights clause in FAR 52.227-19.
  
 Gaussian, Inc.
 340 Quinnipiac St., Bldg. 40, Wallingford CT 06492
  
  
 ---------------------------------------------------------------
 Warning -- This program may not be used in any manner that
 competes with the business of Gaussian, Inc. or will provide
 assistance to any competitor of Gaussian, Inc.  The licensee
 of this program is prohibited from giving any competitor of
 Gaussian, Inc. access to this program.  By using this program,
 the user acknowledges that Gaussian, Inc. is engaged in the
 business of creating and licensing software in the field of
 computational chemistry and represents and warrants to the
 licensee that it is not a competitor of Gaussian, Inc. and that
 it will not use this program in any manner prohibited above.
 ---------------------------------------------------------------
  

 Cite this work as:
 Gaussian 16, Revision A.03,
 M. J. Frisch, G. W. Trucks, H. B. Schlegel, G. E. Scuseria, 
 M. A. Robb, J. R. Cheeseman, G. Scalmani, V. Barone, 
 G. A. Petersson, H. Nakatsuji, X. Li, M. Caricato, A. V. Marenich, 
 J. Bloino, B. G. Janesko, R. Gomperts, B. Mennucci, H. P. Hratchian, 
 J. V. Ortiz, A. F. Izmaylov, J. L. Sonnenberg, D. Williams-Young, 
 F. Ding, F. Lipparini, F. Egidi, J. Goings, B. Peng, A. Petrone, 
 T. Henderson, D. Ranasinghe, V. G. Zakrzewski, J. Gao, N. Rega, 
 G. Zheng, W. Liang, M. Hada, M. Ehara, K. Toyota, R. Fukuda, 
 J. Hasegawa, M. Ishida, T. Nakajima, Y. Honda, O. Kitao, H. Nakai, 
 T. Vreven, K. Throssell, J. A. Montgomery, Jr., J. E. Peralta, 
 F. Ogliaro, M. J. Bearpark, J. J. Heyd, E. N. Brothers, K. N. Kudin, 
 V. N. Staroverov, T. A. Keith, R. Kobayashi, J. Normand, 
 K. Raghavachari, A. P. Rendell, J. C. Burant, S. S. Iyengar, 
 J. Tomasi, M. Cossi, J. M. Millam, M. Klene, C. Adamo, R. Cammi, 
 J. W. Ochterski, R. L. Martin, K. Morokuma, O. Farkas, 
 J. B. Foresman, and D. J. Fox, Gaussian, Inc., Wallingford CT, 2016.
 
 ******************************************
 Gaussian 16:  EM64L-G16RevA.03 25-Dec-2016
                11-Jul-2024 
 ******************************************
 %nprocshared=3
 Will use up to    3 processors via shared memory.
 %mem=6GB
 %Chk=GVOYKJPMUUJXBS-UHFFFAOYSA-N_conf_2_0.chk
 -------------------------------------------------------
 # opt=CalcFc B3LYP/6-31G** SCRF=(Solvent=water) scf=xqc
 -------------------------------------------------------
 1/10=4,18=20,19=15,26=3,38=1/1,3;
 2/9=110,12=2,17=6,18=5,40=1/2;
 3/5=1,6=6,7=101,11=2,25=1,30=1,70=2201,71=2,72=1,74=-5,140=1/1,2,3;
 4//1;
 5/5=2,8=3,13=1,38=5,53=1/2,8;
 8/6=4,10=90,11=11/1;
 11/6=1,8=1,9=11,15=111,16=1/1,2,10;
 10/6=1,13=1/2;
 6/7=2,8=2,9=2,10=2,28=1/1;
 7/10=1,18=20,25=1/1,2,3,16;
 1/10=4,18=20,19=15,26=3/3(2);
 2/9=110/2;
 99//99;
 2/9=110/2;
 3/5=1,6=6,7=101,11=2,25=1,30=1,70=2205,71=1,72=1,74=-5/1,2,3;
 4/5=5,16=3,69=1/1;
 5/5=2,8=3,13=1,38=5,53=1/2,8;
 7//1,2,3,16;
 1/18=20,19=15,26=3/3(-5);
 2/9=110/2;
 6/7=2,8=2,9=2,10=2,19=2,28=1/1;
 99/9=1/99;
 ----------------------------------
 GVOYKJPMUUJXBS-UHFFFAOYSA-N_conf_2
 ----------------------------------
 Symbolic Z-matrix:
 Charge =  0 Multiplicity = 1
 N                     2.38458   0.84192   0.55716 
 C                     1.79746  -0.11329  -0.38651 
 C                     0.31707  -0.31279  -0.15403 
 C                    -0.16764  -1.60996   0.09457 
 C                    -1.53381  -1.84554   0.24971 
 C                    -2.43488  -0.79217   0.13727 
 C                    -1.96765   0.49917  -0.10911 
 C                    -0.59549   0.76015  -0.20473 
 N                    -0.16592   2.05514  -0.55397 
 H                     2.21965   0.49455   1.50191 
 H                     3.39509   0.84349   0.42832 
 H                     1.95512   0.23734  -1.41287 
 H                     2.33127  -1.06601  -0.29186 
 H                     0.51914  -2.45122   0.15311 
 H                    -1.89512  -2.85341   0.43572 
 H                    -3.50209  -0.97443   0.22773 
 H                    -2.68456   1.30762  -0.22391 
 H                    -0.77463   2.7852   -0.20123 
 H                     0.80239   2.19423  -0.24727 
 

 GradGradGradGradGradGradGradGradGradGradGradGradGradGradGradGradGradGrad
 Berny optimization.
 Initialization pass.
                           ----------------------------
                           !    Initial Parameters    !
                           ! (Angstroms and Degrees)  !
 --------------------------                            --------------------------
 ! Name  Definition              Value          Derivative Info.                !
 --------------------------------------------------------------------------------
 ! R1    R(1,2)                  1.4655         calculate D2E/DX2 analytically  !
 ! R2    R(1,10)                 1.02           calculate D2E/DX2 analytically  !
 ! R3    R(1,11)                 1.0187         calculate D2E/DX2 analytically  !
 ! R4    R(2,3)                  1.5118         calculate D2E/DX2 analytically  !
 ! R5    R(2,12)                 1.096          calculate D2E/DX2 analytically  !
 ! R6    R(2,13)                 1.0962         calculate D2E/DX2 analytically  !
 ! R7    R(3,4)                  1.4069         calculate D2E/DX2 analytically  !
 ! R8    R(3,8)                  1.4094         calculate D2E/DX2 analytically  !
 ! R9    R(4,5)                  1.395          calculate D2E/DX2 analytically  !
 ! R10   R(4,14)                 1.0876         calculate D2E/DX2 analytically  !
 ! R11   R(5,6)                  1.3907         calculate D2E/DX2 analytically  !
 ! R12   R(5,15)                 1.0867         calculate D2E/DX2 analytically  !
 ! R13   R(6,7)                  1.3952         calculate D2E/DX2 analytically  !
 ! R14   R(6,16)                 1.0864         calculate D2E/DX2 analytically  !
 ! R15   R(7,8)                  1.4            calculate D2E/DX2 analytically  !
 ! R16   R(7,17)                 1.0866         calculate D2E/DX2 analytically  !
 ! R17   R(8,9)                  1.4084         calculate D2E/DX2 analytically  !
 ! R18   R(9,18)                 1.0139         calculate D2E/DX2 analytically  !
 ! R19   R(9,19)                 1.0252         calculate D2E/DX2 analytically  !
 ! A1    A(2,1,10)             108.039          calculate D2E/DX2 analytically  !
 ! A2    A(2,1,11)             108.4804         calculate D2E/DX2 analytically  !
 ! A3    A(10,1,11)            106.1453         calculate D2E/DX2 analytically  !
 ! A4    A(1,2,3)              112.2913         calculate D2E/DX2 analytically  !
 ! A5    A(1,2,12)             109.6857         calculate D2E/DX2 analytically  !
 ! A6    A(1,2,13)             108.4093         calculate D2E/DX2 analytically  !
 ! A7    A(3,2,12)             109.0925         calculate D2E/DX2 analytically  !
 ! A8    A(3,2,13)             110.4199         calculate D2E/DX2 analytically  !
 ! A9    A(12,2,13)            106.7897         calculate D2E/DX2 analytically  !
 ! A10   A(2,3,4)              119.0926         calculate D2E/DX2 analytically  !
 ! A11   A(2,3,8)              121.8726         calculate D2E/DX2 analytically  !
 ! A12   A(4,3,8)              119.0232         calculate D2E/DX2 analytically  !
 ! A13   A(3,4,5)              120.8481         calculate D2E/DX2 analytically  !
 ! A14   A(3,4,14)             120.3407         calculate D2E/DX2 analytically  !
 ! A15   A(5,4,14)             118.804          calculate D2E/DX2 analytically  !
 ! A16   A(4,5,6)              119.842          calculate D2E/DX2 analytically  !
 ! A17   A(4,5,15)             120.084          calculate D2E/DX2 analytically  !
 ! A18   A(6,5,15)             120.0597         calculate D2E/DX2 analytically  !
 ! A19   A(5,6,7)              119.8908         calculate D2E/DX2 analytically  !
 ! A20   A(5,6,16)             120.1744         calculate D2E/DX2 analytically  !
 ! A21   A(7,6,16)             119.9299         calculate D2E/DX2 analytically  !
 ! A22   A(6,7,8)              120.8514         calculate D2E/DX2 analytically  !
 ! A23   A(6,7,17)             119.1            calculate D2E/DX2 analytically  !
 ! A24   A(8,7,17)             120.0483         calculate D2E/DX2 analytically  !
 ! A25   A(3,8,7)              119.3545         calculate D2E/DX2 analytically  !
 ! A26   A(3,8,9)              120.7574         calculate D2E/DX2 analytically  !
 ! A27   A(7,8,9)              119.1621         calculate D2E/DX2 analytically  !
 ! A28   A(8,9,18)             113.1228         calculate D2E/DX2 analytically  !
 ! A29   A(8,9,19)             109.7947         calculate D2E/DX2 analytically  !
 ! A30   A(18,9,19)            111.4255         calculate D2E/DX2 analytically  !
 ! D1    D(10,1,2,3)            58.2327         calculate D2E/DX2 analytically  !
 ! D2    D(10,1,2,12)          179.7077         calculate D2E/DX2 analytically  !
 ! D3    D(10,1,2,13)          -64.0341         calculate D2E/DX2 analytically  !
 ! D4    D(11,1,2,3)           172.8903         calculate D2E/DX2 analytically  !
 ! D5    D(11,1,2,12)          -65.6346         calculate D2E/DX2 analytically  !
 ! D6    D(11,1,2,13)           50.6235         calculate D2E/DX2 analytically  !
 ! D7    D(1,2,3,4)           -123.0354         calculate D2E/DX2 analytically  !
 ! D8    D(1,2,3,8)             58.2123         calculate D2E/DX2 analytically  !
 ! D9    D(12,2,3,4)           115.1508         calculate D2E/DX2 analytically  !
 ! D10   D(12,2,3,8)           -63.6015         calculate D2E/DX2 analytically  !
 ! D11   D(13,2,3,4)            -1.9163         calculate D2E/DX2 analytically  !
 ! D12   D(13,2,3,8)           179.3314         calculate D2E/DX2 analytically  !
 ! D13   D(2,3,4,5)           -176.8722         calculate D2E/DX2 analytically  !
 ! D14   D(2,3,4,14)             2.1356         calculate D2E/DX2 analytically  !
 ! D15   D(8,3,4,5)              1.9161         calculate D2E/DX2 analytically  !
 ! D16   D(8,3,4,14)          -179.0762         calculate D2E/DX2 analytically  !
 ! D17   D(2,3,8,7)            173.9153         calculate D2E/DX2 analytically  !
 ! D18   D(2,3,8,9)              3.7588         calculate D2E/DX2 analytically  !
 ! D19   D(4,3,8,7)             -4.8378         calculate D2E/DX2 analytically  !
 ! D20   D(4,3,8,9)           -174.9943         calculate D2E/DX2 analytically  !
 ! D21   D(3,4,5,6)              1.028          calculate D2E/DX2 analytically  !
 ! D22   D(3,4,5,15)           179.6505         calculate D2E/DX2 analytically  !
 ! D23   D(14,4,5,6)          -177.9948         calculate D2E/DX2 analytically  !
 ! D24   D(14,4,5,15)            0.6278         calculate D2E/DX2 analytically  !
 ! D25   D(4,5,6,7)             -1.014          calculate D2E/DX2 analytically  !
 ! D26   D(4,5,6,16)           178.1788         calculate D2E/DX2 analytically  !
 ! D27   D(15,5,6,7)          -179.6369         calculate D2E/DX2 analytically  !
 ! D28   D(15,5,6,16)           -0.4441         calculate D2E/DX2 analytically  !
 ! D29   D(5,6,7,8)             -1.9895         calculate D2E/DX2 analytically  !
 ! D30   D(5,6,7,17)           178.2031         calculate D2E/DX2 analytically  !
 ! D31   D(16,6,7,8)           178.8157         calculate D2E/DX2 analytically  !
 ! D32   D(16,6,7,17)           -0.9917         calculate D2E/DX2 analytically  !
 ! D33   D(6,7,8,3)              4.9326         calculate D2E/DX2 analytically  !
 ! D34   D(6,7,8,9)            175.2473         calculate D2E/DX2 analytically  !
 ! D35   D(17,7,8,3)          -175.2619         calculate D2E/DX2 analytically  !
 ! D36   D(17,7,8,9)            -4.9472         calculate D2E/DX2 analytically  !
 ! D37   D(3,8,9,18)          -156.2777         calculate D2E/DX2 analytically  !
 ! D38   D(3,8,9,19)           -31.1199         calculate D2E/DX2 analytically  !
 ! D39   D(7,8,9,18)            33.5472         calculate D2E/DX2 analytically  !
 ! D40   D(7,8,9,19)           158.705          calculate D2E/DX2 analytically  !
 --------------------------------------------------------------------------------
 Trust Radius=3.00D-01 FncErr=1.00D-07 GrdErr=1.00D-06 EigMax=2.50D+02 EigMin=1.00D-04
 Number of steps in this run=     99 maximum allowed number of steps=    114.
 GradGradGradGradGradGradGradGradGradGradGradGradGradGradGradGradGradGrad

                          Input orientation:                          
 ---------------------------------------------------------------------
 Center     Atomic      Atomic             Coordinates (Angstroms)
 Number     Number       Type             X           Y           Z
 ---------------------------------------------------------------------
      1          7           0        2.384584    0.841917    0.557160
      2          6           0        1.797462   -0.113287   -0.386508
      3          6           0        0.317070   -0.312792   -0.154030
      4          6           0       -0.167641   -1.609960    0.094566
      5          6           0       -1.533814   -1.845544    0.249715
      6          6           0       -2.434875   -0.792165    0.137268
      7          6           0       -1.967647    0.499174   -0.109112
      8          6           0       -0.595490    0.760151   -0.204734
      9          7           0       -0.165918    2.055142   -0.553974
     10          1           0        2.219649    0.494552    1.501910
     11          1           0        3.395089    0.843492    0.428318
     12          1           0        1.955123    0.237342   -1.412868
     13          1           0        2.331272   -1.066006   -0.291859
     14          1           0        0.519137   -2.451222    0.153112
     15          1           0       -1.895115   -2.853411    0.435722
     16          1           0       -3.502086   -0.974431    0.227734
     17          1           0       -2.684555    1.307616   -0.223908
     18          1           0       -0.774631    2.785203   -0.201234
     19          1           0        0.802388    2.194230   -0.247274
 ---------------------------------------------------------------------
                    Distance matrix (angstroms):
                    1          2          3          4          5
     1  N    0.000000
     2  C    1.465482   0.000000
     3  C    2.472602   1.511757   0.000000
     4  C    3.569251   2.516564   1.406908   0.000000
     5  C    4.761388   3.808266   2.436824   1.394990   0.000000
     6  C    5.106243   4.318321   2.808533   2.410594   1.390742
     7  C    4.416255   3.824670   2.425126   2.780279   2.411363
     8  C    3.077013   2.553852   1.409448   2.426945   2.806532
     9  N    3.035061   2.930015   2.449560   3.722040   4.210986
    10  H    1.020009   2.028259   2.648348   3.479761   4.597012
    11  H    1.018687   2.032678   3.339210   4.338648   5.617552
    12  H    2.104984   1.095998   2.137881   3.192336   4.390361
    13  H    2.088982   1.096168   2.154841   2.586461   3.979934
    14  H    3.806300   2.718684   2.169804   1.087572   2.142611
    15  H    5.655619   4.671132   3.419988   2.155626   1.086708
    16  H    6.169322   5.404080   3.894800   3.397080   2.152538
    17  H    5.150060   4.704666   3.411797   3.866333   3.389829
    18  H    3.785784   3.879592   3.285059   4.446728   4.714184
    19  H    2.231414   2.516783   2.555267   3.940771   4.693039
                    6          7          8          9         10
     6  C    0.000000
     7  C    1.395192   0.000000
     8  C    2.431046   1.400023   0.000000
     9  N    3.705825   2.421810   1.408369   0.000000
    10  H    5.018215   4.486519   3.302754   3.514687   0.000000
    11  H    6.062059   5.400585   4.041339   3.887642   1.629729
    12  H    4.768111   4.142035   2.870287   2.922483   2.938037
    13  H    4.793256   4.578634   3.450852   4.005774   2.380211
    14  H    3.388054   3.867517   3.418093   4.612655   3.659041
    15  H    2.151546   3.397342   3.893204   5.297501   5.410813
    16  H    1.086437   2.153946   3.412346   4.573773   6.043152
    17  H    2.145197   1.086607   2.159694   2.647880   5.262199
    18  H    3.958353   2.580253   2.032964   1.013877   4.136845
    19  H    4.421120   3.250445   2.003112   1.025196   2.820847
                   11         12         13         14         15
    11  H    0.000000
    12  H    2.414723   0.000000
    13  H    2.301422   1.759792   0.000000
    14  H    4.382006   3.426766   2.323932   0.000000
    15  H    6.453945   5.272037   4.646132   2.463785   0.000000
    16  H    7.135552   5.825899   5.857170   4.284474   2.481166
    17  H    6.132119   4.907720   5.549525   4.953246   4.286313
    18  H    4.642536   3.925711   4.948400   5.405511   5.784045
    19  H    3.000502   2.552806   3.601196   4.671270   5.763826
                   16         17         18         19
    16  H    0.000000
    17  H    2.465781   0.000000
    18  H    4.664534   2.414868   0.000000
    19  H    5.366055   3.597972   1.684742   0.000000
 Stoichiometry    C7H10N2
 Framework group  C1[X(C7H10N2)]
 Deg. of freedom    51
 Full point group                 C1      NOp   1
 Largest Abelian subgroup         C1      NOp   1
 Largest concise Abelian subgroup C1      NOp   1
                         Standard orientation:                         
 ---------------------------------------------------------------------
 Center     Atomic      Atomic             Coordinates (Angstroms)
 Number     Number       Type             X           Y           Z
 ---------------------------------------------------------------------
      1          7           0        2.651546   -0.293364    0.573239
      2          6           0        1.748057   -0.806675   -0.460134
      3          6           0        0.304302   -0.450381   -0.188044
      4          6           0       -0.648066   -1.481354   -0.090683
      5          6           0       -1.999883   -1.191215    0.094813
      6          6           0       -2.420411    0.132620    0.163956
      7          6           0       -1.486437    1.164707    0.068827
      8          6           0       -0.119775    0.887120   -0.054652
      9          7           0        0.781822    1.951400   -0.249417
     10          1           0        2.356380   -0.678374    1.470492
     11          1           0        3.584533   -0.663506    0.399307
     12          1           0        2.038506   -0.404503   -1.437430
     13          1           0        1.869370   -1.894641   -0.516698
     14          1           0       -0.342205   -2.521593   -0.175341
     15          1           0       -2.725679   -1.997160    0.162679
     16          1           0       -3.475452    0.365163    0.278663
     17          1           0       -1.832307    2.194470    0.094844
     18          1           0        0.501110    2.802758    0.224225
     19          1           0        1.725450    1.662211    0.028007
 ---------------------------------------------------------------------
 Rotational constants (GHZ):           2.8272095           1.3985607           0.9865899
 Standard basis: 6-31G(d,p) (6D, 7F)
 There are   185 symmetry adapted cartesian basis functions of A   symmetry.
 There are   185 symmetry adapted basis functions of A   symmetry.
   185 basis functions,   322 primitive gaussians,   185 cartesian basis functions
    33 alpha electrons       33 beta electrons
       nuclear repulsion energy       429.6908322800 Hartrees.
 NAtoms=   19 NActive=   19 NUniq=   19 SFac= 1.00D+00 NAtFMM=   60 NAOKFM=F Big=F
 Integral buffers will be    131072 words long.
 Raffenetti 2 integral format.
 Two-electron integral symmetry is turned on.
 Force inversion solution in PCM.
 ------------------------------------------------------------------------------
 Polarizable Continuum Model (PCM)
 =================================
 Model                : PCM.
 Atomic radii         : UFF (Universal Force Field).
 Polarization charges : Total charges.
 Charge compensation  : None.
 Solution method      : Matrix inversion.
 Cavity type          : Scaled VdW (van der Waals Surface) (Alpha=1.100).
 Cavity algorithm     : GePol (No added spheres)
                        Default sphere list used, NSphG=   19.
                        Lebedev-Laikov grids with approx.  5.0 points / Ang**2.
                        Smoothing algorithm: York/Karplus (Gamma=1.0000).
                        Polarization charges: spherical gaussians, with
                                              point-specific exponents (IZeta= 3).
                        Self-potential: point-specific (ISelfS= 7).
                        Self-field    : sphere-specific E.n sum rule (ISelfD= 2).
 1st derivatives      : Analytical E(r).r(x)/FMM algorithm (CHGder, D1EAlg=3).
                        Cavity 1st derivative terms included.
 2nd derivatives      : Analytical E(r).r(xy)/FMM algorithm (CHGder, D2EAlg=3).
                        Cavity 2nd derivative terms included.
 Solvent              : Water, Eps=  78.355300 Eps(inf)=   1.777849
 ------------------------------------------------------------------------------
 Spheres list:
 ISph  on   Nord     Re0    Alpha      Xe            Ye            Ze
    1   N      1    1.8300  1.100      2.651546     -0.293364      0.573239
    2   C      2    1.9255  1.100      1.748057     -0.806675     -0.460134
    3   C      3    1.9255  1.100      0.304302     -0.450381     -0.188044
    4   C      4    1.9255  1.100     -0.648066     -1.481354     -0.090683
    5   C      5    1.9255  1.100     -1.999883     -1.191215      0.094813
    6   C      6    1.9255  1.100     -2.420411      0.132620      0.163956
    7   C      7    1.9255  1.100     -1.486437      1.164707      0.068827
    8   C      8    1.9255  1.100     -0.119775      0.887120     -0.054652
    9   N      9    1.8300  1.100      0.781822      1.951400     -0.249417
   10   H     10    1.4430  1.100      2.356380     -0.678374      1.470492
   11   H     11    1.4430  1.100      3.584533     -0.663506      0.399307
   12   H     12    1.4430  1.100      2.038506     -0.404503     -1.437430
   13   H     13    1.4430  1.100      1.869370     -1.894641     -0.516698
   14   H     14    1.4430  1.100     -0.342205     -2.521593     -0.175341
   15   H     15    1.4430  1.100     -2.725679     -1.997160      0.162679
   16   H     16    1.4430  1.100     -3.475452      0.365163      0.278663
   17   H     17    1.4430  1.100     -1.832307      2.194470      0.094844
   18   H     18    1.4430  1.100      0.501110      2.802758      0.224225
   19   H     19    1.4430  1.100      1.725450      1.662211      0.028007
 ------------------------------------------------------------------------------
 One-electron integrals computed using PRISM.
 NBasis=   185 RedAO= T EigKep=  4.22D-04  NBF=   185
 NBsUse=   185 1.00D-06 EigRej= -1.00D+00 NBFU=   185
 ExpMin= 1.61D-01 ExpMax= 4.17D+03 ExpMxC= 6.27D+02 IAcc=3 IRadAn=         5 AccDes= 0.00D+00
 Harris functional with IExCor=  402 and IRadAn=       5 diagonalized for initial guess.
 HarFok:  IExCor=  402 AccDes= 0.00D+00 IRadAn=         5 IDoV= 1 UseB2=F ITyADJ=14
 ICtDFT=  3500011 ScaDFX=  1.000000  1.000000  1.000000  1.000000
 FoFCou: FMM=F IPFlag=           0 FMFlag=      100000 FMFlg1=           0
         NFxFlg=           0 DoJE=T BraDBF=F KetDBF=T FulRan=T
         wScrn=  0.000000 ICntrl=       500 IOpCl=  0 I1Cent=   200000004 NGrid=           0
         NMat0=    1 NMatS0=      1 NMatT0=    0 NMatD0=    1 NMtDS0=    0 NMtDT0=    0
 Petite list used in FoFCou.
 Keep R1 ints in memory in canonical form, NReq=151233221.
 Requested convergence on RMS density matrix=1.00D-08 within  32 cycles.
 Requested convergence on MAX density matrix=1.00D-06.
 Requested convergence on             energy=1.00D-06.
 No special actions if energy rises.
 Inv3:  Mode=1 IEnd=     6465072.
 Iteration    1 A*A^-1 deviation from unit magnitude is 6.00D-15 for    769.
 Iteration    1 A*A^-1 deviation from orthogonality  is 5.05D-15 for    951    517.
 Iteration    1 A^-1*A deviation from unit magnitude is 5.55D-15 for    350.
 Iteration    1 A^-1*A deviation from orthogonality  is 3.74D-15 for   1439    162.
 Error on total polarization charges =  0.00801
 SCF Done:  E(RB3LYP) =  -382.291375437     A.U. after   12 cycles
            NFock= 12  Conv=0.28D-08     -V/T= 2.0097
 QCSCF skips out because SCF is already converged.
 DoSCS=F DFT=T ScalE2(SS,OS)=  1.000000  1.000000
 Range of M.O.s used for correlation:     1   185
 NBasis=   185 NAE=    33 NBE=    33 NFC=     0 NFV=     0
 NROrb=    185 NOA=    33 NOB=    33 NVA=   152 NVB=   152
 Symmetrizing basis deriv contribution to polar:
 IMax=3 JMax=2 DiffMx= 0.00D+00
 G2DrvN: will do    20 centers at a time, making    1 passes.
 Calling FoFCou, ICntrl=  3107 FMM=F I1Cent=   0 AccDes= 0.00D+00.
 NEqPCM:  Using equilibrium solvation (IEInf=0, Eps=  78.3553, EpsInf=   1.7778)
 G2PCM: DoFxE=T DoFxN=T DoGrad=T DoDP/DQ/DG/TGxP=FFFF NFrqRd=   0 IEInf=0 SqF1=F DoCFld=F IF1Alg=4.
 End of G2Drv F.D. properties file   721 does not exist.
 End of G2Drv F.D. properties file   722 does not exist.
 End of G2Drv F.D. properties file   788 does not exist.
          IDoAtm=1111111111111111111
 NEqPCM:  Using equilibrium solvation (IEInf=0, Eps=  78.3553, EpsInf=   1.7778)
          Differentiating once with respect to nuclear coordinates.
 Keep R1 ints in memory in canonical form, NReq=154293992.
          There are    60 degrees of freedom in the 1st order CPHF.  IDoFFX=6 NUNeed=     0.
     54 vectors produced by pass  0 Test12= 8.36D-15 1.67D-09 XBig12= 1.41D-01 1.29D-01.
 AX will form    54 AO Fock derivatives at one time.
     54 vectors produced by pass  1 Test12= 8.36D-15 1.67D-09 XBig12= 2.58D-02 3.12D-02.
     54 vectors produced by pass  2 Test12= 8.36D-15 1.67D-09 XBig12= 2.12D-04 2.92D-03.
     54 vectors produced by pass  3 Test12= 8.36D-15 1.67D-09 XBig12= 6.07D-07 1.42D-04.
     54 vectors produced by pass  4 Test12= 8.36D-15 1.67D-09 XBig12= 8.23D-10 3.55D-06.
     30 vectors produced by pass  5 Test12= 8.36D-15 1.67D-09 XBig12= 7.21D-13 8.67D-08.
      2 vectors produced by pass  6 Test12= 8.36D-15 1.67D-09 XBig12= 6.26D-16 2.30D-09.
 InvSVY:  IOpt=1 It=  1 EMax= 4.44D-16
 Solved reduced A of dimension   302 with    60 vectors.
 End of Minotr F.D. properties file   721 does not exist.
 End of Minotr F.D. properties file   722 does not exist.
 End of Minotr F.D. properties file   788 does not exist.

 **********************************************************************

            Population analysis using the SCF density.

 **********************************************************************

 Orbital symmetries:
       Occupied  (A) (A) (A) (A) (A) (A) (A) (A) (A) (A) (A) (A)
                 (A) (A) (A) (A) (A) (A) (A) (A) (A) (A) (A) (A)
                 (A) (A) (A) (A) (A) (A) (A) (A) (A)
       Virtual   (A) (A) (A) (A) (A) (A) (A) (A) (A) (A) (A) (A)
                 (A) (A) (A) (A) (A) (A) (A) (A) (A) (A) (A) (A)
                 (A) (A) (A) (A) (A) (A) (A) (A) (A) (A) (A) (A)
                 (A) (A) (A) (A) (A) (A) (A) (A) (A) (A) (A) (A)
                 (A) (A) (A) (A) (A) (A) (A) (A) (A) (A) (A) (A)
                 (A) (A) (A) (A) (A) (A) (A) (A) (A) (A) (A) (A)
                 (A) (A) (A) (A) (A) (A) (A) (A) (A) (A) (A) (A)
                 (A) (A) (A) (A) (A) (A) (A) (A) (A) (A) (A) (A)
                 (A) (A) (A) (A) (A) (A) (A) (A) (A) (A) (A) (A)
                 (A) (A) (A) (A) (A) (A) (A) (A) (A) (A) (A) (A)
                 (A) (A) (A) (A) (A) (A) (A) (A) (A) (A) (A) (A)
                 (A) (A) (A) (A) (A) (A) (A) (A) (A) (A) (A) (A)
                 (A) (A) (A) (A) (A) (A) (A) (A)
 The electronic state is 1-A.
 Alpha  occ. eigenvalues --  -14.32638 -14.31784 -10.22186 -10.20952 -10.18663
 Alpha  occ. eigenvalues --  -10.18480 -10.18405 -10.17866 -10.17530  -0.91089
 Alpha  occ. eigenvalues --   -0.88004  -0.82935  -0.75001  -0.72003  -0.65624
 Alpha  occ. eigenvalues --   -0.60119  -0.57441  -0.50913  -0.50037  -0.48622
 Alpha  occ. eigenvalues --   -0.45507  -0.43705  -0.42444  -0.41481  -0.40467
 Alpha  occ. eigenvalues --   -0.38776  -0.36906  -0.34307  -0.33055  -0.30588
 Alpha  occ. eigenvalues --   -0.24576  -0.24027  -0.20206
 Alpha virt. eigenvalues --    0.00078   0.01569   0.08713   0.10607   0.11656
 Alpha virt. eigenvalues --    0.14117   0.15227   0.16597   0.16791   0.17621
 Alpha virt. eigenvalues --    0.18226   0.19960   0.21456   0.24397   0.25536
 Alpha virt. eigenvalues --    0.27261   0.32377   0.35172   0.35654   0.36711
 Alpha virt. eigenvalues --    0.49968   0.50908   0.52624   0.53392   0.55228
 Alpha virt. eigenvalues --    0.56968   0.57960   0.59311   0.60558   0.60861
 Alpha virt. eigenvalues --    0.61180   0.62310   0.62787   0.65607   0.69160
 Alpha virt. eigenvalues --    0.70443   0.71165   0.72274   0.74308   0.77639
 Alpha virt. eigenvalues --    0.79707   0.81863   0.82359   0.83790   0.84331
 Alpha virt. eigenvalues --    0.85812   0.87864   0.88075   0.90272   0.90872
 Alpha virt. eigenvalues --    0.93276   0.94740   0.96494   0.97257   0.99753
 Alpha virt. eigenvalues --    1.00827   1.04362   1.07487   1.10885   1.12482
 Alpha virt. eigenvalues --    1.18802   1.20542   1.26956   1.27486   1.31097
 Alpha virt. eigenvalues --    1.33280   1.35483   1.38311   1.41670   1.42433
 Alpha virt. eigenvalues --    1.45866   1.46845   1.56253   1.63197   1.67742
 Alpha virt. eigenvalues --    1.75976   1.78017   1.78869   1.81018   1.84264
 Alpha virt. eigenvalues --    1.85660   1.87824   1.89322   1.91380   1.92616
 Alpha virt. eigenvalues --    1.94743   1.97809   1.98150   2.00454   2.01127
 Alpha virt. eigenvalues --    2.05999   2.08961   2.13196   2.16153   2.17865
 Alpha virt. eigenvalues --    2.19618   2.20555   2.24221   2.26285   2.27712
 Alpha virt. eigenvalues --    2.30489   2.32476   2.34443   2.36007   2.39024
 Alpha virt. eigenvalues --    2.40896   2.42873   2.44023   2.44446   2.46601
 Alpha virt. eigenvalues --    2.48279   2.50566   2.51413   2.56537   2.57526
 Alpha virt. eigenvalues --    2.59330   2.63759   2.65213   2.65878   2.69708
 Alpha virt. eigenvalues --    2.72817   2.75696   2.76016   2.81235   2.83999
 Alpha virt. eigenvalues --    2.90075   2.92674   2.97100   3.00372   3.05507
 Alpha virt. eigenvalues --    3.14510   3.19754   3.24629   3.27554   3.29360
 Alpha virt. eigenvalues --    3.30389   3.35347   3.38602   3.43488   3.46023
 Alpha virt. eigenvalues --    3.51850   3.55175   3.86076   4.06048   4.09522
 Alpha virt. eigenvalues --    4.14589   4.16871   4.19332   4.41821   4.44888
 Alpha virt. eigenvalues --    4.56749   4.83753
          Condensed to atoms (all electrons):
               1          2          3          4          5          6
     1  N    6.816332   0.264005  -0.055478   0.000567  -0.000105   0.000007
     2  C    0.264005   4.932424   0.365278  -0.055298   0.007050   0.000002
     3  C   -0.055478   0.365278   4.841362   0.542575  -0.036897  -0.035444
     4  C    0.000567  -0.055298   0.542575   4.917978   0.514140  -0.033799
     5  C   -0.000105   0.007050  -0.036897   0.514140   4.879894   0.544413
     6  C    0.000007   0.000002  -0.035444  -0.033799   0.544413   4.819860
     7  C    0.000011   0.007093  -0.041437  -0.052049  -0.039216   0.535720
     8  C    0.003855  -0.065373   0.512583  -0.017101  -0.043585  -0.021336
     9  N   -0.020192  -0.008834  -0.067823   0.005393   0.000293   0.004777
    10  H    0.335361  -0.038549  -0.000313   0.001541  -0.000077  -0.000009
    11  H    0.335387  -0.029706   0.005336  -0.000103   0.000004  -0.000000
    12  H   -0.046138   0.373703  -0.028951   0.001827  -0.000300   0.000065
    13  H   -0.047403   0.384800  -0.037959  -0.007869   0.000336  -0.000017
    14  H    0.000056  -0.010506  -0.038649   0.366065  -0.043068   0.004800
    15  H    0.000001  -0.000178   0.003981  -0.037972   0.368044  -0.041797
    16  H   -0.000000   0.000008   0.000927   0.004654  -0.041048   0.367825
    17  H    0.000003  -0.000154   0.004358   0.000711   0.004800  -0.037733
    18  H    0.000464  -0.000219   0.006176  -0.000124  -0.000001  -0.000057
    19  H    0.043991  -0.002690  -0.018569  -0.000105   0.000033  -0.000229
               7          8          9         10         11         12
     1  N    0.000011   0.003855  -0.020192   0.335361   0.335387  -0.046138
     2  C    0.007093  -0.065373  -0.008834  -0.038549  -0.029706   0.373703
     3  C   -0.041437   0.512583  -0.067823  -0.000313   0.005336  -0.028951
     4  C   -0.052049  -0.017101   0.005393   0.001541  -0.000103   0.001827
     5  C   -0.039216  -0.043585   0.000293  -0.000077   0.000004  -0.000300
     6  C    0.535720  -0.021336   0.004777  -0.000009  -0.000000   0.000065
     7  C    4.963808   0.509790  -0.079245  -0.000088   0.000007  -0.000301
     8  C    0.509790   4.687644   0.300007  -0.000465   0.000141  -0.008915
     9  N   -0.079245   0.300007   6.891341   0.000475   0.000224   0.006160
    10  H   -0.000088  -0.000465   0.000475   0.473978  -0.029572   0.006994
    11  H    0.000007   0.000141   0.000224  -0.029572   0.465379  -0.002381
    12  H   -0.000301  -0.008915   0.006160   0.006994  -0.002381   0.626090
    13  H   -0.000100   0.006420  -0.000240  -0.004532  -0.004991  -0.043597
    14  H    0.000584   0.004999  -0.000099   0.000027  -0.000030   0.000168
    15  H    0.004670   0.000994   0.000005   0.000000  -0.000000   0.000003
    16  H   -0.037579   0.003868  -0.000120  -0.000000   0.000000  -0.000000
    17  H    0.364477  -0.041476  -0.007079   0.000001  -0.000000  -0.000001
    18  H   -0.010814  -0.026340   0.341447  -0.000034  -0.000009  -0.000104
    19  H    0.005973  -0.019208   0.317352  -0.001733  -0.000669  -0.003878
              13         14         15         16         17         18
     1  N   -0.047403   0.000056   0.000001  -0.000000   0.000003   0.000464
     2  C    0.384800  -0.010506  -0.000178   0.000008  -0.000154  -0.000219
     3  C   -0.037959  -0.038649   0.003981   0.000927   0.004358   0.006176
     4  C   -0.007869   0.366065  -0.037972   0.004654   0.000711  -0.000124
     5  C    0.000336  -0.043068   0.368044  -0.041048   0.004800  -0.000001
     6  C   -0.000017   0.004800  -0.041797   0.367825  -0.037733  -0.000057
     7  C   -0.000100   0.000584   0.004670  -0.037579   0.364477  -0.010814
     8  C    0.006420   0.004999   0.000994   0.003868  -0.041476  -0.026340
     9  N   -0.000240  -0.000099   0.000005  -0.000120  -0.007079   0.341447
    10  H   -0.004532   0.000027   0.000000  -0.000000   0.000001  -0.000034
    11  H   -0.004991  -0.000030  -0.000000   0.000000  -0.000000  -0.000009
    12  H   -0.043597   0.000168   0.000003  -0.000000  -0.000001  -0.000104
    13  H    0.645091   0.007368  -0.000009  -0.000000   0.000003   0.000002
    14  H    0.007368   0.621980  -0.005893  -0.000204   0.000016   0.000004
    15  H   -0.000009  -0.005893   0.628900  -0.005996  -0.000198  -0.000000
    16  H   -0.000000  -0.000204  -0.005996   0.620297  -0.006218  -0.000008
    17  H    0.000003   0.000016  -0.000198  -0.006218   0.623340   0.004697
    18  H    0.000002   0.000004  -0.000000  -0.000008   0.004697   0.441562
    19  H    0.000840  -0.000001  -0.000000   0.000003   0.000068  -0.025978
              19
     1  N    0.043991
     2  C   -0.002690
     3  C   -0.018569
     4  C   -0.000105
     5  C    0.000033
     6  C   -0.000229
     7  C    0.005973
     8  C   -0.019208
     9  N    0.317352
    10  H   -0.001733
    11  H   -0.000669
    12  H   -0.003878
    13  H    0.000840
    14  H   -0.000001
    15  H   -0.000000
    16  H    0.000003
    17  H    0.000068
    18  H   -0.025978
    19  H    0.426255
 Mulliken charges:
               1
     1  N   -0.630725
     2  C   -0.122856
     3  C    0.078945
     4  C   -0.151031
     5  C   -0.114710
     6  C   -0.107049
     7  C   -0.131305
     8  C    0.213495
     9  N   -0.683841
    10  H    0.256993
    11  H    0.260982
    12  H    0.119557
    13  H    0.101859
    14  H    0.092382
    15  H    0.085446
    16  H    0.093591
    17  H    0.090387
    18  H    0.269338
    19  H    0.278546
 Sum of Mulliken charges =  -0.00000
 Mulliken charges with hydrogens summed into heavy atoms:
               1
     1  N   -0.112751
     2  C    0.098559
     3  C    0.078945
     4  C   -0.058649
     5  C   -0.029265
     6  C   -0.013458
     7  C   -0.040918
     8  C    0.213495
     9  N   -0.135957
 APT charges:
               1
     1  N   -1.348336
     2  C   -0.618383
     3  C   -0.254465
     4  C   -0.505882
     5  C   -0.514048
     6  C   -0.457347
     7  C   -0.511264
     8  C   -0.179110
     9  N   -1.034120
    10  H    0.401667
    11  H    0.832876
    12  H    0.379232
    13  H    0.437384
    14  H    0.479696
    15  H    0.621655
    16  H    0.659185
    17  H    0.526280
    18  H    0.673576
    19  H    0.411404
 Sum of APT charges =  -0.00000
 APT charges with hydrogens summed into heavy atoms:
               1
     1  N   -0.113793
     2  C    0.198233
     3  C   -0.254465
     4  C   -0.026186
     5  C    0.107607
     6  C    0.201838
     7  C    0.015015
     8  C   -0.179110
     9  N    0.050860
 Electronic spatial extent (au):  <R**2>=           1205.8778
 Charge=              0.0000 electrons
 Dipole moment (field-independent basis, Debye):
    X=              1.6995    Y=             -0.9211    Z=              1.3775  Tot=              2.3736
 Quadrupole moment (field-independent basis, Debye-Ang):
   XX=            -45.8922   YY=            -47.0747   ZZ=            -56.1729
   XY=             -4.7844   XZ=              0.7229   YZ=              2.0020
 Traceless Quadrupole moment (field-independent basis, Debye-Ang):
   XX=              3.8211   YY=              2.6386   ZZ=             -6.4597
   XY=             -4.7844   XZ=              0.7229   YZ=              2.0020
 Octapole moment (field-independent basis, Debye-Ang**2):
  XXX=             23.3156  YYY=             11.8470  ZZZ=              4.8149  XYY=              3.1371
  XXY=            -11.1287  XXZ=              4.3523  XZZ=             10.6587  YZZ=             -2.3317
  YYZ=              8.5691  XYZ=             -0.9334
 Hexadecapole moment (field-independent basis, Debye-Ang**3):
 XXXX=           -853.3979 YYYY=           -438.4792 ZZZZ=            -94.1063 XXXY=            -43.1218
 XXXZ=              3.3211 YYYX=              0.8829 YYYZ=             19.7299 ZZZX=             11.6423
 ZZZY=             -1.5020 XXYY=           -230.5843 XXZZ=           -183.8406 YYZZ=           -110.3477
 XXYZ=             -7.7971 YYXZ=              7.3331 ZZXY=             -7.7100
 N-N= 4.296908322800D+02 E-N=-1.746818286224D+03  KE= 3.786171754298D+02
  Exact polarizability:   0.000   0.000   0.000   0.000   0.000   0.000
 Approx polarizability: 166.904   8.263 162.877 -11.734   0.129  64.904
 D2PCM: PCM CHGder 2nd derivatives, FixD1E=F FixD2E=F DoIter=F DoCFld=F I1PDM=0
 Calling FoFJK, ICntrl=    100147 FMM=F ISym2X=0 I1Cent= 0 IOpClX= 0 NMat=1 NMatS=1 NMatT=0.
 ***** Axes restored to original set *****
 -------------------------------------------------------------------
 Center     Atomic                   Forces (Hartrees/Bohr)
 Number     Number              X              Y              Z
 -------------------------------------------------------------------
      1        7          -0.000414966    0.011539333    0.002327191
      2        6           0.001922676   -0.006448732    0.002690174
      3        6           0.004812340   -0.014198851    0.004898469
      4        6          -0.003761494    0.007296214   -0.000835572
      5        6          -0.000160441   -0.008009335    0.000719668
      6        6           0.000011351    0.004608100   -0.001093670
      7        6          -0.007782212   -0.005466254    0.006026419
      8        6          -0.002486407    0.009039132   -0.015026276
      9        7           0.010671592   -0.006461579    0.006641917
     10        1           0.001260327    0.001046651   -0.001238325
     11        1          -0.000582333    0.001843722    0.000837249
     12        1           0.002324237    0.003754772   -0.000218951
     13        1          -0.005591840   -0.006608983   -0.005566099
     14        1           0.002021107    0.002469999   -0.000245127
     15        1           0.000501197    0.000127058    0.000222700
     16        1          -0.000055424    0.000611824   -0.000033620
     17        1           0.001477437    0.002017844    0.000607017
     18        1           0.000711994   -0.000026989   -0.000544226
     19        1          -0.004879141    0.002866074   -0.000168937
 -------------------------------------------------------------------
 Cartesian Forces:  Max     0.015026276 RMS     0.004991166
 FormGI is forming the generalized inverse of G from B-inverse, IUseBI=4.

 GradGradGradGradGradGradGradGradGradGradGradGradGradGradGradGradGradGrad
 Berny optimization.
 Internal  Forces:  Max     0.011931344 RMS     0.003313657
 Search for a local minimum.
 Step number   1 out of a maximum of   99
 All quantities printed in internal units (Hartrees-Bohrs-Radians)
 Mixed Optimization -- RFO/linear search
 Second derivative matrix not updated -- analytic derivatives used.
 ITU=  0
     Eigenvalues ---    0.00294   0.00411   0.00908   0.01551   0.01704
     Eigenvalues ---    0.01735   0.01993   0.02245   0.02404   0.02623
     Eigenvalues ---    0.02743   0.02930   0.03635   0.03799   0.05419
     Eigenvalues ---    0.05918   0.09016   0.10966   0.11615   0.12330
     Eigenvalues ---    0.12416   0.13127   0.14007   0.15379   0.16850
     Eigenvalues ---    0.17863   0.19010   0.19197   0.19350   0.21315
     Eigenvalues ---    0.21825   0.24534   0.30716   0.32211   0.32375
     Eigenvalues ---    0.33022   0.35542   0.35766   0.35830   0.36029
     Eigenvalues ---    0.37195   0.38907   0.41912   0.42420   0.43871
     Eigenvalues ---    0.44377   0.45472   0.46025   0.46903   0.48040
     Eigenvalues ---    0.51320
 RFO step:  Lambda=-6.30233051D-03 EMin= 2.93502666D-03
 Linear search not attempted -- first point.
 Iteration  1 RMS(Cart)=  0.06302936 RMS(Int)=  0.00224737
 Iteration  2 RMS(Cart)=  0.00324988 RMS(Int)=  0.00051324
 Iteration  3 RMS(Cart)=  0.00000863 RMS(Int)=  0.00051319
 Iteration  4 RMS(Cart)=  0.00000000 RMS(Int)=  0.00051319
 Variable       Old X    -DE/DX   Delta X   Delta X   Delta X     New X
                                 (Linear)    (Quad)   (Total)
    R1        2.76936   0.01075   0.00000   0.02163   0.02163   2.79099
    R2        1.92754  -0.00171   0.00000  -0.00334  -0.00334   1.92420
    R3        1.92504  -0.00068   0.00000  -0.00181  -0.00181   1.92323
    R4        2.85681  -0.00020   0.00000   0.00180   0.00180   2.85861
    R5        2.07114   0.00174   0.00000   0.00537   0.00537   2.07651
    R6        2.07146   0.00254   0.00000   0.00690   0.00690   2.07836
    R7        2.65867  -0.00572   0.00000  -0.01952  -0.01951   2.63916
    R8        2.66347   0.00165   0.00000   0.01641   0.01651   2.67998
    R9        2.63615   0.00208   0.00000   0.00489   0.00481   2.64096
   R10        2.05521  -0.00065   0.00000   0.00026   0.00026   2.05547
   R11        2.62812   0.00548   0.00000   0.01017   0.01009   2.63821
   R12        2.05358  -0.00025   0.00000  -0.00219  -0.00219   2.05139
   R13        2.63653  -0.00054   0.00000  -0.00197  -0.00198   2.63455
   R14        2.05307  -0.00005   0.00000   0.00049   0.00049   2.05356
   R15        2.64566   0.00534   0.00000   0.01079   0.01086   2.65653
   R16        2.05339   0.00046   0.00000   0.00166   0.00166   2.05505
   R17        2.66143  -0.00282   0.00000  -0.02489  -0.02489   2.63654
   R18        1.91595  -0.00064   0.00000  -0.00226  -0.00226   1.91369
   R19        1.93734  -0.00427   0.00000  -0.00660  -0.00660   1.93074
    A1        1.88564   0.00133   0.00000   0.01718   0.01703   1.90267
    A2        1.89334   0.00297   0.00000   0.01688   0.01674   1.91008
    A3        1.85258  -0.00120   0.00000   0.00140   0.00108   1.85367
    A4        1.95985  -0.00368   0.00000  -0.00995  -0.01057   1.94928
    A5        1.91438  -0.00548   0.00000  -0.05253  -0.05251   1.86187
    A6        1.89210   0.01193   0.00000   0.07975   0.08013   1.97223
    A7        1.90402   0.00341   0.00000   0.00356   0.00259   1.90661
    A8        1.92719  -0.00522   0.00000  -0.01984  -0.02035   1.90684
    A9        1.86383  -0.00089   0.00000  -0.00095  -0.00014   1.86369
   A10        2.07856   0.00805   0.00000   0.03142   0.03132   2.10987
   A11        2.12708  -0.00874   0.00000  -0.03170  -0.03176   2.09532
   A12        2.07735   0.00070   0.00000   0.00012   0.00025   2.07760
   A13        2.10920   0.00315   0.00000   0.01659   0.01652   2.12572
   A14        2.10034  -0.00478   0.00000  -0.03118  -0.03116   2.06918
   A15        2.07352   0.00163   0.00000   0.01472   0.01473   2.08825
   A16        2.09164  -0.00294   0.00000  -0.01629  -0.01651   2.07513
   A17        2.09586   0.00104   0.00000   0.00561   0.00563   2.10149
   A18        2.09544   0.00191   0.00000   0.01111   0.01113   2.10657
   A19        2.09249   0.00069   0.00000   0.00944   0.00929   2.10178
   A20        2.09744   0.00029   0.00000   0.00051   0.00052   2.09796
   A21        2.09317  -0.00098   0.00000  -0.00974  -0.00973   2.08344
   A22        2.10925  -0.00069   0.00000  -0.00018  -0.00012   2.10913
   A23        2.07869   0.00273   0.00000   0.01744   0.01741   2.09609
   A24        2.09524  -0.00205   0.00000  -0.01726  -0.01729   2.07795
   A25        2.08313  -0.00080   0.00000  -0.00521  -0.00651   2.07661
   A26        2.10761  -0.00660   0.00000  -0.01941  -0.02108   2.08654
   A27        2.07977   0.00792   0.00000   0.03952   0.03810   2.11787
   A28        1.97437  -0.00018   0.00000   0.01350   0.01313   1.98749
   A29        1.91628   0.00397   0.00000   0.02345   0.02307   1.93935
   A30        1.94474  -0.00246   0.00000   0.01234   0.01172   1.95646
    D1        1.01635   0.00045   0.00000   0.06641   0.06618   1.08253
    D2        3.13649  -0.00151   0.00000   0.02751   0.02818  -3.11852
    D3       -1.11761   0.00115   0.00000   0.04252   0.04181  -1.07580
    D4        3.01751   0.00126   0.00000   0.08557   0.08553   3.10303
    D5       -1.14554  -0.00070   0.00000   0.04668   0.04752  -1.09802
    D6        0.88355   0.00196   0.00000   0.06169   0.06115   0.94470
    D7       -2.14737  -0.00612   0.00000  -0.07920  -0.07918  -2.22655
    D8        1.01600  -0.00623   0.00000  -0.07076  -0.07054   0.94546
    D9        2.00976   0.00088   0.00000  -0.00853  -0.00858   2.00118
   D10       -1.11006   0.00077   0.00000  -0.00010   0.00006  -1.11000
   D11       -0.03345   0.00294   0.00000   0.00199   0.00171  -0.03173
   D12        3.12992   0.00284   0.00000   0.01043   0.01036   3.14028
   D13       -3.08700  -0.00029   0.00000  -0.00595  -0.00525  -3.09226
   D14        0.03727  -0.00003   0.00000   0.00318   0.00342   0.04069
   D15        0.03344  -0.00031   0.00000  -0.01457  -0.01422   0.01922
   D16       -3.12547  -0.00005   0.00000  -0.00543  -0.00554  -3.13101
   D17        3.03539   0.00149   0.00000   0.04512   0.04477   3.08017
   D18        0.06560  -0.00277   0.00000  -0.05894  -0.05733   0.00828
   D19       -0.08444   0.00130   0.00000   0.05317   0.05287  -0.03157
   D20       -3.05423  -0.00296   0.00000  -0.05089  -0.04923  -3.10346
   D21        0.01794  -0.00048   0.00000  -0.01659  -0.01673   0.00121
   D22        3.13549   0.00020   0.00000   0.00421   0.00404   3.13954
   D23       -3.10659  -0.00067   0.00000  -0.02513  -0.02505  -3.13164
   D24        0.01096   0.00001   0.00000  -0.00433  -0.00428   0.00668
   D25       -0.01770   0.00035   0.00000   0.00887   0.00865  -0.00905
   D26        3.10981   0.00074   0.00000   0.02640   0.02658   3.13639
   D27       -3.13526  -0.00032   0.00000  -0.01185  -0.01211   3.13582
   D28       -0.00775   0.00008   0.00000   0.00568   0.00582  -0.00193
   D29       -0.03472   0.00069   0.00000   0.03051   0.03079  -0.00393
   D30        3.11023   0.00082   0.00000   0.03176   0.03240  -3.14056
   D31        3.12092   0.00029   0.00000   0.01294   0.01293   3.13385
   D32       -0.01731   0.00042   0.00000   0.01419   0.01453  -0.00277
   D33        0.08609  -0.00154   0.00000  -0.06185  -0.06174   0.02435
   D34        3.05864   0.00123   0.00000   0.03477   0.03630   3.09495
   D35       -3.05890  -0.00166   0.00000  -0.06304  -0.06326  -3.12215
   D36       -0.08634   0.00111   0.00000   0.03357   0.03478  -0.05156
   D37       -2.72756   0.00071   0.00000  -0.06307  -0.06302  -2.79058
   D38       -0.54314   0.00041   0.00000  -0.01864  -0.01814  -0.56129
   D39        0.58551  -0.00270   0.00000  -0.16260  -0.16310   0.42241
   D40        2.76992  -0.00300   0.00000  -0.11817  -0.11822   2.65170
         Item               Value     Threshold  Converged?
 Maximum Force            0.011931     0.000450     NO 
 RMS     Force            0.003314     0.000300     NO 
 Maximum Displacement     0.293322     0.001800     NO 
 RMS     Displacement     0.064256     0.001200     NO 
 Predicted change in Energy=-3.534914D-03
 GradGradGradGradGradGradGradGradGradGradGradGradGradGradGradGradGradGrad

                          Input orientation:                          
 ---------------------------------------------------------------------
 Center     Atomic      Atomic             Coordinates (Angstroms)
 Number     Number       Type             X           Y           Z
 ---------------------------------------------------------------------
      1          7           0        2.331986    0.905027    0.521653
      2          6           0        1.797414   -0.139462   -0.375340
      3          6           0        0.316560   -0.358717   -0.157862
      4          6           0       -0.191512   -1.637697    0.079882
      5          6           0       -1.561835   -1.870293    0.225574
      6          6           0       -2.443194   -0.791940    0.128624
      7          6           0       -1.960558    0.496054   -0.098905
      8          6           0       -0.581718    0.736312   -0.230330
      9          7           0       -0.090879    2.011407   -0.512801
     10          1           0        2.214883    0.604618    1.487501
     11          1           0        3.334408    0.998712    0.372855
     12          1           0        1.964383    0.211772   -1.403060
     13          1           0        2.324322   -1.099978   -0.278479
     14          1           0        0.505377   -2.470381    0.143894
     15          1           0       -1.932378   -2.874206    0.407966
     16          1           0       -3.513290   -0.949332    0.233667
     17          1           0       -2.651797    1.332351   -0.172542
     18          1           0       -0.713122    2.760791   -0.235747
     19          1           0        0.850951    2.134962   -0.136551
 ---------------------------------------------------------------------
                    Distance matrix (angstroms):
                    1          2          3          4          5
     1  N    0.000000
     2  C    1.476930   0.000000
     3  C    2.474011   1.512712   0.000000
     4  C    3.609522   2.531355   1.396585   0.000000
     5  C    4.790814   3.826411   2.441362   1.397538   0.000000
     6  C    5.082962   4.320007   2.808202   2.405775   1.396080
     7  C    4.356407   3.821341   2.432977   2.777477   2.421541
     8  C    3.013903   2.539345   1.418183   2.425781   2.821855
     9  N    2.857349   2.865446   2.430941   3.698292   4.216219
    10  H    1.018244   2.048930   2.690514   3.577724   4.688416
    11  H    1.017727   2.053677   3.351370   4.412324   5.676801
    12  H    2.078522   1.098842   2.142731   3.204300   4.407001
    13  H    2.158777   1.099820   2.143624   2.597496   3.993704
    14  H    3.856499   2.715169   2.141455   1.087710   2.154099
    15  H    5.699151   4.690814   3.421340   2.160372   1.085546
    16  H    6.139123   5.406510   3.894852   3.395836   2.157872
    17  H    5.050010   4.690718   3.416295   3.864959   3.406382
    18  H    3.645572   3.838456   3.285977   4.440541   4.730758
    19  H    2.034560   2.475039   2.550385   3.920016   4.689854
                    6          7          8          9         10
     6  C    0.000000
     7  C    1.394143   0.000000
     8  C    2.435055   1.405773   0.000000
     9  N    3.715315   2.441988   1.395199   0.000000
    10  H    5.049218   4.467972   3.284701   3.361071   0.000000
    11  H    6.053657   5.339653   3.970986   3.680018   1.628215
    12  H    4.772864   4.145696   2.851853   2.873212   2.927870
    13  H    4.794771   4.575998   3.437928   3.945734   2.456891
    14  H    3.392855   3.865167   3.406567   4.568718   3.766074
    15  H    2.162128   3.408278   3.907371   5.301711   5.519727
    16  H    1.086698   2.147259   3.413327   4.586511   6.066203
    17  H    2.155650   1.087487   2.154955   2.671179   5.193256
    18  H    3.968351   2.589181   2.028746   1.012681   4.023914
    19  H    4.414574   3.254538   2.004384   1.021701   2.615302
                   11         12         13         14         15
    11  H    0.000000
    12  H    2.376997   0.000000
    13  H    2.418472   1.764915   0.000000
    14  H    4.482236   3.422822   2.316239   0.000000
    15  H    6.537565   5.290352   4.662466   2.485047   0.000000
    16  H    7.120759   5.833690   5.861971   4.297829   2.496959
    17  H    6.020252   4.907035   5.539784   4.952640   4.306933
    18  H    4.456212   3.876745   4.912579   5.384610   5.801219
    19  H    2.778150   2.557818   3.557499   4.626797   5.756317
                   16         17         18         19
    16  H    0.000000
    17  H    2.472499   0.000000
    18  H    4.671863   2.408920   0.000000
    19  H    5.356914   3.593706   1.687551   0.000000
 Stoichiometry    C7H10N2
 Framework group  C1[X(C7H10N2)]
 Deg. of freedom    51
 Full point group                 C1      NOp   1
 Largest Abelian subgroup         C1      NOp   1
 Largest concise Abelian subgroup C1      NOp   1
                         Standard orientation:                         
 ---------------------------------------------------------------------
 Center     Atomic      Atomic             Coordinates (Angstroms)
 Number     Number       Type             X           Y           Z
 ---------------------------------------------------------------------
      1          7           0        2.625751   -0.272179    0.556037
      2          6           0        1.715563   -0.886632   -0.431550
      3          6           0        0.275376   -0.496231   -0.183064
      4          6           0       -0.721736   -1.467700   -0.071424
      5          6           0       -2.066136   -1.126657    0.100011
      6          6           0       -2.417431    0.223201    0.159282
      7          6           0       -1.439813    1.212138    0.059783
      8          6           0       -0.084649    0.872787   -0.096953
      9          7           0        0.895708    1.853196   -0.252774
     10          1           0        2.382824   -0.609117    1.485704
     11          1           0        3.577881   -0.585646    0.380095
     12          1           0        2.025716   -0.517182   -1.418852
     13          1           0        1.793653   -1.983198   -0.463935
     14          1           0       -0.435507   -2.515515   -0.128597
     15          1           0       -2.823060   -1.900412    0.182358
     16          1           0       -3.457089    0.512432    0.287221
     17          1           0       -1.719289    2.262012    0.107587
     18          1           0        0.638639    2.754491    0.130770
     19          1           0        1.798977    1.529587    0.098304
 ---------------------------------------------------------------------
 Rotational constants (GHZ):           2.9111680           1.3933814           0.9914207
 Standard basis: 6-31G(d,p) (6D, 7F)
 There are   185 symmetry adapted cartesian basis functions of A   symmetry.
 There are   185 symmetry adapted basis functions of A   symmetry.
   185 basis functions,   322 primitive gaussians,   185 cartesian basis functions
    33 alpha electrons       33 beta electrons
       nuclear repulsion energy       430.5932910112 Hartrees.
 NAtoms=   19 NActive=   19 NUniq=   19 SFac= 1.00D+00 NAtFMM=   60 NAOKFM=F Big=F
 Integral buffers will be    131072 words long.
 Raffenetti 2 integral format.
 Two-electron integral symmetry is turned on.
 ------------------------------------------------------------------------------
 Polarizable Continuum Model (PCM)
 =================================
 Model                : PCM.
 Atomic radii         : UFF (Universal Force Field).
 Polarization charges : Total charges.
 Charge compensation  : None.
 Solution method      : Matrix inversion.
 Cavity type          : Scaled VdW (van der Waals Surface) (Alpha=1.100).
 Cavity algorithm     : GePol (No added spheres)
                        Default sphere list used, NSphG=   19.
                        Lebedev-Laikov grids with approx.  5.0 points / Ang**2.
                        Smoothing algorithm: York/Karplus (Gamma=1.0000).
                        Polarization charges: spherical gaussians, with
                                              point-specific exponents (IZeta= 3).
                        Self-potential: point-specific (ISelfS= 7).
                        Self-field    : sphere-specific E.n sum rule (ISelfD= 2).
 1st derivatives      : Analytical E(r).r(x)/FMM algorithm (CHGder, D1EAlg=3).
                        Cavity 1st derivative terms included.
 Solvent              : Water, Eps=  78.355300 Eps(inf)=   1.777849
 ------------------------------------------------------------------------------
 Spheres list:
 ISph  on   Nord     Re0    Alpha      Xe            Ye            Ze
    1   N      1    1.8300  1.100      2.625751     -0.272179      0.556037
    2   C      2    1.9255  1.100      1.715563     -0.886632     -0.431550
    3   C      3    1.9255  1.100      0.275376     -0.496231     -0.183064
    4   C      4    1.9255  1.100     -0.721736     -1.467700     -0.071424
    5   C      5    1.9255  1.100     -2.066136     -1.126657      0.100011
    6   C      6    1.9255  1.100     -2.417431      0.223201      0.159282
    7   C      7    1.9255  1.100     -1.439813      1.212138      0.059783
    8   C      8    1.9255  1.100     -0.084649      0.872787     -0.096953
    9   N      9    1.8300  1.100      0.895708      1.853196     -0.252774
   10   H     10    1.4430  1.100      2.382824     -0.609117      1.485704
   11   H     11    1.4430  1.100      3.577881     -0.585646      0.380095
   12   H     12    1.4430  1.100      2.025716     -0.517182     -1.418852
   13   H     13    1.4430  1.100      1.793653     -1.983198     -0.463935
   14   H     14    1.4430  1.100     -0.435507     -2.515515     -0.128597
   15   H     15    1.4430  1.100     -2.823060     -1.900412      0.182358
   16   H     16    1.4430  1.100     -3.457089      0.512432      0.287221
   17   H     17    1.4430  1.100     -1.719289      2.262012      0.107587
   18   H     18    1.4430  1.100      0.638639      2.754491      0.130770
   19   H     19    1.4430  1.100      1.798977      1.529587      0.098304
 ------------------------------------------------------------------------------
 One-electron integrals computed using PRISM.
 NBasis=   185 RedAO= T EigKep=  4.02D-04  NBF=   185
 NBsUse=   185 1.00D-06 EigRej= -1.00D+00 NBFU=   185
 Initial guess from the checkpoint file:  "GVOYKJPMUUJXBS-UHFFFAOYSA-N_conf_2_0.chk"
 B after Tr=     0.000000    0.000000   -0.000000
         Rot=    0.999821    0.009951    0.000223    0.016099 Ang=   2.17 deg.
 ExpMin= 1.61D-01 ExpMax= 4.17D+03 ExpMxC= 6.27D+02 IAcc=2 IRadAn=         4 AccDes= 0.00D+00
 Harris functional with IExCor=  402 and IRadAn=       4 diagonalized for initial guess.
 HarFok:  IExCor=  402 AccDes= 0.00D+00 IRadAn=         4 IDoV= 1 UseB2=F ITyADJ=14
 ICtDFT=  3500011 ScaDFX=  1.000000  1.000000  1.000000  1.000000
 FoFCou: FMM=F IPFlag=           0 FMFlag=      100000 FMFlg1=           0
         NFxFlg=           0 DoJE=T BraDBF=F KetDBF=T FulRan=T
         wScrn=  0.000000 ICntrl=       500 IOpCl=  0 I1Cent=   200000004 NGrid=           0
         NMat0=    1 NMatS0=      1 NMatT0=    0 NMatD0=    1 NMtDS0=    0 NMtDT0=    0
 Petite list used in FoFCou.
 Keep R1 ints in memory in canonical form, NReq=151233221.
 Requested convergence on RMS density matrix=1.00D-08 within  32 cycles.
 Requested convergence on MAX density matrix=1.00D-06.
 Requested convergence on             energy=1.00D-06.
 No special actions if energy rises.
 Inv3:  Mode=1 IEnd=     6535728.
 Iteration    1 A*A^-1 deviation from unit magnitude is 6.22D-15 for    193.
 Iteration    1 A*A^-1 deviation from orthogonality  is 3.45D-15 for   1314   1157.
 Iteration    1 A^-1*A deviation from unit magnitude is 5.77D-15 for    409.
 Iteration    1 A^-1*A deviation from orthogonality  is 4.25D-15 for   1430    209.
 Error on total polarization charges =  0.00810
 SCF Done:  E(RB3LYP) =  -382.294699197     A.U. after   10 cycles
            NFock= 10  Conv=0.10D-07     -V/T= 2.0098
 QCSCF skips out because SCF is already converged.
 D1PCM: PCM CHGder 1st derivatives, ID1Alg=3 FixD1E=F DoIter=F DoCFld=F I1PDM=0.
 Calling FoFJK, ICntrl=      2127 FMM=F ISym2X=0 I1Cent= 0 IOpClX= 0 NMat=1 NMatS=1 NMatT=0.
 ***** Axes restored to original set *****
 -------------------------------------------------------------------
 Center     Atomic                   Forces (Hartrees/Bohr)
 Number     Number              X              Y              Z
 -------------------------------------------------------------------
      1        7           0.000996399   -0.000041575    0.001442643
      2        6           0.000339514   -0.000794001    0.000184029
      3        6           0.000346957    0.000021690    0.000325844
      4        6          -0.000267360   -0.000123260   -0.000230038
      5        6          -0.000025953   -0.000291670    0.000014941
      6        6          -0.000026196    0.000172916   -0.000217437
      7        6          -0.000477700   -0.000203102    0.001435578
      8        6          -0.000572945    0.000113598   -0.002872409
      9        7          -0.000369319    0.000594659    0.001041702
     10        1           0.000544689   -0.000153527    0.000094445
     11        1          -0.000106723    0.000525108   -0.000345008
     12        1           0.000286996   -0.000005512   -0.000084161
     13        1          -0.000552819   -0.000329432   -0.000189761
     14        1           0.000111461    0.000032510    0.000099181
     15        1           0.000028206   -0.000012813    0.000011731
     16        1          -0.000021397    0.000015110    0.000010530
     17        1           0.000082935    0.000092018    0.000218158
     18        1          -0.000620758    0.000049478   -0.000729433
     19        1           0.000304014    0.000337805   -0.000210536
 -------------------------------------------------------------------
 Cartesian Forces:  Max     0.002872409 RMS     0.000583652

 GradGradGradGradGradGradGradGradGradGradGradGradGradGradGradGradGradGrad
 Berny optimization.
 Using GEDIIS/GDIIS optimizer.
 FormGI is forming the generalized inverse of G from B-inverse, IUseBI=4.
 Internal  Forces:  Max     0.003010943 RMS     0.000711842
 Search for a local minimum.
 Step number   2 out of a maximum of   99
 All quantities printed in internal units (Hartrees-Bohrs-Radians)
 Mixed Optimization -- En-DIIS/RFO-DIIS
 Update second derivatives using D2CorX and points    1    2
 DE= -3.32D-03 DEPred=-3.53D-03 R= 9.40D-01
 TightC=F SS=  1.41D+00  RLast= 3.49D-01 DXNew= 5.0454D-01 1.0470D+00
 Trust test= 9.40D-01 RLast= 3.49D-01 DXMaxT set to 5.05D-01
 ITU=  1  0
 Use linear search instead of GDIIS.
     Eigenvalues ---    0.00301   0.00402   0.00942   0.01546   0.01707
     Eigenvalues ---    0.01734   0.01990   0.02240   0.02400   0.02601
     Eigenvalues ---    0.02741   0.02925   0.03635   0.03902   0.05420
     Eigenvalues ---    0.06078   0.08985   0.10962   0.11615   0.12325
     Eigenvalues ---    0.12328   0.12917   0.13958   0.15302   0.16868
     Eigenvalues ---    0.17776   0.18998   0.19179   0.19286   0.21299
     Eigenvalues ---    0.22186   0.25269   0.30783   0.32191   0.32647
     Eigenvalues ---    0.33150   0.35560   0.35768   0.35829   0.36030
     Eigenvalues ---    0.36503   0.38961   0.41847   0.42936   0.43882
     Eigenvalues ---    0.44386   0.45808   0.46058   0.46956   0.48375
     Eigenvalues ---    0.51244
 RFO step:  Lambda=-6.34782466D-04 EMin= 3.00772018D-03
 Quartic linear search produced a step of  0.01502.
 Iteration  1 RMS(Cart)=  0.04924955 RMS(Int)=  0.00171948
 Iteration  2 RMS(Cart)=  0.00194729 RMS(Int)=  0.00004069
 Iteration  3 RMS(Cart)=  0.00000444 RMS(Int)=  0.00004052
 Iteration  4 RMS(Cart)=  0.00000000 RMS(Int)=  0.00004052
 Variable       Old X    -DE/DX   Delta X   Delta X   Delta X     New X
                                 (Linear)    (Quad)   (Total)
    R1        2.79099   0.00147   0.00032   0.00261   0.00293   2.79393
    R2        1.92420   0.00007  -0.00005  -0.00026  -0.00031   1.92389
    R3        1.92323  -0.00001  -0.00003   0.00029   0.00026   1.92349
    R4        2.85861   0.00120   0.00003   0.00142   0.00145   2.86006
    R5        2.07651   0.00012   0.00008  -0.00001   0.00007   2.07658
    R6        2.07836   0.00001   0.00010   0.00088   0.00098   2.07934
    R7        2.63916   0.00042  -0.00029   0.00003  -0.00026   2.63890
    R8        2.67998   0.00218   0.00025   0.00250   0.00275   2.68273
    R9        2.64096  -0.00006   0.00007   0.00026   0.00034   2.64130
   R10        2.05547   0.00005   0.00000   0.00027   0.00027   2.05575
   R11        2.63821  -0.00013   0.00015   0.00032   0.00048   2.63868
   R12        2.05139   0.00000  -0.00003  -0.00016  -0.00020   2.05119
   R13        2.63455  -0.00021  -0.00003  -0.00037  -0.00040   2.63415
   R14        2.05356   0.00002   0.00001   0.00007   0.00007   2.05364
   R15        2.65653   0.00066   0.00016   0.00137   0.00152   2.65805
   R16        2.05505   0.00000   0.00002   0.00018   0.00021   2.05526
   R17        2.63654   0.00063  -0.00037  -0.00296  -0.00333   2.63321
   R18        1.91369   0.00022  -0.00003  -0.00066  -0.00069   1.91300
   R19        1.93074   0.00025  -0.00010  -0.00393  -0.00403   1.92671
    A1        1.90267   0.00020   0.00026   0.00279   0.00304   1.90571
    A2        1.91008   0.00021   0.00025  -0.00205  -0.00180   1.90827
    A3        1.85367  -0.00011   0.00002   0.00020   0.00021   1.85388
    A4        1.94928   0.00194  -0.00016   0.00365   0.00349   1.95277
    A5        1.86187  -0.00018  -0.00079  -0.00441  -0.00519   1.85668
    A6        1.97223  -0.00053   0.00120   0.00798   0.00920   1.98143
    A7        1.90661  -0.00050   0.00004   0.00189   0.00191   1.90853
    A8        1.90684  -0.00092  -0.00031  -0.00795  -0.00828   1.89856
    A9        1.86369   0.00013  -0.00000  -0.00132  -0.00131   1.86238
   A10        2.10987  -0.00227   0.00047  -0.00288  -0.00240   2.10747
   A11        2.09532   0.00301  -0.00048   0.00542   0.00495   2.10027
   A12        2.07760  -0.00075   0.00000  -0.00245  -0.00247   2.07513
   A13        2.12572   0.00073   0.00025   0.00370   0.00393   2.12965
   A14        2.06918  -0.00046  -0.00047  -0.00395  -0.00441   2.06477
   A15        2.08825  -0.00027   0.00022   0.00027   0.00050   2.08876
   A16        2.07513  -0.00004  -0.00025  -0.00202  -0.00229   2.07284
   A17        2.10149  -0.00001   0.00008   0.00062   0.00071   2.10219
   A18        2.10657   0.00005   0.00017   0.00141   0.00158   2.10815
   A19        2.10178   0.00004   0.00014   0.00031   0.00042   2.10220
   A20        2.09796  -0.00000   0.00001   0.00061   0.00063   2.09858
   A21        2.08344  -0.00004  -0.00015  -0.00094  -0.00108   2.08236
   A22        2.10913   0.00055  -0.00000   0.00124   0.00120   2.11034
   A23        2.09609  -0.00018   0.00026   0.00058   0.00085   2.09695
   A24        2.07795  -0.00037  -0.00026  -0.00180  -0.00205   2.07590
   A25        2.07661  -0.00052  -0.00010  -0.00021  -0.00046   2.07615
   A26        2.08654   0.00211  -0.00032   0.00174   0.00133   2.08786
   A27        2.11787  -0.00157   0.00057  -0.00006   0.00041   2.11828
   A28        1.98749  -0.00014   0.00020   0.00494   0.00501   1.99250
   A29        1.93935   0.00087   0.00035   0.01343   0.01365   1.95300
   A30        1.95646   0.00016   0.00018   0.00761   0.00759   1.96405
    D1        1.08253   0.00014   0.00099   0.07666   0.07766   1.16020
    D2       -3.11852   0.00052   0.00042   0.07828   0.07871  -3.03980
    D3       -1.07580   0.00027   0.00063   0.07830   0.07891  -0.99689
    D4        3.10303   0.00024   0.00128   0.07732   0.07861  -3.10154
    D5       -1.09802   0.00062   0.00071   0.07893   0.07966  -1.01836
    D6        0.94470   0.00036   0.00092   0.07896   0.07986   1.02456
    D7       -2.22655   0.00065  -0.00119   0.07474   0.07356  -2.15299
    D8        0.94546   0.00081  -0.00106   0.07151   0.07045   1.01591
    D9        2.00118   0.00002  -0.00013   0.07678   0.07665   2.07783
   D10       -1.11000   0.00018   0.00000   0.07354   0.07354  -1.03645
   D11       -0.03173   0.00067   0.00003   0.08179   0.08180   0.05007
   D12        3.14028   0.00083   0.00016   0.07855   0.07869  -3.06421
   D13       -3.09226  -0.00024  -0.00008  -0.01080  -0.01087  -3.10313
   D14        0.04069  -0.00005   0.00005  -0.00712  -0.00707   0.03362
   D15        0.01922  -0.00033  -0.00021  -0.00747  -0.00768   0.01154
   D16       -3.13101  -0.00014  -0.00008  -0.00379  -0.00388  -3.13489
   D17        3.08017   0.00048   0.00067   0.02566   0.02632   3.10649
   D18        0.00828   0.00022  -0.00086   0.00211   0.00127   0.00955
   D19       -0.03157   0.00066   0.00079   0.02250   0.02327  -0.00830
   D20       -3.10346   0.00040  -0.00074  -0.00105  -0.00178  -3.10524
   D21        0.00121  -0.00008  -0.00025  -0.00562  -0.00587  -0.00465
   D22        3.13954   0.00009   0.00006  -0.00082  -0.00076   3.13878
   D23       -3.13164  -0.00028  -0.00038  -0.00932  -0.00970  -3.14134
   D24        0.00668  -0.00010  -0.00006  -0.00452  -0.00459   0.00209
   D25       -0.00905   0.00016   0.00013   0.00341   0.00355  -0.00550
   D26        3.13639   0.00017   0.00040   0.00904   0.00944  -3.13736
   D27        3.13582  -0.00002  -0.00018  -0.00140  -0.00158   3.13425
   D28       -0.00193  -0.00000   0.00009   0.00423   0.00432   0.00239
   D29       -0.00393   0.00016   0.00046   0.01204   0.01250   0.00857
   D30       -3.14056   0.00001   0.00049   0.00879   0.00927  -3.13129
   D31        3.13385   0.00015   0.00019   0.00646   0.00666   3.14051
   D32       -0.00277  -0.00000   0.00022   0.00321   0.00343   0.00065
   D33        0.02435  -0.00057  -0.00093  -0.02496  -0.02589  -0.00154
   D34        3.09495  -0.00015   0.00055  -0.00089  -0.00035   3.09460
   D35       -3.12215  -0.00042  -0.00095  -0.02173  -0.02269   3.13834
   D36       -0.05156   0.00000   0.00052   0.00233   0.00286  -0.04871
   D37       -2.79058  -0.00059  -0.00095  -0.05459  -0.05560  -2.84618
   D38       -0.56129   0.00026  -0.00027  -0.02850  -0.02870  -0.58998
   D39        0.42241  -0.00090  -0.00245  -0.07871  -0.08124   0.34117
   D40        2.65170  -0.00006  -0.00178  -0.05262  -0.05434   2.59737
         Item               Value     Threshold  Converged?
 Maximum Force            0.003011     0.000450     NO 
 RMS     Force            0.000712     0.000300     NO 
 Maximum Displacement     0.247989     0.001800     NO 
 RMS     Displacement     0.049055     0.001200     NO 
 Predicted change in Energy=-3.505260D-04
 GradGradGradGradGradGradGradGradGradGradGradGradGradGradGradGradGradGrad

                          Input orientation:                          
 ---------------------------------------------------------------------
 Center     Atomic      Atomic             Coordinates (Angstroms)
 Number     Number       Type             X           Y           Z
 ---------------------------------------------------------------------
      1          7           0        2.347592    0.857003    0.585398
      2          6           0        1.798648   -0.128901   -0.369885
      3          6           0        0.315388   -0.348450   -0.164085
      4          6           0       -0.189386   -1.626375    0.085261
      5          6           0       -1.558238   -1.866405    0.234386
      6          6           0       -2.443644   -0.791215    0.135570
      7          6           0       -1.966782    0.497098   -0.100849
      8          6           0       -0.590120    0.741133   -0.254847
      9          7           0       -0.107508    2.015408   -0.546349
     10          1           0        2.298930    0.473388    1.527184
     11          1           0        3.335514    1.003038    0.388589
     12          1           0        1.969786    0.283852   -1.373817
     13          1           0        2.308840   -1.103265   -0.337279
     14          1           0        0.513630   -2.453253    0.159222
     15          1           0       -1.922975   -2.870783    0.425113
     16          1           0       -3.512458   -0.949943    0.251495
     17          1           0       -2.660031    1.332468   -0.167380
     18          1           0       -0.754821    2.763113   -0.330230
     19          1           0        0.817635    2.172090   -0.147498
 ---------------------------------------------------------------------
                    Distance matrix (angstroms):
                    1          2          3          4          5
     1  N    0.000000
     2  C    1.478483   0.000000
     3  C    2.478850   1.513478   0.000000
     4  C    3.585186   2.530190   1.396446   0.000000
     5  C    4.774481   3.827890   2.444062   1.397716   0.000000
     6  C    5.086739   4.323330   2.810354   2.404517   1.396332
     7  C    4.383411   3.826580   2.434594   2.775412   2.421867
     8  C    3.057710   2.544878   1.419639   2.425151   2.824156
     9  N    2.941134   2.874479   2.431624   3.697056   4.216947
    10  H    1.018081   2.052292   2.733175   3.560880   4.692942
    11  H    1.017865   2.053905   3.354568   4.408031   5.675058
    12  H    2.075997   1.098879   2.144830   3.231084   4.433608
    13  H    2.166907   1.100338   2.138596   2.587144   3.982898
    14  H    3.808259   2.708106   2.138696   1.087854   2.154687
    15  H    5.670963   4.690460   3.423388   2.160875   1.085442
    16  H    6.141395   5.409997   3.897038   3.395292   2.158512
    17  H    5.086160   4.696427   3.417399   3.862987   3.407074
    18  H    3.754544   3.858176   3.294659   4.445217   4.732516
    19  H    2.146476   2.511255   2.570146   3.936573   4.701069
                    6          7          8          9         10
     6  C    0.000000
     7  C    1.393931   0.000000
     8  C    2.436404   1.406579   0.000000
     9  N    3.714792   2.441441   1.393437   0.000000
    10  H    5.101747   4.565890   3.404986   3.531049   0.000000
    11  H    6.056569   5.348819   3.986629   3.708558   1.628322
    12  H    4.786689   4.142764   2.830958   2.828098   2.925759
    13  H    4.786132   4.571433   3.436942   3.950768   2.441752
    14  H    3.392403   3.863243   3.404969   4.566462   3.691049
    15  H    2.163223   3.408985   3.909576   5.302313   5.497502
    16  H    1.086737   2.146436   3.414115   4.585145   6.117638
    17  H    2.156068   1.087595   2.154497   2.669345   5.310448
    18  H    3.962618   2.579978   2.030077   1.012317   4.244788
    19  H    4.415568   3.249731   2.010208   1.019569   2.807914
                   11         12         13         14         15
    11  H    0.000000
    12  H    2.342758   0.000000
    13  H    2.453050   1.764501   0.000000
    14  H    4.467839   3.458663   2.300383   0.000000
    15  H    6.531426   5.323670   4.649045   2.486377   0.000000
    16  H    7.122335   5.849692   5.853006   4.298586   2.499246
    17  H    6.030272   4.897989   5.536365   4.950805   4.308320
    18  H    4.510589   3.828746   4.933046   5.390640   5.803095
    19  H    2.827329   2.529181   3.603840   4.645459   5.767963
                   16         17         18         19
    16  H    0.000000
    17  H    2.472142   0.000000
    18  H    4.661518   2.388114   0.000000
    19  H    5.353129   3.577642   1.689769   0.000000
 Stoichiometry    C7H10N2
 Framework group  C1[X(C7H10N2)]
 Deg. of freedom    51
 Full point group                 C1      NOp   1
 Largest Abelian subgroup         C1      NOp   1
 Largest concise Abelian subgroup C1      NOp   1
                         Standard orientation:                         
 ---------------------------------------------------------------------
 Center     Atomic      Atomic             Coordinates (Angstroms)
 Number     Number       Type             X           Y           Z
 ---------------------------------------------------------------------
      1          7           0        2.626883   -0.299837    0.597508
      2          6           0        1.734172   -0.842380   -0.448736
      3          6           0        0.286632   -0.476952   -0.200332
      4          6           0       -0.691616   -1.467725   -0.093263
      5          6           0       -2.042281   -1.158772    0.090748
      6          6           0       -2.419217    0.183083    0.174935
      7          6           0       -1.462427    1.192644    0.083379
      8          6           0       -0.102967    0.884870   -0.105326
      9          7           0        0.853820    1.886998   -0.253530
     10          1           0        2.421334   -0.757773    1.483246
     11          1           0        3.591353   -0.535179    0.372868
     12          1           0        2.063997   -0.398421   -1.398289
[...]
    13  H   -0.000164   0.006380  -0.000290  -0.005856  -0.003678  -0.044169
    14  H    0.000672   0.006081  -0.000120   0.000005  -0.000021   0.000153
    15  H    0.004267   0.001036   0.000006   0.000000  -0.000000   0.000003
    16  H   -0.037535   0.004139  -0.000125  -0.000000   0.000000  -0.000000
    17  H    0.360764  -0.041971  -0.008812  -0.000000  -0.000000  -0.000003
    18  H   -0.007496  -0.025801   0.334942  -0.000070  -0.000044  -0.000171
    19  H    0.004275  -0.016663   0.292563  -0.001140   0.000117  -0.001117
              13         14         15         16         17         18
     1  N   -0.036656   0.000105   0.000001  -0.000000   0.000005   0.000844
     2  C    0.375807  -0.012938  -0.000158   0.000008  -0.000158  -0.000007
     3  C   -0.039567  -0.038759   0.003533   0.001108   0.004867   0.005039
     4  C   -0.007525   0.363614  -0.037044   0.004646   0.000643  -0.000103
     5  C    0.000127  -0.046094   0.366176  -0.042584   0.005025   0.000001
     6  C    0.000003   0.004922  -0.040596   0.367503  -0.038240  -0.000090
     7  C   -0.000164   0.000672   0.004267  -0.037535   0.360764  -0.007496
     8  C    0.006380   0.006081   0.001036   0.004139  -0.041971  -0.025801
     9  N   -0.000290  -0.000120   0.000006  -0.000125  -0.008812   0.334942
    10  H   -0.005856   0.000005   0.000000  -0.000000  -0.000000  -0.000070
    11  H   -0.003678  -0.000021  -0.000000   0.000000  -0.000000  -0.000044
    12  H   -0.044169   0.000153   0.000003  -0.000000  -0.000003  -0.000171
    13  H    0.650470   0.008676  -0.000008  -0.000000   0.000003   0.000007
    14  H    0.008676   0.653716  -0.005875  -0.000220   0.000016   0.000004
    15  H   -0.000008  -0.005875   0.619744  -0.005864  -0.000187  -0.000000
    16  H   -0.000000  -0.000220  -0.005864   0.646838  -0.006750  -0.000011
    17  H    0.000003   0.000016  -0.000187  -0.006750   0.643153   0.005992
    18  H    0.000007   0.000004  -0.000000  -0.000011   0.005992   0.403974
    19  H    0.000991  -0.000002  -0.000000   0.000003   0.000016  -0.022533
              19
     1  N    0.060574
     2  C   -0.005906
     3  C   -0.013990
     4  C   -0.000173
     5  C    0.000016
     6  C   -0.000103
     7  C    0.004275
     8  C   -0.016663
     9  N    0.292563
    10  H   -0.001140
    11  H    0.000117
    12  H   -0.001117
    13  H    0.000991
    14  H   -0.000002
    15  H   -0.000000
    16  H    0.000003
    17  H    0.000016
    18  H   -0.022533
    19  H    0.391034
 Mulliken charges:
               1
     1  N   -0.620560
     2  C   -0.130895
     3  C    0.083101
     4  C   -0.209199
     5  C   -0.066708
     6  C   -0.169736
     7  C   -0.144635
     8  C    0.211701
     9  N   -0.573371
    10  H    0.250053
    11  H    0.244478
    12  H    0.107250
    13  H    0.095447
    14  H    0.066064
    15  H    0.094966
    16  H    0.068844
    17  H    0.075638
    18  H    0.305522
    19  H    0.312038
 Sum of Mulliken charges =  -0.00000
 Mulliken charges with hydrogens summed into heavy atoms:
               1
     1  N   -0.126028
     2  C    0.071802
     3  C    0.083101
     4  C   -0.143134
     5  C    0.028258
     6  C   -0.100892
     7  C   -0.068997
     8  C    0.211701
     9  N    0.044189
 Electronic spatial extent (au):  <R**2>=           1203.2697
 Charge=             -0.0000 electrons
 Dipole moment (field-independent basis, Debye):
    X=              3.3842    Y=              1.3463    Z=              0.9859  Tot=              3.7733
 Quadrupole moment (field-independent basis, Debye-Ang):
   XX=            -48.1651   YY=            -44.4821   ZZ=            -56.5769
   XY=             -0.6263   XZ=              0.9301   YZ=              0.6037
 Traceless Quadrupole moment (field-independent basis, Debye-Ang):
   XX=              1.5763   YY=              5.2593   ZZ=             -6.8356
   XY=             -0.6263   XZ=              0.9301   YZ=              0.6037
 Octapole moment (field-independent basis, Debye-Ang**2):
  XXX=             34.2722  YYY=             26.2264  ZZZ=              4.3990  XYY=              7.8084
  XXY=             -9.2663  XXZ=              5.2925  XZZ=             11.7239  YZZ=             -0.8194
  YYZ=              5.5082  XYZ=             -1.1442
 Hexadecapole moment (field-independent basis, Debye-Ang**3):
 XXXX=           -893.4022 YYYY=           -411.2091 ZZZZ=            -95.1540 XXXY=            -16.1367
 XXXZ=              7.2138 YYYX=             17.2057 YYYZ=              9.4547 ZZZX=             12.7265
 ZZZY=             -3.9134 XXYY=           -230.5329 XXZZ=           -187.9837 YYZZ=           -107.1348
 XXYZ=             -7.1689 YYXZ=              5.0847 ZZXY=             -4.8619
 N-N= 4.300865631948D+02 E-N=-1.747547989604D+03  KE= 3.787492190070D+02
 Evaluate density.
 Using the total density.
 Monte-Carlo method of calculating molar volume:
 based on  0.001 e/bohr**3 density envelope.
 Number of points per bohr**3 =   20 CutOff= 1.00D-04
 Using the CI density.
 There are       354 points.  Will hold       354 in memory.
 LenV=   805205052 MDV=   805306368.
 Box volume = 5583.176 fraction occupied=0.164
 Integrated density= 2.0749192811434479D+01 error=-4.5250807188565517D+01
 Molar volume =  914.758 bohr**3/mol ( 81.632 cm**3/mol)
 Recommended a0 for SCRF calculation =  4.01 angstrom (  7.57 bohr)
 ******************************Gaussian NBO Version 3.1******************************
             N A T U R A L   A T O M I C   O R B I T A L   A N D
          N A T U R A L   B O N D   O R B I T A L   A N A L Y S I S
 ******************************Gaussian NBO Version 3.1******************************
       /RESON  / : Allow strongly delocalized NBO set

 Analyzing the CI density

 Job title: GVOYKJPMUUJXBS-UHFFFAOYSA-N_conf_2                              

 Storage needed:    103962 in NPA ( 805304373 available)
 GSVD:  LWork=       19441 too small for GESVD, short by        9371 words or        9371 for optimal perf.


 NATURAL POPULATIONS:  Natural atomic orbital occupancies 
                                                          
   NAO  Atom  No  lang   Type(AO)    Occupancy
 --------------------------------------------
     1    N    1  S      Cor( 1S)     1.99967
     2    N    1  S      Val( 2S)     1.45478
     3    N    1  S      Ryd( 3S)     0.00115
     4    N    1  S      Ryd( 4S)     0.00003
     5    N    1  px     Val( 2p)     1.34850
     6    N    1  px     Ryd( 3p)     0.00203
     7    N    1  py     Val( 2p)     1.78882
     8    N    1  py     Ryd( 3p)     0.00543
     9    N    1  pz     Val( 2p)     1.33213
    10    N    1  pz     Ryd( 3p)     0.00228
    11    N    1  dxy    Ryd( 3d)     0.00096
    12    N    1  dxz    Ryd( 3d)     0.00017
    13    N    1  dyz    Ryd( 3d)     0.00119
    14    N    1  dx2y2  Ryd( 3d)     0.00107
    15    N    1  dz2    Ryd( 3d)     0.00064

    16    C    2  S      Cor( 1S)     1.99931
    17    C    2  S      Val( 2S)     1.01671
    18    C    2  S      Ryd( 3S)     0.00185
    19    C    2  S      Ryd( 4S)     0.00003
    20    C    2  px     Val( 2p)     0.99189
    21    C    2  px     Ryd( 3p)     0.00317
    22    C    2  py     Val( 2p)     1.19183
    23    C    2  py     Ryd( 3p)     0.00467
    24    C    2  pz     Val( 2p)     1.07118
    25    C    2  pz     Ryd( 3p)     0.00121
    26    C    2  dxy    Ryd( 3d)     0.00067
    27    C    2  dxz    Ryd( 3d)     0.00139
    28    C    2  dyz    Ryd( 3d)     0.00084
    29    C    2  dx2y2  Ryd( 3d)     0.00117
    30    C    2  dz2    Ryd( 3d)     0.00098

    31    C    3  S      Cor( 1S)     1.99898
    32    C    3  S      Val( 2S)     0.87407
    33    C    3  S      Ryd( 3S)     0.00093
    34    C    3  S      Ryd( 4S)     0.00005
    35    C    3  px     Val( 2p)     1.06916
    36    C    3  px     Ryd( 3p)     0.00510
    37    C    3  py     Val( 2p)     1.06551
    38    C    3  py     Ryd( 3p)     0.00450
    39    C    3  pz     Val( 2p)     1.11765
    40    C    3  pz     Ryd( 3p)     0.00628
    41    C    3  dxy    Ryd( 3d)     0.00066
    42    C    3  dxz    Ryd( 3d)     0.00063
    43    C    3  dyz    Ryd( 3d)     0.00049
    44    C    3  dx2y2  Ryd( 3d)     0.00069
    45    C    3  dz2    Ryd( 3d)     0.00037

    46    C    4  S      Cor( 1S)     1.99908
    47    C    4  S      Val( 2S)     0.94602
    48    C    4  S      Ryd( 3S)     0.00065
    49    C    4  S      Ryd( 4S)     0.00004
    50    C    4  px     Val( 2p)     1.06781
    51    C    4  px     Ryd( 3p)     0.00451
    52    C    4  py     Val( 2p)     1.18017
    53    C    4  py     Ryd( 3p)     0.00476
    54    C    4  pz     Val( 2p)     1.12528
    55    C    4  pz     Ryd( 3p)     0.00562
    56    C    4  dxy    Ryd( 3d)     0.00065
    57    C    4  dxz    Ryd( 3d)     0.00053
    58    C    4  dyz    Ryd( 3d)     0.00039
    59    C    4  dx2y2  Ryd( 3d)     0.00066
    60    C    4  dz2    Ryd( 3d)     0.00037

    61    C    5  S      Cor( 1S)     1.99911
    62    C    5  S      Val( 2S)     0.97274
    63    C    5  S      Ryd( 3S)     0.00052
    64    C    5  S      Ryd( 4S)     0.00003
    65    C    5  px     Val( 2p)     1.12273
    66    C    5  px     Ryd( 3p)     0.00465
    67    C    5  py     Val( 2p)     1.13270
    68    C    5  py     Ryd( 3p)     0.00481
    69    C    5  pz     Val( 2p)     0.90810
    70    C    5  pz     Ryd( 3p)     0.00156
    71    C    5  dxy    Ryd( 3d)     0.00080
    72    C    5  dxz    Ryd( 3d)     0.00068
    73    C    5  dyz    Ryd( 3d)     0.00067
    74    C    5  dx2y2  Ryd( 3d)     0.00065
    75    C    5  dz2    Ryd( 3d)     0.00039

    76    C    6  S      Cor( 1S)     1.99915
    77    C    6  S      Val( 2S)     0.95429
    78    C    6  S      Ryd( 3S)     0.00062
    79    C    6  S      Ryd( 4S)     0.00003
    80    C    6  px     Val( 2p)     1.18183
    81    C    6  px     Ryd( 3p)     0.00467
    82    C    6  py     Val( 2p)     1.06147
    83    C    6  py     Ryd( 3p)     0.00557
    84    C    6  pz     Val( 2p)     1.13984
    85    C    6  pz     Ryd( 3p)     0.00618
    86    C    6  dxy    Ryd( 3d)     0.00065
    87    C    6  dxz    Ryd( 3d)     0.00039
    88    C    6  dyz    Ryd( 3d)     0.00047
    89    C    6  dx2y2  Ryd( 3d)     0.00065
    90    C    6  dz2    Ryd( 3d)     0.00036

    91    C    7  S      Cor( 1S)     1.99907
    92    C    7  S      Val( 2S)     0.95212
    93    C    7  S      Ryd( 3S)     0.00071
    94    C    7  S      Ryd( 4S)     0.00004
    95    C    7  px     Val( 2p)     1.05305
    96    C    7  px     Ryd( 3p)     0.00491
    97    C    7  py     Val( 2p)     1.18920
    98    C    7  py     Ryd( 3p)     0.00415
    99    C    7  pz     Val( 2p)     1.11290
   100    C    7  pz     Ryd( 3p)     0.00650
   101    C    7  dxy    Ryd( 3d)     0.00053
   102    C    7  dxz    Ryd( 3d)     0.00058
   103    C    7  dyz    Ryd( 3d)     0.00040
   104    C    7  dx2y2  Ryd( 3d)     0.00074
   105    C    7  dz2    Ryd( 3d)     0.00039

   106    C    8  S      Cor( 1S)     1.99893
   107    C    8  S      Val( 2S)     0.84997
   108    C    8  S      Ryd( 3S)     0.00133
   109    C    8  S      Ryd( 4S)     0.00009
   110    C    8  px     Val( 2p)     1.00409
   111    C    8  px     Ryd( 3p)     0.00494
   112    C    8  py     Val( 2p)     0.99082
   113    C    8  py     Ryd( 3p)     0.00525
   114    C    8  pz     Val( 2p)     0.95262
   115    C    8  pz     Ryd( 3p)     0.00164
   116    C    8  dxy    Ryd( 3d)     0.00125
   117    C    8  dxz    Ryd( 3d)     0.00129
   118    C    8  dyz    Ryd( 3d)     0.00121
   119    C    8  dx2y2  Ryd( 3d)     0.00089
   120    C    8  dz2    Ryd( 3d)     0.00044

   121    N    9  S      Cor( 1S)     1.99944
   122    N    9  S      Val( 2S)     1.37711
   123    N    9  S      Ryd( 3S)     0.00016
   124    N    9  S      Ryd( 4S)     0.00001
   125    N    9  px     Val( 2p)     1.40879
   126    N    9  px     Ryd( 3p)     0.00166
   127    N    9  py     Val( 2p)     1.37330
   128    N    9  py     Ryd( 3p)     0.00192
   129    N    9  pz     Val( 2p)     1.50109
   130    N    9  pz     Ryd( 3p)     0.00254
   131    N    9  dxy    Ryd( 3d)     0.00049
   132    N    9  dxz    Ryd( 3d)     0.00086
   133    N    9  dyz    Ryd( 3d)     0.00082
   134    N    9  dx2y2  Ryd( 3d)     0.00042
   135    N    9  dz2    Ryd( 3d)     0.00056

   136    H   10  S      Val( 1S)     0.60340
   137    H   10  S      Ryd( 2S)     0.00346
   138    H   10  px     Ryd( 2p)     0.00027
   139    H   10  py     Ryd( 2p)     0.00056
   140    H   10  pz     Ryd( 2p)     0.00050

   141    H   11  S      Val( 1S)     0.60547
   142    H   11  S      Ryd( 2S)     0.00472
   143    H   11  px     Ryd( 2p)     0.00053
   144    H   11  py     Ryd( 2p)     0.00053
   145    H   11  pz     Ryd( 2p)     0.00027

   146    H   12  S      Val( 1S)     0.76927
   147    H   12  S      Ryd( 2S)     0.00308
   148    H   12  px     Ryd( 2p)     0.00013
   149    H   12  py     Ryd( 2p)     0.00013
   150    H   12  pz     Ryd( 2p)     0.00034

   151    H   13  S      Val( 1S)     0.77632
   152    H   13  S      Ryd( 2S)     0.00177
   153    H   13  px     Ryd( 2p)     0.00008
   154    H   13  py     Ryd( 2p)     0.00038
   155    H   13  pz     Ryd( 2p)     0.00007

   156    H   14  S      Val( 1S)     0.76991
   157    H   14  S      Ryd( 2S)     0.00105
   158    H   14  px     Ryd( 2p)     0.00008
   159    H   14  py     Ryd( 2p)     0.00037
   160    H   14  pz     Ryd( 2p)     0.00020

   161    H   15  S      Val( 1S)     0.76126
   162    H   15  S      Ryd( 2S)     0.00081
   163    H   15  px     Ryd( 2p)     0.00024
   164    H   15  py     Ryd( 2p)     0.00025
   165    H   15  pz     Ryd( 2p)     0.00012

   166    H   16  S      Val( 1S)     0.76746
   167    H   16  S      Ryd( 2S)     0.00081
   168    H   16  px     Ryd( 2p)     0.00037
   169    H   16  py     Ryd( 2p)     0.00008
   170    H   16  pz     Ryd( 2p)     0.00021

   171    H   17  S      Val( 1S)     0.76729
   172    H   17  S      Ryd( 2S)     0.00123
   173    H   17  px     Ryd( 2p)     0.00009
   174    H   17  py     Ryd( 2p)     0.00037
   175    H   17  pz     Ryd( 2p)     0.00020

   176    H   18  S      Val( 1S)     0.57255
   177    H   18  S      Ryd( 2S)     0.00136
   178    H   18  px     Ryd( 2p)     0.00023
   179    H   18  py     Ryd( 2p)     0.00054
   180    H   18  pz     Ryd( 2p)     0.00042

   181    H   19  S      Val( 1S)     0.55350
   182    H   19  S      Ryd( 2S)     0.00353
   183    H   19  px     Ryd( 2p)     0.00056
   184    H   19  py     Ryd( 2p)     0.00029
   185    H   19  pz     Ryd( 2p)     0.00044

 WARNING:  1 low occupancy (<1.9990e) core orbital  found on  C    3
           1 low occupancy (<1.9990e) core orbital  found on  C    8


 Summary of Natural Population Analysis:                  
                                                          
                                       Natural Population 
                Natural  -----------------------------------------------
    Atom  No    Charge         Core      Valence    Rydberg      Total
 -----------------------------------------------------------------------
      N    1   -0.93884      1.99967     5.92422    0.01495     7.93884
      C    2   -0.28690      1.99931     4.27161    0.01598     6.28690
      C    3   -0.14507      1.99898     4.12639    0.01969     6.14507
      C    4   -0.33655      1.99908     4.31928    0.01819     6.33655
      C    5   -0.15016      1.99911     4.13627    0.01477     6.15016
      C    6   -0.35616      1.99915     4.33743    0.01959     6.35616
      C    7   -0.32529      1.99907     4.30727    0.01895     6.32529
      C    8    0.18525      1.99893     3.79749    0.01833     5.81475
      N    9   -0.66918      1.99944     5.66029    0.00944     7.66918
      H   10    0.39180      0.00000     0.60340    0.00479     0.60820
      H   11    0.38848      0.00000     0.60547    0.00605     0.61152
      H   12    0.22706      0.00000     0.76927    0.00367     0.77294
      H   13    0.22138      0.00000     0.77632    0.00230     0.77862
      H   14    0.22839      0.00000     0.76991    0.00170     0.77161
      H   15    0.23732      0.00000     0.76126    0.00143     0.76268
      H   16    0.23106      0.00000     0.76746    0.00148     0.76894
      H   17    0.23081      0.00000     0.76729    0.00189     0.76919
      H   18    0.42490      0.00000     0.57255    0.00255     0.57510
      H   19    0.44169      0.00000     0.55350    0.00481     0.55831
 =======================================================================
   * Total *    0.00000     17.99274    47.82670    0.18056    66.00000

                                 Natural Population      
 --------------------------------------------------------
   Core                      17.99274 ( 99.9597% of  18)
   Valence                   47.82670 ( 99.6390% of  48)
   Natural Minimal Basis     65.81944 ( 99.7264% of  66)
   Natural Rydberg Basis      0.18056 (  0.2736% of  66)
 --------------------------------------------------------

    Atom  No          Natural Electron Configuration
 ----------------------------------------------------------------------------
      N    1      [core]2S( 1.45)2p( 4.47)3p( 0.01)
      C    2      [core]2S( 1.02)2p( 3.25)3p( 0.01)3d( 0.01)
      C    3      [core]2S( 0.87)2p( 3.25)3p( 0.02)
      C    4      [core]2S( 0.95)2p( 3.37)3p( 0.01)
      C    5      [core]2S( 0.97)2p( 3.16)3p( 0.01)
      C    6      [core]2S( 0.95)2p( 3.38)3p( 0.02)
      C    7      [core]2S( 0.95)2p( 3.36)3p( 0.02)
      C    8      [core]2S( 0.85)2p( 2.95)3p( 0.01)3d( 0.01)
      N    9      [core]2S( 1.38)2p( 4.28)3p( 0.01)
      H   10            1S( 0.60)
      H   11            1S( 0.61)
      H   12            1S( 0.77)
      H   13            1S( 0.78)
      H   14            1S( 0.77)
      H   15            1S( 0.76)
      H   16            1S( 0.77)
      H   17            1S( 0.77)
      H   18            1S( 0.57)
      H   19            1S( 0.55)


 NBO analysis skipped by request.
 1\1\GINC-CN36\SP\RB3LYP TD-FC\6-31G(d,p)\C7H10N2\QDUEZ\11-Jul-2024\0\\
 # TD(NStates=10, Root=1) B3LYP/6-31G** SCRF=(Solvent=water) volume pop
 =NPA density=current Geom=AllCheck Guess=Read\\GVOYKJPMUUJXBS-UHFFFAOY
 SA-N_conf_2\\0,1\N,0,2.3394008822,0.881691826,0.5580382051\C,0,1.79878
 60043,-0.1386014166,-0.3649641576\C,0,0.3150213271,-0.3551728921,-0.15
 99537946\C,0,-0.1935348869,-1.633929246,0.0797916909\C,0,-1.563733143,
 -1.8690772306,0.2235181771\C,0,-2.4458446004,-0.7909998045,0.129544685
 8\C,0,-1.9640763746,0.4974481225,-0.096908915\C,0,-0.5863615618,0.7374
 963073,-0.2449978272\N,0,-0.0976694291,2.0127969438,-0.5272358704\H,0,
 2.2930851184,0.5303351556,1.5124136627\H,0,3.3258149347,1.0300952279,0
 .3564025737\H,0,1.9732442079,0.2375196759,-1.382490828\H,0,2.314848418
 4,-1.1072619932,-0.2924690609\H,0,0.5052196528,-2.4646867186,0.1505931
 54\H,0,-1.9327398098,-2.8734661464,0.4063494766\H,0,-3.5153761914,-0.9
 479104754,0.2412296842\H,0,-2.6548836419,1.3349979701,-0.1604967038\H,
 0,-0.7408864634,2.7616517574,-0.302309332\H,0,0.8296855566,2.157072936
 9,-0.1260548207\\Version=EM64L-G16RevA.03\State=1-A\HF=-382.2949403\RM
 SD=9.771e-09\Dipole=0.9816926,1.0704484,0.306956\Quadrupole=1.9181164,
 3.1428698,-5.0609862,-1.2586715,0.9212412,-0.3513011\PG=C01 [X(C7H10N2
 )]\\@


 ACHIEVEMENT--  THE MAN WHO ROWS THE BOAT GENERALLY 
                DOESN'T HAVE TIME TO ROCK IT.

                   -- FROM THE BACK OF A SUGAR PACKET
 Job cpu time:       0 days  0 hours 41 minutes 34.8 seconds.
 Elapsed time:       0 days  0 hours 16 minutes 35.3 seconds.
 File lengths (MBytes):  RWF=    334 Int=      0 D2E=      0 Chk=     21 Scr=      1
 Normal termination of Gaussian 16 at Thu Jul 11 18:03:09 2024.
