 Entering Gaussian System, Link 0=g16
 Initial command:
 /opt/sw/arch/manual/gaussian/G16_A03/g16/l1.exe "/scratch/1380894/Gau-106068.inp" -scrdir="/scratch/1380894/"
 Entering Link 1 = /opt/sw/arch/manual/gaussian/G16_A03/g16/l1.exe PID=    106069.
  
 Copyright (c) 1988,1990,1992,1993,1995,1998,2003,2009,2016,
            Gaussian, Inc.  All Rights Reserved.
  
 This is part of the Gaussian(R) 16 program.  It is based on
 the Gaussian(R) 09 system (copyright 2009, Gaussian, Inc.),
 the Gaussian(R) 03 system (copyright 2003, Gaussian, Inc.),
 the Gaussian(R) 98 system (copyright 1998, Gaussian, Inc.),
 the Gaussian(R) 94 system (copyright 1995, Gaussian, Inc.),
 the Gaussian 92(TM) system (copyright 1992, Gaussian, Inc.),
 the Gaussian 90(TM) system (copyright 1990, Gaussian, Inc.),
 the Gaussian 88(TM) system (copyright 1988, Gaussian, Inc.),
 the Gaussian 86(TM) system (copyright 1986, Carnegie Mellon
 University), and the Gaussian 82(TM) system (copyright 1983,
 Carnegie Mellon University). Gaussian is a federally registered
 trademark of Gaussian, Inc.
  
 This software contains proprietary and confidential information,
 including trade secrets, belonging to Gaussian, Inc.
  
 This software is provided under written license and may be
 used, copied, transmitted, or stored only in accord with that
 written license.
  
 The following legend is applicable only to US Government
 contracts under FAR:
  
                    RESTRICTED RIGHTS LEGEND
  
 Use, reproduction and disclosure by the US Government is
 subject to restrictions as set forth in subparagraphs (a)
 and (c) of the Commercial Computer Software - Restricted
 Rights clause in FAR 52.227-19.
  
 Gaussian, Inc.
 340 Quinnipiac St., Bldg. 40, Wallingford CT 06492
  
  
 ---------------------------------------------------------------
 Warning -- This program may not be used in any manner that
 competes with the business of Gaussian, Inc. or will provide
 assistance to any competitor of Gaussian, Inc.  The licensee
 of this program is prohibited from giving any competitor of
 Gaussian, Inc. access to this program.  By using this program,
 the user acknowledges that Gaussian, Inc. is engaged in the
 business of creating and licensing software in the field of
 computational chemistry and represents and warrants to the
 licensee that it is not a competitor of Gaussian, Inc. and that
 it will not use this program in any manner prohibited above.
 ---------------------------------------------------------------
  

 Cite this work as:
 Gaussian 16, Revision A.03,
 M. J. Frisch, G. W. Trucks, H. B. Schlegel, G. E. Scuseria, 
 M. A. Robb, J. R. Cheeseman, G. Scalmani, V. Barone, 
 G. A. Petersson, H. Nakatsuji, X. Li, M. Caricato, A. V. Marenich, 
 J. Bloino, B. G. Janesko, R. Gomperts, B. Mennucci, H. P. Hratchian, 
 J. V. Ortiz, A. F. Izmaylov, J. L. Sonnenberg, D. Williams-Young, 
 F. Ding, F. Lipparini, F. Egidi, J. Goings, B. Peng, A. Petrone, 
 T. Henderson, D. Ranasinghe, V. G. Zakrzewski, J. Gao, N. Rega, 
 G. Zheng, W. Liang, M. Hada, M. Ehara, K. Toyota, R. Fukuda, 
 J. Hasegawa, M. Ishida, T. Nakajima, Y. Honda, O. Kitao, H. Nakai, 
 T. Vreven, K. Throssell, J. A. Montgomery, Jr., J. E. Peralta, 
 F. Ogliaro, M. J. Bearpark, J. J. Heyd, E. N. Brothers, K. N. Kudin, 
 V. N. Staroverov, T. A. Keith, R. Kobayashi, J. Normand, 
 K. Raghavachari, A. P. Rendell, J. C. Burant, S. S. Iyengar, 
 J. Tomasi, M. Cossi, J. M. Millam, M. Klene, C. Adamo, R. Cammi, 
 J. W. Ochterski, R. L. Martin, K. Morokuma, O. Farkas, 
 J. B. Foresman, and D. J. Fox, Gaussian, Inc., Wallingford CT, 2016.
 
 ******************************************
 Gaussian 16:  ES64L-G16RevA.03 25-Dec-2016
                18-Jul-2024 
 ******************************************
 %nprocshared=4
 Will use up to    4 processors via shared memory.
 %mem=8GB
 %Chk=KDXKERNSBIXSRK-YFKPBYRVSA-N_conf_0_0.chk
 -------------------------------------------------------
 # opt=CalcFc B3LYP/6-31G** SCRF=(Solvent=water) scf=xqc
 -------------------------------------------------------
 1/10=4,18=20,19=15,26=3,38=1/1,3;
 2/9=110,12=2,17=6,18=5,40=1/2;
 3/5=1,6=6,7=101,11=2,25=1,30=1,70=2201,71=2,72=1,74=-5,140=1/1,2,3;
 4//1;
 5/5=2,8=3,13=1,38=5,53=1/2,8;
 8/6=4,10=90,11=11/1;
 11/6=1,8=1,9=11,15=111,16=1/1,2,10;
 10/6=1,13=1/2;
 6/7=2,8=2,9=2,10=2,28=1/1;
 7/10=1,18=20,25=1/1,2,3,16;
 1/10=4,18=20,19=15,26=3/3(2);
 2/9=110/2;
 99//99;
 2/9=110/2;
 3/5=1,6=6,7=101,11=2,25=1,30=1,70=2205,71=1,72=1,74=-5/1,2,3;
 4/5=5,16=3,69=1/1;
 5/5=2,8=3,13=1,38=5,53=1/2,8;
 7//1,2,3,16;
 1/18=20,19=15,26=3/3(-5);
 2/9=110/2;
 6/7=2,8=2,9=2,10=2,19=2,28=1/1;
 99/9=1/99;
 ----------------------------------
 KDXKERNSBIXSRK-YFKPBYRVSA-N_conf_0
 ----------------------------------
 Symbolic Z-matrix:
 Charge =  0 Multiplicity = 1
 N                     2.34672   0.90214  -1.00471 
 C                     1.96493   0.11654   0.19289 
 C                     0.4613   -0.19537   0.18143 
 C                    -0.41138   1.06459   0.2298 
 C                    -1.90331   0.76174   0.40814 
 C                    -2.51916   0.03857  -0.78911 
 N                    -3.95373  -0.13571  -0.58794 
 C                     2.78007  -1.18492   0.27404 
 O                     3.95955  -1.11735  -0.38697 
 O                     2.48114  -2.20071   0.88065 
 H                     2.10802   0.36429  -1.83828 
 H                     3.37021   0.94672  -1.01853 
 H                     2.22091   0.70353   1.08233 
 H                     0.21902  -0.82637   1.04632 
 H                     0.21829  -0.78959  -0.70829 
 H                    -0.08818   1.68981   1.07139 
 H                    -0.2706    1.65961  -0.68016 
 H                    -2.42684   1.71413   0.56322 
 H                    -2.04938   0.17049   1.32101 
 H                    -2.06079  -0.94567  -0.92627 
 H                    -2.35462   0.61671  -1.70445 
 H                    -4.11765  -0.69706   0.24686 
 H                    -4.34305  -0.66292  -1.36831 
 H                     4.36853  -1.99319  -0.22178 
 

 GradGradGradGradGradGradGradGradGradGradGradGradGradGradGradGradGradGrad
 Berny optimization.
 Initialization pass.
                           ----------------------------
                           !    Initial Parameters    !
                           ! (Angstroms and Degrees)  !
 --------------------------                            --------------------------
 ! Name  Definition              Value          Derivative Info.                !
 --------------------------------------------------------------------------------
 ! R1    R(1,2)                  1.4823         calculate D2E/DX2 analytically  !
 ! R2    R(1,11)                 1.0203         calculate D2E/DX2 analytically  !
 ! R3    R(1,12)                 1.0246         calculate D2E/DX2 analytically  !
 ! R4    R(2,3)                  1.5357         calculate D2E/DX2 analytically  !
 ! R5    R(2,8)                  1.5378         calculate D2E/DX2 analytically  !
 ! R6    R(2,13)                 1.096          calculate D2E/DX2 analytically  !
 ! R7    R(3,4)                  1.5334         calculate D2E/DX2 analytically  !
 ! R8    R(3,14)                 1.0977         calculate D2E/DX2 analytically  !
 ! R9    R(3,15)                 1.0972         calculate D2E/DX2 analytically  !
 ! R10   R(4,5)                  1.5328         calculate D2E/DX2 analytically  !
 ! R11   R(4,16)                 1.0971         calculate D2E/DX2 analytically  !
 ! R12   R(4,17)                 1.0963         calculate D2E/DX2 analytically  !
 ! R13   R(5,6)                  1.5283         calculate D2E/DX2 analytically  !
 ! R14   R(5,18)                 1.0978         calculate D2E/DX2 analytically  !
 ! R15   R(5,19)                 1.0974         calculate D2E/DX2 analytically  !
 ! R16   R(6,7)                  1.459          calculate D2E/DX2 analytically  !
 ! R17   R(6,20)                 1.0944         calculate D2E/DX2 analytically  !
 ! R18   R(6,21)                 1.0951         calculate D2E/DX2 analytically  !
 ! R19   R(7,22)                 1.0193         calculate D2E/DX2 analytically  !
 ! R20   R(7,23)                 1.0191         calculate D2E/DX2 analytically  !
 ! R21   R(8,9)                  1.3538         calculate D2E/DX2 analytically  !
 ! R22   R(8,10)                 1.2203         calculate D2E/DX2 analytically  !
 ! R23   R(9,24)                 0.9806         calculate D2E/DX2 analytically  !
 ! A1    A(2,1,11)             108.6886         calculate D2E/DX2 analytically  !
 ! A2    A(2,1,12)             106.9331         calculate D2E/DX2 analytically  !
 ! A3    A(11,1,12)            104.2187         calculate D2E/DX2 analytically  !
 ! A4    A(1,2,3)              110.7203         calculate D2E/DX2 analytically  !
 ! A5    A(1,2,8)              110.7712         calculate D2E/DX2 analytically  !
 ! A6    A(1,2,13)             108.1599         calculate D2E/DX2 analytically  !
 ! A7    A(3,2,8)              110.335          calculate D2E/DX2 analytically  !
 ! A8    A(3,2,13)             110.0917         calculate D2E/DX2 analytically  !
 ! A9    A(8,2,13)             106.6571         calculate D2E/DX2 analytically  !
 ! A10   A(2,3,4)              112.9612         calculate D2E/DX2 analytically  !
 ! A11   A(2,3,14)             109.0856         calculate D2E/DX2 analytically  !
 ! A12   A(2,3,15)             109.446          calculate D2E/DX2 analytically  !
 ! A13   A(4,3,14)             108.776          calculate D2E/DX2 analytically  !
 ! A14   A(4,3,15)             110.1538         calculate D2E/DX2 analytically  !
 ! A15   A(14,3,15)            106.1847         calculate D2E/DX2 analytically  !
 ! A16   A(3,4,5)              113.2827         calculate D2E/DX2 analytically  !
 ! A17   A(3,4,16)             108.953          calculate D2E/DX2 analytically  !
 ! A18   A(3,4,17)             110.2854         calculate D2E/DX2 analytically  !
 ! A19   A(5,4,16)             108.0644         calculate D2E/DX2 analytically  !
 ! A20   A(5,4,17)             109.1966         calculate D2E/DX2 analytically  !
 ! A21   A(16,4,17)            106.8322         calculate D2E/DX2 analytically  !
 ! A22   A(4,5,6)              113.2393         calculate D2E/DX2 analytically  !
 ! A23   A(4,5,18)             108.0118         calculate D2E/DX2 analytically  !
 ! A24   A(4,5,19)             109.4391         calculate D2E/DX2 analytically  !
 ! A25   A(6,5,18)             109.2083         calculate D2E/DX2 analytically  !
 ! A26   A(6,5,19)             110.0654         calculate D2E/DX2 analytically  !
 ! A27   A(18,5,19)            106.644          calculate D2E/DX2 analytically  !
 ! A28   A(5,6,7)              110.1646         calculate D2E/DX2 analytically  !
 ! A29   A(5,6,20)             110.7922         calculate D2E/DX2 analytically  !
 ! A30   A(5,6,21)             110.1481         calculate D2E/DX2 analytically  !
 ! A31   A(7,6,20)             108.764          calculate D2E/DX2 analytically  !
 ! A32   A(7,6,21)             109.0289         calculate D2E/DX2 analytically  !
 ! A33   A(20,6,21)            107.8858         calculate D2E/DX2 analytically  !
 ! A34   A(6,7,22)             109.6844         calculate D2E/DX2 analytically  !
 ! A35   A(6,7,23)             109.3809         calculate D2E/DX2 analytically  !
 ! A36   A(22,7,23)            106.3087         calculate D2E/DX2 analytically  !
 ! A37   A(2,8,9)              113.1929         calculate D2E/DX2 analytically  !
 ! A38   A(2,8,10)             126.9312         calculate D2E/DX2 analytically  !
 ! A39   A(9,8,10)             119.8469         calculate D2E/DX2 analytically  !
 ! A40   A(8,9,24)             103.6823         calculate D2E/DX2 analytically  !
 ! D1    D(11,1,2,3)           -59.0555         calculate D2E/DX2 analytically  !
 ! D2    D(11,1,2,8)            63.6855         calculate D2E/DX2 analytically  !
 ! D3    D(11,1,2,13)         -179.76           calculate D2E/DX2 analytically  !
 ! D4    D(12,1,2,3)          -171.02           calculate D2E/DX2 analytically  !
 ! D5    D(12,1,2,8)           -48.2789         calculate D2E/DX2 analytically  !
 ! D6    D(12,1,2,13)           68.2756         calculate D2E/DX2 analytically  !
 ! D7    D(1,2,3,4)            -62.2177         calculate D2E/DX2 analytically  !
 ! D8    D(1,2,3,14)           176.6852         calculate D2E/DX2 analytically  !
 ! D9    D(1,2,3,15)            60.9032         calculate D2E/DX2 analytically  !
 ! D10   D(8,2,3,4)            174.7881         calculate D2E/DX2 analytically  !
 ! D11   D(8,2,3,14)            53.691          calculate D2E/DX2 analytically  !
 ! D12   D(8,2,3,15)           -62.091          calculate D2E/DX2 analytically  !
 ! D13   D(13,2,3,4)            57.3323         calculate D2E/DX2 analytically  !
 ! D14   D(13,2,3,14)          -63.7648         calculate D2E/DX2 analytically  !
 ! D15   D(13,2,3,15)         -179.5468         calculate D2E/DX2 analytically  !
 ! D16   D(1,2,8,9)             24.0185         calculate D2E/DX2 analytically  !
 ! D17   D(1,2,8,10)          -157.962          calculate D2E/DX2 analytically  !
 ! D18   D(3,2,8,9)            146.9829         calculate D2E/DX2 analytically  !
 ! D19   D(3,2,8,10)           -34.9976         calculate D2E/DX2 analytically  !
 ! D20   D(13,2,8,9)           -93.4602         calculate D2E/DX2 analytically  !
 ! D21   D(13,2,8,10)           84.5593         calculate D2E/DX2 analytically  !
 ! D22   D(2,3,4,5)           -172.2718         calculate D2E/DX2 analytically  !
 ! D23   D(2,3,4,16)           -51.9605         calculate D2E/DX2 analytically  !
 ! D24   D(2,3,4,17)            64.998          calculate D2E/DX2 analytically  !
 ! D25   D(14,3,4,5)           -50.9993         calculate D2E/DX2 analytically  !
 ! D26   D(14,3,4,16)           69.3121         calculate D2E/DX2 analytically  !
 ! D27   D(14,3,4,17)         -173.7294         calculate D2E/DX2 analytically  !
 ! D28   D(15,3,4,5)            65.0008         calculate D2E/DX2 analytically  !
 ! D29   D(15,3,4,16)         -174.6878         calculate D2E/DX2 analytically  !
 ! D30   D(15,3,4,17)          -57.7293         calculate D2E/DX2 analytically  !
 ! D31   D(3,4,5,6)            -66.2345         calculate D2E/DX2 analytically  !
 ! D32   D(3,4,5,18)           172.6926         calculate D2E/DX2 analytically  !
 ! D33   D(3,4,5,19)            56.9618         calculate D2E/DX2 analytically  !
 ! D34   D(16,4,5,6)           172.9504         calculate D2E/DX2 analytically  !
 ! D35   D(16,4,5,18)           51.8775         calculate D2E/DX2 analytically  !
 ! D36   D(16,4,5,19)          -63.8533         calculate D2E/DX2 analytically  !
 ! D37   D(17,4,5,6)            57.0966         calculate D2E/DX2 analytically  !
 ! D38   D(17,4,5,18)          -63.9763         calculate D2E/DX2 analytically  !
 ! D39   D(17,4,5,19)         -179.7071         calculate D2E/DX2 analytically  !
 ! D40   D(4,5,6,7)           -176.2033         calculate D2E/DX2 analytically  !
 ! D41   D(4,5,6,20)            63.3999         calculate D2E/DX2 analytically  !
 ! D42   D(4,5,6,21)           -55.8911         calculate D2E/DX2 analytically  !
 ! D43   D(18,5,6,7)           -55.808          calculate D2E/DX2 analytically  !
 ! D44   D(18,5,6,20)         -176.2048         calculate D2E/DX2 analytically  !
 ! D45   D(18,5,6,21)           64.5042         calculate D2E/DX2 analytically  !
 ! D46   D(19,5,6,7)            60.9464         calculate D2E/DX2 analytically  !
 ! D47   D(19,5,6,20)          -59.4504         calculate D2E/DX2 analytically  !
 ! D48   D(19,5,6,21)         -178.7414         calculate D2E/DX2 analytically  !
 ! D49   D(5,6,7,22)           -60.7165         calculate D2E/DX2 analytically  !
 ! D50   D(5,6,7,23)          -176.9483         calculate D2E/DX2 analytically  !
 ! D51   D(20,6,7,22)           60.894          calculate D2E/DX2 analytically  !
 ! D52   D(20,6,7,23)          -55.3378         calculate D2E/DX2 analytically  !
 ! D53   D(21,6,7,22)          178.2991         calculate D2E/DX2 analytically  !
 ! D54   D(21,6,7,23)           62.0673         calculate D2E/DX2 analytically  !
 ! D55   D(2,8,9,24)           178.2232         calculate D2E/DX2 analytically  !
 ! D56   D(10,8,9,24)            0.0483         calculate D2E/DX2 analytically  !
 --------------------------------------------------------------------------------
 Trust Radius=3.00D-01 FncErr=1.00D-07 GrdErr=1.00D-06 EigMax=2.50D+02 EigMin=1.00D-04
 Number of steps in this run=    129 maximum allowed number of steps=    144.
 GradGradGradGradGradGradGradGradGradGradGradGradGradGradGradGradGradGrad

                          Input orientation:                          
 ---------------------------------------------------------------------
 Center     Atomic      Atomic             Coordinates (Angstroms)
 Number     Number       Type             X           Y           Z
 ---------------------------------------------------------------------
      1          7           0        2.346721    0.902136   -1.004715
      2          6           0        1.964929    0.116542    0.192892
      3          6           0        0.461297   -0.195367    0.181428
      4          6           0       -0.411384    1.064586    0.229796
      5          6           0       -1.903310    0.761740    0.408144
      6          6           0       -2.519162    0.038568   -0.789105
      7          7           0       -3.953725   -0.135711   -0.587940
      8          6           0        2.780072   -1.184916    0.274038
      9          8           0        3.959547   -1.117355   -0.386972
     10          8           0        2.481145   -2.200713    0.880650
     11          1           0        2.108020    0.364288   -1.838284
     12          1           0        3.370208    0.946717   -1.018527
     13          1           0        2.220907    0.703534    1.082332
     14          1           0        0.219025   -0.826367    1.046320
     15          1           0        0.218294   -0.789587   -0.708292
     16          1           0       -0.088182    1.689811    1.071391
     17          1           0       -0.270600    1.659612   -0.680158
     18          1           0       -2.426844    1.714126    0.563223
     19          1           0       -2.049376    0.170494    1.321011
     20          1           0       -2.060790   -0.945674   -0.926271
     21          1           0       -2.354619    0.616714   -1.704451
     22          1           0       -4.117650   -0.697063    0.246859
     23          1           0       -4.343050   -0.662923   -1.368305
     24          1           0        4.368528   -1.993191   -0.221776
 ---------------------------------------------------------------------
                    Distance matrix (angstroms):
                    1          2          3          4          5
     1  N    0.000000
     2  C    1.482290   0.000000
     3  C    2.483198   1.535685   0.000000
     4  C    3.026144   2.558713   1.533424   0.000000
     5  C    4.480921   3.927580   2.561019   1.532765   0.000000
     6  C    4.946621   4.591020   3.143214   2.556091   1.528285
     7  N    6.398942   5.975265   4.481953   3.828523   2.449857
     8  C    2.485716   1.537802   2.522797   3.904818   5.073610
     9  O    2.657283   2.416039   3.662089   4.924053   6.207761
    10  O    3.633227   2.471671   2.930889   4.410499   5.312517
    11  H    1.020341   2.051226   2.665361   3.333882   4.614670
    12  H    1.024550   2.032618   3.347538   3.984048   5.466224
    13  H    2.100246   1.095987   2.171607   2.790364   4.179364
    14  H    3.423676   2.159999   1.097677   2.154026   2.726473
    15  H    2.734958   2.164240   1.097155   2.171280   2.855564
    16  H    3.295361   2.731703   2.155888   1.097109   2.143806
    17  H    2.743989   2.853221   2.172314   1.096309   2.157851
    18  H    5.089665   4.687973   3.483287   2.143632   1.097806
    19  H    5.026925   4.170157   2.781363   2.161751   1.097375
    20  H    4.779823   4.311292   2.854974   2.845729   2.172723
    21  H    4.761690   4.744320   3.485024   2.778140   2.165125
    22  H    6.775837   6.136988   4.606813   4.103670   2.656580
    23  H    6.880018   6.544883   5.069717   4.582163   3.337329
    24  H    3.617128   3.224936   4.319862   5.692229   6.879128
                    6          7          8          9         10
     6  C    0.000000
     7  N    1.459045   0.000000
     8  C    5.541576   6.869342   0.000000
     9  O    6.593294   7.976458   1.353757   0.000000
    10  O    5.727611   6.915818   1.220319   2.228498   0.000000
    11  H    4.755805   6.209518   2.704364   2.780237   3.756468
    12  H    5.963392   7.416000   2.561805   2.237538   3.782013
    13  H    5.139330   6.451374   2.128908   2.915023   2.922849
    14  H    3.408015   4.534275   2.698878   4.016280   2.652067
    15  H    2.861125   4.224663   2.771996   3.769304   3.104272
    16  H    3.478176   4.585666   4.138443   5.137228   4.666262
    17  H    2.774110   4.098427   4.278835   5.068692   4.991025
    18  H    2.155182   2.660534   5.966578   7.050259   6.286102
    19  H    2.165801   2.713742   5.124145   6.378316   5.132462
    20  H    1.094373   2.086555   4.993187   6.046881   5.046707
    21  H    1.095073   2.090426   5.790106   6.679179   6.164840
    22  H    2.041945   1.019253   6.915005   8.112921   6.797554
    23  H    2.038169   1.019067   7.328618   8.372732   7.347941
    24  H    7.203484   8.534882   1.849955   0.980635   2.195592
                   11         12         13         14         15
    11  H    0.000000
    12  H    1.613798   0.000000
    13  H    2.942419   2.406998   0.000000
    14  H    3.647862   4.163817   2.519806   0.000000
    15  H    2.485834   3.611864   3.073467   1.754997   0.000000
    16  H    3.878985   4.108577   2.510927   2.534986   3.067346
    17  H    2.945667   3.725345   3.198134   3.066031   2.497675
    18  H    5.306062   6.057777   4.784597   3.699745   3.857730
    19  H    5.225193   5.953810   4.310037   2.492956   3.190948
    20  H    4.463938   5.751990   5.008722   3.017102   2.294799
    21  H    4.471775   5.775209   5.358090   4.033963   3.096755
    22  H    6.650808   7.769892   6.544997   4.411644   4.440865
    23  H    6.549225   7.887182   7.138513   5.164267   4.610588
    24  H    3.644270   3.205389   3.685824   4.493097   4.348541
                   16         17         18         19         20
    16  H    0.000000
    17  H    1.761281   0.000000
    18  H    2.393359   2.489650   0.000000
    19  H    2.493374   3.063690   1.760547   0.000000
    20  H    3.850664   3.170626   3.070363   2.509230   0.000000
    21  H    3.740798   2.545574   2.520292   3.073386   1.770016
    22  H    4.755379   4.605765   2.961882   2.486808   2.380906
    23  H    5.439796   4.738414   3.612895   3.631521   2.341806
    24  H    5.924445   5.922381   7.780586   6.946310   6.552079
                   21         22         23         24
    21  H    0.000000
    22  H    2.939710   0.000000
    23  H    2.388373   1.631173   0.000000
    24  H    7.362787   8.597370   8.886830   0.000000
 Stoichiometry    C6H14N2O2
 Framework group  C1[X(C6H14N2O2)]
 Deg. of freedom    66
 Full point group                 C1      NOp   1
 Largest Abelian subgroup         C1      NOp   1
 Largest concise Abelian subgroup C1      NOp   1
                         Standard orientation:                         
 ---------------------------------------------------------------------
 Center     Atomic      Atomic             Coordinates (Angstroms)
 Number     Number       Type             X           Y           Z
 ---------------------------------------------------------------------
      1          7           0        1.595119    1.658074   -0.529048
      2          6           0        1.427357    0.495817    0.375495
      3          6           0        0.009064   -0.081758    0.260691
      4          6           0       -1.078502    0.915341    0.678284
      5          6           0       -2.477287    0.292446    0.747364
      6          6           0       -3.008721   -0.149188   -0.615792
      7          7           0       -4.373890   -0.647472   -0.486027
      8          6           0        2.472777   -0.589431    0.068628
      9          8           0        3.583908   -0.104267   -0.533587
     10          8           0        2.398817   -1.776677    0.340944
     11          1           0        1.418012    1.354986   -1.487102
     12          1           0        2.590517    1.900629   -0.521778
     13          1           0        1.615160    0.831720    1.401696
     14          1           0       -0.067457   -0.974264    0.895097
     15          1           0       -0.164680   -0.421848   -0.767852
     16          1           0       -0.834267    1.314077    1.670760
     17          1           0       -1.097205    1.767978   -0.010594
     18          1           0       -3.159735    1.037313    1.177033
     19          1           0       -2.464319   -0.558528    1.440117
     20          1           0       -2.383394   -0.941684   -1.038367
     21          1           0       -3.001253    0.693811   -1.314706
     22          1           0       -4.387981   -1.450850    0.141079
     23          1           0       -4.698060   -0.985273   -1.391179
     24          1           0        4.156118   -0.894091   -0.635559
 ---------------------------------------------------------------------
 Rotational constants (GHZ):           2.7666366           0.4822896           0.4472764
 Standard basis: 6-31G(d,p) (6D, 7F)
 There are   220 symmetry adapted cartesian basis functions of A   symmetry.
 There are   220 symmetry adapted basis functions of A   symmetry.
   220 basis functions,   378 primitive gaussians,   220 cartesian basis functions
    40 alpha electrons       40 beta electrons
       nuclear repulsion energy       547.5977453955 Hartrees.
 NAtoms=   24 NActive=   24 NUniq=   24 SFac= 1.00D+00 NAtFMM=   60 NAOKFM=F Big=F
 Integral buffers will be    131072 words long.
 Raffenetti 2 integral format.
 Two-electron integral symmetry is turned on.
 Force inversion solution in PCM.
 ------------------------------------------------------------------------------
 Polarizable Continuum Model (PCM)
 =================================
 Model                : PCM.
 Atomic radii         : UFF (Universal Force Field).
 Polarization charges : Total charges.
 Charge compensation  : None.
 Solution method      : Matrix inversion.
 Cavity type          : Scaled VdW (van der Waals Surface) (Alpha=1.100).
 Cavity algorithm     : GePol (No added spheres)
                        Default sphere list used, NSphG=   24.
                        Lebedev-Laikov grids with approx.  5.0 points / Ang**2.
                        Smoothing algorithm: York/Karplus (Gamma=1.0000).
                        Polarization charges: spherical gaussians, with
                                              point-specific exponents (IZeta= 3).
                        Self-potential: point-specific (ISelfS= 7).
                        Self-field    : sphere-specific E.n sum rule (ISelfD= 2).
 1st derivatives      : Analytical E(r).r(x)/FMM algorithm (CHGder, D1EAlg=3).
                        Cavity 1st derivative terms included.
 2nd derivatives      : Analytical E(r).r(xy)/FMM algorithm (CHGder, D2EAlg=3).
                        Cavity 2nd derivative terms included.
 Solvent              : Water, Eps=  78.355300 Eps(inf)=   1.777849
 ------------------------------------------------------------------------------
 One-electron integrals computed using PRISM.
 NBasis=   220 RedAO= T EigKep=  2.25D-03  NBF=   220
 NBsUse=   220 1.00D-06 EigRej= -1.00D+00 NBFU=   220
 ExpMin= 1.61D-01 ExpMax= 5.48D+03 ExpMxC= 8.25D+02 IAcc=3 IRadAn=         5 AccDes= 0.00D+00
 Harris functional with IExCor=  402 and IRadAn=       5 diagonalized for initial guess.
 HarFok:  IExCor=  402 AccDes= 0.00D+00 IRadAn=         5 IDoV= 1 UseB2=F ITyADJ=14
 ICtDFT=  3500011 ScaDFX=  1.000000  1.000000  1.000000  1.000000
 FoFCou: FMM=F IPFlag=           0 FMFlag=      100000 FMFlg1=           0
         NFxFlg=           0 DoJE=T BraDBF=F KetDBF=T FulRan=T
         wScrn=  0.000000 ICntrl=       500 IOpCl=  0 I1Cent=   200000004 NGrid=           0
         NMat0=    1 NMatS0=      1 NMatT0=    0 NMatD0=    1 NMtDS0=    0 NMtDT0=    0
 Petite list used in FoFCou.
 Keep R1 ints in memory in canonical form, NReq=300898562.
 Requested convergence on RMS density matrix=1.00D-08 within  32 cycles.
 Requested convergence on MAX density matrix=1.00D-06.
 Requested convergence on             energy=1.00D-06.
 No special actions if energy rises.
 Inv3:  Mode=1 IEnd=     9494523.
 Iteration    1 A*A^-1 deviation from unit magnitude is 2.89D-15 for   1265.
 Iteration    1 A*A^-1 deviation from orthogonality  is 1.55D-15 for   1446    754.
 Iteration    1 A^-1*A deviation from unit magnitude is 2.89D-15 for    354.
 Iteration    1 A^-1*A deviation from orthogonality  is 2.18D-15 for   1684    999.
 Error on total polarization charges =  0.00704
 SCF Done:  E(RB3LYP) =  -497.055890077     A.U. after   12 cycles
            NFock= 12  Conv=0.55D-08     -V/T= 2.0093
 QCSCF skips out because SCF is already converged.
 DoSCS=F DFT=T ScalE2(SS,OS)=  1.000000  1.000000
 Range of M.O.s used for correlation:     1   220
 NBasis=   220 NAE=    40 NBE=    40 NFC=     0 NFV=     0
 NROrb=    220 NOA=    40 NOB=    40 NVA=   180 NVB=   180
 Symmetrizing basis deriv contribution to polar:
 IMax=3 JMax=2 DiffMx= 0.00D+00
 G2DrvN: will do    25 centers at a time, making    1 passes.
 Calling FoFCou, ICntrl=  3107 FMM=F I1Cent=   0 AccDes= 0.00D+00.
 NEqPCM:  Using equilibrium solvation (IEInf=0, Eps=  78.3553, EpsInf=   1.7778)
 G2PCM: DoFxE=T DoFxN=T DoGrad=T DoDP/DQ/DG/TGxP=FFFF NFrqRd=   0 IEInf=0 SqF1=F DoCFld=F IF1Alg=4.
 End of G2Drv F.D. properties file   721 does not exist.
 End of G2Drv F.D. properties file   722 does not exist.
 End of G2Drv F.D. properties file   788 does not exist.
          IDoAtm=111111111111111111111111
 NEqPCM:  Using equilibrium solvation (IEInf=0, Eps=  78.3553, EpsInf=   1.7778)
          Differentiating once with respect to nuclear coordinates.
 Keep R1 ints in memory in canonical form, NReq=303978718.
          There are    75 degrees of freedom in the 1st order CPHF.  IDoFFX=6 NUNeed=     0.
     69 vectors produced by pass  0 Test12= 9.60D-15 1.33D-09 XBig12= 1.56D-01 9.04D-02.
 AX will form    69 AO Fock derivatives at one time.
     69 vectors produced by pass  1 Test12= 9.60D-15 1.33D-09 XBig12= 8.77D-03 2.88D-02.
     69 vectors produced by pass  2 Test12= 9.60D-15 1.33D-09 XBig12= 1.50D-04 2.57D-03.
     69 vectors produced by pass  3 Test12= 9.60D-15 1.33D-09 XBig12= 6.62D-07 1.39D-04.
     69 vectors produced by pass  4 Test12= 9.60D-15 1.33D-09 XBig12= 6.92D-10 3.49D-06.
     37 vectors produced by pass  5 Test12= 9.60D-15 1.33D-09 XBig12= 5.49D-13 7.69D-08.
      4 vectors produced by pass  6 Test12= 9.60D-15 1.33D-09 XBig12= 3.61D-16 2.57D-09.
 InvSVY:  IOpt=1 It=  1 EMax= 4.07D-16
 Solved reduced A of dimension   386 with    75 vectors.
 End of Minotr F.D. properties file   721 does not exist.
 End of Minotr F.D. properties file   722 does not exist.
 End of Minotr F.D. properties file   788 does not exist.

 **********************************************************************

            Population analysis using the SCF density.

 **********************************************************************

 Orbital symmetries:
       Occupied  (A) (A) (A) (A) (A) (A) (A) (A) (A) (A) (A) (A)
                 (A) (A) (A) (A) (A) (A) (A) (A) (A) (A) (A) (A)
                 (A) (A) (A) (A) (A) (A) (A) (A) (A) (A) (A) (A)
                 (A) (A) (A) (A)
       Virtual   (A) (A) (A) (A) (A) (A) (A) (A) (A) (A) (A) (A)
                 (A) (A) (A) (A) (A) (A) (A) (A) (A) (A) (A) (A)
                 (A) (A) (A) (A) (A) (A) (A) (A) (A) (A) (A) (A)
                 (A) (A) (A) (A) (A) (A) (A) (A) (A) (A) (A) (A)
                 (A) (A) (A) (A) (A) (A) (A) (A) (A) (A) (A) (A)
                 (A) (A) (A) (A) (A) (A) (A) (A) (A) (A) (A) (A)
                 (A) (A) (A) (A) (A) (A) (A) (A) (A) (A) (A) (A)
                 (A) (A) (A) (A) (A) (A) (A) (A) (A) (A) (A) (A)
                 (A) (A) (A) (A) (A) (A) (A) (A) (A) (A) (A) (A)
                 (A) (A) (A) (A) (A) (A) (A) (A) (A) (A) (A) (A)
                 (A) (A) (A) (A) (A) (A) (A) (A) (A) (A) (A) (A)
                 (A) (A) (A) (A) (A) (A) (A) (A) (A) (A) (A) (A)
                 (A) (A) (A) (A) (A) (A) (A) (A) (A) (A) (A) (A)
                 (A) (A) (A) (A) (A) (A) (A) (A) (A) (A) (A) (A)
                 (A) (A) (A) (A) (A) (A) (A) (A) (A) (A) (A) (A)
 The electronic state is 1-A.
 Alpha  occ. eigenvalues --  -19.20066 -19.14421 -14.31889 -14.30463 -10.32232
 Alpha  occ. eigenvalues --  -10.23263 -10.19850 -10.18512 -10.17723 -10.17517
 Alpha  occ. eigenvalues --   -1.11001  -1.01320  -0.89154  -0.87459  -0.78855
 Alpha  occ. eigenvalues --   -0.73161  -0.67763  -0.62852  -0.58765  -0.56753
 Alpha  occ. eigenvalues --   -0.50337  -0.49742  -0.48532  -0.47170  -0.45910
 Alpha  occ. eigenvalues --   -0.45063  -0.44332  -0.41724  -0.40568  -0.39202
 Alpha  occ. eigenvalues --   -0.38825  -0.36298  -0.35059  -0.32976  -0.32627
 Alpha  occ. eigenvalues --   -0.32129  -0.31904  -0.29832  -0.24065  -0.22897
 Alpha virt. eigenvalues --    0.00060   0.07564   0.09096   0.10208   0.11310
 Alpha virt. eigenvalues --    0.12260   0.12982   0.14062   0.16378   0.17373
 Alpha virt. eigenvalues --    0.18015   0.18242   0.19297   0.20337   0.20503
 Alpha virt. eigenvalues --    0.21887   0.23734   0.25570   0.26143   0.26551
 Alpha virt. eigenvalues --    0.26918   0.29084   0.34401   0.37494   0.50912
 Alpha virt. eigenvalues --    0.52239   0.53258   0.54084   0.54976   0.56141
 Alpha virt. eigenvalues --    0.59320   0.60427   0.61610   0.65336   0.66273
 Alpha virt. eigenvalues --    0.67187   0.68401   0.68889   0.70917   0.72393
 Alpha virt. eigenvalues --    0.72546   0.74249   0.75588   0.77115   0.79559
 Alpha virt. eigenvalues --    0.81500   0.82385   0.84446   0.85916   0.86320
 Alpha virt. eigenvalues --    0.87830   0.88448   0.88645   0.90008   0.91309
 Alpha virt. eigenvalues --    0.91918   0.92885   0.93728   0.94433   0.95441
 Alpha virt. eigenvalues --    0.96854   0.99167   1.00018   1.02692   1.04349
 Alpha virt. eigenvalues --    1.06821   1.08327   1.10635   1.14673   1.17081
 Alpha virt. eigenvalues --    1.26096   1.28834   1.31122   1.34832   1.36665
 Alpha virt. eigenvalues --    1.39918   1.41692   1.43644   1.49842   1.53310
 Alpha virt. eigenvalues --    1.54712   1.57055   1.58119   1.62175   1.63822
 Alpha virt. eigenvalues --    1.68140   1.69191   1.72566   1.74451   1.76482
 Alpha virt. eigenvalues --    1.77123   1.79874   1.82510   1.84817   1.85344
 Alpha virt. eigenvalues --    1.86214   1.87326   1.89559   1.91892   1.92077
 Alpha virt. eigenvalues --    1.95667   1.99069   2.00311   2.04978   2.05365
 Alpha virt. eigenvalues --    2.07389   2.09084   2.09852   2.11178   2.14493
 Alpha virt. eigenvalues --    2.17333   2.17556   2.23386   2.25223   2.26115
 Alpha virt. eigenvalues --    2.26414   2.27858   2.29308   2.31017   2.31574
 Alpha virt. eigenvalues --    2.33192   2.34498   2.36087   2.39142   2.42464
 Alpha virt. eigenvalues --    2.44077   2.46970   2.49418   2.51277   2.53704
 Alpha virt. eigenvalues --    2.55418   2.56931   2.60718   2.61538   2.64709
 Alpha virt. eigenvalues --    2.65137   2.65153   2.69690   2.72762   2.74904
 Alpha virt. eigenvalues --    2.75778   2.78098   2.80129   2.83555   2.85025
 Alpha virt. eigenvalues --    2.86867   2.87875   2.89327   2.90211   2.91810
 Alpha virt. eigenvalues --    2.93112   2.97041   2.97763   2.98492   3.01978
 Alpha virt. eigenvalues --    3.17334   3.23472   3.25791   3.30341   3.30617
 Alpha virt. eigenvalues --    3.32768   3.33828   3.38659   3.40040   3.42447
 Alpha virt. eigenvalues --    3.47336   3.51600   3.53679   3.56840   3.58709
 Alpha virt. eigenvalues --    3.91154   3.99959   4.02855   4.26774   4.29572
 Alpha virt. eigenvalues --    4.35854   4.46000   4.60766   4.66976   4.77854
          Condensed to atoms (all electrons):
               1          2          3          4          5          6
     1  N    6.787579   0.288170  -0.053220  -0.003861   0.000223  -0.000012
     2  C    0.288170   5.053674   0.350573  -0.035457   0.003055   0.000258
     3  C   -0.053220   0.350573   4.939024   0.363455  -0.038632  -0.005257
     4  C   -0.003861  -0.035457   0.363455   4.926906   0.351751  -0.039574
     5  C    0.000223   0.003055  -0.038632   0.351751   4.944455   0.380737
     6  C   -0.000012   0.000258  -0.005257  -0.039574   0.380737   4.790548
     7  N   -0.000000  -0.000002   0.000085   0.003347  -0.053218   0.292419
     8  C   -0.042159   0.306851  -0.038057   0.004364  -0.000064   0.000000
     9  O   -0.011962  -0.082230   0.001668  -0.000035   0.000000   0.000000
    10  O    0.002769  -0.070496   0.000957   0.000234  -0.000003   0.000000
    11  H    0.342250  -0.046028  -0.005673  -0.000490  -0.000061  -0.000001
    12  H    0.339792  -0.037661   0.005838   0.000114   0.000001   0.000000
    13  H   -0.039062   0.381071  -0.031081  -0.005722  -0.000037   0.000004
    14  H    0.004154  -0.035063   0.377515  -0.039407  -0.004046  -0.000977
    15  H   -0.005546  -0.035077   0.382691  -0.038343  -0.004039   0.002531
    16  H   -0.000115  -0.004688  -0.042344   0.379556  -0.031354   0.004770
    17  H    0.008956  -0.005602  -0.034845   0.380956  -0.037423  -0.007897
    18  H    0.000005  -0.000117   0.004697  -0.029045   0.369826  -0.038894
    19  H   -0.000004  -0.000032  -0.007514  -0.035930   0.381094  -0.040179
    20  H    0.000008   0.000032   0.002001  -0.000915  -0.047291   0.390725
    21  H   -0.000008  -0.000048  -0.000697  -0.003528  -0.033827   0.385645
    22  H   -0.000000  -0.000000  -0.000024  -0.000055  -0.005866  -0.038815
    23  H   -0.000000  -0.000000   0.000003  -0.000241   0.005788  -0.033506
    24  H   -0.000085   0.010112  -0.000253   0.000003  -0.000000  -0.000000
               7          8          9         10         11         12
     1  N   -0.000000  -0.042159  -0.011962   0.002769   0.342250   0.339792
     2  C   -0.000002   0.306851  -0.082230  -0.070496  -0.046028  -0.037661
     3  C    0.000085  -0.038057   0.001668   0.000957  -0.005673   0.005838
     4  C    0.003347   0.004364  -0.000035   0.000234  -0.000490   0.000114
     5  C   -0.053218  -0.000064   0.000000  -0.000003  -0.000061   0.000001
     6  C    0.292419   0.000000   0.000000   0.000000  -0.000001   0.000000
     7  N    6.821283  -0.000000   0.000000   0.000000   0.000000   0.000000
     8  C   -0.000000   4.437974   0.273986   0.535262  -0.000522  -0.005552
     9  O    0.000000   0.273986   8.119999  -0.091107   0.002119   0.011838
    10  O    0.000000   0.535262  -0.091107   8.113067   0.000092   0.000189
    11  H    0.000000  -0.000522   0.002119   0.000092   0.474470  -0.032442
    12  H    0.000000  -0.005552   0.011838   0.000189  -0.032442   0.458762
    13  H    0.000000  -0.040386   0.000474   0.000775   0.006104  -0.002747
    14  H   -0.000023  -0.003228   0.000211   0.008158  -0.000022  -0.000237
    15  H   -0.000107  -0.004586   0.000051   0.000704   0.005371  -0.000005
    16  H   -0.000114   0.000121  -0.000001  -0.000001   0.000078  -0.000040
    17  H    0.000033   0.000067   0.000001  -0.000007  -0.000121  -0.000123
    18  H    0.005143   0.000002  -0.000000   0.000000  -0.000000  -0.000000
    19  H   -0.003092  -0.000013  -0.000000  -0.000002   0.000001   0.000000
    20  H   -0.053093   0.000004  -0.000000   0.000001  -0.000012  -0.000000
    21  H   -0.041591  -0.000000  -0.000000   0.000000   0.000012   0.000000
    22  H    0.341332   0.000000  -0.000000   0.000000   0.000000  -0.000000
    23  H    0.337947   0.000000  -0.000000  -0.000000   0.000000  -0.000000
    24  H   -0.000000  -0.011366   0.270167   0.011839  -0.000136  -0.000231
              13         14         15         16         17         18
     1  N   -0.039062   0.004154  -0.005546  -0.000115   0.008956   0.000005
     2  C    0.381071  -0.035063  -0.035077  -0.004688  -0.005602  -0.000117
     3  C   -0.031081   0.377515   0.382691  -0.042344  -0.034845   0.004697
     4  C   -0.005722  -0.039407  -0.038343   0.379556   0.380956  -0.029045
     5  C   -0.000037  -0.004046  -0.004039  -0.031354  -0.037423   0.369826
     6  C    0.000004  -0.000977   0.002531   0.004770  -0.007897  -0.038894
     7  N    0.000000  -0.000023  -0.000107  -0.000114   0.000033   0.005143
     8  C   -0.040386  -0.003228  -0.004586   0.000121   0.000067   0.000002
     9  O    0.000474   0.000211   0.000051  -0.000001   0.000001  -0.000000
    10  O    0.000775   0.008158   0.000704  -0.000001  -0.000007   0.000000
    11  H    0.006104  -0.000022   0.005371   0.000078  -0.000121  -0.000000
    12  H   -0.002747  -0.000237  -0.000005  -0.000040  -0.000123  -0.000000
    13  H    0.572514  -0.002119   0.005197   0.005376  -0.000535  -0.000013
    14  H   -0.002119   0.609538  -0.034401  -0.004298   0.005431   0.000085
    15  H    0.005197  -0.034401   0.615567   0.005681  -0.006077  -0.000040
    16  H    0.005376  -0.004298   0.005681   0.638822  -0.035644  -0.005350
    17  H   -0.000535   0.005431  -0.006077  -0.035644   0.621640  -0.003079
    18  H   -0.000013   0.000085  -0.000040  -0.005350  -0.003079   0.643208
    19  H    0.000012   0.005853  -0.000204  -0.003326   0.005818  -0.039326
    20  H   -0.000004   0.000642   0.002479  -0.000113  -0.000213   0.006900
    21  H    0.000001   0.000088   0.000232   0.000009   0.005578  -0.007105
    22  H    0.000000   0.000003   0.000001   0.000002   0.000017  -0.000723
    23  H    0.000000   0.000000   0.000002   0.000004  -0.000000  -0.000055
    24  H   -0.000329  -0.000019  -0.000023  -0.000000   0.000000   0.000000
              19         20         21         22         23         24
     1  N   -0.000004   0.000008  -0.000008  -0.000000  -0.000000  -0.000085
     2  C   -0.000032   0.000032  -0.000048  -0.000000  -0.000000   0.010112
     3  C   -0.007514   0.002001  -0.000697  -0.000024   0.000003  -0.000253
     4  C   -0.035930  -0.000915  -0.003528  -0.000055  -0.000241   0.000003
     5  C    0.381094  -0.047291  -0.033827  -0.005866   0.005788  -0.000000
     6  C   -0.040179   0.390725   0.385645  -0.038815  -0.033506  -0.000000
     7  N   -0.003092  -0.053093  -0.041591   0.341332   0.337947  -0.000000
     8  C   -0.000013   0.000004  -0.000000   0.000000   0.000000  -0.011366
     9  O   -0.000000  -0.000000  -0.000000  -0.000000  -0.000000   0.270167
    10  O   -0.000002   0.000001   0.000000   0.000000  -0.000000   0.011839
    11  H    0.000001  -0.000012   0.000012   0.000000   0.000000  -0.000136
    12  H    0.000000  -0.000000   0.000000  -0.000000  -0.000000  -0.000231
    13  H    0.000012  -0.000004   0.000001   0.000000   0.000000  -0.000329
    14  H    0.005853   0.000642   0.000088   0.000003   0.000000  -0.000019
    15  H   -0.000204   0.002479   0.000232   0.000001   0.000002  -0.000023
    16  H   -0.003326  -0.000113   0.000009   0.000002   0.000004  -0.000000
    17  H    0.005818  -0.000213   0.005578   0.000017  -0.000000   0.000000
    18  H   -0.039326   0.006900  -0.007105  -0.000723  -0.000055   0.000000
    19  H    0.638867  -0.007470   0.005941   0.005493  -0.000027   0.000000
    20  H   -0.007470   0.675641  -0.049130  -0.004931  -0.003803   0.000000
    21  H    0.005941  -0.049130   0.634300   0.006604  -0.003259   0.000000
    22  H    0.005493  -0.004931   0.006604   0.481018  -0.032106   0.000000
    23  H   -0.000027  -0.003803  -0.003259  -0.032106   0.480789   0.000000
    24  H    0.000000   0.000000   0.000000   0.000000   0.000000   0.375825
 Mulliken charges:
               1
     1  N   -0.617871
     2  C   -0.041296
     3  C   -0.170912
     4  C   -0.178084
     5  C   -0.181069
     6  C   -0.042525
     7  N   -0.650351
     8  C    0.587301
     9  O   -0.495181
    10  O   -0.512430
    11  H    0.255013
    12  H    0.262506
    13  H    0.150509
    14  H    0.112160
    15  H    0.107940
    16  H    0.092966
    17  H    0.103070
    18  H    0.093883
    19  H    0.094037
    20  H    0.088542
    21  H    0.100782
    22  H    0.248050
    23  H    0.248464
    24  H    0.344497
 Sum of Mulliken charges =  -0.00000
 Mulliken charges with hydrogens summed into heavy atoms:
               1
     1  N   -0.100352
     2  C    0.109213
     3  C    0.049188
     4  C    0.017952
     5  C    0.006851
     6  C    0.146799
     7  N   -0.153838
     8  C    0.587301
     9  O   -0.150684
    10  O   -0.512430
 APT charges:
               1
     1  N   -1.196069
     2  C   -0.434271
     3  C   -0.556072
     4  C   -0.697486
     5  C   -0.839124
     6  C   -0.273288
     7  N   -1.428323
     8  C   -0.159107
     9  O   -0.714011
    10  O   -0.041235
    11  H    0.388866
    12  H    0.728258
    13  H    0.441896
    14  H    0.313244
    15  H    0.260925
    16  H    0.381614
    17  H    0.328349
    18  H    0.517834
    19  H    0.300086
    20  H    0.171530
    21  H    0.337508
    22  H    0.467241
    23  H    0.745072
    24  H    0.956562
 Sum of APT charges =  -0.00000
 APT charges with hydrogens summed into heavy atoms:
               1
     1  N   -0.078944
     2  C    0.007625
     3  C    0.018097
     4  C    0.012477
     5  C   -0.021204
     6  C    0.235751
     7  N   -0.216010
     8  C   -0.159107
     9  O    0.242551
    10  O   -0.041235
 Electronic spatial extent (au):  <R**2>=           2491.7457
 Charge=             -0.0000 electrons
 Dipole moment (field-independent basis, Debye):
    X=              2.0493    Y=             -0.7182    Z=             -1.5432  Tot=              2.6640
 Quadrupole moment (field-independent basis, Debye-Ang):
   XX=            -59.6668   YY=            -67.8962   ZZ=            -56.4992
   XY=              7.5264   XZ=             -0.4180   YZ=              2.4812
 Traceless Quadrupole moment (field-independent basis, Debye-Ang):
   XX=              1.6872   YY=             -6.5421   ZZ=              4.8549
   XY=              7.5264   XZ=             -0.4180   YZ=              2.4812
 Octapole moment (field-independent basis, Debye-Ang**2):
  XXX=            122.6437  YYY=             -8.2620  ZZZ=             -9.1228  XYY=            -13.5500
  XXY=            -33.6124  XXZ=            -25.2257  XZZ=              3.2682  YZZ=             -0.9752
  YYZ=             -5.4706  XYZ=              3.4657
 Hexadecapole moment (field-independent basis, Debye-Ang**3):
 XXXX=          -2540.2174 YYYY=           -437.7201 ZZZZ=           -195.6363 XXXY=             68.4643
 XXXZ=              9.8735 YYYX=             33.8111 YYYZ=              3.6559 ZZZX=              8.5266
 ZZZY=             -2.1398 XXYY=           -431.9946 XXZZ=           -400.6606 YYZZ=            -92.9780
 XXYZ=             36.2348 YYXZ=            -12.0669 ZZXY=              9.7737
 N-N= 5.475977453955D+02 E-N=-2.254081613069D+03  KE= 4.924642591581D+02
  Exact polarizability:   0.000   0.000   0.000   0.000   0.000   0.000
 Approx polarizability: 113.762   5.125 120.064  -3.826  -7.790 106.354
 D2PCM: PCM CHGder 2nd derivatives, FixD1E=F FixD2E=F DoIter=F DoCFld=F I1PDM=0
 Calling FoFJK, ICntrl=    100147 FMM=F ISym2X=0 I1Cent= 0 IOpClX= 0 NMat=1 NMatS=1 NMatT=0.
 ***** Axes restored to original set *****
 -------------------------------------------------------------------
 Center     Atomic                   Forces (Hartrees/Bohr)
 Number     Number              X              Y              Z
 -------------------------------------------------------------------
      1        7           0.003970082    0.002328499    0.007118966
      2        6           0.003629565   -0.006955669   -0.019582942
      3        6          -0.000916235    0.001935968    0.004605436
      4        6          -0.000215297   -0.000411712    0.001756495
      5        6           0.003784011    0.003954702   -0.003732836
      6        6          -0.003523133   -0.006131681    0.006786257
      7        7          -0.013666115    0.006578702   -0.001663423
      8        6           0.003143190   -0.007537295    0.009123527
      9        8          -0.000080876   -0.006447161    0.002393341
     10        8          -0.005603930    0.006638548   -0.000981584
     11        1          -0.001231658   -0.000244047    0.001325564
     12        1          -0.005802160    0.003117972   -0.001234325
     13        1          -0.000029185    0.000372490    0.001201329
     14        1           0.002386692   -0.000023349   -0.000983679
     15        1           0.002071776   -0.000050453   -0.000160975
     16        1           0.001643889    0.000705915   -0.000386830
     17        1           0.001488763   -0.000038336    0.000774754
     18        1          -0.002337675   -0.001752921   -0.000884897
     19        1          -0.001072251   -0.001350970    0.000265509
     20        1           0.010203318   -0.000649846   -0.002099994
     21        1           0.000217407    0.000826790   -0.000789196
     22        1           0.001048801   -0.000955125   -0.001943846
     23        1          -0.000170557   -0.000452745    0.002182386
     24        1           0.001061577    0.006541725   -0.003089036
 -------------------------------------------------------------------
 Cartesian Forces:  Max     0.019582942 RMS     0.004481957
 FormGI is forming the generalized inverse of G from B-inverse, IUseBI=4.

 GradGradGradGradGradGradGradGradGradGradGradGradGradGradGradGradGradGrad
 Berny optimization.
 Internal  Forces:  Max     0.011757052 RMS     0.003033546
 Search for a local minimum.
 Step number   1 out of a maximum of  129
 All quantities printed in internal units (Hartrees-Bohrs-Radians)
 Mixed Optimization -- RFO/linear search
 Second derivative matrix not updated -- analytic derivatives used.
 ITU=  0
     Eigenvalues ---   -0.00069   0.00125   0.00181   0.00257   0.00275
     Eigenvalues ---    0.00345   0.00369   0.02140   0.03236   0.03400
     Eigenvalues ---    0.03610   0.03790   0.03872   0.03953   0.03974
     Eigenvalues ---    0.04022   0.04172   0.04638   0.05005   0.05160
     Eigenvalues ---    0.05283   0.05897   0.06874   0.07031   0.07397
     Eigenvalues ---    0.08319   0.09864   0.10746   0.12595   0.13382
     Eigenvalues ---    0.14618   0.15126   0.15416   0.16101   0.16972
     Eigenvalues ---    0.18050   0.19216   0.20083   0.20743   0.21824
     Eigenvalues ---    0.22444   0.24310   0.24439   0.27581   0.28386
     Eigenvalues ---    0.30417   0.31891   0.32472   0.32637   0.32751
     Eigenvalues ---    0.32862   0.33148   0.33460   0.33515   0.33759
     Eigenvalues ---    0.34174   0.34322   0.38095   0.38141   0.40524
     Eigenvalues ---    0.43482   0.43872   0.43956   0.44266   0.48639
     Eigenvalues ---    0.84571
 RFO step:  Lambda=-6.72620622D-03 EMin=-6.87540449D-04
 Linear search not attempted -- first point.
 Iteration  1 RMS(Cart)=  0.07747680 RMS(Int)=  0.02456853
 Iteration  2 RMS(Cart)=  0.03463317 RMS(Int)=  0.00120279
 Iteration  3 RMS(Cart)=  0.00147593 RMS(Int)=  0.00044303
 Iteration  4 RMS(Cart)=  0.00000236 RMS(Int)=  0.00044302
 Iteration  5 RMS(Cart)=  0.00000000 RMS(Int)=  0.00044302
 Variable       Old X    -DE/DX   Delta X   Delta X   Delta X     New X
                                 (Linear)    (Quad)   (Total)
    R1        2.80112  -0.00386   0.00000  -0.04459  -0.04459   2.75653
    R2        1.92817  -0.00067   0.00000  -0.00266  -0.00266   1.92551
    R3        1.93612  -0.00564   0.00000  -0.01310  -0.01310   1.92301
    R4        2.90202  -0.00139   0.00000   0.00872   0.00872   2.91075
    R5        2.90602   0.00029   0.00000  -0.00062  -0.00062   2.90540
    R6        2.07112   0.00117   0.00000   0.00805   0.00805   2.07917
    R7        2.89775   0.00174   0.00000   0.00156   0.00156   2.89931
    R8        2.07431  -0.00129   0.00000  -0.00553  -0.00553   2.06878
    R9        2.07332  -0.00030   0.00000   0.00186   0.00186   2.07518
   R10        2.89651   0.00514   0.00000   0.00721   0.00721   2.90372
   R11        2.07324   0.00059   0.00000   0.00187   0.00187   2.07510
   R12        2.07172  -0.00047   0.00000  -0.00079  -0.00079   2.07094
   R13        2.88804   0.00082   0.00000   0.00457   0.00457   2.89261
   R14        2.07455  -0.00053   0.00000  -0.00169  -0.00169   2.07286
   R15        2.07374   0.00109   0.00000   0.00455   0.00455   2.07829
   R16        2.75720   0.01176   0.00000   0.02427   0.02427   2.78147
   R17        2.06807   0.00512   0.00000   0.01455   0.01455   2.08262
   R18        2.06939   0.00113   0.00000   0.00494   0.00494   2.07432
   R19        1.92611  -0.00124   0.00000   0.00031   0.00031   1.92642
   R20        1.92576  -0.00137   0.00000  -0.00111  -0.00111   1.92465
   R21        2.55823   0.00120   0.00000  -0.01118  -0.01118   2.54705
   R22        2.30607  -0.00464   0.00000  -0.00697  -0.00697   2.29910
   R23        1.85313  -0.00592   0.00000  -0.01343  -0.01343   1.83970
    A1        1.89697  -0.00258   0.00000   0.00409   0.00383   1.90080
    A2        1.86634   0.00574   0.00000   0.04087   0.04061   1.90695
    A3        1.81896   0.00018   0.00000   0.01380   0.01323   1.83219
    A4        1.93243  -0.00222   0.00000   0.01220   0.01117   1.94361
    A5        1.93332   0.01078   0.00000   0.09386   0.09388   2.02720
    A6        1.88775  -0.00243   0.00000  -0.00962  -0.00868   1.87907
    A7        1.92571  -0.00495   0.00000  -0.01990  -0.02261   1.90310
    A8        1.92146   0.00093   0.00000  -0.03695  -0.03808   1.88338
    A9        1.86152  -0.00202   0.00000  -0.04201  -0.04313   1.81839
   A10        1.97154   0.00119   0.00000   0.00528   0.00534   1.97689
   A11        1.90390  -0.00153   0.00000  -0.02017  -0.02026   1.88364
   A12        1.91019  -0.00181   0.00000  -0.01680  -0.01686   1.89334
   A13        1.89850   0.00092   0.00000   0.01896   0.01897   1.91747
   A14        1.92255   0.00079   0.00000   0.00704   0.00702   1.92957
   A15        1.85327   0.00038   0.00000   0.00569   0.00532   1.85859
   A16        1.97716   0.00329   0.00000   0.01571   0.01569   1.99285
   A17        1.90159  -0.00160   0.00000  -0.00850  -0.00866   1.89293
   A18        1.92484  -0.00163   0.00000  -0.01223  -0.01236   1.91248
   A19        1.88608   0.00012   0.00000   0.00787   0.00790   1.89398
   A20        1.90584  -0.00028   0.00000   0.00705   0.00712   1.91296
   A21        1.86457  -0.00004   0.00000  -0.01114  -0.01128   1.85329
   A22        1.97640   0.00561   0.00000   0.02445   0.02448   2.00088
   A23        1.88516   0.00048   0.00000   0.01733   0.01749   1.90265
   A24        1.91007  -0.00128   0.00000  -0.00019  -0.00003   1.91004
   A25        1.90604  -0.00353   0.00000  -0.02245  -0.02282   1.88323
   A26        1.92100  -0.00234   0.00000  -0.01641  -0.01657   1.90444
   A27        1.86129   0.00085   0.00000  -0.00385  -0.00419   1.85710
   A28        1.92274   0.00103   0.00000   0.00459   0.00426   1.92699
   A29        1.93369  -0.00427   0.00000  -0.01690  -0.01785   1.91584
   A30        1.92245  -0.00051   0.00000  -0.01536  -0.01566   1.90678
   A31        1.89829   0.00678   0.00000   0.06728   0.06735   1.96564
   A32        1.90291  -0.00216   0.00000  -0.01838  -0.01829   1.88462
   A33        1.88296  -0.00080   0.00000  -0.02084  -0.02107   1.86189
   A34        1.91435  -0.00204   0.00000  -0.01907  -0.01923   1.89512
   A35        1.90906   0.00152   0.00000  -0.00561  -0.00577   1.90328
   A36        1.85544  -0.00098   0.00000  -0.02115  -0.02151   1.83392
   A37        1.97559   0.00021   0.00000   0.00237   0.00237   1.97796
   A38        2.21537  -0.00855   0.00000  -0.04486  -0.04486   2.17050
   A39        2.09172   0.00835   0.00000   0.04260   0.04260   2.13432
   A40        1.80960   0.00793   0.00000   0.05167   0.05167   1.86126
    D1       -1.03071   0.00009   0.00000  -0.04251  -0.04338  -1.07410
    D2        1.11152  -0.00028   0.00000   0.00570   0.00667   1.11819
    D3       -3.13740   0.00185   0.00000   0.00161   0.00200  -3.13540
    D4       -2.98486  -0.00172   0.00000  -0.08025  -0.08144  -3.06630
    D5       -0.84263  -0.00209   0.00000  -0.03204  -0.03139  -0.87401
    D6        1.19163   0.00003   0.00000  -0.03612  -0.03606   1.15558
    D7       -1.08590   0.00417   0.00000   0.02577   0.02538  -1.06052
    D8        3.08374   0.00329   0.00000   0.01239   0.01211   3.09584
    D9        1.06296   0.00469   0.00000   0.02618   0.02573   1.08869
   D10        3.05063  -0.00457   0.00000  -0.08816  -0.08754   2.96309
   D11        0.93709  -0.00546   0.00000  -0.10155  -0.10081   0.83628
   D12       -1.08369  -0.00406   0.00000  -0.08775  -0.08718  -1.17088
   D13        1.00064   0.00033   0.00000  -0.00217  -0.00245   0.99818
   D14       -1.11291  -0.00055   0.00000  -0.01555  -0.01573  -1.12863
   D15       -3.13368   0.00085   0.00000  -0.00176  -0.00210  -3.13579
   D16        0.41920   0.00016   0.00000  -0.31971  -0.32022   0.09898
   D17       -2.75696   0.00069   0.00000  -0.31516  -0.31571  -3.07267
   D18        2.56534   0.00133   0.00000  -0.25342  -0.25369   2.31165
   D19       -0.61082   0.00185   0.00000  -0.24887  -0.24919  -0.86001
   D20       -1.63119  -0.00151   0.00000  -0.33389  -0.33304  -1.96423
   D21        1.47584  -0.00098   0.00000  -0.32933  -0.32853   1.14731
   D22       -3.00671  -0.00037   0.00000  -0.01414  -0.01416  -3.02087
   D23       -0.90688   0.00079   0.00000   0.00010   0.00001  -0.90687
   D24        1.13443  -0.00114   0.00000  -0.02541  -0.02535   1.10908
   D25       -0.89011  -0.00088   0.00000  -0.02295  -0.02299  -0.91309
   D26        1.20972   0.00029   0.00000  -0.00872  -0.00882   1.20091
   D27       -3.03215  -0.00165   0.00000  -0.03422  -0.03417  -3.06632
   D28        1.13448   0.00055   0.00000  -0.00130  -0.00127   1.13321
   D29       -3.04888   0.00171   0.00000   0.01293   0.01290  -3.03598
   D30       -1.00757  -0.00022   0.00000  -0.01258  -0.01245  -1.02002
   D31       -1.15601  -0.00017   0.00000  -0.00271  -0.00262  -1.15863
   D32        3.01405   0.00037   0.00000  -0.00208  -0.00219   3.01186
   D33        0.99417  -0.00022   0.00000  -0.00692  -0.00688   0.98729
   D34        3.01855  -0.00033   0.00000  -0.00746  -0.00742   3.01113
   D35        0.90543   0.00022   0.00000  -0.00683  -0.00699   0.89844
   D36       -1.11445  -0.00037   0.00000  -0.01167  -0.01168  -1.12613
   D37        0.99652  -0.00019   0.00000  -0.00230  -0.00218   0.99434
   D38       -1.11660   0.00035   0.00000  -0.00167  -0.00175  -1.11835
   D39       -3.13648  -0.00024   0.00000  -0.00651  -0.00644   3.14027
   D40       -3.07533   0.00255   0.00000   0.03068   0.03060  -3.04473
   D41        1.10654  -0.00384   0.00000  -0.04553  -0.04522   1.06132
   D42       -0.97548   0.00019   0.00000   0.00094   0.00086  -0.97462
   D43       -0.97403   0.00435   0.00000   0.05297   0.05263  -0.92140
   D44       -3.07535  -0.00203   0.00000  -0.02324  -0.02318  -3.09854
   D45        1.12581   0.00200   0.00000   0.02323   0.02289   1.14870
   D46        1.06372   0.00197   0.00000   0.02577   0.02580   1.08952
   D47       -1.03760  -0.00442   0.00000  -0.05044  -0.05001  -1.08762
   D48       -3.11963  -0.00039   0.00000  -0.00397  -0.00394  -3.12356
   D49       -1.05970  -0.00124   0.00000  -0.05294  -0.05319  -1.11289
   D50       -3.08833   0.00023   0.00000  -0.01341  -0.01387  -3.10220
   D51        1.06280  -0.00152   0.00000  -0.02787  -0.02729   1.03551
   D52       -0.96583  -0.00005   0.00000   0.01166   0.01204  -0.95379
   D53        3.11191   0.00013   0.00000  -0.02516  -0.02519   3.08672
   D54        1.08328   0.00160   0.00000   0.01437   0.01413   1.09741
   D55        3.11058  -0.00020   0.00000  -0.00710  -0.00702   3.10356
   D56        0.00084  -0.00032   0.00000  -0.00945  -0.00952  -0.00868
         Item               Value     Threshold  Converged?
 Maximum Force            0.011757     0.000450     NO 
 RMS     Force            0.003034     0.000300     NO 
 Maximum Displacement     0.622959     0.001800     NO 
 RMS     Displacement     0.101845     0.001200     NO 
 Predicted change in Energy=-4.166278D-03
 GradGradGradGradGradGradGradGradGradGradGradGradGradGradGradGradGradGrad

                          Input orientation:                          
 ---------------------------------------------------------------------
 Center     Atomic      Atomic             Coordinates (Angstroms)
 Number     Number       Type             X           Y           Z
 ---------------------------------------------------------------------
      1          7           0        2.359802    0.950632   -0.991312
      2          6           0        1.998380    0.130356    0.159475
      3          6           0        0.494761   -0.203793    0.160204
      4          6           0       -0.402213    1.038899    0.231438
      5          6           0       -1.897126    0.727192    0.402192
      6          6           0       -2.543270    0.024436   -0.794339
      7          7           0       -3.994462   -0.109973   -0.588345
      8          6           0        2.800788   -1.167936    0.344965
      9          8           0        3.816413   -1.297548   -0.531611
     10          8           0        2.579757   -1.994082    1.210306
     11          1           0        2.160137    0.429638   -1.843913
     12          1           0        3.367502    1.092106   -0.999465
     13          1           0        2.215795    0.713660    1.066688
     14          1           0        0.295028   -0.856269    1.016275
     15          1           0        0.268393   -0.791677   -0.739274
     16          1           0       -0.075441    1.655372    1.079377
     17          1           0       -0.254274    1.650477   -0.665817
     18          1           0       -2.439977    1.664329    0.576257
     19          1           0       -2.042276    0.112359    1.302434
     20          1           0       -2.048379   -0.944601   -0.969312
     21          1           0       -2.383643    0.627344   -1.697628
     22          1           0       -4.153625   -0.712259    0.218580
     23          1           0       -4.397108   -0.612433   -1.377467
     24          1           0        4.275039   -2.126229   -0.306422
 ---------------------------------------------------------------------
                    Distance matrix (angstroms):
                    1          2          3          4          5
     1  N    0.000000
     2  C    1.458695   0.000000
     3  C    2.477310   1.540301   0.000000
     4  C    3.021859   2.567777   1.534249   0.000000
     5  C    4.484775   3.948429   2.578064   1.536581   0.000000
     6  C    4.993671   4.641936   3.192628   2.581759   1.530704
     7  N    6.454761   6.044101   4.552170   3.859561   2.465934
     8  C    2.543312   1.537473   2.506285   3.891301   5.066081
     9  O    2.717969   2.412830   3.564867   4.882421   6.133195
    10  O    3.683319   2.440385   2.941947   4.364550   5.301024
    11  H    1.018935   2.032067   2.681640   3.353195   4.647032
    12  H    1.017616   2.035338   3.358099   3.965943   5.460230
    13  H    2.076598   1.100250   2.150673   2.767199   4.166276
    14  H    3.399793   2.146845   1.094749   2.166513   2.773082
    15  H    2.733708   2.156560   1.098140   2.177844   2.880864
    16  H    3.273350   2.733611   2.150931   1.098098   2.153748
    17  H    2.725642   2.840128   2.163720   1.095893   2.166116
    18  H    5.099462   4.714424   3.503665   2.159293   1.096910
    19  H    5.034110   4.199236   2.800214   2.166868   1.099784
    20  H    4.798380   4.336583   2.879612   2.843579   2.167670
    21  H    4.806628   4.785181   3.525272   2.795844   2.157757
    22  H    6.830357   6.209723   4.676477   4.140026   2.682820
    23  H    6.946087   6.619380   5.144104   4.612446   3.348386
    24  H    3.688398   3.239198   4.266614   5.673095   6.836648
                    6          7          8          9         10
     6  C    0.000000
     7  N    1.471889   0.000000
     8  C    5.592738   6.940157   0.000000
     9  O    6.500941   7.900843   1.347842   0.000000
    10  O    5.859899   7.071447   1.216629   2.246943   0.000000
    11  H    4.836097   6.304500   2.784575   2.729204   3.921574
    12  H    6.009928   7.470779   2.690064   2.476056   3.876620
    13  H    5.156273   6.479568   2.098453   3.026796   2.735866
    14  H    3.479928   4.640204   2.612781   3.871799   2.559736
    15  H    2.928229   4.319657   2.780318   3.589913   3.254080
    16  H    3.501563   4.610474   4.096721   5.144079   4.515056
    17  H    2.810699   4.134513   4.277679   5.027858   4.983410
    18  H    2.139732   2.630755   5.961613   7.010171   6.243693
    19  H    2.157587   2.726813   5.100115   6.298873   5.080233
    20  H    1.102074   2.151506   5.029078   5.891684   5.222239
    21  H    1.097685   2.090188   5.854361   6.595870   6.321653
    22  H    2.040090   1.019416   6.970472   8.026634   6.925678
    23  H    2.045081   1.018480   7.421931   8.285335   7.568498
    24  H    7.166084   8.516420   1.875112   0.973530   2.278576
                   11         12         13         14         15
    11  H    0.000000
    12  H    1.615453   0.000000
    13  H    2.924955   2.395545   0.000000
    14  H    3.648679   4.159264   2.481243   0.000000
    15  H    2.508093   3.636045   3.052854   1.756939   0.000000
    16  H    3.878899   4.061122   2.477246   2.539601   3.068186
    17  H    2.950888   3.679723   3.159184   3.068378   2.498539
    18  H    5.342540   6.044597   4.777081   3.745301   3.885596
    19  H    5.259319   5.960230   4.306775   2.546197   3.213261
    20  H    4.512767   5.786265   5.007825   3.072770   2.333182
    21  H    4.550432   5.811980   5.366911   4.091657   3.156796
    22  H    6.739540   7.829861   6.581949   4.521899   4.525266
    23  H    6.655895   7.958487   7.173765   5.273101   4.712358
    24  H    3.656384   3.414910   3.767079   4.382101   4.245185
                   16         17         18         19         20
    16  H    0.000000
    17  H    1.754340   0.000000
    18  H    2.417486   2.514008   0.000000
    19  H    2.509797   3.071933   1.759008   0.000000
    20  H    3.853501   3.169441   3.057556   2.505601   0.000000
    21  H    3.754517   2.577915   2.499813   3.063024   1.764613
    22  H    4.793562   4.644310   2.951727   2.512475   2.428401
    23  H    5.464048   4.773917   3.582044   3.640388   2.406959
    24  H    5.928543   5.908244   7.761371   6.892616   6.466937
                   21         22         23         24
    21  H    0.000000
    22  H    2.932444   0.000000
    23  H    2.386125   1.617595   0.000000
    24  H    7.338642   8.562553   8.868193   0.000000
 Stoichiometry    C6H14N2O2
 Framework group  C1[X(C6H14N2O2)]
 Deg. of freedom    66
 Full point group                 C1      NOp   1
 Largest Abelian subgroup         C1      NOp   1
 Largest concise Abelian subgroup C1      NOp   1
                         Standard orientation:                         
 ---------------------------------------------------------------------
 Center     Atomic      Atomic             Coordinates (Angstroms)
 Number     Number       Type             X           Y           Z
 ---------------------------------------------------------------------
      1          7           0        1.591012    1.755290   -0.346845
      2          6           0        1.458437    0.492821    0.371754
      3          6           0        0.045614   -0.099063    0.210098
      4          6           0       -1.060016    0.813681    0.756359
      5          6           0       -2.458120    0.176204    0.759604
      6          6           0       -3.034427   -0.105288   -0.630247
      7          7           0       -4.420350   -0.589169   -0.522850
      8          6           0        2.497222   -0.589959    0.036587
      9          8           0        3.464077   -0.161594   -0.799101
     10          8           0        2.486077   -1.717266    0.494017
     11          1           0        1.439856    1.587148   -1.340379
     12          1           0        2.552672    2.081004   -0.278572
     13          1           0        1.618780    0.698661    1.440617
     14          1           0        0.022625   -1.062730    0.729032
     15          1           0       -0.122192   -0.313817   -0.853684
     16          1           0       -0.802162    1.094007    1.786285
     17          1           0       -1.082754    1.746932    0.182332
     18          1           0       -3.153569    0.842719    1.284313
     19          1           0       -2.431862   -0.760611    1.335115
     20          1           0       -2.380163   -0.809373   -1.169477
     21          1           0       -3.044462    0.824845   -1.213054
     22          1           0       -4.415834   -1.480441   -0.028055
     23          1           0       -4.770166   -0.805238   -1.454646
     24          1           0        4.081099   -0.905453   -0.916221
 ---------------------------------------------------------------------
 Rotational constants (GHZ):           2.6810720           0.4779054           0.4473431
 Standard basis: 6-31G(d,p) (6D, 7F)
 There are   220 symmetry adapted cartesian basis functions of A   symmetry.
 There are   220 symmetry adapted basis functions of A   symmetry.
   220 basis functions,   378 primitive gaussians,   220 cartesian basis functions
    40 alpha electrons       40 beta electrons
       nuclear repulsion energy       546.3359118873 Hartrees.
 NAtoms=   24 NActive=   24 NUniq=   24 SFac= 1.00D+00 NAtFMM=   60 NAOKFM=F Big=F
 Integral buffers will be    131072 words long.
 Raffenetti 2 integral format.
 Two-electron integral symmetry is turned on.
 ------------------------------------------------------------------------------
 Polarizable Continuum Model (PCM)
 =================================
 Model                : PCM.
 Atomic radii         : UFF (Universal Force Field).
 Polarization charges : Total charges.
 Charge compensation  : None.
 Solution method      : Matrix inversion.
 Cavity type          : Scaled VdW (van der Waals Surface) (Alpha=1.100).
 Cavity algorithm     : GePol (No added spheres)
                        Default sphere list used, NSphG=   24.
                        Lebedev-Laikov grids with approx.  5.0 points / Ang**2.
                        Smoothing algorithm: York/Karplus (Gamma=1.0000).
                        Polarization charges: spherical gaussians, with
                                              point-specific exponents (IZeta= 3).
                        Self-potential: point-specific (ISelfS= 7).
                        Self-field    : sphere-specific E.n sum rule (ISelfD= 2).
 1st derivatives      : Analytical E(r).r(x)/FMM algorithm (CHGder, D1EAlg=3).
                        Cavity 1st derivative terms included.
 Solvent              : Water, Eps=  78.355300 Eps(inf)=   1.777849
 ------------------------------------------------------------------------------
 One-electron integrals computed using PRISM.
 NBasis=   220 RedAO= T EigKep=  2.25D-03  NBF=   220
 NBsUse=   220 1.00D-06 EigRej= -1.00D+00 NBFU=   220
 Initial guess from the checkpoint file:  "KDXKERNSBIXSRK-YFKPBYRVSA-N_conf_0_0.chk"
 B after Tr=     0.000000    0.000000    0.000000
         Rot=    0.999526   -0.030608   -0.003150   -0.001227 Ang=  -3.53 deg.
 ExpMin= 1.61D-01 ExpMax= 5.48D+03 ExpMxC= 8.25D+02 IAcc=2 IRadAn=         4 AccDes= 0.00D+00
 Harris functional with IExCor=  402 and IRadAn=       4 diagonalized for initial guess.
 HarFok:  IExCor=  402 AccDes= 0.00D+00 IRadAn=         4 IDoV= 1 UseB2=F ITyADJ=14
 ICtDFT=  3500011 ScaDFX=  1.000000  1.000000  1.000000  1.000000
 FoFCou: FMM=F IPFlag=           0 FMFlag=      100000 FMFlg1=           0
         NFxFlg=           0 DoJE=T BraDBF=F KetDBF=T FulRan=T
         wScrn=  0.000000 ICntrl=       500 IOpCl=  0 I1Cent=   200000004 NGrid=           0
         NMat0=    1 NMatS0=      1 NMatT0=    0 NMatD0=    1 NMtDS0=    0 NMtDT0=    0
 Petite list used in FoFCou.
 Keep R1 ints in memory in canonical form, NReq=300898562.
 Requested convergence on RMS density matrix=1.00D-08 within  32 cycles.
 Requested convergence on MAX density matrix=1.00D-06.
 Requested convergence on             energy=1.00D-06.
 No special actions if energy rises.
 Inv3:  Mode=1 IEnd=     9345675.
 Iteration    1 A*A^-1 deviation from unit magnitude is 3.66D-15 for   1637.
 Iteration    1 A*A^-1 deviation from orthogonality  is 2.11D-15 for   1457    683.
 Iteration    1 A^-1*A deviation from unit magnitude is 4.33D-15 for   1637.
 Iteration    1 A^-1*A deviation from orthogonality  is 1.63D-14 for   1376   1324.
 Error on total polarization charges =  0.00704
 SCF Done:  E(RB3LYP) =  -497.059801645     A.U. after   11 cycles
            NFock= 11  Conv=0.81D-08     -V/T= 2.0093
 QCSCF skips out because SCF is already converged.
 D1PCM: PCM CHGder 1st derivatives, ID1Alg=3 FixD1E=F DoIter=F DoCFld=F I1PDM=0.
 Calling FoFJK, ICntrl=      2127 FMM=F ISym2X=0 I1Cent= 0 IOpClX= 0 NMat=1 NMatS=1 NMatT=0.
 ***** Axes restored to original set *****
 -------------------------------------------------------------------
 Center     Atomic                   Forces (Hartrees/Bohr)
 Number     Number              X              Y              Z
 -------------------------------------------------------------------
      1        7           0.001201086   -0.000595066   -0.001331266
      2        6          -0.000114672   -0.001551003    0.000989475
      3        6          -0.000532227    0.000417853    0.000219583
      4        6          -0.000241224   -0.000289539    0.000276587
      5        6           0.000276382    0.000663921   -0.000585864
      6        6          -0.000099697   -0.001209456    0.000723851
      7        7          -0.000896757    0.000916981    0.000151521
      8        6           0.000315348    0.000870711    0.001012321
      9        8           0.000063210   -0.000126701   -0.000240152
     10        8          -0.000581293    0.000200987    0.000019828
     11        1          -0.000305516    0.000089611   -0.000357460
     12        1          -0.000029206    0.001037963    0.000224528
     13        1          -0.000248761   -0.000248280   -0.000100466
     14        1           0.000077839   -0.000076312    0.000084327
     15        1           0.000033958    0.000137761   -0.000059982
     16        1           0.000016005    0.000109508   -0.000057676
     17        1           0.000209154    0.000087005    0.000127627
     18        1          -0.000192464   -0.000029266    0.000157541
     19        1          -0.000065431   -0.000037521    0.000014125
     20        1           0.000752193    0.000214597   -0.000416098
     21        1           0.000038505   -0.000016246   -0.000080103
     22        1          -0.000026515   -0.000316165   -0.000233661
     23        1          -0.000031371   -0.000077348    0.000049008
     24        1           0.000381453   -0.000173997   -0.000587596
 -------------------------------------------------------------------
 Cartesian Forces:  Max     0.001551003 RMS     0.000496096

 GradGradGradGradGradGradGradGradGradGradGradGradGradGradGradGradGradGrad
 Berny optimization.
 Using GEDIIS/GDIIS optimizer.
 FormGI is forming the generalized inverse of G from B-inverse, IUseBI=4.
 Internal  Forces:  Max     0.001672017 RMS     0.000324445
 Search for a local minimum.
 Step number   2 out of a maximum of  129
 All quantities printed in internal units (Hartrees-Bohrs-Radians)
 Mixed Optimization -- En-DIIS/RFO-DIIS
 Update second derivatives using D2CorX and points    1    2
 DE= -3.91D-03 DEPred=-4.17D-03 R= 9.39D-01
 TightC=F SS=  1.41D+00  RLast= 7.99D-01 DXNew= 5.0454D-01 2.3978D+00
 Trust test= 9.39D-01 RLast= 7.99D-01 DXMaxT set to 5.05D-01
 ITU=  1  0
 Use linear search instead of GDIIS.
     Eigenvalues ---   -0.00085   0.00125   0.00181   0.00257   0.00275
     Eigenvalues ---    0.00345   0.00369   0.02142   0.03233   0.03398
     Eigenvalues ---    0.03611   0.03806   0.03866   0.03955   0.03968
     Eigenvalues ---    0.04019   0.04173   0.04633   0.04995   0.05095
     Eigenvalues ---    0.05229   0.05891   0.06871   0.07028   0.07396
     Eigenvalues ---    0.08288   0.09853   0.10733   0.12526   0.13358
     Eigenvalues ---    0.14618   0.14880   0.15172   0.15953   0.16909
     Eigenvalues ---    0.18045   0.19250   0.20080   0.20753   0.21693
     Eigenvalues ---    0.22440   0.24306   0.24508   0.27580   0.28291
     Eigenvalues ---    0.30444   0.31870   0.32518   0.32636   0.32756
     Eigenvalues ---    0.32863   0.33142   0.33453   0.33514   0.33732
     Eigenvalues ---    0.34131   0.34368   0.37322   0.38118   0.40426
     Eigenvalues ---    0.43468   0.43891   0.43956   0.44266   0.48669
     Eigenvalues ---    0.84585
 RFO step:  Lambda=-8.60488199D-04 EMin=-8.50483559D-04
 I=     1 Eig=   -8.50D-04 Dot1=  4.92D-05
 I=     1 Stepn=  6.00D-01 RXN=   6.00D-01 EDone=F
 Mixed    1 eigenvectors in step.  Raw Step.Grad=  4.92D-05.
 RFO eigenvector is Hessian eigenvector with negative curvature.
 Taking step of  6.00D-01 in eigenvector direction(s).  Step.Grad= -1.51D-05.
 Quartic linear search produced a step of  0.07286.
 Iteration  1 RMS(Cart)=  0.06537786 RMS(Int)=  0.01622718
 Iteration  2 RMS(Cart)=  0.02235935 RMS(Int)=  0.00060470
 Iteration  3 RMS(Cart)=  0.00071768 RMS(Int)=  0.00005027
 Iteration  4 RMS(Cart)=  0.00000068 RMS(Int)=  0.00005027
 Variable       Old X    -DE/DX   Delta X   Delta X   Delta X     New X
                                 (Linear)    (Quad)   (Total)
    R1        2.75653   0.00167  -0.00325  -0.00493  -0.00818   2.74836
    R2        1.92551   0.00032  -0.00019  -0.00033  -0.00053   1.92498
    R3        1.92301   0.00011  -0.00095   0.00133   0.00038   1.92339
    R4        2.91075   0.00055   0.00064   0.00534   0.00598   2.91673
    R5        2.90540  -0.00053  -0.00005   0.00204   0.00199   2.90740
    R6        2.07917  -0.00027   0.00059  -0.00089  -0.00030   2.07887
    R7        2.89931   0.00018   0.00011  -0.00033  -0.00021   2.89910
    R8        2.06878   0.00010  -0.00040   0.00038  -0.00002   2.06875
    R9        2.07518  -0.00003   0.00014   0.00034   0.00047   2.07566
   R10        2.90372   0.00019   0.00053  -0.00075  -0.00023   2.90349
   R11        2.07510   0.00002   0.00014  -0.00025  -0.00012   2.07499
   R12        2.07094  -0.00003  -0.00006   0.00002  -0.00004   2.07090
   R13        2.89261   0.00017   0.00033  -0.00046  -0.00013   2.89248
   R14        2.07286   0.00010  -0.00012   0.00016   0.00003   2.07289
   R15        2.07829   0.00004   0.00033  -0.00048  -0.00015   2.07814
   R16        2.78147   0.00089   0.00177  -0.00251  -0.00075   2.78072
   R17        2.08262   0.00021   0.00106  -0.00133  -0.00027   2.08235
   R18        2.07432   0.00006   0.00036  -0.00049  -0.00013   2.07419
   R19        1.92642   0.00001   0.00002  -0.00003  -0.00001   1.92641
   R20        1.92465   0.00001  -0.00008   0.00009   0.00001   1.92465
   R21        2.54705   0.00091  -0.00081  -0.00193  -0.00275   2.54430
   R22        2.29910  -0.00002  -0.00051   0.00193   0.00142   2.30052
   R23        1.83970   0.00019  -0.00098   0.00189   0.00091   1.84062
[...]
    23  H   -0.000052  -0.003065  -0.003889  -0.032516   0.480225   0.000000
    24  H    0.000000   0.000000   0.000000   0.000000   0.000000   0.395086
 Mulliken charges:
               1
     1  N   -0.463453
     2  C   -0.019916
     3  C   -0.168193
     4  C   -0.185677
     5  C   -0.175736
     6  C   -0.049421
     7  N   -0.645802
     8  C    0.379684
     9  O   -0.529797
    10  O   -0.486887
    11  H    0.311329
    12  H    0.316777
    13  H    0.112841
    14  H    0.111879
    15  H    0.097960
    16  H    0.093573
    17  H    0.100159
    18  H    0.092933
    19  H    0.092424
    20  H    0.086570
    21  H    0.099637
    22  H    0.248892
    23  H    0.250605
    24  H    0.329618
 Sum of Mulliken charges =  -0.00000
 Mulliken charges with hydrogens summed into heavy atoms:
               1
     1  N    0.164654
     2  C    0.092925
     3  C    0.041646
     4  C    0.008056
     5  C    0.009621
     6  C    0.136787
     7  N   -0.146305
     8  C    0.379684
     9  O   -0.200180
    10  O   -0.486887
 Electronic spatial extent (au):  <R**2>=           2501.5385
 Charge=              0.0000 electrons
 Dipole moment (field-independent basis, Debye):
    X=              0.6498    Y=              2.8797    Z=             -3.0152  Tot=              4.2198
 Quadrupole moment (field-independent basis, Debye-Ang):
   XX=            -66.4389   YY=            -59.8792   ZZ=            -58.1960
   XY=             13.4435   XZ=             -0.7855   YZ=              2.0178
 Traceless Quadrupole moment (field-independent basis, Debye-Ang):
   XX=             -4.9342   YY=              1.6255   ZZ=              3.3087
   XY=             13.4435   XZ=             -0.7855   YZ=              2.0178
 Octapole moment (field-independent basis, Debye-Ang**2):
  XXX=             90.4761  YYY=              9.8639  ZZZ=            -12.4733  XYY=              0.3198
  XXY=             -9.3631  XXZ=            -45.6737  XZZ=             -0.7831  YZZ=              1.0811
  YYZ=            -12.0900  XYZ=              6.4045
 Hexadecapole moment (field-independent basis, Debye-Ang**3):
 XXXX=          -2627.4121 YYYY=           -362.4472 ZZZZ=           -241.2950 XXXY=             96.0122
 XXXZ=             30.1700 YYYX=             64.5890 YYYZ=             -2.6226 ZZZX=              5.1371
 ZZZY=             -1.8786 XXYY=           -413.3055 XXZZ=           -403.5268 YYZZ=            -96.8136
 XXYZ=             56.2775 YYXZ=            -22.7092 ZZXY=              5.5629
 N-N= 5.461314937228D+02 E-N=-2.251635811064D+03  KE= 4.926952534778D+02
 Evaluate density.
 Using the total density.
 Monte-Carlo method of calculating molar volume:
 based on  0.001 e/bohr**3 density envelope.
 Number of points per bohr**3 =   20 CutOff= 1.00D-04
 Using the CI density.
 There are       377 points.  Will hold       377 in memory.
 LenV=  1073608756 MDV=  1073741824.
 Box volume = 6720.270 fraction occupied=0.218
 Integrated density= 2.0422485694922119D+02 error= 1.2422485694922119D+02
 Molar volume = 1461.703 bohr**3/mol (130.441 cm**3/mol)
 Recommended a0 for SCRF calculation =  4.60 angstrom (  8.69 bohr)
 ******************************Gaussian NBO Version 3.1******************************
             N A T U R A L   A T O M I C   O R B I T A L   A N D
          N A T U R A L   B O N D   O R B I T A L   A N A L Y S I S
 ******************************Gaussian NBO Version 3.1******************************
       /RESON  / : Allow strongly delocalized NBO set

 Analyzing the CI density

 Job title: KDXKERNSBIXSRK-YFKPBYRVSA-N_conf_0                              

 Storage needed:    147172 in NPA (1073738704 available)
 GSVD:  LWork=       28806 too small for GESVD, short by        9509 words or        9509 for optimal perf.


 NATURAL POPULATIONS:  Natural atomic orbital occupancies 
                                                          
   NAO  Atom  No  lang   Type(AO)    Occupancy
 --------------------------------------------
     1    N    1  S      Cor( 1S)     1.99953
     2    N    1  S      Val( 2S)     1.42856
     3    N    1  S      Ryd( 3S)     0.00054
     4    N    1  S      Ryd( 4S)     0.00001
     5    N    1  px     Val( 2p)     1.44932
     6    N    1  px     Ryd( 3p)     0.00259
     7    N    1  py     Val( 2p)     1.34156
     8    N    1  py     Ryd( 3p)     0.00201
     9    N    1  pz     Val( 2p)     1.39843
    10    N    1  pz     Ryd( 3p)     0.00166
    11    N    1  dxy    Ryd( 3d)     0.00070
    12    N    1  dxz    Ryd( 3d)     0.00024
    13    N    1  dyz    Ryd( 3d)     0.00048
    14    N    1  dx2y2  Ryd( 3d)     0.00110
    15    N    1  dz2    Ryd( 3d)     0.00116

    16    C    2  S      Cor( 1S)     1.99915
    17    C    2  S      Val( 2S)     0.98802
    18    C    2  S      Ryd( 3S)     0.00196
    19    C    2  S      Ryd( 4S)     0.00004
    20    C    2  px     Val( 2p)     1.07195
    21    C    2  px     Ryd( 3p)     0.00338
    22    C    2  py     Val( 2p)     0.90643
    23    C    2  py     Ryd( 3p)     0.00541
    24    C    2  pz     Val( 2p)     1.16286
    25    C    2  pz     Ryd( 3p)     0.00384
    26    C    2  dxy    Ryd( 3d)     0.00103
    27    C    2  dxz    Ryd( 3d)     0.00062
    28    C    2  dyz    Ryd( 3d)     0.00113
    29    C    2  dx2y2  Ryd( 3d)     0.00152
    30    C    2  dz2    Ryd( 3d)     0.00132

    31    C    3  S      Cor( 1S)     1.99930
    32    C    3  S      Val( 2S)     1.04319
    33    C    3  S      Ryd( 3S)     0.00141
    34    C    3  S      Ryd( 4S)     0.00002
    35    C    3  px     Val( 2p)     1.01410
    36    C    3  px     Ryd( 3p)     0.00223
    37    C    3  py     Val( 2p)     1.18243
    38    C    3  py     Ryd( 3p)     0.00332
    39    C    3  pz     Val( 2p)     1.22216
    40    C    3  pz     Ryd( 3p)     0.00306
    41    C    3  dxy    Ryd( 3d)     0.00060
    42    C    3  dxz    Ryd( 3d)     0.00037
    43    C    3  dyz    Ryd( 3d)     0.00048
    44    C    3  dx2y2  Ryd( 3d)     0.00077
    45    C    3  dz2    Ryd( 3d)     0.00095

    46    C    4  S      Cor( 1S)     1.99933
    47    C    4  S      Val( 2S)     1.03094
    48    C    4  S      Ryd( 3S)     0.00085
    49    C    4  S      Ryd( 4S)     0.00002
    50    C    4  px     Val( 2p)     1.03726
    51    C    4  px     Ryd( 3p)     0.00228
    52    C    4  py     Val( 2p)     1.16744
    53    C    4  py     Ryd( 3p)     0.00172
    54    C    4  pz     Val( 2p)     1.21925
    55    C    4  pz     Ryd( 3p)     0.00368
    56    C    4  dxy    Ryd( 3d)     0.00058
    57    C    4  dxz    Ryd( 3d)     0.00046
    58    C    4  dyz    Ryd( 3d)     0.00052
    59    C    4  dx2y2  Ryd( 3d)     0.00078
    60    C    4  dz2    Ryd( 3d)     0.00082

    61    C    5  S      Cor( 1S)     1.99933
    62    C    5  S      Val( 2S)     1.03860
    63    C    5  S      Ryd( 3S)     0.00087
    64    C    5  S      Ryd( 4S)     0.00002
    65    C    5  px     Val( 2p)     1.09718
    66    C    5  px     Ryd( 3p)     0.00319
    67    C    5  py     Val( 2p)     1.21531
    68    C    5  py     Ryd( 3p)     0.00321
    69    C    5  pz     Val( 2p)     1.11038
    70    C    5  pz     Ryd( 3p)     0.00159
    71    C    5  dxy    Ryd( 3d)     0.00053
    72    C    5  dxz    Ryd( 3d)     0.00068
    73    C    5  dyz    Ryd( 3d)     0.00071
    74    C    5  dx2y2  Ryd( 3d)     0.00069
    75    C    5  dz2    Ryd( 3d)     0.00052

    76    C    6  S      Cor( 1S)     1.99936
    77    C    6  S      Val( 2S)     1.02178
    78    C    6  S      Ryd( 3S)     0.00206
    79    C    6  S      Ryd( 4S)     0.00004
    80    C    6  px     Val( 2p)     0.93258
    81    C    6  px     Ryd( 3p)     0.00330
    82    C    6  py     Val( 2p)     1.18469
    83    C    6  py     Ryd( 3p)     0.00200
    84    C    6  pz     Val( 2p)     1.10965
    85    C    6  pz     Ryd( 3p)     0.00075
    86    C    6  dxy    Ryd( 3d)     0.00093
    87    C    6  dxz    Ryd( 3d)     0.00110
    88    C    6  dyz    Ryd( 3d)     0.00080
    89    C    6  dx2y2  Ryd( 3d)     0.00134
    90    C    6  dz2    Ryd( 3d)     0.00070

    91    N    7  S      Cor( 1S)     1.99968
    92    N    7  S      Val( 2S)     1.44963
    93    N    7  S      Ryd( 3S)     0.00048
    94    N    7  S      Ryd( 4S)     0.00000
    95    N    7  px     Val( 2p)     1.42799
    96    N    7  px     Ryd( 3p)     0.00321
    97    N    7  py     Val( 2p)     1.50062
    98    N    7  py     Ryd( 3p)     0.00326
    99    N    7  pz     Val( 2p)     1.53602
   100    N    7  pz     Ryd( 3p)     0.00331
   101    N    7  dxy    Ryd( 3d)     0.00067
   102    N    7  dxz    Ryd( 3d)     0.00079
   103    N    7  dyz    Ryd( 3d)     0.00068
   104    N    7  dx2y2  Ryd( 3d)     0.00126
   105    N    7  dz2    Ryd( 3d)     0.00124

   106    C    8  S      Cor( 1S)     1.99944
   107    C    8  S      Val( 2S)     0.72460
   108    C    8  S      Ryd( 3S)     0.00456
   109    C    8  S      Ryd( 4S)     0.00030
   110    C    8  px     Val( 2p)     0.98209
   111    C    8  px     Ryd( 3p)     0.00590
   112    C    8  py     Val( 2p)     0.84784
   113    C    8  py     Ryd( 3p)     0.01687
   114    C    8  pz     Val( 2p)     0.93462
   115    C    8  pz     Ryd( 3p)     0.01039
   116    C    8  dxy    Ryd( 3d)     0.00192
   117    C    8  dxz    Ryd( 3d)     0.00126
   118    C    8  dyz    Ryd( 3d)     0.00149
   119    C    8  dx2y2  Ryd( 3d)     0.00134
   120    C    8  dz2    Ryd( 3d)     0.00209

   121    O    9  S      Cor( 1S)     1.99979
   122    O    9  S      Val( 2S)     1.67915
   123    O    9  S      Ryd( 3S)     0.00086
   124    O    9  S      Ryd( 4S)     0.00004
   125    O    9  px     Val( 2p)     1.62748
   126    O    9  px     Ryd( 3p)     0.00171
   127    O    9  py     Val( 2p)     1.73288
   128    O    9  py     Ryd( 3p)     0.00090
   129    O    9  pz     Val( 2p)     1.68882
   130    O    9  pz     Ryd( 3p)     0.00173
   131    O    9  dxy    Ryd( 3d)     0.00120
   132    O    9  dxz    Ryd( 3d)     0.00061
   133    O    9  dyz    Ryd( 3d)     0.00123
   134    O    9  dx2y2  Ryd( 3d)     0.00102
   135    O    9  dz2    Ryd( 3d)     0.00129

   136    O   10  S      Cor( 1S)     1.99981
   137    O   10  S      Val( 2S)     1.70060
   138    O   10  S      Ryd( 3S)     0.00050
   139    O   10  S      Ryd( 4S)     0.00010
   140    O   10  px     Val( 2p)     1.56933
   141    O   10  px     Ryd( 3p)     0.00272
   142    O   10  py     Val( 2p)     1.60989
   143    O   10  py     Ryd( 3p)     0.00108
   144    O   10  pz     Val( 2p)     1.65162
   145    O   10  pz     Ryd( 3p)     0.00288
   146    O   10  dxy    Ryd( 3d)     0.00270
   147    O   10  dxz    Ryd( 3d)     0.00075
   148    O   10  dyz    Ryd( 3d)     0.00407
   149    O   10  dx2y2  Ryd( 3d)     0.00332
   150    O   10  dz2    Ryd( 3d)     0.00188

   151    H   11  S      Val( 1S)     0.58026
   152    H   11  S      Ryd( 2S)     0.00166
   153    H   11  px     Ryd( 2p)     0.00035
   154    H   11  py     Ryd( 2p)     0.00032
   155    H   11  pz     Ryd( 2p)     0.00064

   156    H   12  S      Val( 1S)     0.57224
   157    H   12  S      Ryd( 2S)     0.00094
   158    H   12  px     Ryd( 2p)     0.00066
   159    H   12  py     Ryd( 2p)     0.00035
   160    H   12  pz     Ryd( 2p)     0.00030

   161    H   13  S      Val( 1S)     0.75701
   162    H   13  S      Ryd( 2S)     0.00757
   163    H   13  px     Ryd( 2p)     0.00013
   164    H   13  py     Ryd( 2p)     0.00008
   165    H   13  pz     Ryd( 2p)     0.00041

   166    H   14  S      Val( 1S)     0.74841
   167    H   14  S      Ryd( 2S)     0.00230
   168    H   14  px     Ryd( 2p)     0.00010
   169    H   14  py     Ryd( 2p)     0.00033
   170    H   14  pz     Ryd( 2p)     0.00013

   171    H   15  S      Val( 1S)     0.76449
   172    H   15  S      Ryd( 2S)     0.00237
   173    H   15  px     Ryd( 2p)     0.00011
   174    H   15  py     Ryd( 2p)     0.00010
   175    H   15  pz     Ryd( 2p)     0.00035

   176    H   16  S      Val( 1S)     0.76003
   177    H   16  S      Ryd( 2S)     0.00189
   178    H   16  px     Ryd( 2p)     0.00011
   179    H   16  py     Ryd( 2p)     0.00010
   180    H   16  pz     Ryd( 2p)     0.00034

   181    H   17  S      Val( 1S)     0.76338
   182    H   17  S      Ryd( 2S)     0.00144
   183    H   17  px     Ryd( 2p)     0.00010
   184    H   17  py     Ryd( 2p)     0.00032
   185    H   17  pz     Ryd( 2p)     0.00014

   186    H   18  S      Val( 1S)     0.75767
   187    H   18  S      Ryd( 2S)     0.00222
   188    H   18  px     Ryd( 2p)     0.00021
   189    H   18  py     Ryd( 2p)     0.00016
   190    H   18  pz     Ryd( 2p)     0.00018

   191    H   19  S      Val( 1S)     0.76939
   192    H   19  S      Ryd( 2S)     0.00168
   193    H   19  px     Ryd( 2p)     0.00010
   194    H   19  py     Ryd( 2p)     0.00031
   195    H   19  pz     Ryd( 2p)     0.00015

   196    H   20  S      Val( 1S)     0.79491
   197    H   20  S      Ryd( 2S)     0.00184
   198    H   20  px     Ryd( 2p)     0.00018
   199    H   20  py     Ryd( 2p)     0.00018
   200    H   20  pz     Ryd( 2p)     0.00021

   201    H   21  S      Val( 1S)     0.77523
   202    H   21  S      Ryd( 2S)     0.00162
   203    H   21  px     Ryd( 2p)     0.00006
   204    H   21  py     Ryd( 2p)     0.00034
   205    H   21  pz     Ryd( 2p)     0.00015

   206    H   22  S      Val( 1S)     0.61442
   207    H   22  S      Ryd( 2S)     0.00151
   208    H   22  px     Ryd( 2p)     0.00034
   209    H   22  py     Ryd( 2p)     0.00065
   210    H   22  pz     Ryd( 2p)     0.00043

   211    H   23  S      Val( 1S)     0.60786
   212    H   23  S      Ryd( 2S)     0.00125
   213    H   23  px     Ryd( 2p)     0.00038
   214    H   23  py     Ryd( 2p)     0.00040
   215    H   23  pz     Ryd( 2p)     0.00063

   216    H   24  S      Val( 1S)     0.48655
   217    H   24  S      Ryd( 2S)     0.00245
   218    H   24  px     Ryd( 2p)     0.00091
   219    H   24  py     Ryd( 2p)     0.00100
   220    H   24  pz     Ryd( 2p)     0.00075


 Summary of Natural Population Analysis:                  
                                                          
                                       Natural Population 
                Natural  -----------------------------------------------
    Atom  No    Charge         Core      Valence    Rydberg      Total
 -----------------------------------------------------------------------
      N    1   -0.62789      1.99953     5.61788    0.01049     7.62789
      C    2   -0.14866      1.99915     4.12926    0.02025     6.14866
      C    3   -0.47438      1.99930     4.46188    0.01320     6.47438
      C    4   -0.46592      1.99933     4.45488    0.01170     6.46592
      C    5   -0.47281      1.99933     4.46147    0.01201     6.47281
      C    6   -0.26107      1.99936     4.24869    0.01302     6.26107
      N    7   -0.92884      1.99968     5.91426    0.01489     7.92884
      C    8    0.46532      1.99944     3.48914    0.04611     5.53468
      O    9   -0.73872      1.99979     6.72833    0.01060     8.73872
      O   10   -0.55124      1.99981     6.53145    0.01999     8.55124
      H   11    0.41676      0.00000     0.58026    0.00298     0.58324
      H   12    0.42551      0.00000     0.57224    0.00225     0.57449
      H   13    0.23481      0.00000     0.75701    0.00819     0.76519
      H   14    0.24873      0.00000     0.74841    0.00286     0.75127
      H   15    0.23258      0.00000     0.76449    0.00292     0.76742
      H   16    0.23752      0.00000     0.76003    0.00245     0.76248
      H   17    0.23462      0.00000     0.76338    0.00201     0.76538
      H   18    0.23957      0.00000     0.75767    0.00276     0.76043
      H   19    0.22837      0.00000     0.76939    0.00224     0.77163
      H   20    0.20268      0.00000     0.79491    0.00241     0.79732
      H   21    0.22260      0.00000     0.77523    0.00217     0.77740
      H   22    0.38264      0.00000     0.61442    0.00294     0.61736
      H   23    0.38948      0.00000     0.60786    0.00266     0.61052
      H   24    0.50834      0.00000     0.48655    0.00511     0.49166
 =======================================================================
   * Total *   -0.00000     19.99471    59.78908    0.21622    80.00000

                                 Natural Population      
 --------------------------------------------------------
   Core                      19.99471 ( 99.9735% of  20)
   Valence                   59.78908 ( 99.6485% of  60)
   Natural Minimal Basis     79.78378 ( 99.7297% of  80)
   Natural Rydberg Basis      0.21622 (  0.2703% of  80)
 --------------------------------------------------------

    Atom  No          Natural Electron Configuration
 ----------------------------------------------------------------------------
      N    1      [core]2S( 1.43)2p( 4.19)3p( 0.01)
      C    2      [core]2S( 0.99)2p( 3.14)3p( 0.01)3d( 0.01)
      C    3      [core]2S( 1.04)2p( 3.42)3p( 0.01)
      C    4      [core]2S( 1.03)2p( 3.42)3p( 0.01)
      C    5      [core]2S( 1.04)2p( 3.42)3p( 0.01)
      C    6      [core]2S( 1.02)2p( 3.23)3p( 0.01)
      N    7      [core]2S( 1.45)2p( 4.46)3p( 0.01)
      C    8      [core]2S( 0.72)2p( 2.76)3p( 0.03)3d( 0.01)
      O    9      [core]2S( 1.68)2p( 5.05)3d( 0.01)
      O   10      [core]2S( 1.70)2p( 4.83)3p( 0.01)3d( 0.01)
      H   11            1S( 0.58)
      H   12            1S( 0.57)
      H   13            1S( 0.76)2S( 0.01)
      H   14            1S( 0.75)
      H   15            1S( 0.76)
      H   16            1S( 0.76)
      H   17            1S( 0.76)
      H   18            1S( 0.76)
      H   19            1S( 0.77)
      H   20            1S( 0.79)
      H   21            1S( 0.78)
      H   22            1S( 0.61)
      H   23            1S( 0.61)
      H   24            1S( 0.49)


 NBO analysis skipped by request.
 1\1\GINC-DRG2-W002\SP\RB3LYP TD-FC\6-31G(d,p)\C6H14N2O2\QDUEZ\18-Jul-2
 024\0\\# TD(NStates=10, Root=1) B3LYP/6-31G** SCRF=(Solvent=water) vol
 ume pop=NPA density=current Geom=AllCheck Guess=Read\\KDXKERNSBIXSRK-Y
 FKPBYRVSA-N_conf_0\\0,1\N,0,2.3302311287,0.9187331755,-1.0467913584\C,
 0,2.0083431009,0.1557305538,0.1553646136\C,0,0.5072329965,-0.201802700
 8,0.2049950754\C,0,-0.404439405,1.0299776311,0.277358818\C,0,-1.899057
 9563,0.7021000055,0.4201291184\C,0,-2.5312671364,0.0495167298,-0.81235
 83461\N,0,-3.9813676466,-0.1218972436,-0.6179442678\C,0,2.8276276881,-
 1.120957957,0.3887697869\O,0,3.6672403296,-1.4114039029,-0.6253811301\
 O,0,2.7392244149,-1.8137606254,1.3849178232\H,0,2.1939201658,0.3285329
 607,-1.8656173\H,0,3.3189708029,1.158693313,-1.045781783\H,0,2.2299634
 874,0.7882573474,1.0255757875\H,0,0.33984733,-0.8392888557,1.079763631
 9\H,0,0.2667635757,-0.8088166286,-0.6777454969\H,0,-0.0959445913,1.639
 0108804,1.1374692574\H,0,-0.2451024193,1.6528402498,-0.6100857958\H,0,
 -2.4512514681,1.6256140224,0.6329361025\H,0,-2.0483853888,0.046622103,
 1.2908253739\H,0,-2.0126046669,-0.8952577662,-1.043856027\H,0,-2.38426
 36707,0.7052750144,-1.6804096815\H,0,-4.1310660802,-0.802281091,0.1264
 629147\H,0,-4.3777601642,-0.5538699382,-1.4509432928\H,0,4.1331455732,
 -2.2315672773,-0.3843667563\\Version=ES64L-G16RevA.03\State=1-A\HF=-49
 7.0600021\RMSD=1.361e-09\Dipole=0.4390336,0.3557796,-1.5610508\Quadrup
 ole=0.3583562,-0.5251169,0.1667607,8.8506553,-5.0825744,2.9311415\PG=C
 01 [X(C6H14N2O2)]\\@


 ONE BIG VICE IN A MAN IS APT TO KEEP OUT MANY SMALLER ONES.

                           -- BRET HARTE
 Job cpu time:       0 days  0 hours 23 minutes 56.4 seconds.
 Elapsed time:       0 days  0 hours  8 minutes  7.0 seconds.
 File lengths (MBytes):  RWF=    460 Int=      0 D2E=      0 Chk=     28 Scr=      1
 Normal termination of Gaussian 16 at Thu Jul 18 05:33:40 2024.
