 Entering Gaussian System, Link 0=g16
 Initial command:
 /opt/sw/arch/manual/gaussian/G16_A03/g16/l1.exe "/scratch/1032108.jesse.materianova.be/Gau-38871.inp" -scrdir="/scratch/1032108.jesse.materianova.be/"
 Entering Link 1 = /opt/sw/arch/manual/gaussian/G16_A03/g16/l1.exe PID=     38872.
  
 Copyright (c) 1988,1990,1992,1993,1995,1998,2003,2009,2016,
            Gaussian, Inc.  All Rights Reserved.
  
 This is part of the Gaussian(R) 16 program.  It is based on
 the Gaussian(R) 09 system (copyright 2009, Gaussian, Inc.),
 the Gaussian(R) 03 system (copyright 2003, Gaussian, Inc.),
 the Gaussian(R) 98 system (copyright 1998, Gaussian, Inc.),
 the Gaussian(R) 94 system (copyright 1995, Gaussian, Inc.),
 the Gaussian 92(TM) system (copyright 1992, Gaussian, Inc.),
 the Gaussian 90(TM) system (copyright 1990, Gaussian, Inc.),
 the Gaussian 88(TM) system (copyright 1988, Gaussian, Inc.),
 the Gaussian 86(TM) system (copyright 1986, Carnegie Mellon
 University), and the Gaussian 82(TM) system (copyright 1983,
 Carnegie Mellon University). Gaussian is a federally registered
 trademark of Gaussian, Inc.
  
 This software contains proprietary and confidential information,
 including trade secrets, belonging to Gaussian, Inc.
  
 This software is provided under written license and may be
 used, copied, transmitted, or stored only in accord with that
 written license.
  
 The following legend is applicable only to US Government
 contracts under FAR:
  
                    RESTRICTED RIGHTS LEGEND
  
 Use, reproduction and disclosure by the US Government is
 subject to restrictions as set forth in subparagraphs (a)
 and (c) of the Commercial Computer Software - Restricted
 Rights clause in FAR 52.227-19.
  
 Gaussian, Inc.
 340 Quinnipiac St., Bldg. 40, Wallingford CT 06492
  
  
 ---------------------------------------------------------------
 Warning -- This program may not be used in any manner that
 competes with the business of Gaussian, Inc. or will provide
 assistance to any competitor of Gaussian, Inc.  The licensee
 of this program is prohibited from giving any competitor of
 Gaussian, Inc. access to this program.  By using this program,
 the user acknowledges that Gaussian, Inc. is engaged in the
 business of creating and licensing software in the field of
 computational chemistry and represents and warrants to the
 licensee that it is not a competitor of Gaussian, Inc. and that
 it will not use this program in any manner prohibited above.
 ---------------------------------------------------------------
  

 Cite this work as:
 Gaussian 16, Revision A.03,
 M. J. Frisch, G. W. Trucks, H. B. Schlegel, G. E. Scuseria, 
 M. A. Robb, J. R. Cheeseman, G. Scalmani, V. Barone, 
 G. A. Petersson, H. Nakatsuji, X. Li, M. Caricato, A. V. Marenich, 
 J. Bloino, B. G. Janesko, R. Gomperts, B. Mennucci, H. P. Hratchian, 
 J. V. Ortiz, A. F. Izmaylov, J. L. Sonnenberg, D. Williams-Young, 
 F. Ding, F. Lipparini, F. Egidi, J. Goings, B. Peng, A. Petrone, 
 T. Henderson, D. Ranasinghe, V. G. Zakrzewski, J. Gao, N. Rega, 
 G. Zheng, W. Liang, M. Hada, M. Ehara, K. Toyota, R. Fukuda, 
 J. Hasegawa, M. Ishida, T. Nakajima, Y. Honda, O. Kitao, H. Nakai, 
 T. Vreven, K. Throssell, J. A. Montgomery, Jr., J. E. Peralta, 
 F. Ogliaro, M. J. Bearpark, J. J. Heyd, E. N. Brothers, K. N. Kudin, 
 V. N. Staroverov, T. A. Keith, R. Kobayashi, J. Normand, 
 K. Raghavachari, A. P. Rendell, J. C. Burant, S. S. Iyengar, 
 J. Tomasi, M. Cossi, J. M. Millam, M. Klene, C. Adamo, R. Cammi, 
 J. W. Ochterski, R. L. Martin, K. Morokuma, O. Farkas, 
 J. B. Foresman, and D. J. Fox, Gaussian, Inc., Wallingford CT, 2016.
 
 ******************************************
 Gaussian 16:  EM64L-G16RevA.03 25-Dec-2016
                11-Jul-2024 
 ******************************************
 %nprocshared=3
 Will use up to    3 processors via shared memory.
 %mem=6GB
 %Chk=XSZYBMMYQCYIPC-UHFFFAOYSA-N_conf_1_0.chk
 -------------------------------------------------------
 # opt=CalcFc B3LYP/6-31G** SCRF=(Solvent=water) scf=xqc
 -------------------------------------------------------
 1/10=4,18=20,19=15,26=3,38=1/1,3;
 2/9=110,12=2,17=6,18=5,40=1/2;
 3/5=1,6=6,7=101,11=2,25=1,30=1,70=2201,71=2,72=1,74=-5,140=1/1,2,3;
 4//1;
 5/5=2,8=3,13=1,38=5,53=1/2,8;
 8/6=4,10=90,11=11/1;
 11/6=1,8=1,9=11,15=111,16=1/1,2,10;
 10/6=1,13=1/2;
 6/7=2,8=2,9=2,10=2,28=1/1;
 7/10=1,18=20,25=1/1,2,3,16;
 1/10=4,18=20,19=15,26=3/3(2);
 2/9=110/2;
 99//99;
 2/9=110/2;
 3/5=1,6=6,7=101,11=2,25=1,30=1,70=2205,71=1,72=1,74=-5/1,2,3;
 4/5=5,16=3,69=1/1;
 5/5=2,8=3,13=1,38=5,53=1/2,8;
 7//1,2,3,16;
 1/18=20,19=15,26=3/3(-5);
 2/9=110/2;
 6/7=2,8=2,9=2,10=2,19=2,28=1/1;
 99/9=1/99;
 ----------------------------------
 XSZYBMMYQCYIPC-UHFFFAOYSA-N_conf_1
 ----------------------------------
 Symbolic Z-matrix:
 Charge =  0 Multiplicity = 1
 N                     2.88534  -0.99908  -0.23174 
 C                     1.57337  -0.47434  -0.15954 
 C                     0.47349  -1.3337   -0.10753 
 C                    -0.83433  -0.8312   -0.00138 
 C                    -1.99144  -1.79209   0.00653 
 C                    -1.03337   0.56175   0.05995 
 C                    -2.41292   1.15669   0.13159 
 C                     0.08329   1.41403   0.09007 
 C                     1.3821    0.90071   0.06686 
 N                     2.49435   1.77519   0.06304 
 H                     2.90898  -1.90024  -0.69865 
 H                     3.48525  -0.32761  -0.70868 
 H                     0.63356  -2.40682  -0.1733 
 H                    -1.65118  -2.8295    0.09359 
 H                    -2.64846  -1.59556   0.8597 
 H                    -2.56264  -1.70246  -0.92277 
 H                    -2.87741   0.91764   1.09336 
 H                    -2.38547   2.24715   0.033 
 H                    -3.03879   0.77509  -0.68135 
 H                    -0.06246   2.48921   0.15539 
 H                     2.29118   2.65045   0.53557 
 H                     3.28755   1.3047    0.49629 
 

 GradGradGradGradGradGradGradGradGradGradGradGradGradGradGradGradGradGrad
 Berny optimization.
 Initialization pass.
                           ----------------------------
                           !    Initial Parameters    !
                           ! (Angstroms and Degrees)  !
 --------------------------                            --------------------------
 ! Name  Definition              Value          Derivative Info.                !
 --------------------------------------------------------------------------------
 ! R1    R(1,2)                  1.4149         calculate D2E/DX2 analytically  !
 ! R2    R(1,11)                 1.0152         calculate D2E/DX2 analytically  !
 ! R3    R(1,12)                 1.0189         calculate D2E/DX2 analytically  !
 ! R4    R(2,3)                  1.3968         calculate D2E/DX2 analytically  !
 ! R5    R(2,9)                  1.4066         calculate D2E/DX2 analytically  !
 ! R6    R(3,4)                  1.4051         calculate D2E/DX2 analytically  !
 ! R7    R(3,13)                 1.087          calculate D2E/DX2 analytically  !
 ! R8    R(4,5)                  1.5041         calculate D2E/DX2 analytically  !
 ! R9    R(4,6)                  1.4084         calculate D2E/DX2 analytically  !
 ! R10   R(5,14)                 1.0953         calculate D2E/DX2 analytically  !
 ! R11   R(5,15)                 1.0946         calculate D2E/DX2 analytically  !
 ! R12   R(5,16)                 1.0945         calculate D2E/DX2 analytically  !
 ! R13   R(6,7)                  1.5041         calculate D2E/DX2 analytically  !
 ! R14   R(6,8)                  1.4051         calculate D2E/DX2 analytically  !
 ! R15   R(7,17)                 1.0945         calculate D2E/DX2 analytically  !
 ! R16   R(7,18)                 1.0953         calculate D2E/DX2 analytically  !
 ! R17   R(7,19)                 1.0946         calculate D2E/DX2 analytically  !
 ! R18   R(8,9)                  1.3968         calculate D2E/DX2 analytically  !
 ! R19   R(8,20)                 1.087          calculate D2E/DX2 analytically  !
 ! R20   R(9,10)                 1.4149         calculate D2E/DX2 analytically  !
 ! R21   R(10,21)                1.0152         calculate D2E/DX2 analytically  !
 ! R22   R(10,22)                1.0189         calculate D2E/DX2 analytically  !
 ! A1    A(2,1,11)             111.9801         calculate D2E/DX2 analytically  !
 ! A2    A(2,1,12)             108.9912         calculate D2E/DX2 analytically  !
 ! A3    A(11,1,12)            110.8531         calculate D2E/DX2 analytically  !
 ! A4    A(1,2,3)              120.258          calculate D2E/DX2 analytically  !
 ! A5    A(1,2,9)              119.7925         calculate D2E/DX2 analytically  !
 ! A6    A(3,2,9)              119.2337         calculate D2E/DX2 analytically  !
 ! A7    A(2,3,4)              121.0463         calculate D2E/DX2 analytically  !
 ! A8    A(2,3,13)             119.2878         calculate D2E/DX2 analytically  !
 ! A9    A(4,3,13)             119.651          calculate D2E/DX2 analytically  !
 ! A10   A(3,4,5)              119.2087         calculate D2E/DX2 analytically  !
 ! A11   A(3,4,6)              119.2441         calculate D2E/DX2 analytically  !
 ! A12   A(5,4,6)              121.5262         calculate D2E/DX2 analytically  !
 ! A13   A(4,5,14)             111.502          calculate D2E/DX2 analytically  !
 ! A14   A(4,5,15)             110.558          calculate D2E/DX2 analytically  !
 ! A15   A(4,5,16)             110.1644         calculate D2E/DX2 analytically  !
 ! A16   A(14,5,15)            107.1318         calculate D2E/DX2 analytically  !
 ! A17   A(14,5,16)            107.8905         calculate D2E/DX2 analytically  !
 ! A18   A(15,5,16)            109.5012         calculate D2E/DX2 analytically  !
 ! A19   A(4,6,7)              121.5262         calculate D2E/DX2 analytically  !
 ! A20   A(4,6,8)              119.2441         calculate D2E/DX2 analytically  !
 ! A21   A(7,6,8)              119.2087         calculate D2E/DX2 analytically  !
 ! A22   A(6,7,17)             110.1643         calculate D2E/DX2 analytically  !
 ! A23   A(6,7,18)             111.502          calculate D2E/DX2 analytically  !
 ! A24   A(6,7,19)             110.558          calculate D2E/DX2 analytically  !
 ! A25   A(17,7,18)            107.8904         calculate D2E/DX2 analytically  !
 ! A26   A(17,7,19)            109.5014         calculate D2E/DX2 analytically  !
 ! A27   A(18,7,19)            107.1319         calculate D2E/DX2 analytically  !
 ! A28   A(6,8,9)              121.0463         calculate D2E/DX2 analytically  !
 ! A29   A(6,8,20)             119.651          calculate D2E/DX2 analytically  !
 ! A30   A(9,8,20)             119.2878         calculate D2E/DX2 analytically  !
 ! A31   A(2,9,8)              119.2337         calculate D2E/DX2 analytically  !
 ! A32   A(2,9,10)             119.7925         calculate D2E/DX2 analytically  !
 ! A33   A(8,9,10)             120.258          calculate D2E/DX2 analytically  !
 ! A34   A(9,10,21)            111.9801         calculate D2E/DX2 analytically  !
 ! A35   A(9,10,22)            108.9912         calculate D2E/DX2 analytically  !
 ! A36   A(21,10,22)           110.8531         calculate D2E/DX2 analytically  !
 ! D1    D(11,1,2,3)            29.1884         calculate D2E/DX2 analytically  !
 ! D2    D(11,1,2,9)          -160.5775         calculate D2E/DX2 analytically  !
 ! D3    D(12,1,2,3)           152.2051         calculate D2E/DX2 analytically  !
 ! D4    D(12,1,2,9)           -37.5608         calculate D2E/DX2 analytically  !
 ! D5    D(1,2,3,4)            178.3691         calculate D2E/DX2 analytically  !
 ! D6    D(1,2,3,13)            -3.0394         calculate D2E/DX2 analytically  !
 ! D7    D(9,2,3,4)              8.0806         calculate D2E/DX2 analytically  !
 ! D8    D(9,2,3,13)          -173.3278         calculate D2E/DX2 analytically  !
 ! D9    D(1,2,9,8)            177.8091         calculate D2E/DX2 analytically  !
 ! D10   D(1,2,9,10)             7.4747         calculate D2E/DX2 analytically  !
 ! D11   D(3,2,9,8)            -11.8565         calculate D2E/DX2 analytically  !
 ! D12   D(3,2,9,10)           177.809          calculate D2E/DX2 analytically  !
 ! D13   D(2,3,4,5)            178.0347         calculate D2E/DX2 analytically  !
 ! D14   D(2,3,4,6)             -0.3212         calculate D2E/DX2 analytically  !
 ! D15   D(13,3,4,5)            -0.5518         calculate D2E/DX2 analytically  !
 ! D16   D(13,3,4,6)          -178.9078         calculate D2E/DX2 analytically  !
 ! D17   D(3,4,5,14)             9.5787         calculate D2E/DX2 analytically  !
 ! D18   D(3,4,5,15)           128.6493         calculate D2E/DX2 analytically  !
 ! D19   D(3,4,5,16)          -110.1837         calculate D2E/DX2 analytically  !
 ! D20   D(6,4,5,14)          -172.1042         calculate D2E/DX2 analytically  !
 ! D21   D(6,4,5,15)           -53.0336         calculate D2E/DX2 analytically  !
 ! D22   D(6,4,5,16)            68.1334         calculate D2E/DX2 analytically  !
 ! D23   D(3,4,6,7)            178.1031         calculate D2E/DX2 analytically  !
 ! D24   D(3,4,6,8)             -3.5804         calculate D2E/DX2 analytically  !
 ! D25   D(5,4,6,7)             -0.2134         calculate D2E/DX2 analytically  !
 ! D26   D(5,4,6,8)            178.1031         calculate D2E/DX2 analytically  !
 ! D27   D(4,6,7,17)            68.1333         calculate D2E/DX2 analytically  !
 ! D28   D(4,6,7,18)          -172.1045         calculate D2E/DX2 analytically  !
 ! D29   D(4,6,7,19)           -53.0339         calculate D2E/DX2 analytically  !
 ! D30   D(8,6,7,17)          -110.1838         calculate D2E/DX2 analytically  !
 ! D31   D(8,6,7,18)             9.5784         calculate D2E/DX2 analytically  !
 ! D32   D(8,6,7,19)           128.649          calculate D2E/DX2 analytically  !
 ! D33   D(4,6,8,9)             -0.3211         calculate D2E/DX2 analytically  !
 ! D34   D(4,6,8,20)          -178.9077         calculate D2E/DX2 analytically  !
 ! D35   D(7,6,8,9)            178.0348         calculate D2E/DX2 analytically  !
 ! D36   D(7,6,8,20)            -0.5517         calculate D2E/DX2 analytically  !
 ! D37   D(6,8,9,2)              8.0805         calculate D2E/DX2 analytically  !
 ! D38   D(6,8,9,10)           178.369          calculate D2E/DX2 analytically  !
 ! D39   D(20,8,9,2)          -173.3279         calculate D2E/DX2 analytically  !
 ! D40   D(20,8,9,10)           -3.0394         calculate D2E/DX2 analytically  !
 ! D41   D(2,9,10,21)         -160.5776         calculate D2E/DX2 analytically  !
 ! D42   D(2,9,10,22)          -37.5608         calculate D2E/DX2 analytically  !
 ! D43   D(8,9,10,21)           29.1883         calculate D2E/DX2 analytically  !
 ! D44   D(8,9,10,22)          152.205          calculate D2E/DX2 analytically  !
 --------------------------------------------------------------------------------
 Trust Radius=3.00D-01 FncErr=1.00D-07 GrdErr=1.00D-06 EigMax=2.50D+02 EigMin=1.00D-04
 Number of steps in this run=    112 maximum allowed number of steps=    132.
 GradGradGradGradGradGradGradGradGradGradGradGradGradGradGradGradGradGrad

                          Input orientation:                          
 ---------------------------------------------------------------------
 Center     Atomic      Atomic             Coordinates (Angstroms)
 Number     Number       Type             X           Y           Z
 ---------------------------------------------------------------------
      1          7           0        2.885338   -0.999080   -0.231745
      2          6           0        1.573374   -0.474335   -0.159540
      3          6           0        0.473494   -1.333703   -0.107533
      4          6           0       -0.834334   -0.831201   -0.001382
      5          6           0       -1.991437   -1.792090    0.006527
      6          6           0       -1.033366    0.561755    0.059953
      7          6           0       -2.412924    1.156690    0.131592
      8          6           0        0.083287    1.414027    0.090074
      9          6           0        1.382102    0.900710    0.066857
     10          7           0        2.494350    1.775186    0.063040
     11          1           0        2.908982   -1.900240   -0.698651
     12          1           0        3.485246   -0.327612   -0.708682
     13          1           0        0.633561   -2.406822   -0.173302
     14          1           0       -1.651178   -2.829500    0.093591
     15          1           0       -2.648460   -1.595559    0.859700
     16          1           0       -2.562639   -1.702460   -0.922765
     17          1           0       -2.877405    0.917644    1.093361
     18          1           0       -2.385466    2.247150    0.033001
     19          1           0       -3.038787    0.775086   -0.681354
     20          1           0       -0.062462    2.489211    0.155395
     21          1           0        2.291178    2.650447    0.535575
     22          1           0        3.287547    1.304696    0.496290
 ---------------------------------------------------------------------
                    Distance matrix (angstroms):
                    1          2          3          4          5
     1  N    0.000000
     2  C    1.414857   0.000000
     3  C    2.438112   1.396765   0.000000
     4  C    3.730577   2.439144   1.405058   0.000000
     5  C    4.946572   3.804200   2.509784   1.504081   0.000000
     6  C    4.228183   2.813673   2.427228   1.408439   2.541916
     7  C    5.731573   4.316894   3.819770   2.541917   2.981375
     8  C    3.711891   2.418383   2.782324   2.427229   3.819770
     9  C    2.440918   1.406624   2.418384   2.813673   4.316894
    10  N    2.817148   2.440919   3.711892   4.228183   5.731574
    11  H    1.015209   2.026745   2.569433   3.954926   4.952079
    12  H    1.018935   1.994577   3.231756   4.405978   5.714043
    13  H    2.656247   2.148940   1.086983   2.160290   2.702009
    14  H    4.902679   4.001077   2.606165   2.160892   1.095252
    15  H    5.671856   4.485518   3.278827   2.148665   1.094627
    16  H    5.536488   4.381485   3.165231   2.143614   1.094481
    17  H    6.216023   4.828748   4.211797   2.903629   3.051033
    18  H    6.195923   4.807906   4.584311   3.447236   4.058499
    19  H    6.200408   4.806805   4.136711   2.811074   2.856661
    20  H    4.583402   3.399669   3.869244   3.412551   4.698154
    21  H    3.776355   3.280654   4.426174   4.709460   6.193288
    22  H    2.449325   2.556062   3.904439   4.669007   6.139839
                    6          7          8          9         10
     6  C    0.000000
     7  C    1.504081   0.000000
     8  C    1.405059   2.509784   0.000000
     9  C    2.439144   3.804200   1.396765   0.000000
    10  N    3.730577   4.946572   2.438112   1.414856   0.000000
    11  H    4.709459   6.193287   4.426172   3.280653   3.776354
    12  H    4.669007   6.139839   3.904438   2.556062   2.449324
    13  H    3.412551   4.698154   3.869244   3.399670   4.583403
    14  H    3.447236   4.058499   4.584311   4.807907   6.195924
    15  H    2.811072   2.856658   4.136710   4.806806   6.200409
    16  H    2.903632   3.051036   4.211800   4.828750   6.216025
    17  H    2.143611   1.094480   3.165230   4.381484   5.536487
    18  H    2.160892   1.095252   2.606164   4.001076   4.902678
    19  H    2.148664   1.094626   3.278825   4.485516   5.671853
    20  H    2.160290   2.702009   1.086983   2.148939   2.656247
    21  H    3.954927   4.952079   2.569433   2.026745   1.015210
    22  H    4.405978   5.714042   3.231756   1.994577   1.018935
                   11         12         13         14         15
    11  H    0.000000
    12  H    1.674915   0.000000
    13  H    2.389593   3.569573   0.000000
    14  H    4.720830   5.769397   2.338787   0.000000
    15  H    5.779831   6.456768   3.535096   1.761847   0.000000
    16  H    5.479779   6.205881   3.357606   1.770300   1.787729
    17  H    6.680872   6.729142   4.998339   4.067464   2.534404
    18  H    6.765156   6.453274   5.551264   5.129837   3.939417
    19  H    6.521781   6.616623   4.885570   3.939422   2.854324
    20  H    5.368999   4.611654   4.956171   5.551264   4.885568
    21  H    4.755392   3.441338   5.369001   6.765157   6.521782
    22  H    3.441338   2.038497   4.611654   6.453274   6.616624
                   16         17         18         19         20
    16  H    0.000000
    17  H    3.320961   0.000000
    18  H    4.067468   1.770298   0.000000
    19  H    2.534409   1.787730   1.761847   0.000000
    20  H    4.998342   3.357605   2.338786   3.535093   0.000000
    21  H    6.680875   5.479780   4.720829   5.779829   2.389593
    22  H    6.729144   6.205879   5.769396   6.456766   3.569572
                   21         22
    21  H    0.000000
    22  H    1.674915   0.000000
 Stoichiometry    C8H12N2
 Framework group  C1[X(C8H12N2)]
 Deg. of freedom    60
 Full point group                 C1      NOp   1
 Largest Abelian subgroup         C1      NOp   1
 Largest concise Abelian subgroup C1      NOp   1
                         Standard orientation:                         
 ---------------------------------------------------------------------
 Center     Atomic      Atomic             Coordinates (Angstroms)
 Number     Number       Type             X           Y           Z
 ---------------------------------------------------------------------
      1          7           0       -2.466575   -1.408497    0.014737
      2          6           0       -1.241331   -0.701719    0.047306
      3          6           0       -0.028983   -1.390784   -0.032416
      4          6           0        1.196397   -0.703310   -0.035785
      5          6           0        2.478475   -1.488638   -0.078133
      6          6           0        1.196396    0.703310    0.035785
      7          6           0        2.478475    1.488639    0.078134
      8          6           0       -0.028984    1.390784    0.032415
      9          6           0       -1.241331    0.701719   -0.047306
     10          7           0       -2.466575    1.408497   -0.014736
     11          1           0       -2.375838   -2.344118    0.398183
     12          1           0       -3.170678   -0.875074    0.522602
     13          1           0       -0.036220   -2.477113   -0.069424
     14          1           0        2.292624   -2.550457   -0.271979
     15          1           0        3.126872   -1.123012   -0.880696
     16          1           0        3.001931   -1.408311    0.879693
     17          1           0        3.001929    1.408309   -0.879691
     18          1           0        2.292623    2.550458    0.271975
     19          1           0        3.126868    1.123016    0.880700
     20          1           0       -0.036221    2.477113    0.069421
     21          1           0       -2.375839    2.344118   -0.398181
     22          1           0       -3.170678    0.875074   -0.522602
 ---------------------------------------------------------------------
 Rotational constants (GHZ):           2.2174444           1.0674358           0.7297314
 Standard basis: 6-31G(d,p) (6D, 7F)
 There are   210 symmetry adapted cartesian basis functions of A   symmetry.
 There are   210 symmetry adapted basis functions of A   symmetry.
   210 basis functions,   364 primitive gaussians,   210 cartesian basis functions
    37 alpha electrons       37 beta electrons
       nuclear repulsion energy       515.9513939380 Hartrees.
 NAtoms=   22 NActive=   22 NUniq=   22 SFac= 1.00D+00 NAtFMM=   60 NAOKFM=F Big=F
 Integral buffers will be    131072 words long.
 Raffenetti 2 integral format.
 Two-electron integral symmetry is turned on.
 Force inversion solution in PCM.
 ------------------------------------------------------------------------------
 Polarizable Continuum Model (PCM)
 =================================
 Model                : PCM.
 Atomic radii         : UFF (Universal Force Field).
 Polarization charges : Total charges.
 Charge compensation  : None.
 Solution method      : Matrix inversion.
 Cavity type          : Scaled VdW (van der Waals Surface) (Alpha=1.100).
 Cavity algorithm     : GePol (No added spheres)
                        Default sphere list used, NSphG=   22.
                        Lebedev-Laikov grids with approx.  5.0 points / Ang**2.
                        Smoothing algorithm: York/Karplus (Gamma=1.0000).
                        Polarization charges: spherical gaussians, with
                                              point-specific exponents (IZeta= 3).
                        Self-potential: point-specific (ISelfS= 7).
                        Self-field    : sphere-specific E.n sum rule (ISelfD= 2).
 1st derivatives      : Analytical E(r).r(x)/FMM algorithm (CHGder, D1EAlg=3).
                        Cavity 1st derivative terms included.
 2nd derivatives      : Analytical E(r).r(xy)/FMM algorithm (CHGder, D2EAlg=3).
                        Cavity 2nd derivative terms included.
 Solvent              : Water, Eps=  78.355300 Eps(inf)=   1.777849
 ------------------------------------------------------------------------------
 One-electron integrals computed using PRISM.
 NBasis=   210 RedAO= T EigKep=  3.84D-04  NBF=   210
 NBsUse=   210 1.00D-06 EigRej= -1.00D+00 NBFU=   210
 ExpMin= 1.61D-01 ExpMax= 4.17D+03 ExpMxC= 6.27D+02 IAcc=3 IRadAn=         5 AccDes= 0.00D+00
 Harris functional with IExCor=  402 and IRadAn=       5 diagonalized for initial guess.
 HarFok:  IExCor=  402 AccDes= 0.00D+00 IRadAn=         5 IDoV= 1 UseB2=F ITyADJ=14
 ICtDFT=  3500011 ScaDFX=  1.000000  1.000000  1.000000  1.000000
 FoFCou: FMM=F IPFlag=           0 FMFlag=      100000 FMFlg1=           0
         NFxFlg=           0 DoJE=T BraDBF=F KetDBF=T FulRan=T
         wScrn=  0.000000 ICntrl=       500 IOpCl=  0 I1Cent=   200000004 NGrid=           0
         NMat0=    1 NMatS0=      1 NMatT0=    0 NMatD0=    1 NMtDS0=    0 NMtDT0=    0
 Petite list used in FoFCou.
 Keep R1 ints in memory in canonical form, NReq=250131393.
 Requested convergence on RMS density matrix=1.00D-08 within  32 cycles.
 Requested convergence on MAX density matrix=1.00D-06.
 Requested convergence on             energy=1.00D-06.
 No special actions if energy rises.
 Inv3:  Mode=1 IEnd=     7699212.
 Iteration    1 A*A^-1 deviation from unit magnitude is 8.10D-15 for    202.
 Iteration    1 A*A^-1 deviation from orthogonality  is 4.56D-15 for   1067    352.
 Iteration    1 A^-1*A deviation from unit magnitude is 8.10D-15 for    202.
 Iteration    1 A^-1*A deviation from orthogonality  is 4.20D-15 for   1463   1363.
 Error on total polarization charges =  0.00867
 SCF Done:  E(RB3LYP) =  -421.617625401     A.U. after   12 cycles
            NFock= 12  Conv=0.28D-08     -V/T= 2.0097
 QCSCF skips out because SCF is already converged.
 DoSCS=F DFT=T ScalE2(SS,OS)=  1.000000  1.000000
 Range of M.O.s used for correlation:     1   210
 NBasis=   210 NAE=    37 NBE=    37 NFC=     0 NFV=     0
 NROrb=    210 NOA=    37 NOB=    37 NVA=   173 NVB=   173
 Symmetrizing basis deriv contribution to polar:
 IMax=3 JMax=2 DiffMx= 0.00D+00
 G2DrvN: will do    23 centers at a time, making    1 passes.
 Calling FoFCou, ICntrl=  3107 FMM=F I1Cent=   0 AccDes= 0.00D+00.
 NEqPCM:  Using equilibrium solvation (IEInf=0, Eps=  78.3553, EpsInf=   1.7778)
 G2PCM: DoFxE=T DoFxN=T DoGrad=T DoDP/DQ/DG/TGxP=FFFF NFrqRd=   0 IEInf=0 SqF1=F DoCFld=F IF1Alg=4.
 End of G2Drv F.D. properties file   721 does not exist.
 End of G2Drv F.D. properties file   722 does not exist.
 End of G2Drv F.D. properties file   788 does not exist.
          IDoAtm=1111111111111111111111
 NEqPCM:  Using equilibrium solvation (IEInf=0, Eps=  78.3553, EpsInf=   1.7778)
          Differentiating once with respect to nuclear coordinates.
 Keep R1 ints in memory in canonical form, NReq=252623131.
          There are    69 degrees of freedom in the 1st order CPHF.  IDoFFX=6 NUNeed=     0.
     63 vectors produced by pass  0 Test12= 9.28D-15 1.45D-09 XBig12= 1.24D-01 1.84D-01.
 AX will form    63 AO Fock derivatives at one time.
     63 vectors produced by pass  1 Test12= 9.28D-15 1.45D-09 XBig12= 2.43D-02 4.35D-02.
     63 vectors produced by pass  2 Test12= 9.28D-15 1.45D-09 XBig12= 2.24D-04 2.68D-03.
     63 vectors produced by pass  3 Test12= 9.28D-15 1.45D-09 XBig12= 7.78D-07 1.14D-04.
     63 vectors produced by pass  4 Test12= 9.28D-15 1.45D-09 XBig12= 9.63D-10 3.22D-06.
     35 vectors produced by pass  5 Test12= 9.28D-15 1.45D-09 XBig12= 7.15D-13 7.57D-08.
      3 vectors produced by pass  6 Test12= 9.28D-15 1.45D-09 XBig12= 6.52D-16 2.92D-09.
 InvSVY:  IOpt=1 It=  1 EMax= 4.72D-16
 Solved reduced A of dimension   353 with    69 vectors.
 End of Minotr F.D. properties file   721 does not exist.
 End of Minotr F.D. properties file   722 does not exist.
 End of Minotr F.D. properties file   788 does not exist.

 **********************************************************************

            Population analysis using the SCF density.

 **********************************************************************

 Orbital symmetries:
       Occupied  (A) (A) (A) (A) (A) (A) (A) (A) (A) (A) (A) (A)
                 (A) (A) (A) (A) (A) (A) (A) (A) (A) (A) (A) (A)
                 (A) (A) (A) (A) (A) (A) (A) (A) (A) (A) (A) (A)
                 (A)
       Virtual   (A) (A) (A) (A) (A) (A) (A) (A) (A) (A) (A) (A)
                 (A) (A) (A) (A) (A) (A) (A) (A) (A) (A) (A) (A)
                 (A) (A) (A) (A) (A) (A) (A) (A) (A) (A) (A) (A)
                 (A) (A) (A) (A) (A) (A) (A) (A) (A) (A) (A) (A)
                 (A) (A) (A) (A) (A) (A) (A) (A) (A) (A) (A) (A)
                 (A) (A) (A) (A) (A) (A) (A) (A) (A) (A) (A) (A)
                 (A) (A) (A) (A) (A) (A) (A) (A) (A) (A) (A) (A)
                 (A) (A) (A) (A) (A) (A) (A) (A) (A) (A) (A) (A)
                 (A) (A) (A) (A) (A) (A) (A) (A) (A) (A) (A) (A)
                 (A) (A) (A) (A) (A) (A) (A) (A) (A) (A) (A) (A)
                 (A) (A) (A) (A) (A) (A) (A) (A) (A) (A) (A) (A)
                 (A) (A) (A) (A) (A) (A) (A) (A) (A) (A) (A) (A)
                 (A) (A) (A) (A) (A) (A) (A) (A) (A) (A) (A) (A)
                 (A) (A) (A) (A) (A) (A) (A) (A) (A) (A) (A) (A)
                 (A) (A) (A) (A) (A)
 The electronic state is 1-A.
 Alpha  occ. eigenvalues --  -14.33317 -14.33317 -10.21243 -10.21192 -10.17980
 Alpha  occ. eigenvalues --  -10.17930 -10.17415 -10.17414 -10.17369 -10.17369
 Alpha  occ. eigenvalues --   -0.92668  -0.88279  -0.83185  -0.74755  -0.74491
 Alpha  occ. eigenvalues --   -0.68190  -0.65258  -0.60178  -0.55781  -0.52130
 Alpha  occ. eigenvalues --   -0.49470  -0.47785  -0.44752  -0.43756  -0.42891
 Alpha  occ. eigenvalues --   -0.41673  -0.40626  -0.39598  -0.38019  -0.37698
 Alpha  occ. eigenvalues --   -0.36612  -0.33386  -0.33169  -0.31014  -0.28474
 Alpha  occ. eigenvalues --   -0.21665  -0.18204
 Alpha virt. eigenvalues --    0.01404   0.02716   0.07744   0.10219   0.11562
 Alpha virt. eigenvalues --    0.12474   0.14450   0.15000   0.15142   0.16705
 Alpha virt. eigenvalues --    0.16984   0.17409   0.18270   0.22273   0.24796
 Alpha virt. eigenvalues --    0.25395   0.26066   0.27162   0.30257   0.34906
 Alpha virt. eigenvalues --    0.36459   0.39076   0.39242   0.49509   0.50671
 Alpha virt. eigenvalues --    0.52320   0.52834   0.53840   0.54952   0.56565
 Alpha virt. eigenvalues --    0.57945   0.59406   0.60027   0.60198   0.62475
 Alpha virt. eigenvalues --    0.64815   0.65452   0.66521   0.68561   0.69927
 Alpha virt. eigenvalues --    0.71356   0.74641   0.75282   0.76021   0.78111
 Alpha virt. eigenvalues --    0.78557   0.81346   0.81619   0.82949   0.83711
 Alpha virt. eigenvalues --    0.85562   0.85709   0.86231   0.87483   0.89121
 Alpha virt. eigenvalues --    0.89796   0.91577   0.93020   0.93900   0.96415
 Alpha virt. eigenvalues --    0.97205   0.98973   0.99904   1.02119   1.03613
 Alpha virt. eigenvalues --    1.07835   1.12528   1.18119   1.18392   1.19852
 Alpha virt. eigenvalues --    1.24851   1.26125   1.29750   1.31295   1.34171
 Alpha virt. eigenvalues --    1.35959   1.36841   1.42252   1.42421   1.48767
 Alpha virt. eigenvalues --    1.57809   1.65057   1.66844   1.70643   1.73096
 Alpha virt. eigenvalues --    1.75110   1.75677   1.78169   1.81997   1.82223
 Alpha virt. eigenvalues --    1.84435   1.85363   1.85406   1.89120   1.92826
 Alpha virt. eigenvalues --    1.94264   1.98736   1.99988   2.00869   2.02184
 Alpha virt. eigenvalues --    2.03997   2.04320   2.05613   2.08797   2.09424
 Alpha virt. eigenvalues --    2.10592   2.11685   2.12694   2.13936   2.16401
 Alpha virt. eigenvalues --    2.19837   2.22924   2.24820   2.27888   2.28261
 Alpha virt. eigenvalues --    2.28538   2.30918   2.31472   2.34645   2.39810
 Alpha virt. eigenvalues --    2.40971   2.41578   2.44087   2.46024   2.47086
 Alpha virt. eigenvalues --    2.48180   2.50869   2.54572   2.55745   2.60079
 Alpha virt. eigenvalues --    2.64077   2.65282   2.67179   2.67944   2.68905
 Alpha virt. eigenvalues --    2.71100   2.76020   2.77665   2.80560   2.81927
 Alpha virt. eigenvalues --    2.86330   2.88733   2.89702   2.90352   2.93805
 Alpha virt. eigenvalues --    2.98086   3.00261   3.07707   3.13805   3.19108
 Alpha virt. eigenvalues --    3.19794   3.23173   3.29792   3.30734   3.34725
 Alpha virt. eigenvalues --    3.42034   3.43497   3.45041   3.46436   3.46904
 Alpha virt. eigenvalues --    3.48436   3.51572   3.70867   4.01886   4.13302
 Alpha virt. eigenvalues --    4.14042   4.16600   4.18479   4.38581   4.40166
 Alpha virt. eigenvalues --    4.51120   4.57970   4.84484
          Condensed to atoms (all electrons):
               1          2          3          4          5          6
     1  N    6.879504   0.270296  -0.065057   0.003829  -0.000139   0.000883
     2  C    0.270296   4.756645   0.494625  -0.024389   0.007901  -0.039808
     3  C   -0.065057   0.494625   5.057500   0.508969  -0.061936  -0.013001
     4  C    0.003829  -0.024389   0.508969   4.788346   0.359563   0.540049
     5  C   -0.000139   0.007901  -0.061936   0.359563   5.050870  -0.073164
     6  C    0.000883  -0.039808  -0.013001   0.540049  -0.073164   4.788347
     7  C    0.000003   0.000211   0.008622  -0.073164  -0.016134   0.359563
     8  C    0.004334  -0.030550  -0.071180  -0.013001   0.008622   0.508969
     9  C   -0.068567   0.527112  -0.030550  -0.039808   0.000211  -0.024389
    10  N   -0.013070  -0.068567   0.004334   0.000883   0.000003   0.003829
    11  H    0.342582  -0.025623  -0.010818  -0.000075  -0.000006  -0.000006
    12  H    0.326029  -0.027777   0.006304  -0.000189   0.000003   0.000036
    13  H   -0.006845  -0.044390   0.356968  -0.031303  -0.010663   0.004795
    14  H   -0.000003   0.000180  -0.006070  -0.027030   0.373861   0.004342
    15  H    0.000002  -0.000114   0.001345  -0.027854   0.372254  -0.006932
    16  H    0.000001  -0.000377   0.000107  -0.028406   0.370364  -0.003872
    17  H    0.000000   0.000092  -0.000272  -0.003872   0.001527  -0.028406
    18  H   -0.000000  -0.000006  -0.000162   0.004342   0.000143  -0.027030
    19  H   -0.000000  -0.000013   0.000082  -0.006932   0.002956  -0.027854
    20  H   -0.000120   0.004232   0.000765   0.004795  -0.000170  -0.031303
    21  H    0.000161   0.006094  -0.000152  -0.000006  -0.000000  -0.000075
    22  H    0.015065  -0.019225  -0.000393   0.000036  -0.000000  -0.000189
               7          8          9         10         11         12
     1  N    0.000003   0.004334  -0.068567  -0.013070   0.342582   0.326029
     2  C    0.000211  -0.030550   0.527112  -0.068567  -0.025623  -0.027777
     3  C    0.008622  -0.071180  -0.030550   0.004334  -0.010818   0.006304
     4  C   -0.073164  -0.013001  -0.039808   0.000883  -0.000075  -0.000189
     5  C   -0.016134   0.008622   0.000211   0.000003  -0.000006   0.000003
     6  C    0.359563   0.508969  -0.024389   0.003829  -0.000006   0.000036
     7  C    5.050870  -0.061936   0.007901  -0.000139  -0.000000  -0.000000
     8  C   -0.061936   5.057500   0.494625  -0.065057  -0.000152  -0.000393
     9  C    0.007901   0.494625   4.756644   0.270296   0.006094  -0.019225
    10  N   -0.000139  -0.065057   0.270296   6.879504   0.000161   0.015065
    11  H   -0.000000  -0.000152   0.006094   0.000161   0.432876  -0.025722
    12  H   -0.000000  -0.000393  -0.019225   0.015065  -0.025722   0.463770
    13  H   -0.000170   0.000765   0.004232  -0.000120   0.005054  -0.000015
    14  H    0.000143  -0.000162  -0.000006  -0.000000   0.000001   0.000000
    15  H    0.002956   0.000082  -0.000013  -0.000000   0.000000  -0.000000
    16  H    0.001527  -0.000272   0.000092   0.000000  -0.000001  -0.000000
    17  H    0.370364   0.000107  -0.000377   0.000001   0.000000   0.000000
    18  H    0.373862  -0.006070   0.000180  -0.000003   0.000000  -0.000000
    19  H    0.372254   0.001345  -0.000114   0.000002  -0.000000  -0.000000
    20  H   -0.010663   0.356968  -0.044390  -0.006845   0.000004  -0.000005
    21  H   -0.000006  -0.010818  -0.025623   0.342582  -0.000001  -0.000335
    22  H    0.000003   0.006304  -0.027777   0.326029  -0.000335  -0.006673
              13         14         15         16         17         18
     1  N   -0.006845  -0.000003   0.000002   0.000001   0.000000  -0.000000
     2  C   -0.044390   0.000180  -0.000114  -0.000377   0.000092  -0.000006
     3  C    0.356968  -0.006070   0.001345   0.000107  -0.000272  -0.000162
     4  C   -0.031303  -0.027030  -0.027854  -0.028406  -0.003872   0.004342
     5  C   -0.010663   0.373861   0.372254   0.370364   0.001527   0.000143
     6  C    0.004795   0.004342  -0.006932  -0.003872  -0.028406  -0.027030
     7  C   -0.000170   0.000143   0.002956   0.001527   0.370364   0.373862
     8  C    0.000765  -0.000162   0.000082  -0.000272   0.000107  -0.006070
     9  C    0.004232  -0.000006  -0.000013   0.000092  -0.000377   0.000180
    10  N   -0.000120  -0.000000  -0.000000   0.000000   0.000001  -0.000003
    11  H    0.005054   0.000001   0.000000  -0.000001   0.000000   0.000000
    12  H   -0.000015   0.000000  -0.000000  -0.000000   0.000000  -0.000000
    13  H    0.630925   0.006445   0.000127   0.000312  -0.000003   0.000003
    14  H    0.006445   0.597374  -0.029847  -0.029073   0.000017  -0.000005
    15  H    0.000127  -0.029847   0.602684  -0.032935   0.003097  -0.000018
    16  H    0.000312  -0.029073  -0.032935   0.598878  -0.000650   0.000017
    17  H   -0.000003   0.000017   0.003097  -0.000650   0.598878  -0.029074
    18  H    0.000003  -0.000005  -0.000018   0.000017  -0.029074   0.597374
    19  H    0.000001  -0.000018  -0.001146   0.003097  -0.032935  -0.029847
    20  H    0.000019   0.000003   0.000001  -0.000003   0.000312   0.006445
    21  H    0.000004   0.000000  -0.000000   0.000000  -0.000001   0.000001
    22  H   -0.000005  -0.000000  -0.000000   0.000000  -0.000000   0.000000
              19         20         21         22
     1  N   -0.000000  -0.000120   0.000161   0.015065
     2  C   -0.000013   0.004232   0.006094  -0.019225
     3  C    0.000082   0.000765  -0.000152  -0.000393
     4  C   -0.006932   0.004795  -0.000006   0.000036
     5  C    0.002956  -0.000170  -0.000000  -0.000000
     6  C   -0.027854  -0.031303  -0.000075  -0.000189
     7  C    0.372254  -0.010663  -0.000006   0.000003
     8  C    0.001345   0.356968  -0.010818   0.006304
     9  C   -0.000114  -0.044390  -0.025623  -0.027777
    10  N    0.000002  -0.006845   0.342582   0.326029
    11  H   -0.000000   0.000004  -0.000001  -0.000335
    12  H   -0.000000  -0.000005  -0.000335  -0.006673
    13  H    0.000001   0.000019   0.000004  -0.000005
    14  H   -0.000018   0.000003   0.000000  -0.000000
    15  H   -0.001146   0.000001  -0.000000  -0.000000
    16  H    0.003097  -0.000003   0.000000   0.000000
    17  H   -0.032935   0.000312  -0.000001  -0.000000
    18  H   -0.029847   0.006445   0.000001   0.000000
    19  H    0.602683   0.000127   0.000000  -0.000000
    20  H    0.000127   0.630925   0.005054  -0.000015
    21  H    0.000000   0.005054   0.432876  -0.025722
    22  H   -0.000000  -0.000015  -0.025722   0.463770
 Mulliken charges:
               1
     1  N   -0.688887
     2  C    0.213451
     3  C   -0.180030
     4  C    0.065218
     5  C   -0.386065
     6  C    0.065218
     7  C   -0.386065
     8  C   -0.180031
     9  C    0.213452
    10  N   -0.688887
    11  H    0.275967
    12  H    0.269128
    13  H    0.083864
    14  H    0.109850
    15  H    0.116310
    16  H    0.121195
    17  H    0.121195
    18  H    0.109850
    19  H    0.116310
    20  H    0.083863
    21  H    0.275967
    22  H    0.269128
 Sum of Mulliken charges =  -0.00000
 Mulliken charges with hydrogens summed into heavy atoms:
               1
     1  N   -0.143792
     2  C    0.213451
     3  C   -0.096167
     4  C    0.065218
     5  C   -0.038711
     6  C    0.065218
     7  C   -0.038710
     8  C   -0.096167
     9  C    0.213452
    10  N   -0.143792
 APT charges:
               1
     1  N   -1.191846
     2  C   -0.002933
     3  C   -0.467587
     4  C   -0.154287
     5  C   -1.137406
     6  C   -0.154287
     7  C   -1.137404
     8  C   -0.467587
     9  C   -0.002932
    10  N   -1.191847
    11  H    0.637161
    12  H    0.580257
    13  H    0.470591
    14  H    0.436368
    15  H    0.416228
    16  H    0.413455
    17  H    0.413454
    18  H    0.436368
    19  H    0.416227
    20  H    0.470590
    21  H    0.637161
    22  H    0.580257
 Sum of APT charges =  -0.00000
 APT charges with hydrogens summed into heavy atoms:
               1
     1  N    0.025571
     2  C   -0.002933
     3  C    0.003004
     4  C   -0.154287
     5  C    0.128645
     6  C   -0.154287
     7  C    0.128645
     8  C    0.003003
     9  C   -0.002932
    10  N    0.025571
 Electronic spatial extent (au):  <R**2>=           1595.8867
 Charge=             -0.0000 electrons
 Dipole moment (field-independent basis, Debye):
    X=             -1.0427    Y=              0.0000    Z=              0.0000  Tot=              1.0427
 Quadrupole moment (field-independent basis, Debye-Ang):
   XX=            -52.3809   YY=            -51.7816   ZZ=            -63.3369
   XY=             -0.0000   XZ=              0.0000   YZ=             -4.6485
 Traceless Quadrupole moment (field-independent basis, Debye-Ang):
   XX=              3.4522   YY=              4.0515   ZZ=             -7.5037
   XY=             -0.0000   XZ=              0.0000   YZ=             -4.6485
 Octapole moment (field-independent basis, Debye-Ang**2):
  XXX=            -31.1612  YYY=              0.0000  ZZZ=              0.0000  XYY=            -14.6323
  XXY=              0.0000  XXZ=              0.0000  XZZ=             -0.7778  YZZ=              0.0000
  YYZ=             -0.0000  XYZ=             13.2937
 Hexadecapole moment (field-independent basis, Debye-Ang**3):
 XXXX=          -1260.0130 YYYY=           -599.8448 ZZZZ=            -82.2409 XXXY=             -0.0001
 XXXZ=              0.0000 YYYX=             -0.0001 YYYZ=            -18.7795 ZZZX=              0.0000
 ZZZY=             -5.3289 XXYY=           -317.2955 XXZZ=           -235.3088 YYZZ=           -134.7357
 XXYZ=            -39.1790 YYXZ=             -0.0001 ZZXY=              0.0000
 N-N= 5.159513939380D+02 E-N=-2.010207726208D+03  KE= 4.175592734521D+02
  Exact polarizability:   0.000   0.000   0.000   0.000   0.000   0.000
 Approx polarizability: 203.490  -0.000 178.745   0.000   0.604  73.937
 D2PCM: PCM CHGder 2nd derivatives, FixD1E=F FixD2E=F DoIter=F DoCFld=F I1PDM=0
 Calling FoFJK, ICntrl=    100147 FMM=F ISym2X=0 I1Cent= 0 IOpClX= 0 NMat=1 NMatS=1 NMatT=0.
 ***** Axes restored to original set *****
 -------------------------------------------------------------------
 Center     Atomic                   Forces (Hartrees/Bohr)
 Number     Number              X              Y              Z
 -------------------------------------------------------------------
      1        7           0.000032909    0.011331931   -0.001459391
      2        6           0.002672171   -0.011885890    0.013291689
      3        6          -0.007510980    0.010109213   -0.002598272
      4        6           0.007510672   -0.003176600   -0.001370505
      5        6           0.001297336   -0.000837415    0.002389675
      6        6           0.006377574    0.005180346    0.000934867
      7        6           0.000859533    0.001148636   -0.002457303
      8        6          -0.004176829   -0.011795225    0.002964726
      9        6          -0.001614047    0.012038368   -0.013324792
     10        7           0.003321047   -0.010847795    0.001354361
     11        1           0.002353384    0.002159693   -0.000349870
     12        1           0.002853334   -0.008257239   -0.002618727
     13        1           0.000214542   -0.000207726   -0.001002717
     14        1           0.000341166    0.001255056   -0.001177007
     15        1          -0.004373218   -0.000403702   -0.002153633
     16        1          -0.005116825   -0.001110299    0.001092818
     17        1          -0.005279681   -0.000389757   -0.000766425
     18        1           0.000753323   -0.001096971    0.001142517
     19        1          -0.004168713   -0.000828728    0.002421442
     20        1           0.000208259    0.000268745    0.000989431
     21        1           0.002884317   -0.001404428    0.000185462
     22        1           0.000560727    0.008749785    0.002511654
 -------------------------------------------------------------------
 Cartesian Forces:  Max     0.013324792 RMS     0.005068256
 FormGI is forming the generalized inverse of G from B-inverse, IUseBI=4.

 GradGradGradGradGradGradGradGradGradGradGradGradGradGradGradGradGradGrad
 Berny optimization.
 Internal  Forces:  Max     0.009902443 RMS     0.003100655
 Search for a local minimum.
 Step number   1 out of a maximum of  112
 All quantities printed in internal units (Hartrees-Bohrs-Radians)
 Mixed Optimization -- RFO/linear search
 Second derivative matrix not updated -- analytic derivatives used.
 ITU=  0
     Eigenvalues ---    0.00107   0.00129   0.00312   0.00718   0.01557
     Eigenvalues ---    0.01703   0.01896   0.01914   0.02095   0.02105
     Eigenvalues ---    0.02295   0.02511   0.02614   0.03011   0.03721
     Eigenvalues ---    0.05863   0.05874   0.05896   0.05922   0.11875
     Eigenvalues ---    0.12074   0.12509   0.12710   0.14115   0.14585
     Eigenvalues ---    0.14597   0.14697   0.14769   0.15564   0.16422
     Eigenvalues ---    0.16600   0.18934   0.19087   0.19394   0.20180
     Eigenvalues ---    0.20321   0.23109   0.23741   0.31164   0.32857
     Eigenvalues ---    0.33089   0.33463   0.33534   0.33657   0.34225
     Eigenvalues ---    0.34573   0.34797   0.35824   0.35855   0.38019
     Eigenvalues ---    0.39206   0.42853   0.44197   0.44273   0.45007
     Eigenvalues ---    0.45725   0.45750   0.46706   0.47808   0.50739
 RFO step:  Lambda=-7.07948671D-03 EMin= 1.06644077D-03
 Linear search not attempted -- first point.
 Iteration  1 RMS(Cart)=  0.05302958 RMS(Int)=  0.00243212
 Iteration  2 RMS(Cart)=  0.00272893 RMS(Int)=  0.00043752
 Iteration  3 RMS(Cart)=  0.00000916 RMS(Int)=  0.00043748
 Iteration  4 RMS(Cart)=  0.00000000 RMS(Int)=  0.00043748
 Variable       Old X    -DE/DX   Delta X   Delta X   Delta X     New X
                                 (Linear)    (Quad)   (Total)
    R1        2.67369   0.00314   0.00000  -0.00652  -0.00652   2.66717
    R2        1.91847  -0.00170   0.00000  -0.00228  -0.00228   1.91618
    R3        1.92551  -0.00254   0.00000  -0.00476  -0.00476   1.92075
    R4        2.63950   0.00314   0.00000   0.00113   0.00107   2.64057
    R5        2.65813   0.00186   0.00000   0.00882   0.00873   2.66686
    R6        2.65518  -0.00204   0.00000  -0.00762  -0.00757   2.64761
    R7        2.05410   0.00030   0.00000   0.00271   0.00271   2.05681
    R8        2.84230   0.00674   0.00000   0.01370   0.01370   2.85600
    R9        2.66156  -0.00153   0.00000   0.00009   0.00021   2.66177
   R10        2.06973  -0.00118   0.00000  -0.00330  -0.00330   2.06643
   R11        2.06855   0.00087   0.00000   0.00312   0.00312   2.07166
   R12        2.06827   0.00165   0.00000   0.00592   0.00592   2.07418
   R13        2.84230   0.00674   0.00000   0.01370   0.01370   2.85600
   R14        2.65518  -0.00204   0.00000  -0.00762  -0.00757   2.64761
   R15        2.06827   0.00165   0.00000   0.00592   0.00592   2.07418
   R16        2.06973  -0.00118   0.00000  -0.00330  -0.00330   2.06643
   R17        2.06854   0.00087   0.00000   0.00312   0.00312   2.07166
   R18        2.63950   0.00314   0.00000   0.00113   0.00107   2.64057
   R19        2.05410   0.00030   0.00000   0.00271   0.00271   2.05681
   R20        2.67369   0.00314   0.00000  -0.00652  -0.00652   2.66717
   R21        1.91847  -0.00170   0.00000  -0.00229  -0.00229   1.91618
   R22        1.92551  -0.00254   0.00000  -0.00476  -0.00476   1.92075
    A1        1.95442   0.00071   0.00000   0.01083   0.01068   1.96510
    A2        1.90226   0.00990   0.00000   0.04702   0.04687   1.94912
    A3        1.93475  -0.00662   0.00000  -0.03392  -0.03419   1.90056
    A4        2.09890   0.00637   0.00000   0.03647   0.03587   2.13477
    A5        2.09077  -0.00230   0.00000  -0.01783  -0.01862   2.07215
    A6        2.08102  -0.00367   0.00000  -0.00605  -0.00785   2.07317
    A7        2.11266   0.00584   0.00000   0.02290   0.02233   2.13498
    A8        2.08197  -0.00318   0.00000  -0.01396  -0.01368   2.06828
    A9        2.08830  -0.00266   0.00000  -0.00879  -0.00852   2.07979
   A10        2.08058   0.00411   0.00000   0.01340   0.01357   2.09415
   A11        2.08120  -0.00194   0.00000  -0.00728  -0.00768   2.07352
   A12        2.12103  -0.00217   0.00000  -0.00580  -0.00564   2.11539
   A13        1.94608  -0.00216   0.00000  -0.00699  -0.00703   1.93905
   A14        1.92960   0.00413   0.00000   0.02214   0.02208   1.95168
   A15        1.92273   0.00507   0.00000   0.02859   0.02856   1.95129
   A16        1.86980  -0.00003   0.00000   0.00929   0.00922   1.87903
   A17        1.88304  -0.00141   0.00000  -0.00622  -0.00623   1.87682
   A18        1.91116  -0.00603   0.00000  -0.04929  -0.04934   1.86182
   A19        2.12103  -0.00217   0.00000  -0.00580  -0.00564   2.11539
   A20        2.08120  -0.00194   0.00000  -0.00728  -0.00768   2.07352
   A21        2.08058   0.00411   0.00000   0.01340   0.01357   2.09415
   A22        1.92273   0.00507   0.00000   0.02859   0.02856   1.95129
   A23        1.94608  -0.00216   0.00000  -0.00699  -0.00703   1.93905
   A24        1.92960   0.00413   0.00000   0.02214   0.02208   1.95168
   A25        1.88304  -0.00141   0.00000  -0.00622  -0.00623   1.87682
   A26        1.91116  -0.00603   0.00000  -0.04929  -0.04934   1.86182
   A27        1.86980  -0.00003   0.00000   0.00929   0.00922   1.87903
   A28        2.11266   0.00584   0.00000   0.02290   0.02233   2.13498
   A29        2.08830  -0.00266   0.00000  -0.00879  -0.00852   2.07979
   A30        2.08197  -0.00318   0.00000  -0.01396  -0.01368   2.06828
   A31        2.08102  -0.00367   0.00000  -0.00605  -0.00785   2.07317
   A32        2.09077  -0.00230   0.00000  -0.01783  -0.01862   2.07215
   A33        2.09890   0.00637   0.00000   0.03647   0.03587   2.13477
   A34        1.95442   0.00071   0.00000   0.01083   0.01068   1.96510
   A35        1.90226   0.00990   0.00000   0.04702   0.04687   1.94912
   A36        1.93475  -0.00662   0.00000  -0.03392  -0.03419   1.90056
    D1        0.50943  -0.00233   0.00000  -0.14111  -0.14145   0.36798
    D2       -2.80261  -0.00000   0.00000  -0.05655  -0.05642  -2.85902
    D3        2.65648  -0.00329   0.00000  -0.14379  -0.14392   2.51256
    D4       -0.65556  -0.00097   0.00000  -0.05923  -0.05889  -0.71445
    D5        3.11313   0.00062   0.00000   0.00022   0.00108   3.11420
    D6       -0.05305   0.00055   0.00000   0.00740   0.00821  -0.04483
    D7        0.14103  -0.00182   0.00000  -0.08270  -0.08296   0.05807
    D8       -3.02514  -0.00189   0.00000  -0.07551  -0.07582  -3.10096
    D9        3.10335   0.00032   0.00000   0.03407   0.03438   3.13773
   D10        0.13046  -0.00297   0.00000  -0.05381  -0.05196   0.07850
   D11       -0.20694   0.00360   0.00000   0.12194   0.12072  -0.08622
   D12        3.10335   0.00032   0.00000   0.03407   0.03438   3.13773
   D13        3.10729   0.00027   0.00000   0.01949   0.01973   3.12702
   D14       -0.00561  -0.00006   0.00000   0.00722   0.00742   0.00181
   D15       -0.00963   0.00034   0.00000   0.01235   0.01261   0.00298
   D16       -3.12253   0.00001   0.00000   0.00007   0.00031  -3.12222
   D17        0.16718  -0.00069   0.00000  -0.03367  -0.03371   0.13347
   D18        2.24535   0.00060   0.00000  -0.01194  -0.01195   2.23341
   D19       -1.92307  -0.00089   0.00000  -0.04031  -0.04031  -1.96338
   D20       -3.00379  -0.00034   0.00000  -0.02112  -0.02112  -3.02491
   D21       -0.92561   0.00095   0.00000   0.00061   0.00064  -0.92498
   D22        1.18915  -0.00055   0.00000  -0.02776  -0.02773   1.16142
   D23        3.10849   0.00047   0.00000   0.01753   0.01775   3.12624
   D24       -0.06249   0.00091   0.00000   0.03043   0.03054  -0.03195
   D25       -0.00372   0.00002   0.00000   0.00464   0.00496   0.00124
   D26        3.10849   0.00047   0.00000   0.01753   0.01775   3.12624
   D27        1.18915  -0.00055   0.00000  -0.02776  -0.02773   1.16142
   D28       -3.00379  -0.00034   0.00000  -0.02112  -0.02112  -3.02491
   D29       -0.92562   0.00095   0.00000   0.00061   0.00064  -0.92498
   D30       -1.92307  -0.00089   0.00000  -0.04031  -0.04031  -1.96338
   D31        0.16717  -0.00069   0.00000  -0.03367  -0.03371   0.13347
   D32        2.24535   0.00060   0.00000  -0.01194  -0.01195   2.23340
   D33       -0.00561  -0.00006   0.00000   0.00722   0.00742   0.00181
   D34       -3.12253   0.00001   0.00000   0.00007   0.00031  -3.12222
   D35        3.10729   0.00027   0.00000   0.01949   0.01973   3.12702
   D36       -0.00963   0.00034   0.00000   0.01235   0.01261   0.00298
   D37        0.14103  -0.00182   0.00000  -0.08270  -0.08296   0.05807
   D38        3.11313   0.00062   0.00000   0.00022   0.00108   3.11420
   D39       -3.02514  -0.00189   0.00000  -0.07551  -0.07582  -3.10096
   D40       -0.05305   0.00055   0.00000   0.00740   0.00821  -0.04483
   D41       -2.80261  -0.00000   0.00000  -0.05655  -0.05642  -2.85903
   D42       -0.65556  -0.00097   0.00000  -0.05923  -0.05889  -0.71445
   D43        0.50943  -0.00233   0.00000  -0.14111  -0.14145   0.36798
   D44        2.65648  -0.00329   0.00000  -0.14379  -0.14392   2.51256
         Item               Value     Threshold  Converged?
 Maximum Force            0.009902     0.000450     NO 
 RMS     Force            0.003101     0.000300     NO 
 Maximum Displacement     0.257467     0.001800     NO 
 RMS     Displacement     0.053377     0.001200     NO 
 Predicted change in Energy=-4.148103D-03
 GradGradGradGradGradGradGradGradGradGradGradGradGradGradGradGradGradGrad

                          Input orientation:                          
 ---------------------------------------------------------------------
 Center     Atomic      Atomic             Coordinates (Angstroms)
 Number     Number       Type             X           Y           Z
 ---------------------------------------------------------------------
      1          7           0        2.908130   -0.975287   -0.193872
      2          6           0        1.588499   -0.479155   -0.126790
      3          6           0        0.473653   -1.321445   -0.112738
      4          6           0       -0.834901   -0.830680   -0.013794
      5          6           0       -2.003648   -1.788841   -0.022387
      6          6           0       -1.033001    0.561205    0.072371
      7          6           0       -2.421922    1.150382    0.161171
      8          6           0        0.087220    1.402360    0.095150
      9          6           0        1.393210    0.909314    0.033285
     10          7           0        2.520563    1.758462    0.023631
     11          1           0        2.951460   -1.918093   -0.564596
     12          1           0        3.507332   -0.373957   -0.752858
     13          1           0        0.632515   -2.394828   -0.197988
     14          1           0       -1.662247   -2.826611    0.024889
     15          1           0       -2.674905   -1.620491    0.827847
     16          1           0       -2.611827   -1.681822   -0.929809
     17          1           0       -2.918237    0.884020    1.103228
     18          1           0       -2.391030    2.241862    0.102223
     19          1           0       -3.069190    0.791816   -0.647717
     20          1           0       -0.058561    2.477630    0.179990
     21          1           0        2.318573    2.678379    0.399329
     22          1           0        3.298315    1.355781    0.539436
 ---------------------------------------------------------------------
                    Distance matrix (angstroms):
                    1          2          3          4          5
     1  N    0.000000
     2  C    1.411408   0.000000
     3  C    2.460302   1.397330   0.000000
     4  C    3.750149   2.451368   1.401055   0.000000
     5  C    4.981650   3.824878   2.522626   1.511329   0.000000
     6  C    4.238420   2.827414   2.418396   1.408549   2.544376
     7  C    5.749258   4.338408   3.816976   2.544376   2.974504
     8  C    3.700577   2.417270   2.758924   2.418396   3.816976
     9  C    2.428642   1.411243   2.417270   2.827414   4.338408
    10  N    2.769639   2.428642   3.700577   4.238420   5.749258
    11  H    1.014000   2.029748   2.588376   3.977735   4.986360
    12  H    1.016418   2.021126   3.242020   4.428295   5.736409
    13  H    2.682077   2.142143   1.088419   2.152626   2.710611
    14  H    4.935950   4.012594   2.616589   2.160959   1.093507
    15  H    5.712309   4.515594   3.299628   2.172044   1.096278
    16  H    5.613440   4.442295   3.212111   2.172784   1.097611
    17  H    6.251883   4.866400   4.224638   2.920311   3.040997
    18  H    6.206352   4.826285   4.577092   3.446085   4.051192
    19  H    6.249558   4.856006   4.159785   2.833089   2.861155
    20  H    4.567676   3.398455   3.847325   3.403699   4.693303
    21  H    3.748165   3.283266   4.434472   4.735881   6.230208
    22  H    2.474644   2.595057   3.946085   4.708519   6.189920
                    6          7          8          9         10
     6  C    0.000000
     7  C    1.511329   0.000000
     8  C    1.401055   2.522626   0.000000
     9  C    2.451368   3.824878   1.397330   0.000000
    10  N    3.750149   4.981650   2.460302   1.411408   0.000000
    11  H    4.735881   6.230208   4.434472   3.283265   3.748165
    12  H    4.708519   6.189920   3.946085   2.595056   2.474643
    13  H    3.403699   4.693303   3.847325   3.398455   4.567676
    14  H    3.446085   4.051191   4.577092   4.826285   6.206352
    15  H    2.833088   2.861152   4.159784   4.856006   6.249558
    16  H    2.920313   3.041000   4.224638   4.866400   6.251882
    17  H    2.172784   1.097611   3.212113   4.442296   5.613442
    18  H    2.160959   1.093507   2.616588   4.012593   4.935950
    19  H    2.172044   1.096278   3.299627   4.515593   5.712307
    20  H    2.152626   2.710611   1.088419   2.142143   2.682077
    21  H    3.977735   4.986360   2.588376   2.029748   1.014000
    22  H    4.428295   5.736409   3.242020   2.021126   1.016418
                   11         12         13         14         15
    11  H    0.000000
    12  H    1.651905   0.000000
    13  H    2.395659   3.557579   0.000000
    14  H    4.739113   5.774509   2.345644   0.000000
    15  H    5.803744   6.501732   3.548374   1.767751   0.000000
    16  H    5.580265   6.259866   3.401425   1.767397   1.759857
    17  H    6.714671   6.805549   5.005182   4.063140   2.531328
    18  H    6.803827   6.508790   5.543541   5.121184   3.940163
    19  H    6.602934   6.679874   4.905056   3.940165   2.855167
    20  H    5.379313   4.660188   4.935717   5.543540   4.905055
    21  H    4.738908   3.472382   5.379313   6.803827   6.602934
    22  H    3.472383   2.169264   4.660188   6.508790   6.679875
                   16         17         18         19         20
    16  H    0.000000
    17  H    3.287959   0.000000
    18  H    4.063144   1.767397   0.000000
    19  H    2.531332   1.759857   1.767751   0.000000
    20  H    5.005183   3.401427   2.345644   3.548373   0.000000
    21  H    6.714671   5.580267   4.739112   5.803742   2.395659
    22  H    6.805549   6.259868   5.774508   6.501731   3.557579
                   21         22
    21  H    0.000000
    22  H    1.651905   0.000000
 Stoichiometry    C8H12N2
 Framework group  C1[X(C8H12N2)]
 Deg. of freedom    60
 Full point group                 C1      NOp   1
 Largest Abelian subgroup         C1      NOp   1
 Largest concise Abelian subgroup C1      NOp   1
                         Standard orientation:                         
 ---------------------------------------------------------------------
 Center     Atomic      Atomic             Coordinates (Angstroms)
 Number     Number       Type             X           Y           Z
 ---------------------------------------------------------------------
      1          7           0       -2.486718   -1.384690   -0.018921
      2          6           0       -1.249964   -0.705460    0.015109
      3          6           0       -0.026426   -1.379266   -0.023250
      4          6           0        1.201124   -0.703934   -0.021880
      5          6           0        2.493820   -1.486559   -0.045405
      6          6           0        1.201124    0.703934    0.021880
      7          6           0        2.493820    1.486559    0.045405
      8          6           0       -0.026426    1.379266    0.023249
      9          6           0       -1.249964    0.705460   -0.015109
     10          7           0       -2.486719    1.384690    0.018921
     11          1           0       -2.406529   -2.354443    0.266291
     12          1           0       -3.182658   -0.926813    0.563421
     13          1           0       -0.033038   -2.467557   -0.038551
     14          1           0        2.305656   -2.552964   -0.197496
     15          1           0        3.160229   -1.148697   -0.847635
     16          1           0        3.052052   -1.379903    0.893611
     17          1           0        3.052053    1.379901   -0.893609
     18          1           0        2.305656    2.552965    0.197493
     19          1           0        3.160227    1.148699    0.847638
     20          1           0       -0.033038    2.467557    0.038550
     21          1           0       -2.406529    2.354443   -0.266289
     22          1           0       -3.182658    0.926814   -0.563421
 ---------------------------------------------------------------------
 Rotational constants (GHZ):           2.2456009           1.0527582           0.7249675
 Standard basis: 6-31G(d,p) (6D, 7F)
 There are   210 symmetry adapted cartesian basis functions of A   symmetry.
 There are   210 symmetry adapted basis functions of A   symmetry.
   210 basis functions,   364 primitive gaussians,   210 cartesian basis functions
    37 alpha electrons       37 beta electrons
       nuclear repulsion energy       515.1881986773 Hartrees.
 NAtoms=   22 NActive=   22 NUniq=   22 SFac= 1.00D+00 NAtFMM=   60 NAOKFM=F Big=F
 Integral buffers will be    131072 words long.
 Raffenetti 2 integral format.
 Two-electron integral symmetry is turned on.
 ------------------------------------------------------------------------------
 Polarizable Continuum Model (PCM)
 =================================
 Model                : PCM.
 Atomic radii         : UFF (Universal Force Field).
 Polarization charges : Total charges.
 Charge compensation  : None.
 Solution method      : Matrix inversion.
 Cavity type          : Scaled VdW (van der Waals Surface) (Alpha=1.100).
 Cavity algorithm     : GePol (No added spheres)
                        Default sphere list used, NSphG=   22.
                        Lebedev-Laikov grids with approx.  5.0 points / Ang**2.
                        Smoothing algorithm: York/Karplus (Gamma=1.0000).
                        Polarization charges: spherical gaussians, with
                                              point-specific exponents (IZeta= 3).
                        Self-potential: point-specific (ISelfS= 7).
                        Self-field    : sphere-specific E.n sum rule (ISelfD= 2).
 1st derivatives      : Analytical E(r).r(x)/FMM algorithm (CHGder, D1EAlg=3).
                        Cavity 1st derivative terms included.
 Solvent              : Water, Eps=  78.355300 Eps(inf)=   1.777849
 ------------------------------------------------------------------------------
 One-electron integrals computed using PRISM.
 NBasis=   210 RedAO= T EigKep=  3.17D-04  NBF=   210
 NBsUse=   210 1.00D-06 EigRej= -1.00D+00 NBFU=   210
 Initial guess from the checkpoint file:  "XSZYBMMYQCYIPC-UHFFFAOYSA-N_conf_1_0.chk"
 B after Tr=     0.000000   -0.000000    0.000000
         Rot=    1.000000    0.000179    0.000000    0.000000 Ang=   0.02 deg.
 ExpMin= 1.61D-01 ExpMax= 4.17D+03 ExpMxC= 6.27D+02 IAcc=2 IRadAn=         4 AccDes= 0.00D+00
 Harris functional with IExCor=  402 and IRadAn=       4 diagonalized for initial guess.
 HarFok:  IExCor=  402 AccDes= 0.00D+00 IRadAn=         4 IDoV= 1 UseB2=F ITyADJ=14
 ICtDFT=  3500011 ScaDFX=  1.000000  1.000000  1.000000  1.000000
 FoFCou: FMM=F IPFlag=           0 FMFlag=      100000 FMFlg1=           0
         NFxFlg=           0 DoJE=T BraDBF=F KetDBF=T FulRan=T
         wScrn=  0.000000 ICntrl=       500 IOpCl=  0 I1Cent=   200000004 NGrid=           0
         NMat0=    1 NMatS0=      1 NMatT0=    0 NMatD0=    1 NMtDS0=    0 NMtDT0=    0
 Petite list used in FoFCou.
 Keep R1 ints in memory in canonical form, NReq=250131393.
 Requested convergence on RMS density matrix=1.00D-08 within  32 cycles.
 Requested convergence on MAX density matrix=1.00D-06.
 Requested convergence on             energy=1.00D-06.
 No special actions if energy rises.
 Inv3:  Mode=1 IEnd=     7912128.
 Iteration    1 A*A^-1 deviation from unit magnitude is 7.44D-15 for    242.
 Iteration    1 A*A^-1 deviation from orthogonality  is 3.53D-15 for   1517   1152.
 Iteration    1 A^-1*A deviation from unit magnitude is 6.77D-15 for    547.
 Iteration    1 A^-1*A deviation from orthogonality  is 6.03D-15 for   1213    831.
 Error on total polarization charges =  0.00872
 SCF Done:  E(RB3LYP) =  -421.621815354     A.U. after   10 cycles
            NFock= 10  Conv=0.48D-08     -V/T= 2.0098
 QCSCF skips out because SCF is already converged.
 D1PCM: PCM CHGder 1st derivatives, ID1Alg=3 FixD1E=F DoIter=F DoCFld=F I1PDM=0.
 Calling FoFJK, ICntrl=      2127 FMM=F ISym2X=0 I1Cent= 0 IOpClX= 0 NMat=1 NMatS=1 NMatT=0.
 ***** Axes restored to original set *****
 -------------------------------------------------------------------
 Center     Atomic                   Forces (Hartrees/Bohr)
 Number     Number              X              Y              Z
 -------------------------------------------------------------------
      1        7           0.000279524    0.001329660   -0.000706877
      2        6           0.000276123   -0.000938287    0.003559117
      3        6          -0.000613281    0.000334178   -0.001488697
      4        6           0.000236163   -0.000252609    0.000008542
      5        6           0.000277185   -0.000068777    0.000234025
      6        6           0.000154239    0.000308929   -0.000020802
      7        6           0.000231619    0.000142201   -0.000249951
      8        6          -0.000401382   -0.000480552    0.001520506
      9        6          -0.000219070    0.000946514   -0.003560888
     10        7           0.000686453   -0.001190299    0.000676582
     11        1           0.000080572   -0.000306162    0.000589389
     12        1           0.000181631   -0.001019092   -0.000646848
     13        1           0.000008567    0.000013102   -0.000271202
     14        1           0.000018012    0.000012095   -0.000234313
     15        1          -0.000204815   -0.000079784   -0.000060114
     16        1          -0.000374852    0.000078872    0.000147393
     17        1          -0.000345667   -0.000182831   -0.000124790
     18        1           0.000035041   -0.000004441    0.000232629
     19        1          -0.000214931    0.000019219    0.000073279
     20        1           0.000028547   -0.000007746    0.000270031
     21        1          -0.000045497    0.000311216   -0.000590485
     22        1          -0.000074181    0.001034592    0.000643476
 -------------------------------------------------------------------
 Cartesian Forces:  Max     0.003560888 RMS     0.000801831

 GradGradGradGradGradGradGradGradGradGradGradGradGradGradGradGradGradGrad
 Berny optimization.
 Using GEDIIS/GDIIS optimizer.
 FormGI is forming the generalized inverse of G from B-inverse, IUseBI=4.
 Internal  Forces:  Max     0.001109377 RMS     0.000385657
 Search for a local minimum.
 Step number   2 out of a maximum of  112
 All quantities printed in internal units (Hartrees-Bohrs-Radians)
 Mixed Optimization -- En-DIIS/RFO-DIIS
 Update second derivatives using D2CorX and points    1    2
 DE= -4.19D-03 DEPred=-4.15D-03 R= 1.01D+00
 TightC=F SS=  1.41D+00  RLast= 4.15D-01 DXNew= 5.0454D-01 1.2438D+00
 Trust test= 1.01D+00 RLast= 4.15D-01 DXMaxT set to 5.05D-01
 ITU=  1  0
 Use linear search instead of GDIIS.
     Eigenvalues ---    0.00107   0.00129   0.00312   0.00725   0.01555
     Eigenvalues ---    0.01703   0.01894   0.01914   0.02062   0.02106
     Eigenvalues ---    0.02293   0.02512   0.02613   0.03010   0.03735
     Eigenvalues ---    0.05863   0.05874   0.05895   0.05936   0.11873
     Eigenvalues ---    0.12068   0.12508   0.12697   0.14109   0.14534
     Eigenvalues ---    0.14581   0.14696   0.14772   0.15569   0.16316
     Eigenvalues ---    0.16414   0.18753   0.19037   0.19381   0.20176
     Eigenvalues ---    0.20337   0.23059   0.23920   0.31133   0.32855
     Eigenvalues ---    0.33124   0.33463   0.33534   0.33657   0.34215
     Eigenvalues ---    0.34572   0.34749   0.35819   0.35854   0.37970
     Eigenvalues ---    0.39201   0.42823   0.44169   0.44195   0.44919
     Eigenvalues ---    0.45733   0.45749   0.46702   0.47917   0.50551
 RFO step:  Lambda=-6.45721074D-04 EMin= 1.06683152D-03
 Quartic linear search produced a step of  0.23971.
 Iteration  1 RMS(Cart)=  0.06182653 RMS(Int)=  0.00286520
 Iteration  2 RMS(Cart)=  0.00298685 RMS(Int)=  0.00018405
 Iteration  3 RMS(Cart)=  0.00000571 RMS(Int)=  0.00018400
 Iteration  4 RMS(Cart)=  0.00000000 RMS(Int)=  0.00018400
 Variable       Old X    -DE/DX   Delta X   Delta X   Delta X     New X
                                 (Linear)    (Quad)   (Total)
    R1        2.66717   0.00054  -0.00156  -0.00054  -0.00210   2.66508
    R2        1.91618   0.00007  -0.00055   0.00043  -0.00012   1.91606
    R3        1.92075  -0.00014  -0.00114   0.00185   0.00071   1.92146
    R4        2.64057   0.00048   0.00026  -0.00074  -0.00053   2.64004
    R5        2.66686   0.00079   0.00209  -0.00112   0.00089   2.66775
    R6        2.64761  -0.00006  -0.00181   0.00217   0.00040   2.64801
    R7        2.05681   0.00001   0.00065  -0.00053   0.00012   2.05693
    R8        2.85600   0.00026   0.00328  -0.00354  -0.00025   2.85575
    R9        2.66177   0.00000   0.00005   0.00027   0.00041   2.66219
   R10        2.06643  -0.00002  -0.00079   0.00046  -0.00033   2.06609
   R11        2.07166   0.00007   0.00075   0.00090   0.00165   2.07332
   R12        2.07418   0.00010   0.00142  -0.00160  -0.00018   2.07400
   R13        2.85600   0.00026   0.00328  -0.00354  -0.00025   2.85575
   R14        2.64761  -0.00006  -0.00181   0.00217   0.00040   2.64801
   R15        2.07418   0.00010   0.00142  -0.00160  -0.00018   2.07400
   R16        2.06643  -0.00002  -0.00079   0.00046  -0.00033   2.06609
   R17        2.07166   0.00007   0.00075   0.00090   0.00165   2.07332
   R18        2.64057   0.00048   0.00026  -0.00074  -0.00053   2.64004
   R19        2.05681   0.00001   0.00065  -0.00053   0.00012   2.05693
   R20        2.66717   0.00054  -0.00156  -0.00054  -0.00210   2.66508
   R21        1.91618   0.00007  -0.00055   0.00043  -0.00012   1.91606
   R22        1.92075  -0.00014  -0.00114   0.00185   0.00071   1.92146
    A1        1.96510  -0.00002   0.00256   0.00161   0.00410   1.96920
    A2        1.94912   0.00097   0.01123  -0.00692   0.00425   1.95337
    A3        1.90056  -0.00051  -0.00820   0.01599   0.00768   1.90824
    A4        2.13477  -0.00024   0.00860   0.00071   0.00917   2.14395
    A5        2.07215   0.00061  -0.00446  -0.00370  -0.00835   2.06381
    A6        2.07317  -0.00032  -0.00188   0.00375   0.00102   2.07419
    A7        2.13498   0.00042   0.00535  -0.00496   0.00006   2.13505
    A8        2.06828  -0.00023  -0.00328   0.00360   0.00048   2.06876
    A9        2.07979  -0.00018  -0.00204   0.00144  -0.00046   2.07933
   A10        2.09415   0.00014   0.00325  -0.00112   0.00221   2.09636
   A11        2.07352  -0.00006  -0.00184   0.00227   0.00024   2.07376
   A12        2.11539  -0.00008  -0.00135  -0.00110  -0.00238   2.11301
   A13        1.93905  -0.00006  -0.00168   0.00276   0.00106   1.94011
   A14        1.95168   0.00023   0.00529  -0.00531  -0.00003   1.95165
   A15        1.95129   0.00022   0.00685  -0.00490   0.00194   1.95323
   A16        1.87903   0.00002   0.00221  -0.00195   0.00024   1.87927
   A17        1.87682  -0.00007  -0.00149   0.00327   0.00178   1.87859
   A18        1.86182  -0.00036  -0.01183   0.00663  -0.00521   1.85661
   A19        2.11539  -0.00008  -0.00135  -0.00110  -0.00238   2.11301
   A20        2.07352  -0.00006  -0.00184   0.00227   0.00024   2.07376
   A21        2.09415   0.00014   0.00325  -0.00112   0.00221   2.09636
   A22        1.95129   0.00022   0.00685  -0.00490   0.00194   1.95323
   A23        1.93905  -0.00006  -0.00168   0.00276   0.00106   1.94011
   A24        1.95168   0.00023   0.00529  -0.00531  -0.00003   1.95165
   A25        1.87682  -0.00007  -0.00149   0.00327   0.00178   1.87859
   A26        1.86182  -0.00036  -0.01183   0.00663  -0.00521   1.85661
   A27        1.87903   0.00002   0.00221  -0.00195   0.00024   1.87927
   A28        2.13498   0.00042   0.00535  -0.00496   0.00006   2.13505
   A29        2.07979  -0.00018  -0.00204   0.00144  -0.00046   2.07933
   A30        2.06828  -0.00023  -0.00328   0.00360   0.00048   2.06876
   A31        2.07317  -0.00032  -0.00188   0.00375   0.00102   2.07419
   A32        2.07215   0.00061  -0.00446  -0.00370  -0.00835   2.06381
   A33        2.13477  -0.00024   0.00860   0.00071   0.00917   2.14395
   A34        1.96510  -0.00002   0.00256   0.00161   0.00410   1.96920
   A35        1.94912   0.00097   0.01123  -0.00692   0.00425   1.95337
   A36        1.90056  -0.00051  -0.00820   0.01599   0.00768   1.90824
    D1        0.36798  -0.00111  -0.03391  -0.07972  -0.11373   0.25425
    D2       -2.85902  -0.00042  -0.01352  -0.06902  -0.08252  -2.94155
    D3        2.51256  -0.00106  -0.03450  -0.06275  -0.09726   2.41530
    D4       -0.71445  -0.00037  -0.01412  -0.05204  -0.06605  -0.78050
    D5        3.11420   0.00007   0.00026  -0.01309  -0.01242   3.10178
    D6       -0.04483   0.00015   0.00197  -0.00784  -0.00552  -0.05036
    D7        0.05807  -0.00067  -0.01989  -0.02345  -0.04337   0.01470
    D8       -3.10096  -0.00059  -0.01818  -0.01820  -0.03647  -3.13744
    D9        3.13773   0.00031   0.00824   0.02142   0.02985  -3.11560
   D10        0.07850  -0.00036  -0.01246   0.01123  -0.00051   0.07798
   D11       -0.08622   0.00097   0.02894   0.03161   0.06022  -0.02600
   D12        3.13773   0.00031   0.00824   0.02142   0.02985  -3.11560
   D13        3.12702   0.00015   0.00473   0.00781   0.01259   3.13961
   D14        0.00181   0.00006   0.00178   0.00508   0.00691   0.00872
   D15        0.00298   0.00007   0.00302   0.00250   0.00565   0.00863
   D16       -3.12222  -0.00002   0.00007  -0.00023  -0.00004  -3.12226
   D17        0.13347  -0.00024  -0.00808  -0.09253  -0.10061   0.03286
   D18        2.23341  -0.00011  -0.00286  -0.09673  -0.09959   2.13382
   D19       -1.96338  -0.00025  -0.00966  -0.09527  -0.10493  -2.06831
   D20       -3.02491  -0.00015  -0.00506  -0.08970  -0.09477  -3.11968
   D21       -0.92498  -0.00002   0.00015  -0.09390  -0.09375  -1.01872
   D22        1.16142  -0.00016  -0.00665  -0.09244  -0.09909   1.06234
   D23        3.12624   0.00014   0.00425   0.00164   0.00595   3.13218
   D24       -0.03195   0.00024   0.00732   0.00440   0.01173  -0.02022
   D25        0.00124   0.00005   0.00119  -0.00113   0.00016   0.00140
   D26        3.12624   0.00014   0.00425   0.00164   0.00595   3.13218
   D27        1.16142  -0.00016  -0.00665  -0.09244  -0.09909   1.06234
   D28       -3.02491  -0.00015  -0.00506  -0.08970  -0.09477  -3.11968
   D29       -0.92498  -0.00002   0.00015  -0.09390  -0.09375  -1.01872
   D30       -1.96338  -0.00025  -0.00966  -0.09527  -0.10492  -2.06831
   D31        0.13347  -0.00024  -0.00808  -0.09253  -0.10061   0.03286
   D32        2.23340  -0.00011  -0.00286  -0.09673  -0.09958   2.13382
   D33        0.00181   0.00006   0.00178   0.00508   0.00691   0.00872
   D34       -3.12222  -0.00002   0.00007  -0.00023  -0.00004  -3.12226
   D35        3.12702   0.00015   0.00473   0.00781   0.01259   3.13961
   D36        0.00298   0.00007   0.00302   0.00250   0.00565   0.00863
   D37        0.05807  -0.00067  -0.01989  -0.02345  -0.04337   0.01470
   D38        3.11420   0.00007   0.00026  -0.01309  -0.01242   3.10178
   D39       -3.10096  -0.00059  -0.01818  -0.01820  -0.03647  -3.13744
   D40       -0.04483   0.00015   0.00197  -0.00784  -0.00552  -0.05036
   D41       -2.85903  -0.00042  -0.01352  -0.06902  -0.08252  -2.94155
   D42       -0.71445  -0.00037  -0.01412  -0.05204  -0.06605  -0.78050
   D43        0.36798  -0.00111  -0.03391  -0.07972  -0.11373   0.25425
   D44        2.51256  -0.00106  -0.03450  -0.06274  -0.09726   2.41530
         Item               Value     Threshold  Converged?
 Maximum Force            0.001109     0.000450     NO 
 RMS     Force            0.000386     0.000300     NO 
 Maximum Displacement     0.249910     0.001800     NO 
 RMS     Displacement     0.062024     0.001200     NO 
 Predicted change in Energy=-5.092362D-04
 GradGradGradGradGradGradGradGradGradGradGradGradGradGradGradGradGradGrad

                          Input orientation:                          
 ---------------------------------------------------------------------
 Center     Atomic      Atomic             Coordinates (Angstroms)
 Number     Number       Type             X           Y           Z
 ---------------------------------------------------------------------
      1          7           0        2.914468   -0.965943   -0.159006
      2          6           0        1.591172   -0.480794   -0.109463
      3          6           0        0.475352   -1.321425   -0.115485
      4          6           0       -0.833452   -0.830251   -0.018880
      5          6           0       -2.004599   -1.785202   -0.032899
[...]
    10  N    0.000001  -0.008896   0.334186   0.332344
    11  H    0.000000   0.000004  -0.000009  -0.000315
    12  H   -0.000000  -0.000005  -0.000315  -0.003708
    13  H   -0.000000   0.000019   0.000004  -0.000005
    14  H   -0.000004   0.000003   0.000000   0.000000
    15  H   -0.000487  -0.000000   0.000000  -0.000000
    16  H    0.002167  -0.000002  -0.000000  -0.000000
    17  H   -0.037161   0.000230   0.000000  -0.000000
    18  H   -0.029200   0.007193   0.000000   0.000000
    19  H    0.604035   0.000158  -0.000000  -0.000000
    20  H    0.000158   0.664080   0.006625  -0.000037
    21  H   -0.000000   0.006625   0.430480  -0.025063
    22  H   -0.000000  -0.000037  -0.025063   0.437090
 Mulliken charges:
               1
     1  N   -0.649374
     2  C    0.224373
     3  C   -0.240989
     4  C    0.075355
     5  C   -0.388684
     6  C    0.075355
     7  C   -0.388684
     8  C   -0.240989
     9  C    0.224373
    10  N   -0.649374
    11  H    0.285627
    12  H    0.289079
    13  H    0.055889
    14  H    0.109806
    15  H    0.120032
    16  H    0.118886
    17  H    0.118886
    18  H    0.109806
    19  H    0.120032
    20  H    0.055889
    21  H    0.285627
    22  H    0.289079
 Sum of Mulliken charges =  -0.00000
 Mulliken charges with hydrogens summed into heavy atoms:
               1
     1  N   -0.074667
     2  C    0.224373
     3  C   -0.185101
     4  C    0.075355
     5  C   -0.039959
     6  C    0.075355
     7  C   -0.039959
     8  C   -0.185101
     9  C    0.224373
    10  N   -0.074667
 Electronic spatial extent (au):  <R**2>=           1603.1049
 Charge=              0.0000 electrons
 Dipole moment (field-independent basis, Debye):
    X=             -2.9161    Y=              0.0000    Z=             -0.0000  Tot=              2.9161
 Quadrupole moment (field-independent basis, Debye-Ang):
   XX=            -46.0589   YY=            -52.1751   ZZ=            -63.9513
   XY=              0.0000   XZ=              0.0000   YZ=             -3.5374
 Traceless Quadrupole moment (field-independent basis, Debye-Ang):
   XX=              8.0029   YY=              1.8866   ZZ=             -9.8895
   XY=              0.0000   XZ=              0.0000   YZ=             -3.5374
 Octapole moment (field-independent basis, Debye-Ang**2):
  XXX=            -45.5158  YYY=              0.0000  ZZZ=             -0.0000  XYY=            -23.9675
  XXY=             -0.0000  XXZ=             -0.0000  XZZ=             -2.2764  YZZ=              0.0000
  YYZ=              0.0000  XYZ=             10.7843
 Hexadecapole moment (field-independent basis, Debye-Ang**3):
 XXXX=          -1217.5770 YYYY=           -600.8894 ZZZZ=            -81.5009 XXXY=              0.0000
 XXXZ=              0.0000 YYYX=              0.0000 YYYZ=            -11.3204 ZZZX=              0.0000
 ZZZY=             -3.4293 XXYY=           -293.2412 XXZZ=           -235.8063 YYZZ=           -138.0169
 XXYZ=            -32.7831 YYXZ=             -0.0000 ZZXY=             -0.0000
 N-N= 5.150606384720D+02 E-N=-2.008574111727D+03  KE= 4.176616456853D+02
 Evaluate density.
 Using the total density.
 Monte-Carlo method of calculating molar volume:
 based on  0.001 e/bohr**3 density envelope.
 Number of points per bohr**3 =   20 CutOff= 1.00D-04
 Using the CI density.
 There are       347 points.  Will hold       347 in memory.
 LenV=   805187800 MDV=   805306368.
 Box volume = 5233.503 fraction occupied=0.245
 Integrated density= 5.9325821902810823D+01 error=-1.4674178097189177D+01
 Molar volume = 1281.982 bohr**3/mol (114.403 cm**3/mol)
 Recommended a0 for SCRF calculation =  4.43 angstrom (  8.36 bohr)
 ******************************Gaussian NBO Version 3.1******************************
             N A T U R A L   A T O M I C   O R B I T A L   A N D
          N A T U R A L   B O N D   O R B I T A L   A N A L Y S I S
 ******************************Gaussian NBO Version 3.1******************************
       /RESON  / : Allow strongly delocalized NBO set

 Analyzing the CI density

 Job title: XSZYBMMYQCYIPC-UHFFFAOYSA-N_conf_1                              

 Storage needed:    133984 in NPA ( 805303728 available)
 GSVD:  LWork=       24900 too small for GESVD, short by       12636 words or       12636 for optimal perf.


 NATURAL POPULATIONS:  Natural atomic orbital occupancies 
                                                          
   NAO  Atom  No  lang   Type(AO)    Occupancy
 --------------------------------------------
     1    N    1  S      Cor( 1S)     1.99952
     2    N    1  S      Val( 2S)     1.38930
     3    N    1  S      Ryd( 3S)     0.00025
     4    N    1  S      Ryd( 4S)     0.00001
     5    N    1  px     Val( 2p)     1.37324
     6    N    1  px     Ryd( 3p)     0.00271
     7    N    1  py     Val( 2p)     1.39426
     8    N    1  py     Ryd( 3p)     0.00201
     9    N    1  pz     Val( 2p)     1.62769
    10    N    1  pz     Ryd( 3p)     0.00383
    11    N    1  dxy    Ryd( 3d)     0.00034
    12    N    1  dxz    Ryd( 3d)     0.00120
    13    N    1  dyz    Ryd( 3d)     0.00076
    14    N    1  dx2y2  Ryd( 3d)     0.00056
    15    N    1  dz2    Ryd( 3d)     0.00083

    16    C    2  S      Cor( 1S)     1.99890
    17    C    2  S      Val( 2S)     0.83955
    18    C    2  S      Ryd( 3S)     0.00113
    19    C    2  S      Ryd( 4S)     0.00009
    20    C    2  px     Val( 2p)     0.94965
    21    C    2  px     Ryd( 3p)     0.00523
    22    C    2  py     Val( 2p)     1.03128
    23    C    2  py     Ryd( 3p)     0.00457
    24    C    2  pz     Val( 2p)     1.03456
    25    C    2  pz     Ryd( 3p)     0.00313
    26    C    2  dxy    Ryd( 3d)     0.00096
    27    C    2  dxz    Ryd( 3d)     0.00133
    28    C    2  dyz    Ryd( 3d)     0.00104
    29    C    2  dx2y2  Ryd( 3d)     0.00105
    30    C    2  dz2    Ryd( 3d)     0.00041

    31    C    3  S      Cor( 1S)     1.99901
    32    C    3  S      Val( 2S)     0.93209
    33    C    3  S      Ryd( 3S)     0.00071
    34    C    3  S      Ryd( 4S)     0.00005
    35    C    3  px     Val( 2p)     1.04977
    36    C    3  px     Ryd( 3p)     0.00427
    37    C    3  py     Val( 2p)     1.18448
    38    C    3  py     Ryd( 3p)     0.00385
    39    C    3  pz     Val( 2p)     1.21001
    40    C    3  pz     Ryd( 3p)     0.00793
    41    C    3  dxy    Ryd( 3d)     0.00060
    42    C    3  dxz    Ryd( 3d)     0.00050
    43    C    3  dyz    Ryd( 3d)     0.00039
    44    C    3  dx2y2  Ryd( 3d)     0.00062
    45    C    3  dz2    Ryd( 3d)     0.00038

    46    C    4  S      Cor( 1S)     1.99899
    47    C    4  S      Val( 2S)     0.87519
    48    C    4  S      Ryd( 3S)     0.00041
    49    C    4  S      Ryd( 4S)     0.00005
    50    C    4  px     Val( 2p)     1.06190
    51    C    4  px     Ryd( 3p)     0.00419
    52    C    4  py     Val( 2p)     1.07278
    53    C    4  py     Ryd( 3p)     0.00420
    54    C    4  pz     Val( 2p)     0.99283
    55    C    4  pz     Ryd( 3p)     0.00341
    56    C    4  dxy    Ryd( 3d)     0.00071
    57    C    4  dxz    Ryd( 3d)     0.00074
    58    C    4  dyz    Ryd( 3d)     0.00072
    59    C    4  dx2y2  Ryd( 3d)     0.00079
    60    C    4  dz2    Ryd( 3d)     0.00033

    61    C    5  S      Cor( 1S)     1.99940
    62    C    5  S      Val( 2S)     1.09785
    63    C    5  S      Ryd( 3S)     0.00028
    64    C    5  S      Ryd( 4S)     0.00001
    65    C    5  px     Val( 2p)     1.14390
    66    C    5  px     Ryd( 3p)     0.00134
    67    C    5  py     Val( 2p)     1.21401
    68    C    5  py     Ryd( 3p)     0.00229
    69    C    5  pz     Val( 2p)     1.24302
    70    C    5  pz     Ryd( 3p)     0.00038
    71    C    5  dxy    Ryd( 3d)     0.00048
    72    C    5  dxz    Ryd( 3d)     0.00100
    73    C    5  dyz    Ryd( 3d)     0.00024
    74    C    5  dx2y2  Ryd( 3d)     0.00068
    75    C    5  dz2    Ryd( 3d)     0.00052

    76    C    6  S      Cor( 1S)     1.99899
    77    C    6  S      Val( 2S)     0.87519
    78    C    6  S      Ryd( 3S)     0.00041
    79    C    6  S      Ryd( 4S)     0.00005
    80    C    6  px     Val( 2p)     1.06190
    81    C    6  px     Ryd( 3p)     0.00419
    82    C    6  py     Val( 2p)     1.07278
    83    C    6  py     Ryd( 3p)     0.00420
    84    C    6  pz     Val( 2p)     0.99283
    85    C    6  pz     Ryd( 3p)     0.00341
    86    C    6  dxy    Ryd( 3d)     0.00071
    87    C    6  dxz    Ryd( 3d)     0.00074
    88    C    6  dyz    Ryd( 3d)     0.00072
    89    C    6  dx2y2  Ryd( 3d)     0.00079
    90    C    6  dz2    Ryd( 3d)     0.00033

    91    C    7  S      Cor( 1S)     1.99940
    92    C    7  S      Val( 2S)     1.09785
    93    C    7  S      Ryd( 3S)     0.00028
    94    C    7  S      Ryd( 4S)     0.00001
    95    C    7  px     Val( 2p)     1.14390
    96    C    7  px     Ryd( 3p)     0.00134
    97    C    7  py     Val( 2p)     1.21401
    98    C    7  py     Ryd( 3p)     0.00229
    99    C    7  pz     Val( 2p)     1.24302
   100    C    7  pz     Ryd( 3p)     0.00038
   101    C    7  dxy    Ryd( 3d)     0.00048
   102    C    7  dxz    Ryd( 3d)     0.00100
   103    C    7  dyz    Ryd( 3d)     0.00024
   104    C    7  dx2y2  Ryd( 3d)     0.00068
   105    C    7  dz2    Ryd( 3d)     0.00052

   106    C    8  S      Cor( 1S)     1.99901
   107    C    8  S      Val( 2S)     0.93209
   108    C    8  S      Ryd( 3S)     0.00071
   109    C    8  S      Ryd( 4S)     0.00005
   110    C    8  px     Val( 2p)     1.04977
   111    C    8  px     Ryd( 3p)     0.00427
   112    C    8  py     Val( 2p)     1.18448
   113    C    8  py     Ryd( 3p)     0.00385
   114    C    8  pz     Val( 2p)     1.21001
   115    C    8  pz     Ryd( 3p)     0.00793
   116    C    8  dxy    Ryd( 3d)     0.00060
   117    C    8  dxz    Ryd( 3d)     0.00050
   118    C    8  dyz    Ryd( 3d)     0.00039
   119    C    8  dx2y2  Ryd( 3d)     0.00062
   120    C    8  dz2    Ryd( 3d)     0.00038

   121    C    9  S      Cor( 1S)     1.99890
   122    C    9  S      Val( 2S)     0.83955
   123    C    9  S      Ryd( 3S)     0.00113
   124    C    9  S      Ryd( 4S)     0.00009
   125    C    9  px     Val( 2p)     0.94965
   126    C    9  px     Ryd( 3p)     0.00523
   127    C    9  py     Val( 2p)     1.03128
   128    C    9  py     Ryd( 3p)     0.00457
   129    C    9  pz     Val( 2p)     1.03456
   130    C    9  pz     Ryd( 3p)     0.00313
   131    C    9  dxy    Ryd( 3d)     0.00096
   132    C    9  dxz    Ryd( 3d)     0.00133
   133    C    9  dyz    Ryd( 3d)     0.00104
   134    C    9  dx2y2  Ryd( 3d)     0.00105
   135    C    9  dz2    Ryd( 3d)     0.00041

   136    N   10  S      Cor( 1S)     1.99952
   137    N   10  S      Val( 2S)     1.38930
   138    N   10  S      Ryd( 3S)     0.00025
   139    N   10  S      Ryd( 4S)     0.00001
   140    N   10  px     Val( 2p)     1.37324
   141    N   10  px     Ryd( 3p)     0.00271
   142    N   10  py     Val( 2p)     1.39426
   143    N   10  py     Ryd( 3p)     0.00201
   144    N   10  pz     Val( 2p)     1.62769
   145    N   10  pz     Ryd( 3p)     0.00383
   146    N   10  dxy    Ryd( 3d)     0.00034
   147    N   10  dxz    Ryd( 3d)     0.00120
   148    N   10  dyz    Ryd( 3d)     0.00076
   149    N   10  dx2y2  Ryd( 3d)     0.00056
   150    N   10  dz2    Ryd( 3d)     0.00083

   151    H   11  S      Val( 1S)     0.57953
   152    H   11  S      Ryd( 2S)     0.00193
   153    H   11  px     Ryd( 2p)     0.00023
   154    H   11  py     Ryd( 2p)     0.00058
   155    H   11  pz     Ryd( 2p)     0.00044

   156    H   12  S      Val( 1S)     0.58061
   157    H   12  S      Ryd( 2S)     0.00218
   158    H   12  px     Ryd( 2p)     0.00042
   159    H   12  py     Ryd( 2p)     0.00030
   160    H   12  pz     Ryd( 2p)     0.00061

   161    H   13  S      Val( 1S)     0.77507
   162    H   13  S      Ryd( 2S)     0.00113
   163    H   13  px     Ryd( 2p)     0.00005
   164    H   13  py     Ryd( 2p)     0.00038
   165    H   13  pz     Ryd( 2p)     0.00025

   166    H   14  S      Val( 1S)     0.75636
   167    H   14  S      Ryd( 2S)     0.00084
   168    H   14  px     Ryd( 2p)     0.00008
   169    H   14  py     Ryd( 2p)     0.00033
   170    H   14  pz     Ryd( 2p)     0.00008

   171    H   15  S      Val( 1S)     0.75372
   172    H   15  S      Ryd( 2S)     0.00108
   173    H   15  px     Ryd( 2p)     0.00017
   174    H   15  py     Ryd( 2p)     0.00011
   175    H   15  pz     Ryd( 2p)     0.00026

   176    H   16  S      Val( 1S)     0.75488
   177    H   16  S      Ryd( 2S)     0.00110
   178    H   16  px     Ryd( 2p)     0.00018
   179    H   16  py     Ryd( 2p)     0.00011
   180    H   16  pz     Ryd( 2p)     0.00026

   181    H   17  S      Val( 1S)     0.75488
   182    H   17  S      Ryd( 2S)     0.00110
   183    H   17  px     Ryd( 2p)     0.00018
   184    H   17  py     Ryd( 2p)     0.00011
   185    H   17  pz     Ryd( 2p)     0.00026

   186    H   18  S      Val( 1S)     0.75636
   187    H   18  S      Ryd( 2S)     0.00084
   188    H   18  px     Ryd( 2p)     0.00008
   189    H   18  py     Ryd( 2p)     0.00033
   190    H   18  pz     Ryd( 2p)     0.00008

   191    H   19  S      Val( 1S)     0.75372
   192    H   19  S      Ryd( 2S)     0.00108
   193    H   19  px     Ryd( 2p)     0.00017
   194    H   19  py     Ryd( 2p)     0.00011
   195    H   19  pz     Ryd( 2p)     0.00026

   196    H   20  S      Val( 1S)     0.77507
   197    H   20  S      Ryd( 2S)     0.00113
   198    H   20  px     Ryd( 2p)     0.00005
   199    H   20  py     Ryd( 2p)     0.00038
   200    H   20  pz     Ryd( 2p)     0.00025

   201    H   21  S      Val( 1S)     0.57953
   202    H   21  S      Ryd( 2S)     0.00193
   203    H   21  px     Ryd( 2p)     0.00023
   204    H   21  py     Ryd( 2p)     0.00058
   205    H   21  pz     Ryd( 2p)     0.00044

   206    H   22  S      Val( 1S)     0.58061
   207    H   22  S      Ryd( 2S)     0.00218
   208    H   22  px     Ryd( 2p)     0.00042
   209    H   22  py     Ryd( 2p)     0.00030
   210    H   22  pz     Ryd( 2p)     0.00061

 WARNING:  1 low occupancy (<1.9990e) core orbital  found on  C    2
           1 low occupancy (<1.9990e) core orbital  found on  C    4
           1 low occupancy (<1.9990e) core orbital  found on  C    6
           1 low occupancy (<1.9990e) core orbital  found on  C    9


 Summary of Natural Population Analysis:                  
                                                          
                                       Natural Population 
                Natural  -----------------------------------------------
    Atom  No    Charge         Core      Valence    Rydberg      Total
 -----------------------------------------------------------------------
      N    1   -0.79652      1.99952     5.78449    0.01252     7.79652
      C    2    0.12712      1.99890     3.85504    0.01894     5.87288
      C    3   -0.39465      1.99901     4.37634    0.01930     6.39465
      C    4   -0.01724      1.99899     4.00271    0.01554     6.01724
      C    5   -0.70542      1.99940     4.69878    0.00724     6.70542
      C    6   -0.01724      1.99899     4.00271    0.01554     6.01724
      C    7   -0.70542      1.99940     4.69878    0.00724     6.70542
      C    8   -0.39465      1.99901     4.37634    0.01930     6.39465
      C    9    0.12712      1.99890     3.85504    0.01894     5.87288
      N   10   -0.79652      1.99952     5.78449    0.01252     7.79652
      H   11    0.41729      0.00000     0.57953    0.00318     0.58271
      H   12    0.41588      0.00000     0.58061    0.00351     0.58412
      H   13    0.22311      0.00000     0.77507    0.00181     0.77689
      H   14    0.24231      0.00000     0.75636    0.00133     0.75769
      H   15    0.24465      0.00000     0.75372    0.00163     0.75535
      H   16    0.24348      0.00000     0.75488    0.00165     0.75652
      H   17    0.24348      0.00000     0.75488    0.00165     0.75652
      H   18    0.24231      0.00000     0.75636    0.00133     0.75769
      H   19    0.24465      0.00000     0.75372    0.00163     0.75535
      H   20    0.22311      0.00000     0.77507    0.00181     0.77689
      H   21    0.41729      0.00000     0.57953    0.00318     0.58271
      H   22    0.41588      0.00000     0.58061    0.00351     0.58412
 =======================================================================
   * Total *   -0.00000     19.99167    53.83505    0.17328    74.00000

                                 Natural Population      
 --------------------------------------------------------
   Core                      19.99167 ( 99.9583% of  20)
   Valence                   53.83505 ( 99.6945% of  54)
   Natural Minimal Basis     73.82672 ( 99.7658% of  74)
   Natural Rydberg Basis      0.17328 (  0.2342% of  74)
 --------------------------------------------------------

    Atom  No          Natural Electron Configuration
 ----------------------------------------------------------------------------
      N    1      [core]2S( 1.39)2p( 4.40)3p( 0.01)
      C    2      [core]2S( 0.84)2p( 3.02)3p( 0.01)
      C    3      [core]2S( 0.93)2p( 3.44)3p( 0.02)
      C    4      [core]2S( 0.88)2p( 3.13)3p( 0.01)
      C    5      [core]2S( 1.10)2p( 3.60)
      C    6      [core]2S( 0.88)2p( 3.13)3p( 0.01)
      C    7      [core]2S( 1.10)2p( 3.60)
      C    8      [core]2S( 0.93)2p( 3.44)3p( 0.02)
      C    9      [core]2S( 0.84)2p( 3.02)3p( 0.01)
      N   10      [core]2S( 1.39)2p( 4.40)3p( 0.01)
      H   11            1S( 0.58)
      H   12            1S( 0.58)
      H   13            1S( 0.78)
      H   14            1S( 0.76)
      H   15            1S( 0.75)
      H   16            1S( 0.75)
      H   17            1S( 0.75)
      H   18            1S( 0.76)
      H   19            1S( 0.75)
      H   20            1S( 0.78)
      H   21            1S( 0.58)
      H   22            1S( 0.58)


 NBO analysis skipped by request.
 1\1\GINC-CN33\SP\RB3LYP TD-FC\6-31G(d,p)\C8H12N2\QDUEZ\11-Jul-2024\0\\
 # TD(NStates=10, Root=1) B3LYP/6-31G** SCRF=(Solvent=water) volume pop
 =NPA density=current Geom=AllCheck Guess=Read\\XSZYBMMYQCYIPC-UHFFFAOY
 SA-N_conf_1\\0,1\N,0,2.9137814175,-0.9739567374,-0.152907391\C,0,1.592
 5573937,-0.4809624181,-0.1058221359\C,0,0.4753887652,-1.3209948164,-0.
 1112619564\C,0,-0.8334801299,-0.8303391778,-0.0174952315\C,0,-2.003567
 9182,-1.7867280981,-0.0303160995\C,0,-1.031316927,0.5613124304,0.07597
 44078\C,0,-2.4207615462,1.1484479383,0.1690610342\C,0,0.0889181469,1.4
 024050949,0.0935655492\C,0,1.395297886,0.9120082389,0.012124368\N,0,2.
 5238352384,1.7584197448,-0.0176137628\H,0,2.9575594852,-1.9475238149,-
 0.4330173064\H,0,3.506669936,-0.4232671115,-0.7680250914\H,0,0.6339280
 093,-2.3942643866,-0.1995094962\H,0,-1.6651380146,-2.8227899734,-0.117
 4459317\H,0,-2.6042688375,-1.7092971554,0.8846647362\H,0,-2.6852209814
 ,-1.5878154463,-0.8667327102\H,0,-2.9658250746,0.7725618011,1.04394688
 57\H,0,-2.3839819699,2.2386397679,0.244424513\H,0,-3.0301330598,0.8964
 447644,-0.7079725087\H,0,-0.0569563841,2.4775017523,0.1814159284\H,0,2
 .3080259505,2.7071685795,0.2678909461\H,0,3.2846886145,1.4030290233,0.
 555051253\\Version=EM64L-G16RevA.03\State=1-A\HF=-421.6223097\RMSD=3.0
 48e-09\Dipole=1.1349845,0.1637396,-0.0355926\Quadrupole=5.8061144,1.04
 36683,-6.8497826,0.8087859,-0.8659247,3.2199629\PG=C01 [X(C8H12N2)]\\@


     SCHOPENHAUER'S LAW OF ENTROPY
 IF YOU PUT A SPOONFUL OF WINE IN A BARREL FULL
 OF SEWAGE, YOU GET SEWAGE.
 IF YOU PUT A SPOONFUL OF SEWAGE IN A BARREL FULL
 OF WINE, YOU GET SEWAGE.
 Job cpu time:       0 days  0 hours 56 minutes 57.3 seconds.
 Elapsed time:       0 days  0 hours 29 minutes 11.1 seconds.
 File lengths (MBytes):  RWF=    404 Int=      0 D2E=      0 Chk=     25 Scr=      1
 Normal termination of Gaussian 16 at Thu Jul 11 20:16:59 2024.
