 Entering Gaussian System, Link 0=g16
 Initial command:
 /opt/sw/arch/manual/gaussian/G16_A03/g16/l1.exe "/scratch/1380811/Gau-175073.inp" -scrdir="/scratch/1380811/"
 Entering Link 1 = /opt/sw/arch/manual/gaussian/G16_A03/g16/l1.exe PID=    175074.
  
 Copyright (c) 1988,1990,1992,1993,1995,1998,2003,2009,2016,
            Gaussian, Inc.  All Rights Reserved.
  
 This is part of the Gaussian(R) 16 program.  It is based on
 the Gaussian(R) 09 system (copyright 2009, Gaussian, Inc.),
 the Gaussian(R) 03 system (copyright 2003, Gaussian, Inc.),
 the Gaussian(R) 98 system (copyright 1998, Gaussian, Inc.),
 the Gaussian(R) 94 system (copyright 1995, Gaussian, Inc.),
 the Gaussian 92(TM) system (copyright 1992, Gaussian, Inc.),
 the Gaussian 90(TM) system (copyright 1990, Gaussian, Inc.),
 the Gaussian 88(TM) system (copyright 1988, Gaussian, Inc.),
 the Gaussian 86(TM) system (copyright 1986, Carnegie Mellon
 University), and the Gaussian 82(TM) system (copyright 1983,
 Carnegie Mellon University). Gaussian is a federally registered
 trademark of Gaussian, Inc.
  
 This software contains proprietary and confidential information,
 including trade secrets, belonging to Gaussian, Inc.
  
 This software is provided under written license and may be
 used, copied, transmitted, or stored only in accord with that
 written license.
  
 The following legend is applicable only to US Government
 contracts under FAR:
  
                    RESTRICTED RIGHTS LEGEND
  
 Use, reproduction and disclosure by the US Government is
 subject to restrictions as set forth in subparagraphs (a)
 and (c) of the Commercial Computer Software - Restricted
 Rights clause in FAR 52.227-19.
  
 Gaussian, Inc.
 340 Quinnipiac St., Bldg. 40, Wallingford CT 06492
  
  
 ---------------------------------------------------------------
 Warning -- This program may not be used in any manner that
 competes with the business of Gaussian, Inc. or will provide
 assistance to any competitor of Gaussian, Inc.  The licensee
 of this program is prohibited from giving any competitor of
 Gaussian, Inc. access to this program.  By using this program,
 the user acknowledges that Gaussian, Inc. is engaged in the
 business of creating and licensing software in the field of
 computational chemistry and represents and warrants to the
 licensee that it is not a competitor of Gaussian, Inc. and that
 it will not use this program in any manner prohibited above.
 ---------------------------------------------------------------
  

 Cite this work as:
 Gaussian 16, Revision A.03,
 M. J. Frisch, G. W. Trucks, H. B. Schlegel, G. E. Scuseria, 
 M. A. Robb, J. R. Cheeseman, G. Scalmani, V. Barone, 
 G. A. Petersson, H. Nakatsuji, X. Li, M. Caricato, A. V. Marenich, 
 J. Bloino, B. G. Janesko, R. Gomperts, B. Mennucci, H. P. Hratchian, 
 J. V. Ortiz, A. F. Izmaylov, J. L. Sonnenberg, D. Williams-Young, 
 F. Ding, F. Lipparini, F. Egidi, J. Goings, B. Peng, A. Petrone, 
 T. Henderson, D. Ranasinghe, V. G. Zakrzewski, J. Gao, N. Rega, 
 G. Zheng, W. Liang, M. Hada, M. Ehara, K. Toyota, R. Fukuda, 
 J. Hasegawa, M. Ishida, T. Nakajima, Y. Honda, O. Kitao, H. Nakai, 
 T. Vreven, K. Throssell, J. A. Montgomery, Jr., J. E. Peralta, 
 F. Ogliaro, M. J. Bearpark, J. J. Heyd, E. N. Brothers, K. N. Kudin, 
 V. N. Staroverov, T. A. Keith, R. Kobayashi, J. Normand, 
 K. Raghavachari, A. P. Rendell, J. C. Burant, S. S. Iyengar, 
 J. Tomasi, M. Cossi, J. M. Millam, M. Klene, C. Adamo, R. Cammi, 
 J. W. Ochterski, R. L. Martin, K. Morokuma, O. Farkas, 
 J. B. Foresman, and D. J. Fox, Gaussian, Inc., Wallingford CT, 2016.
 
 ******************************************
 Gaussian 16:  ES64L-G16RevA.03 25-Dec-2016
                17-Jul-2024 
 ******************************************
 %nprocshared=6
 Will use up to    6 processors via shared memory.
 %mem=12GB
 %Chk=DZIHTWJGPDVSGE-ROTMJFINSA-N_conf_0_0.chk
 -------------------------------------------------------
 # opt=CalcFc B3LYP/6-31G** SCRF=(Solvent=water) scf=xqc
 -------------------------------------------------------
 1/10=4,18=20,19=15,26=3,38=1/1,3;
 2/9=110,12=2,17=6,18=5,40=1/2;
 3/5=1,6=6,7=101,11=2,25=1,30=1,70=2201,71=2,72=1,74=-5,140=1/1,2,3;
 4//1;
 5/5=2,8=3,13=1,38=5,53=1/2,8;
 8/6=4,10=90,11=11/1;
 11/6=1,8=1,9=11,15=111,16=1/1,2,10;
 10/6=1,13=1/2;
 6/7=2,8=2,9=2,10=2,28=1/1;
 7/10=1,18=20,25=1/1,2,3,16;
 1/10=4,18=20,19=15,26=3/3(2);
 2/9=110/2;
 99//99;
 2/9=110/2;
 3/5=1,6=6,7=101,11=2,25=1,30=1,70=2205,71=1,72=1,74=-5/1,2,3;
 4/5=5,16=3,69=1/1;
 5/5=2,8=3,13=1,38=5,53=1/2,8;
 7//1,2,3,16;
 1/18=20,19=15,26=3/3(-5);
 2/9=110/2;
 6/7=2,8=2,9=2,10=2,19=2,28=1/1;
 99/9=1/99;
 ----------------------------------
 DZIHTWJGPDVSGE-ROTMJFINSA-N_conf_0
 ----------------------------------
 Symbolic Z-matrix:
 Charge =  0 Multiplicity = 1
 N                     4.12071   1.43512  -0.39489 
 C                     4.13859  -0.02192  -0.23333 
 C                     3.15161  -0.67218  -1.20338 
 C                     1.68481  -0.34923  -0.89415 
 C                     1.3686   -0.20452   0.6062 
 C                    -0.0503   -0.69125   0.98141 
 C                    -1.21427   0.23476   0.55438 
 C                    -1.58893   0.09331  -0.93021 
 C                    -2.81224   0.93561  -1.30326 
 C                    -4.03051   0.65022  -0.42122 
 N                    -4.55447  -0.6895   -0.69415 
 C                    -3.65575   0.7857    1.05695 
 C                    -2.44322  -0.06361   1.43879 
 C                     2.41643  -0.94888   1.44834 
 C                     3.83954  -0.42983   1.21822 
 H                     3.21139   1.80852  -0.12867 
 H                     4.79362   1.85636   0.2446 
 H                     5.15172  -0.35476  -0.48802 
 H                     3.28766  -1.76123  -1.16036 
 H                     3.37727  -0.38433  -2.23796 
 H                     1.06655  -1.13107  -1.35124 
 H                     1.42205   0.58923  -1.3972 
 H                     1.43398   0.85847   0.87405 
 H                    -0.21481  -1.70586   0.59618 
 H                    -0.08366  -0.77858   2.07605 
 H                    -0.91793   1.27586   0.74012 
 H                    -1.7784   -0.96019  -1.16996 
 H                    -0.76363   0.41775  -1.5677 
 H                    -2.54948   1.99765  -1.21076 
 H                    -3.05879   0.77216  -2.35985 
 H                    -4.81821   1.37547  -0.65677 
 H                    -5.39341  -0.84919  -0.13803 
 H                    -4.83933  -0.7536   -1.67061 
 H                    -4.50702   0.51544   1.69405 
 H                    -3.43237   1.83875   1.27227 
 H                    -2.70093  -1.12821   1.37148 
 H                    -2.19769   0.1321    2.48997 
 H                     2.38016  -2.0201    1.20936 
 H                     2.18379  -0.86588   2.51704 
 H                     4.0341    0.40768   1.90097 
 H                     4.54277  -1.21623   1.52186 
 

 GradGradGradGradGradGradGradGradGradGradGradGradGradGradGradGradGradGrad
 Berny optimization.
 Initialization pass.
                           ----------------------------
                           !    Initial Parameters    !
                           ! (Angstroms and Degrees)  !
 --------------------------                            --------------------------
 ! Name  Definition              Value          Derivative Info.                !
 --------------------------------------------------------------------------------
 ! R1    R(1,2)                  1.4661         calculate D2E/DX2 analytically  !
 ! R2    R(1,16)                 1.0184         calculate D2E/DX2 analytically  !
 ! R3    R(1,17)                 1.0194         calculate D2E/DX2 analytically  !
 ! R4    R(2,3)                  1.529          calculate D2E/DX2 analytically  !
 ! R5    R(2,15)                 1.5372         calculate D2E/DX2 analytically  !
 ! R6    R(2,18)                 1.0964         calculate D2E/DX2 analytically  !
 ! R7    R(3,4)                  1.5334         calculate D2E/DX2 analytically  !
 ! R8    R(3,19)                 1.0984         calculate D2E/DX2 analytically  !
 ! R9    R(3,20)                 1.0973         calculate D2E/DX2 analytically  !
 ! R10   R(4,5)                  1.5401         calculate D2E/DX2 analytically  !
 ! R11   R(4,21)                 1.0966         calculate D2E/DX2 analytically  !
 ! R12   R(4,22)                 1.0967         calculate D2E/DX2 analytically  !
 ! R13   R(5,6)                  1.5463         calculate D2E/DX2 analytically  !
 ! R14   R(5,14)                 1.5366         calculate D2E/DX2 analytically  !
 ! R15   R(5,23)                 1.0982         calculate D2E/DX2 analytically  !
 ! R16   R(6,7)                  1.5475         calculate D2E/DX2 analytically  !
 ! R17   R(6,24)                 1.0977         calculate D2E/DX2 analytically  !
 ! R18   R(6,25)                 1.0986         calculate D2E/DX2 analytically  !
 ! R19   R(7,8)                  1.5377         calculate D2E/DX2 analytically  !
 ! R20   R(7,13)                 1.5432         calculate D2E/DX2 analytically  !
 ! R21   R(7,26)                 1.0983         calculate D2E/DX2 analytically  !
 ! R22   R(8,9)                  1.5314         calculate D2E/DX2 analytically  !
 ! R23   R(8,27)                 1.0969         calculate D2E/DX2 analytically  !
 ! R24   R(8,28)                 1.0921         calculate D2E/DX2 analytically  !
 ! R25   R(9,10)                 1.5309         calculate D2E/DX2 analytically  !
 ! R26   R(9,29)                 1.098          calculate D2E/DX2 analytically  !
 ! R27   R(9,30)                 1.0972         calculate D2E/DX2 analytically  !
 ! R28   R(10,11)                1.4642         calculate D2E/DX2 analytically  !
 ! R29   R(10,12)                1.5309         calculate D2E/DX2 analytically  !
 ! R30   R(10,31)                1.0963         calculate D2E/DX2 analytically  !
 ! R31   R(11,32)                1.0191         calculate D2E/DX2 analytically  !
 ! R32   R(11,33)                1.0192         calculate D2E/DX2 analytically  !
 ! R33   R(12,13)                1.5288         calculate D2E/DX2 analytically  !
 ! R34   R(12,34)                1.0971         calculate D2E/DX2 analytically  !
 ! R35   R(12,35)                1.0978         calculate D2E/DX2 analytically  !
 ! R36   R(13,36)                1.0974         calculate D2E/DX2 analytically  !
 ! R37   R(13,37)                1.0971         calculate D2E/DX2 analytically  !
 ! R38   R(14,15)                1.5322         calculate D2E/DX2 analytically  !
 ! R39   R(14,38)                1.0981         calculate D2E/DX2 analytically  !
 ! R40   R(14,39)                1.0969         calculate D2E/DX2 analytically  !
 ! R41   R(15,40)                1.0979         calculate D2E/DX2 analytically  !
 ! R42   R(15,41)                1.0978         calculate D2E/DX2 analytically  !
 ! A1    A(2,1,16)             110.2715         calculate D2E/DX2 analytically  !
 ! A2    A(2,1,17)             109.4812         calculate D2E/DX2 analytically  !
 ! A3    A(16,1,17)            105.8961         calculate D2E/DX2 analytically  !
 ! A4    A(1,2,3)              110.1741         calculate D2E/DX2 analytically  !
 ! A5    A(1,2,15)             111.4337         calculate D2E/DX2 analytically  !
 ! A6    A(1,2,18)             106.7012         calculate D2E/DX2 analytically  !
 ! A7    A(3,2,15)             111.1399         calculate D2E/DX2 analytically  !
 ! A8    A(3,2,18)             108.6623         calculate D2E/DX2 analytically  !
 ! A9    A(15,2,18)            108.5767         calculate D2E/DX2 analytically  !
 ! A10   A(2,3,4)              113.5743         calculate D2E/DX2 analytically  !
 ! A11   A(2,3,19)             108.4738         calculate D2E/DX2 analytically  !
 ! A12   A(2,3,20)             110.722          calculate D2E/DX2 analytically  !
 ! A13   A(4,3,19)             108.6274         calculate D2E/DX2 analytically  !
 ! A14   A(4,3,20)             109.3652         calculate D2E/DX2 analytically  !
 ! A15   A(19,3,20)            105.7564         calculate D2E/DX2 analytically  !
 ! A16   A(3,4,5)              114.3703         calculate D2E/DX2 analytically  !
 ! A17   A(3,4,21)             107.7639         calculate D2E/DX2 analytically  !
 ! A18   A(3,4,22)             108.4747         calculate D2E/DX2 analytically  !
 ! A19   A(5,4,21)             110.935          calculate D2E/DX2 analytically  !
 ! A20   A(5,4,22)             108.4967         calculate D2E/DX2 analytically  !
 ! A21   A(21,4,22)            106.4884         calculate D2E/DX2 analytically  !
 ! A22   A(4,5,6)              113.2795         calculate D2E/DX2 analytically  !
 ! A23   A(4,5,14)             110.3878         calculate D2E/DX2 analytically  !
 ! A24   A(4,5,23)             108.4415         calculate D2E/DX2 analytically  !
 ! A25   A(6,5,14)             109.8927         calculate D2E/DX2 analytically  !
 ! A26   A(6,5,23)             107.4656         calculate D2E/DX2 analytically  !
 ! A27   A(14,5,23)            107.1354         calculate D2E/DX2 analytically  !
 ! A28   A(5,6,7)              115.7784         calculate D2E/DX2 analytically  !
 ! A29   A(5,6,24)             110.0788         calculate D2E/DX2 analytically  !
 ! A30   A(5,6,25)             107.1374         calculate D2E/DX2 analytically  !
 ! A31   A(7,6,24)             110.0926         calculate D2E/DX2 analytically  !
 ! A32   A(7,6,25)             107.4386         calculate D2E/DX2 analytically  !
 ! A33   A(24,6,25)            105.7626         calculate D2E/DX2 analytically  !
 ! A34   A(6,7,8)              113.2447         calculate D2E/DX2 analytically  !
 ! A35   A(6,7,13)             108.9749         calculate D2E/DX2 analytically  !
 ! A36   A(6,7,26)             108.5192         calculate D2E/DX2 analytically  !
 ! A37   A(8,7,13)             109.9682         calculate D2E/DX2 analytically  !
 ! A38   A(8,7,26)             108.4346         calculate D2E/DX2 analytically  !
 ! A39   A(13,7,26)            107.5316         calculate D2E/DX2 analytically  !
 ! A40   A(7,8,9)              112.2868         calculate D2E/DX2 analytically  !
 ! A41   A(7,8,27)             109.9655         calculate D2E/DX2 analytically  !
 ! A42   A(7,8,28)             110.6167         calculate D2E/DX2 analytically  !
 ! A43   A(9,8,27)             109.6954         calculate D2E/DX2 analytically  !
 ! A44   A(9,8,28)             107.3415         calculate D2E/DX2 analytically  !
 ! A45   A(27,8,28)            106.7537         calculate D2E/DX2 analytically  !
 ! A46   A(8,9,10)             113.1295         calculate D2E/DX2 analytically  !
 ! A47   A(8,9,29)             108.6828         calculate D2E/DX2 analytically  !
 ! A48   A(8,9,30)             109.3992         calculate D2E/DX2 analytically  !
 ! A49   A(10,9,29)            108.7977         calculate D2E/DX2 analytically  !
 ! A50   A(10,9,30)            110.3801         calculate D2E/DX2 analytically  !
 ! A51   A(29,9,30)            106.2002         calculate D2E/DX2 analytically  !
 ! A52   A(9,10,11)            110.362          calculate D2E/DX2 analytically  !
 ! A53   A(9,10,12)            110.182          calculate D2E/DX2 analytically  !
 ! A54   A(9,10,31)            108.9447         calculate D2E/DX2 analytically  !
 ! A55   A(11,10,12)           110.3984         calculate D2E/DX2 analytically  !
 ! A56   A(11,10,31)           107.9461         calculate D2E/DX2 analytically  !
 ! A57   A(12,10,31)           108.9524         calculate D2E/DX2 analytically  !
 ! A58   A(10,11,32)           109.6482         calculate D2E/DX2 analytically  !
 ! A59   A(10,11,33)           109.6426         calculate D2E/DX2 analytically  !
 ! A60   A(32,11,33)           106.4316         calculate D2E/DX2 analytically  !
 ! A61   A(10,12,13)           112.714          calculate D2E/DX2 analytically  !
 ! A62   A(10,12,34)           110.4239         calculate D2E/DX2 analytically  !
 ! A63   A(10,12,35)           108.9098         calculate D2E/DX2 analytically  !
 ! A64   A(13,12,34)           109.4816         calculate D2E/DX2 analytically  !
 ! A65   A(13,12,35)           108.815          calculate D2E/DX2 analytically  !
 ! A66   A(34,12,35)           106.2769         calculate D2E/DX2 analytically  !
 ! A67   A(7,13,12)            112.3988         calculate D2E/DX2 analytically  !
 ! A68   A(7,13,36)            109.8416         calculate D2E/DX2 analytically  !
 ! A69   A(7,13,37)            109.658          calculate D2E/DX2 analytically  !
 ! A70   A(12,13,36)           109.7152         calculate D2E/DX2 analytically  !
 ! A71   A(12,13,37)           108.5247         calculate D2E/DX2 analytically  !
 ! A72   A(36,13,37)           106.5218         calculate D2E/DX2 analytically  !
 ! A73   A(5,14,15)            112.7643         calculate D2E/DX2 analytically  !
 ! A74   A(5,14,38)            109.3142         calculate D2E/DX2 analytically  !
 ! A75   A(5,14,39)            110.6518         calculate D2E/DX2 analytically  !
 ! A76   A(15,14,38)           109.1744         calculate D2E/DX2 analytically  !
 ! A77   A(15,14,39)           108.5234         calculate D2E/DX2 analytically  !
 ! A78   A(38,14,39)           106.191          calculate D2E/DX2 analytically  !
 ! A79   A(2,15,14)            114.3573         calculate D2E/DX2 analytically  !
 ! A80   A(2,15,40)            110.5069         calculate D2E/DX2 analytically  !
 ! A81   A(2,15,41)            109.0663         calculate D2E/DX2 analytically  !
 ! A82   A(14,15,40)           109.2453         calculate D2E/DX2 analytically  !
 ! A83   A(14,15,41)           108.1056         calculate D2E/DX2 analytically  !
 ! A84   A(40,15,41)           105.1244         calculate D2E/DX2 analytically  !
 ! D1    D(16,1,2,3)            64.8603         calculate D2E/DX2 analytically  !
 ! D2    D(16,1,2,15)          -58.9885         calculate D2E/DX2 analytically  !
 ! D3    D(16,1,2,18)         -177.3545         calculate D2E/DX2 analytically  !
 ! D4    D(17,1,2,3)          -179.0124         calculate D2E/DX2 analytically  !
 ! D5    D(17,1,2,15)           57.1387         calculate D2E/DX2 analytically  !
 ! D6    D(17,1,2,18)          -61.2273         calculate D2E/DX2 analytically  !
 ! D7    D(1,2,3,4)            -66.9617         calculate D2E/DX2 analytically  !
 ! D8    D(1,2,3,19)           172.1603         calculate D2E/DX2 analytically  !
 ! D9    D(1,2,3,20)            56.5344         calculate D2E/DX2 analytically  !
 ! D10   D(15,2,3,4)            57.0573         calculate D2E/DX2 analytically  !
 ! D11   D(15,2,3,19)          -63.8207         calculate D2E/DX2 analytically  !
 ! D12   D(15,2,3,20)         -179.4466         calculate D2E/DX2 analytically  !
 ! D13   D(18,2,3,4)           176.471          calculate D2E/DX2 analytically  !
 ! D14   D(18,2,3,19)           55.593          calculate D2E/DX2 analytically  !
 ! D15   D(18,2,3,20)          -60.0329         calculate D2E/DX2 analytically  !
 ! D16   D(1,2,15,14)          103.03           calculate D2E/DX2 analytically  !
 ! D17   D(1,2,15,40)          -20.7238         calculate D2E/DX2 analytically  !
 ! D18   D(1,2,15,41)         -135.8117         calculate D2E/DX2 analytically  !
 ! D19   D(3,2,15,14)          -20.2703         calculate D2E/DX2 analytically  !
 ! D20   D(3,2,15,40)         -144.0241         calculate D2E/DX2 analytically  !
 ! D21   D(3,2,15,41)          100.888          calculate D2E/DX2 analytically  !
 ! D22   D(18,2,15,14)        -139.7351         calculate D2E/DX2 analytically  !
 ! D23   D(18,2,15,40)          96.5111         calculate D2E/DX2 analytically  !
 ! D24   D(18,2,15,41)         -18.5768         calculate D2E/DX2 analytically  !
 ! D25   D(2,3,4,5)            -34.2026         calculate D2E/DX2 analytically  !
 ! D26   D(2,3,4,21)          -158.0528         calculate D2E/DX2 analytically  !
 ! D27   D(2,3,4,22)            87.0329         calculate D2E/DX2 analytically  !
 ! D28   D(19,3,4,5)            86.5891         calculate D2E/DX2 analytically  !
 ! D29   D(19,3,4,21)          -37.2611         calculate D2E/DX2 analytically  !
 ! D30   D(19,3,4,22)         -152.1754         calculate D2E/DX2 analytically  !
 ! D31   D(20,3,4,5)          -158.4364         calculate D2E/DX2 analytically  !
 ! D32   D(20,3,4,21)           77.7134         calculate D2E/DX2 analytically  !
 ! D33   D(20,3,4,22)          -37.2009         calculate D2E/DX2 analytically  !
 ! D34   D(3,4,5,6)           -146.4461         calculate D2E/DX2 analytically  !
 ! D35   D(3,4,5,14)           -22.7303         calculate D2E/DX2 analytically  !
 ! D36   D(3,4,5,23)            94.352          calculate D2E/DX2 analytically  !
 ! D37   D(21,4,5,6)           -24.3114         calculate D2E/DX2 analytically  !
 ! D38   D(21,4,5,14)           99.4044         calculate D2E/DX2 analytically  !
 ! D39   D(21,4,5,23)         -143.5133         calculate D2E/DX2 analytically  !
 ! D40   D(22,4,5,6)            92.3307         calculate D2E/DX2 analytically  !
 ! D41   D(22,4,5,14)         -143.9535         calculate D2E/DX2 analytically  !
 ! D42   D(22,4,5,23)          -26.8713         calculate D2E/DX2 analytically  !
 ! D43   D(4,5,6,7)            -73.8523         calculate D2E/DX2 analytically  !
 ! D44   D(4,5,6,24)            51.7902         calculate D2E/DX2 analytically  !
 ! D45   D(4,5,6,25)           166.3336         calculate D2E/DX2 analytically  !
 ! D46   D(14,5,6,7)           162.1612         calculate D2E/DX2 analytically  !
 ! D47   D(14,5,6,24)          -72.1963         calculate D2E/DX2 analytically  !
 ! D48   D(14,5,6,25)           42.3471         calculate D2E/DX2 analytically  !
 ! D49   D(23,5,6,7)            45.909          calculate D2E/DX2 analytically  !
 ! D50   D(23,5,6,24)          171.5515         calculate D2E/DX2 analytically  !
 ! D51   D(23,5,6,25)          -73.9051         calculate D2E/DX2 analytically  !
 ! D52   D(4,5,14,15)           59.4005         calculate D2E/DX2 analytically  !
 ! D53   D(4,5,14,38)          -62.2341         calculate D2E/DX2 analytically  !
 ! D54   D(4,5,14,39)         -178.8404         calculate D2E/DX2 analytically  !
 ! D55   D(6,5,14,15)         -174.947          calculate D2E/DX2 analytically  !
 ! D56   D(6,5,14,38)           63.4184         calculate D2E/DX2 analytically  !
 ! D57   D(6,5,14,39)          -53.1878         calculate D2E/DX2 analytically  !
 ! D58   D(23,5,14,15)         -58.4873         calculate D2E/DX2 analytically  !
 ! D59   D(23,5,14,38)         179.8781         calculate D2E/DX2 analytically  !
 ! D60   D(23,5,14,39)          63.2719         calculate D2E/DX2 analytically  !
 ! D61   D(5,6,7,8)             79.3167         calculate D2E/DX2 analytically  !
 ! D62   D(5,6,7,13)          -157.9512         calculate D2E/DX2 analytically  !
 ! D63   D(5,6,7,26)           -41.1362         calculate D2E/DX2 analytically  !
 ! D64   D(24,6,7,8)           -46.3188         calculate D2E/DX2 analytically  !
 ! D65   D(24,6,7,13)           76.4134         calculate D2E/DX2 analytically  !
 ! D66   D(24,6,7,26)         -166.7717         calculate D2E/DX2 analytically  !
 ! D67   D(25,6,7,8)          -161.0333         calculate D2E/DX2 analytically  !
 ! D68   D(25,6,7,13)          -38.3012         calculate D2E/DX2 analytically  !
 ! D69   D(25,6,7,26)           78.5138         calculate D2E/DX2 analytically  !
 ! D70   D(6,7,8,9)            175.4818         calculate D2E/DX2 analytically  !
 ! D71   D(6,7,8,27)            53.0418         calculate D2E/DX2 analytically  !
 ! D72   D(6,7,8,28)           -64.6263         calculate D2E/DX2 analytically  !
 ! D73   D(13,7,8,9)            53.3019         calculate D2E/DX2 analytically  !
 ! D74   D(13,7,8,27)          -69.1381         calculate D2E/DX2 analytically  !
 ! D75   D(13,7,8,28)          173.1938         calculate D2E/DX2 analytically  !
 ! D76   D(26,7,8,9)           -64.0172         calculate D2E/DX2 analytically  !
 ! D77   D(26,7,8,27)          173.5427         calculate D2E/DX2 analytically  !
 ! D78   D(26,7,8,28)           55.8747         calculate D2E/DX2 analytically  !
 ! D79   D(6,7,13,12)         -178.4624         calculate D2E/DX2 analytically  !
 ! D80   D(6,7,13,36)          -56.0085         calculate D2E/DX2 analytically  !
 ! D81   D(6,7,13,37)           60.7315         calculate D2E/DX2 analytically  !
 ! D82   D(8,7,13,12)          -53.7845         calculate D2E/DX2 analytically  !
 ! D83   D(8,7,13,36)           68.6694         calculate D2E/DX2 analytically  !
 ! D84   D(8,7,13,37)         -174.5906         calculate D2E/DX2 analytically  !
 ! D85   D(26,7,13,12)          64.0953         calculate D2E/DX2 analytically  !
 ! D86   D(26,7,13,36)        -173.4508         calculate D2E/DX2 analytically  !
 ! D87   D(26,7,13,37)         -56.7108         calculate D2E/DX2 analytically  !
 ! D88   D(7,8,9,10)           -54.494          calculate D2E/DX2 analytically  !
 ! D89   D(7,8,9,29)            66.458          calculate D2E/DX2 analytically  !
 ! D90   D(7,8,9,30)          -177.991          calculate D2E/DX2 analytically  !
 ! D91   D(27,8,9,10)           68.0988         calculate D2E/DX2 analytically  !
 ! D92   D(27,8,9,29)         -170.9492         calculate D2E/DX2 analytically  !
 ! D93   D(27,8,9,30)          -55.3981         calculate D2E/DX2 analytically  !
 ! D94   D(28,8,9,10)         -176.2731         calculate D2E/DX2 analytically  !
 ! D95   D(28,8,9,29)          -55.3211         calculate D2E/DX2 analytically  !
 ! D96   D(28,8,9,30)           60.2299         calculate D2E/DX2 analytically  !
 ! D97   D(8,9,10,11)          -69.0213         calculate D2E/DX2 analytically  !
 ! D98   D(8,9,10,12)           53.1544         calculate D2E/DX2 analytically  !
 ! D99   D(8,9,10,31)          172.6275         calculate D2E/DX2 analytically  !
 ! D100  D(29,9,10,11)         170.0918         calculate D2E/DX2 analytically  !
 ! D101  D(29,9,10,12)         -67.7325         calculate D2E/DX2 analytically  !
 ! D102  D(29,9,10,31)          51.7405         calculate D2E/DX2 analytically  !
 ! D103  D(30,9,10,11)          53.9339         calculate D2E/DX2 analytically  !
 ! D104  D(30,9,10,12)         176.1096         calculate D2E/DX2 analytically  !
 ! D105  D(30,9,10,31)         -64.4173         calculate D2E/DX2 analytically  !
 ! D106  D(9,10,11,32)        -177.0069         calculate D2E/DX2 analytically  !
 ! D107  D(9,10,11,33)         -60.4972         calculate D2E/DX2 analytically  !
 ! D108  D(12,10,11,32)         60.9448         calculate D2E/DX2 analytically  !
 ! D109  D(12,10,11,33)        177.4546         calculate D2E/DX2 analytically  !
 ! D110  D(31,10,11,32)        -58.0462         calculate D2E/DX2 analytically  !
 ! D111  D(31,10,11,33)         58.4635         calculate D2E/DX2 analytically  !
 ! D112  D(9,10,12,13)         -53.3438         calculate D2E/DX2 analytically  !
 ! D113  D(9,10,12,34)        -176.1412         calculate D2E/DX2 analytically  !
 ! D114  D(9,10,12,35)          67.5182         calculate D2E/DX2 analytically  !
 ! D115  D(11,10,12,13)         68.8104         calculate D2E/DX2 analytically  !
 ! D116  D(11,10,12,34)        -53.987          calculate D2E/DX2 analytically  !
 ! D117  D(11,10,12,35)       -170.3276         calculate D2E/DX2 analytically  !
 ! D118  D(31,10,12,13)       -172.8122         calculate D2E/DX2 analytically  !
 ! D119  D(31,10,12,34)         64.3905         calculate D2E/DX2 analytically  !
 ! D120  D(31,10,12,35)        -51.9501         calculate D2E/DX2 analytically  !
 ! D121  D(10,12,13,7)          55.0614         calculate D2E/DX2 analytically  !
 ! D122  D(10,12,13,36)        -67.464          calculate D2E/DX2 analytically  !
 ! D123  D(10,12,13,37)        176.517          calculate D2E/DX2 analytically  !
 ! D124  D(34,12,13,7)         178.3843         calculate D2E/DX2 analytically  !
 ! D125  D(34,12,13,36)         55.859          calculate D2E/DX2 analytically  !
 ! D126  D(34,12,13,37)        -60.1601         calculate D2E/DX2 analytically  !
 ! D127  D(35,12,13,7)         -65.8549         calculate D2E/DX2 analytically  !
 ! D128  D(35,12,13,36)        171.6198         calculate D2E/DX2 analytically  !
 ! D129  D(35,12,13,37)         55.6008         calculate D2E/DX2 analytically  !
 ! D130  D(5,14,15,2)          -36.7591         calculate D2E/DX2 analytically  !
 ! D131  D(5,14,15,40)          87.6687         calculate D2E/DX2 analytically  !
 ! D132  D(5,14,15,41)        -158.4461         calculate D2E/DX2 analytically  !
 ! D133  D(38,14,15,2)          84.9547         calculate D2E/DX2 analytically  !
 ! D134  D(38,14,15,40)       -150.6176         calculate D2E/DX2 analytically  !
 ! D135  D(38,14,15,41)        -36.7324         calculate D2E/DX2 analytically  !
 ! D136  D(39,14,15,2)        -159.7137         calculate D2E/DX2 analytically  !
 ! D137  D(39,14,15,40)        -35.286          calculate D2E/DX2 analytically  !
 ! D138  D(39,14,15,41)         78.5993         calculate D2E/DX2 analytically  !
 --------------------------------------------------------------------------------
 Trust Radius=3.00D-01 FncErr=1.00D-07 GrdErr=1.00D-06 EigMax=2.50D+02 EigMin=1.00D-04
 Number of steps in this run=    246 maximum allowed number of steps=    246.
 GradGradGradGradGradGradGradGradGradGradGradGradGradGradGradGradGradGrad

                          Input orientation:                          
 ---------------------------------------------------------------------
 Center     Atomic      Atomic             Coordinates (Angstroms)
 Number     Number       Type             X           Y           Z
 ---------------------------------------------------------------------
      1          7           0        4.120714    1.435117   -0.394892
      2          6           0        4.138591   -0.021916   -0.233334
      3          6           0        3.151610   -0.672184   -1.203379
      4          6           0        1.684809   -0.349230   -0.894147
      5          6           0        1.368601   -0.204519    0.606196
      6          6           0       -0.050304   -0.691246    0.981415
      7          6           0       -1.214271    0.234755    0.554380
      8          6           0       -1.588926    0.093311   -0.930208
      9          6           0       -2.812244    0.935606   -1.303262
     10          6           0       -4.030506    0.650219   -0.421224
     11          7           0       -4.554469   -0.689498   -0.694149
     12          6           0       -3.655746    0.785702    1.056945
     13          6           0       -2.443216   -0.063609    1.438788
     14          6           0        2.416426   -0.948881    1.448337
     15          6           0        3.839536   -0.429832    1.218217
     16          1           0        3.211388    1.808519   -0.128667
     17          1           0        4.793624    1.856360    0.244596
     18          1           0        5.151721   -0.354762   -0.488021
     19          1           0        3.287663   -1.761227   -1.160363
     20          1           0        3.377270   -0.384331   -2.237962
     21          1           0        1.066550   -1.131066   -1.351236
     22          1           0        1.422054    0.589234   -1.397203
     23          1           0        1.433977    0.858468    0.874045
     24          1           0       -0.214812   -1.705863    0.596180
     25          1           0       -0.083663   -0.778578    2.076048
     26          1           0       -0.917931    1.275856    0.740115
     27          1           0       -1.778402   -0.960193   -1.169957
     28          1           0       -0.763627    0.417749   -1.567697
     29          1           0       -2.549483    1.997646   -1.210763
     30          1           0       -3.058787    0.772157   -2.359849
     31          1           0       -4.818209    1.375467   -0.656774
     32          1           0       -5.393414   -0.849189   -0.138029
     33          1           0       -4.839332   -0.753597   -1.670607
     34          1           0       -4.507019    0.515438    1.694054
     35          1           0       -3.432373    1.838745    1.272271
     36          1           0       -2.700929   -1.128208    1.371479
     37          1           0       -2.197685    0.132097    2.489970
     38          1           0        2.380159   -2.020095    1.209358
     39          1           0        2.183786   -0.865880    2.517039
     40          1           0        4.034101    0.407685    1.900970
     41          1           0        4.542768   -1.216228    1.521861
 ---------------------------------------------------------------------
                    Distance matrix (angstroms):
                    1          2          3          4          5
     1  N    0.000000
     2  C    1.466071   0.000000
     3  C    2.456324   1.529041   0.000000
     4  C    3.060520   2.562197   1.533437   0.000000
     5  C    3.356293   2.900172   2.583098   1.540116   0.000000
     6  C    4.879859   4.412534   3.876331   2.577852   1.546281
     7  C    5.550140   5.416596   4.793034   3.293013   2.620473
     8  C    5.889566   5.770906   4.809708   3.303707   3.346073
     9  C    7.010032   7.097584   6.177582   4.694855   4.735545
    10  C    8.188964   8.198854   7.344611   5.821286   5.562061
    11  N    8.936573   8.730825   7.722906   6.251750   6.083491
    12  C    7.937436   7.941584   7.319467   5.797961   5.140795
    13  C    6.978089   6.791017   6.217193   4.750237   3.904230
    14  C    3.462013   2.579368   2.765620   2.526277   1.536624
    15  C    2.481777   1.537150   2.529052   3.018514   2.555553
    16  H    1.018419   2.054544   2.704157   2.751778   2.826342
    17  H    1.019412   2.045827   3.344604   3.978203   4.013572
    18  H    2.067683   1.096396   2.147774   3.490623   3.941050
    19  H    3.390654   2.146780   1.098352   2.152614   3.037576
    20  H    2.694440   2.174738   1.097335   2.161365   3.486592
    21  H    4.102171   3.452152   2.140073   1.096559   2.186610
    22  H    3.000485   3.017891   2.149443   1.096731   2.155576
    23  H    3.026761   3.052262   3.099814   2.155911   1.098161
    24  H    5.444700   4.740874   3.954706   2.769492   2.182047
    25  H    5.355630   4.871675   4.607923   3.483373   2.144546
    26  H    5.167354   5.310388   4.912554   3.476488   2.727209
    27  H    6.413875   6.063697   4.938531   3.527488   3.691801
    28  H    5.125163   5.099566   4.080413   2.652690   3.107962
    29  H    6.743412   7.054383   6.295277   4.851525   4.847912
    30  H    7.473005   7.546844   6.480168   5.089940   5.417849
    31  H    8.942957   9.075034   8.246798   6.732025   6.509076
    32  H    9.787883   9.568311   8.612998   7.136029   6.833324
    33  H    9.311302   9.121635   8.005004   6.582615   6.635040
    34  H    8.924532   8.874128   8.274066   6.766474   6.018695
    35  H    7.745416   7.940302   7.468764   5.972114   5.260032
    36  H    7.498367   7.111845   6.410154   4.997456   4.242633
    37  H    7.066997   6.898442   6.550011   5.172782   4.047260
    38  H    4.188274   3.027568   2.869373   2.774894   2.164110
    39  H    4.186361   3.478231   3.849118   3.485985   2.180194
    40  H    2.516764   2.179617   3.403217   3.728910   3.025909
    41  H    3.298742   2.161122   3.107770   3.841446   3.455044
                    6          7          8          9         10
     6  C    0.000000
     7  C    1.547468   0.000000
     8  C    2.576275   1.537652   0.000000
     9  C    3.936332   2.548636   1.531384   0.000000
    10  C    4.428197   3.009250   2.555489   1.530882   0.000000
    11  N    4.805728   3.683747   3.076193   2.459133   1.464195
    12  C    3.896960   2.552824   2.949564   2.510886   1.530943
    13  C    2.515779   1.543212   2.523208   2.941675   2.547289
    14  C    2.523717   3.922004   4.773519   6.201740   6.900384
    15  C    3.905799   5.140362   5.861536   7.243511   8.111216
    16  H    4.256729   4.746551   5.160176   6.198854   7.339773
    17  H    5.522395   6.230600   6.724987   7.816194   8.931034
    18  H    5.416043   6.477653   6.769979   8.108909   9.237301
    19  H    4.107809   5.214566   5.222394   6.670996   7.740606
    20  H    4.712414   5.409500   5.157661   6.397342   7.697140
    21  H    2.623368   3.270930   2.954305   4.395279   5.478857
    22  H    3.076571   3.299173   3.087074   4.249480   5.539555
    23  H    2.148542   2.739420   3.602601   4.772526   5.619756
    24  H    1.097686   2.183269   2.730399   4.163159   4.598451
    25  H    1.098618   2.149556   3.473266   4.669402   4.884198
    26  H    2.163444   1.098274   2.153747   2.807059   3.380570
    27  H    2.772554   2.172437   1.096928   2.163482   2.868100
    28  H    2.869960   2.177103   1.092140   2.129538   3.470005
    29  H    4.275708   2.829541   2.151249   1.097966   2.152293
    30  H    4.728273   3.490525   2.159906   1.097212   2.171952
    31  H    5.448659   3.969444   3.485249   2.152979   1.096333
    32  H    5.461403   4.372596   3.998747   3.347491   2.045957
    33  H    5.474660   4.366746   3.439562   2.664102   2.045937
    34  H    4.671857   3.495687   3.947177   3.468819   2.172471
    35  H    4.233656   2.829863   3.360915   2.798855   2.153667
    36  H    2.714572   2.176114   2.833095   3.380232   2.853833
    37  H    2.750432   2.173511   3.474149   3.925802   3.478898
    38  H    2.779379   4.293399   4.979745   6.481549   7.133442
    39  H    2.716578   4.075564   5.199704   6.542199   7.039131
    40  H    4.328463   5.421128   6.303399   7.577483   8.395790
    41  H    4.654459   6.015386   6.732399   8.167491   8.986669
                   11         12         13         14         15
    11  N    0.000000
    12  C    2.459726   0.000000
    13  C    3.065705   1.528843   0.000000
    14  C    7.297322   6.327182   4.939627   0.000000
    15  C    8.613007   7.594918   6.297280   1.532191   0.000000
    16  H    8.177310   7.043391   6.159247   3.274472   2.686798
    17  H    9.733935   8.555587   7.581836   3.869037   2.661747
    18  H    9.714147   9.014380   7.840945   3.403572   2.153768
    19  H    7.928745   7.721025   6.517704   2.867800   2.781154
    20  H    8.086345   7.854216   6.891981   3.851070   3.487253
    21  H    5.676496   5.636791   4.608921   3.113352   3.844902
    22  H    6.152095   5.643181   4.838322   3.384031   3.704475
    23  H    6.380981   5.093528   4.025144   2.135773   2.750433
    24  H    4.640105   4.273199   2.893574   2.867508   4.295686
    25  H    5.260231   4.030547   2.546521   2.583306   4.031003
    26  H    4.375402   2.799333   2.146812   4.070499   5.076558
    27  H    2.829527   3.395831   2.837498   4.944913   6.127469
    28  H    4.044696   3.922816   3.477308   4.590956   5.446909
    29  H    3.392287   2.799130   3.358599   6.357128   7.253423
    30  H    2.673586   3.468577   3.937903   6.887830   7.863472
    31  H    2.082075   2.153132   3.478924   7.885051   9.040533
    32  H    1.019116   2.668394   3.436154   7.969949   9.341446
    33  H    1.019179   3.348113   3.985699   7.900125   9.152753
    34  H    2.675375   1.097094   2.158643   7.080868   8.413378
    35  H    3.393806   1.097798   2.150607   6.481535   7.617744
    36  H    2.809786   2.161865   1.097415   5.121073   6.579430
    37  H    4.045746   2.146323   1.097073   4.852167   6.195252
    38  H    7.313200   6.657918   5.210127   1.098146   2.158424
    39  H    7.466386   6.241773   4.818237   1.096875   2.149089
    40  H    9.038916   7.745258   6.510865   2.159172   1.097926
    41  H    9.378052   8.452189   7.080918   2.144344   1.097795
                   16         17         18         19         20
    16  H    0.000000
    17  H    1.626372   0.000000
    18  H    2.928107   2.356697   0.000000
    19  H    3.716625   4.162784   2.430000   0.000000
    20  H    3.047168   3.631784   2.492357   1.750741   0.000000
    21  H    3.838771   5.036118   4.246929   2.316652   2.585213
    22  H    2.509493   3.958358   3.953245   3.010192   2.340421
    23  H    2.251049   3.560790   4.141107   3.799706   3.873697
    24  H    4.961364   6.156093   5.639205   3.918652   4.762548
    25  H    4.734047   5.838240   5.844939   4.775541   5.544743
    26  H    4.253209   5.762325   6.403741   5.524736   5.483968
    27  H    5.800694   7.288721   6.989862   5.129011   5.296527
    28  H    4.450370   6.019722   6.062492   4.618096   4.270786
    29  H    5.864668   7.487273   8.084845   6.942906   6.469571
    30  H    6.735526   8.343800   8.496241   6.937883   6.540271
    31  H    8.058589   9.665975  10.120359   8.706182   8.530118
    32  H    9.005893  10.547139  10.562519   8.788519   9.030543
    33  H    8.588138  10.162369  10.068700   8.205103   8.244441
    34  H    8.035433   9.507943   9.940320   8.607436   8.856204
    35  H    6.789926   8.289961   9.033092   8.002274   7.977157
    36  H    6.769808   8.145296   8.106792   6.532547   7.108159
    37  H    6.239048   7.542758   7.944761   6.855556   7.328039
    38  H    4.139993   4.667171   3.651847   2.550716   3.943853
    39  H    3.899762   4.402936   4.254441   3.942521   4.926087
    40  H    2.599735   2.327899   2.745483   3.825325   4.264913
    41  H    3.694037   3.336935   2.269928   3.011085   4.023271
                   21         22         23         24         25
    21  H    0.000000
    22  H    1.757250   0.000000
    23  H    3.007511   2.287181   0.000000
    24  H    2.400980   3.452589   3.061291   0.000000
    25  H    3.632287   4.025116   2.535342   1.751304   0.000000
    26  H    3.755687   3.242701   2.392409   3.066877   2.588709
    27  H    2.855838   3.563044   4.219579   2.473879   3.666288
    28  H    2.407329   2.199018   3.314484   3.081118   3.894923
    29  H    4.783750   4.217996   4.638114   4.736213   4.958912
    30  H    4.653812   4.586729   5.536284   4.792378   5.561773
    31  H    6.433923   6.333031   6.457594   5.679414   5.875725
    32  H    6.578940   7.078501   7.110109   5.300082   5.753310
    33  H    5.926544   6.409595   6.959053   5.237492   6.054290
    34  H    6.561207   6.686944   6.007122   4.956061   4.624551
    35  H    5.995237   5.679158   4.980049   4.834671   4.325539
    36  H    4.648342   5.254921   4.614301   2.667499   2.732899
    37  H    5.196698   5.331191   4.040767   3.300958   2.338749
    38  H    3.012073   3.810606   3.048577   2.684884   2.891874
    39  H    4.035107   4.244865   2.497002   3.185678   2.311584
    40  H    4.663792   4.211140   2.831683   4.921669   4.288806
    41  H    4.510657   4.638909   3.793232   4.871467   4.680013
                   26         27         28         29         30
    26  H    0.000000
    27  H    3.064098   0.000000
    28  H    2.467013   1.756897   0.000000
    29  H    2.643647   3.056966   2.410966   0.000000
    30  H    3.800888   2.460948   2.453745   1.755452   0.000000
    31  H    4.144079   3.867698   4.264579   2.416843   2.521907
    32  H    5.031590   3.761052   5.008393   4.164513   3.607732
    33  H    5.030671   3.108477   4.241935   3.608907   2.444039
    34  H    3.790751   4.222013   4.966039   3.803531   4.312471
    35  H    2.631055   4.066221   4.148114   2.640114   3.803876
    36  H    3.058959   2.708909   3.844721   4.057324   4.202650
    37  H    2.451111   3.842390   4.313094   4.159262   4.967083
    38  H    4.686243   4.906950   4.851650   6.804454   7.079410
    39  H    4.167150   5.413111   5.198078   6.670841   7.345187
    40  H    5.159838   6.714676   5.920300   7.453485   8.282299
    41  H    6.053167   6.875218   6.353981   8.252044   8.763845
                   31         32         33         34         35
    31  H    0.000000
    32  H    2.355642   0.000000
    33  H    2.358223   1.632464   0.000000
    34  H    2.522475   2.450394   3.611346   0.000000
    35  H    2.419997   3.613809   4.166570   1.756106   0.000000
    36  H    3.855525   3.099345   3.737297   2.463248   3.057395
    37  H    4.279616   4.252292   5.007310   2.472541   2.433083
    38  H    8.174888   7.975895   7.875231   7.355072   6.977115
    39  H    8.007787   8.028924   8.177602   6.881295   6.356547
    40  H    9.265099   9.727039   9.635485   8.544306   7.628331
    41  H    9.954457  10.080558   9.921173   9.215582   8.543888
                   36         37         38         39         40
    36  H    0.000000
    37  H    1.758592   0.000000
    38  H    5.161318   5.218098   0.000000
    39  H    5.024098   4.493771   1.755222   0.000000
    40  H    6.928200   6.265623   3.017941   2.329200   0.000000
    41  H    7.245792   6.941824   2.328247   2.584167   1.743433
                   41
    41  H    0.000000
 Stoichiometry    C13H26N2
 Framework group  C1[X(C13H26N2)]
 Deg. of freedom   117
 Full point group                 C1      NOp   1
 Largest Abelian subgroup         C1      NOp   1
 Largest concise Abelian subgroup C1      NOp   1
                         Standard orientation:                         
 ---------------------------------------------------------------------
 Center     Atomic      Atomic             Coordinates (Angstroms)
 Number     Number       Type             X           Y           Z
 ---------------------------------------------------------------------
      1          7           0       -4.028391   -0.980798    1.396146
      2          6           0       -4.112434   -0.462436    0.027350
      3          6           0       -3.123702   -1.198919   -0.877065
      4          6           0       -1.655050   -0.920233   -0.535269
      5          6           0       -1.380202    0.508451   -0.030018
      6          6           0        0.004582    1.050622   -0.453580
      7          6           0        1.219180    0.454358    0.297339
      8          6           0        1.633891   -0.931698   -0.223466
      9          6           0        2.902555   -1.452464    0.458026
     10          6           0        4.079542   -0.478185    0.362739
     11          7           0        4.555130   -0.387345   -1.019083
     12          6           0        3.664677    0.903139    0.876174
     13          6           0        2.406217    1.434597    0.189739
     14          6           0       -2.484199    1.465909   -0.505073
     15          6           0       -3.876372    1.055924   -0.013774
     16          1           0       -3.112986   -0.779040    1.794274
     17          1           0       -4.702738   -0.494338    1.985903
     18          1           0       -5.130160   -0.667363   -0.325243
     19          1           0       -3.306606   -0.891707   -1.915595
     20          1           0       -3.304567   -2.280912   -0.850138
     21          1           0       -1.056122   -1.142647   -1.426482
     22          1           0       -1.337525   -1.629943    0.238235
     23          1           0       -1.409282    0.500313    1.067728
     24          1           0        0.138364    0.937175   -1.537161
     25          1           0       -0.000057    2.132949   -0.265143
     26          1           0        0.961106    0.362786    1.360926
     27          1           0        1.786417   -0.893665   -1.309072
     28          1           0        0.843305   -1.663023   -0.042063
     29          1           0        2.681814   -1.638100    1.517432
     30          1           0        3.174999   -2.424115    0.027277
     31          1           0        4.903971   -0.854533    0.979686
     32          1           0        5.368803    0.224783   -1.061895
     33          1           0        4.867500   -1.304630   -1.334897
     34          1           0        4.483487    1.621668    0.746240
     35          1           0        3.479046    0.840204    1.956331
     36          1           0        2.621020    1.645039   -0.865672
     37          1           0        2.136306    2.393028    0.650313
     38          1           0       -2.485438    1.502844   -1.602598
     39          1           0       -2.281873    2.488869   -0.164850
     40          1           0       -4.056920    1.500131    0.973913
     41          1           0       -4.621144    1.516834   -0.675612
 ---------------------------------------------------------------------
 Rotational constants (GHZ):           1.4617788           0.2383682           0.2254934
 Standard basis: 6-31G(d,p) (6D, 7F)
 There are   355 symmetry adapted cartesian basis functions of A   symmetry.
 There are   355 symmetry adapted basis functions of A   symmetry.
   355 basis functions,   602 primitive gaussians,   355 cartesian basis functions
    59 alpha electrons       59 beta electrons
       nuclear repulsion energy      1074.2091503447 Hartrees.
 NAtoms=   41 NActive=   41 NUniq=   41 SFac= 1.00D+00 NAtFMM=   60 NAOKFM=F Big=F
 Integral buffers will be    131072 words long.
 Raffenetti 2 integral format.
 Two-electron integral symmetry is turned on.
 Force inversion solution in PCM.
 ------------------------------------------------------------------------------
 Polarizable Continuum Model (PCM)
 =================================
 Model                : PCM.
 Atomic radii         : UFF (Universal Force Field).
 Polarization charges : Total charges.
 Charge compensation  : None.
 Solution method      : Matrix inversion.
 Cavity type          : Scaled VdW (van der Waals Surface) (Alpha=1.100).
 Cavity algorithm     : GePol (No added spheres)
                        Default sphere list used, NSphG=   41.
                        Lebedev-Laikov grids with approx.  5.0 points / Ang**2.
                        Smoothing algorithm: York/Karplus (Gamma=1.0000).
                        Polarization charges: spherical gaussians, with
                                              point-specific exponents (IZeta= 3).
                        Self-potential: point-specific (ISelfS= 7).
                        Self-field    : sphere-specific E.n sum rule (ISelfD= 2).
 1st derivatives      : Analytical E(r).r(x)/FMM algorithm (CHGder, D1EAlg=3).
                        Cavity 1st derivative terms included.
 2nd derivatives      : Analytical E(r).r(xy)/FMM algorithm (CHGder, D2EAlg=3).
                        Cavity 2nd derivative terms included.
 Solvent              : Water, Eps=  78.355300 Eps(inf)=   1.777849
 ------------------------------------------------------------------------------
 One-electron integrals computed using PRISM.
 NBasis=   355 RedAO= T EigKep=  1.71D-03  NBF=   355
 NBsUse=   355 1.00D-06 EigRej= -1.00D+00 NBFU=   355
 ExpMin= 1.61D-01 ExpMax= 4.17D+03 ExpMxC= 6.27D+02 IAcc=3 IRadAn=         5 AccDes= 0.00D+00
 Harris functional with IExCor=  402 and IRadAn=       5 diagonalized for initial guess.
 HarFok:  IExCor=  402 AccDes= 0.00D+00 IRadAn=         5 IDoV= 1 UseB2=F ITyADJ=14
 ICtDFT=  3500011 ScaDFX=  1.000000  1.000000  1.000000  1.000000
 FoFCou: FMM=F IPFlag=           0 FMFlag=      100000 FMFlg1=           0
         NFxFlg=           0 DoJE=T BraDBF=F KetDBF=T FulRan=T
         wScrn=  0.000000 ICntrl=       500 IOpCl=  0 I1Cent=   200000004 NGrid=           0
         NMat0=    1 NMatS0=      1 NMatT0=    0 NMatD0=    1 NMtDS0=    0 NMtDT0=    0
 Petite list used in FoFCou.
 Requested convergence on RMS density matrix=1.00D-08 within  32 cycles.
 Requested convergence on MAX density matrix=1.00D-06.
 Requested convergence on             energy=1.00D-06.
 No special actions if energy rises.
 Inv3:  Mode=1 IEnd=    17685552.
 Iteration    1 A*A^-1 deviation from unit magnitude is 3.55D-15 for    374.
 Iteration    1 A*A^-1 deviation from orthogonality  is 1.82D-15 for   1849   1088.
 Iteration    1 A^-1*A deviation from unit magnitude is 3.33D-15 for    374.
 Iteration    1 A^-1*A deviation from orthogonality  is 2.31D-15 for   2096   1757.
 Error on total polarization charges =  0.01158
 SCF Done:  E(RB3LYP) =  -620.588374949     A.U. after   11 cycles
            NFock= 11  Conv=0.29D-08     -V/T= 2.0095
 QCSCF skips out because SCF is already converged.
 DoSCS=F DFT=T ScalE2(SS,OS)=  1.000000  1.000000
 Range of M.O.s used for correlation:     1   355
 NBasis=   355 NAE=    59 NBE=    59 NFC=     0 NFV=     0
 NROrb=    355 NOA=    59 NOB=    59 NVA=   296 NVB=   296
 Symmetrizing basis deriv contribution to polar:
 IMax=3 JMax=2 DiffMx= 0.00D+00
 G2DrvN: will do    42 centers at a time, making    1 passes.
 Calling FoFCou, ICntrl=  3107 FMM=F I1Cent=   0 AccDes= 0.00D+00.
 NEqPCM:  Using equilibrium solvation (IEInf=0, Eps=  78.3553, EpsInf=   1.7778)
 G2PCM: DoFxE=T DoFxN=T DoGrad=T DoDP/DQ/DG/TGxP=FFFF NFrqRd=   0 IEInf=0 SqF1=F DoCFld=F IF1Alg=4.
 End of G2Drv F.D. properties file   721 does not exist.
 End of G2Drv F.D. properties file   722 does not exist.
 End of G2Drv F.D. properties file   788 does not exist.
          IDoAtm=11111111111111111111111111111111111111111
 NEqPCM:  Using equilibrium solvation (IEInf=0, Eps=  78.3553, EpsInf=   1.7778)
          Differentiating once with respect to nuclear coordinates.
 CalDSu exits because no D1Ps are significant.
          There are   126 degrees of freedom in the 1st order CPHF.  IDoFFX=6 NUNeed=     0.
    120 vectors produced by pass  0 Test12= 1.75D-14 1.00D-09 XBig12= 8.81D-02 5.55D-02.
 AX will form   120 AO Fock derivatives at one time.
    120 vectors produced by pass  1 Test12= 1.75D-14 1.00D-09 XBig12= 5.43D-03 1.26D-02.
    120 vectors produced by pass  2 Test12= 1.75D-14 1.00D-09 XBig12= 6.60D-05 1.03D-03.
    120 vectors produced by pass  3 Test12= 1.75D-14 1.00D-09 XBig12= 1.22D-07 3.14D-05.
    120 vectors produced by pass  4 Test12= 1.75D-14 1.00D-09 XBig12= 1.18D-10 9.52D-07.
     50 vectors produced by pass  5 Test12= 1.75D-14 1.00D-09 XBig12= 7.47D-14 2.54D-08.
      1 vectors produced by pass  6 Test12= 1.75D-14 1.00D-09 XBig12= 2.98D-17 1.01D-09.
 InvSVY:  IOpt=1 It=  1 EMax= 2.78D-16
 Solved reduced A of dimension   651 with   126 vectors.
 End of Minotr F.D. properties file   721 does not exist.
 End of Minotr F.D. properties file   722 does not exist.
 End of Minotr F.D. properties file   788 does not exist.

 **********************************************************************

            Population analysis using the SCF density.

 **********************************************************************

 Orbital symmetries:
       Occupied  (A) (A) (A) (A) (A) (A) (A) (A) (A) (A) (A) (A)
                 (A) (A) (A) (A) (A) (A) (A) (A) (A) (A) (A) (A)
                 (A) (A) (A) (A) (A) (A) (A) (A) (A) (A) (A) (A)
                 (A) (A) (A) (A) (A) (A) (A) (A) (A) (A) (A) (A)
                 (A) (A) (A) (A) (A) (A) (A) (A) (A) (A) (A)
       Virtual   (A) (A) (A) (A) (A) (A) (A) (A) (A) (A) (A) (A)
                 (A) (A) (A) (A) (A) (A) (A) (A) (A) (A) (A) (A)
                 (A) (A) (A) (A) (A) (A) (A) (A) (A) (A) (A) (A)
                 (A) (A) (A) (A) (A) (A) (A) (A) (A) (A) (A) (A)
                 (A) (A) (A) (A) (A) (A) (A) (A) (A) (A) (A) (A)
                 (A) (A) (A) (A) (A) (A) (A) (A) (A) (A) (A) (A)
                 (A) (A) (A) (A) (A) (A) (A) (A) (A) (A) (A) (A)
                 (A) (A) (A) (A) (A) (A) (A) (A) (A) (A) (A) (A)
                 (A) (A) (A) (A) (A) (A) (A) (A) (A) (A) (A) (A)
                 (A) (A) (A) (A) (A) (A) (A) (A) (A) (A) (A) (A)
                 (A) (A) (A) (A) (A) (A) (A) (A) (A) (A) (A) (A)
                 (A) (A) (A) (A) (A) (A) (A) (A) (A) (A) (A) (A)
                 (A) (A) (A) (A) (A) (A) (A) (A) (A) (A) (A) (A)
                 (A) (A) (A) (A) (A) (A) (A) (A) (A) (A) (A) (A)
                 (A) (A) (A) (A) (A) (A) (A) (A) (A) (A) (A) (A)
                 (A) (A) (A) (A) (A) (A) (A) (A) (A) (A) (A) (A)
                 (A) (A) (A) (A) (A) (A) (A) (A) (A) (A) (A) (A)
                 (A) (A) (A) (A) (A) (A) (A) (A) (A) (A) (A) (A)
                 (A) (A) (A) (A) (A) (A) (A) (A) (A) (A) (A) (A)
                 (A) (A) (A) (A) (A) (A) (A) (A) (A) (A) (A) (A)
                 (A) (A) (A) (A) (A) (A) (A) (A) (A) (A) (A) (A)
                 (A) (A) (A) (A) (A) (A) (A) (A) (A) (A) (A) (A)
                 (A) (A) (A) (A) (A) (A) (A) (A) (A) (A) (A) (A)
                 (A) (A) (A) (A) (A) (A) (A) (A) (A) (A) (A) (A)
                 (A) (A) (A) (A) (A) (A) (A) (A)
 The electronic state is 1-A.
 Alpha  occ. eigenvalues --  -14.30244 -14.30218 -10.20163 -10.19986 -10.17769
 Alpha  occ. eigenvalues --  -10.17532 -10.17110 -10.17043 -10.17012 -10.17004
 Alpha  occ. eigenvalues --  -10.16965 -10.16850 -10.16704 -10.16674 -10.16563
 Alpha  occ. eigenvalues --   -0.88157  -0.88000  -0.81992  -0.79848  -0.74590
 Alpha  occ. eigenvalues --   -0.73491  -0.73210  -0.70894  -0.65053  -0.60964
 Alpha  occ. eigenvalues --   -0.60000  -0.58822  -0.56403  -0.53549  -0.51864
 Alpha  occ. eigenvalues --   -0.48932  -0.48022  -0.47305  -0.46827  -0.44714
 Alpha  occ. eigenvalues --   -0.43965  -0.43128  -0.42475  -0.40947  -0.40458
 Alpha  occ. eigenvalues --   -0.38905  -0.38270  -0.37353  -0.36678  -0.36291
 Alpha  occ. eigenvalues --   -0.35503  -0.35219  -0.34658  -0.33760  -0.33050
 Alpha  occ. eigenvalues --   -0.32674  -0.31219  -0.30854  -0.29792  -0.29541
 Alpha  occ. eigenvalues --   -0.28514  -0.26924  -0.22557  -0.22524
 Alpha virt. eigenvalues --    0.07189   0.07736   0.09059   0.11103   0.11655
 Alpha virt. eigenvalues --    0.12531   0.12884   0.13178   0.14429   0.14573
 Alpha virt. eigenvalues --    0.14664   0.15082   0.16025   0.16510   0.17144
 Alpha virt. eigenvalues --    0.17389   0.18461   0.18515   0.18987   0.19193
 Alpha virt. eigenvalues --    0.20016   0.20469   0.20759   0.21667   0.22107
 Alpha virt. eigenvalues --    0.23164   0.23561   0.24154   0.24434   0.25284
 Alpha virt. eigenvalues --    0.26084   0.26438   0.27252   0.27497   0.28824
 Alpha virt. eigenvalues --    0.29253   0.30201   0.30425   0.32207   0.33483
 Alpha virt. eigenvalues --    0.35109   0.36553   0.49952   0.51616   0.51867
 Alpha virt. eigenvalues --    0.53572   0.53911   0.54508   0.55368   0.56402
 Alpha virt. eigenvalues --    0.57650   0.58079   0.59524   0.60076   0.60893
 Alpha virt. eigenvalues --    0.62591   0.63823   0.64765   0.65559   0.66339
 Alpha virt. eigenvalues --    0.67774   0.68279   0.69186   0.70202   0.71232
 Alpha virt. eigenvalues --    0.71664   0.72444   0.72860   0.73386   0.74415
 Alpha virt. eigenvalues --    0.75450   0.76382   0.78343   0.79381   0.80601
 Alpha virt. eigenvalues --    0.81176   0.81482   0.82998   0.83913   0.84434
 Alpha virt. eigenvalues --    0.84891   0.85179   0.86056   0.86784   0.86860
 Alpha virt. eigenvalues --    0.87505   0.87957   0.88604   0.89456   0.90437
 Alpha virt. eigenvalues --    0.91237   0.92376   0.92759   0.92959   0.93407
 Alpha virt. eigenvalues --    0.93844   0.94280   0.94842   0.95564   0.96492
 Alpha virt. eigenvalues --    0.97987   0.98571   0.99250   0.99494   1.00820
 Alpha virt. eigenvalues --    1.02005   1.03653   1.05981   1.07343   1.10096
 Alpha virt. eigenvalues --    1.14525   1.16213   1.17803   1.20458   1.22875
 Alpha virt. eigenvalues --    1.23750   1.27899   1.29279   1.30023   1.34248
 Alpha virt. eigenvalues --    1.39488   1.40936   1.43480   1.44413   1.45931
 Alpha virt. eigenvalues --    1.48602   1.49539   1.52274   1.54044   1.54812
 Alpha virt. eigenvalues --    1.55920   1.56480   1.60339   1.61285   1.62899
 Alpha virt. eigenvalues --    1.65532   1.67663   1.69340   1.71961   1.73662
 Alpha virt. eigenvalues --    1.74417   1.75507   1.77969   1.79928   1.81469
 Alpha virt. eigenvalues --    1.83403   1.83697   1.84234   1.85772   1.87052
 Alpha virt. eigenvalues --    1.88842   1.89135   1.89462   1.90555   1.90924
 Alpha virt. eigenvalues --    1.91222   1.92201   1.93308   1.94197   1.94590
 Alpha virt. eigenvalues --    1.96958   1.97783   1.98536   2.00733   2.01428
 Alpha virt. eigenvalues --    2.04027   2.04994   2.06271   2.08388   2.09663
 Alpha virt. eigenvalues --    2.10567   2.12303   2.13993   2.14927   2.15344
 Alpha virt. eigenvalues --    2.15830   2.17165   2.17957   2.19044   2.19954
 Alpha virt. eigenvalues --    2.20827   2.22056   2.23076   2.23684   2.25159
 Alpha virt. eigenvalues --    2.26958   2.27735   2.28569   2.28760   2.29131
 Alpha virt. eigenvalues --    2.29542   2.31418   2.31589   2.33982   2.34145
 Alpha virt. eigenvalues --    2.35421   2.37102   2.37330   2.38856   2.39714
 Alpha virt. eigenvalues --    2.41005   2.42191   2.44098   2.46185   2.47271
 Alpha virt. eigenvalues --    2.47412   2.48726   2.49539   2.50717   2.51166
 Alpha virt. eigenvalues --    2.53301   2.54296   2.55840   2.57120   2.59183
 Alpha virt. eigenvalues --    2.60141   2.60669   2.62149   2.64070   2.64557
 Alpha virt. eigenvalues --    2.65260   2.66755   2.68947   2.70139   2.70628
 Alpha virt. eigenvalues --    2.72144   2.74375   2.75139   2.76352   2.77231
 Alpha virt. eigenvalues --    2.79156   2.80696   2.81386   2.83217   2.83405
 Alpha virt. eigenvalues --    2.84643   2.85750   2.87156   2.87658   2.88928
 Alpha virt. eigenvalues --    2.88982   2.89402   2.90289   2.91360   2.91874
 Alpha virt. eigenvalues --    2.94531   2.95026   2.95469   2.97759   2.98284
 Alpha virt. eigenvalues --    2.99767   3.00131   3.02416   3.03442   3.05752
 Alpha virt. eigenvalues --    3.22919   3.25074   3.29107   3.29481   3.31209
 Alpha virt. eigenvalues --    3.31708   3.32730   3.34734   3.35495   3.35562
 Alpha virt. eigenvalues --    3.36743   3.37492   3.41241   3.43802   3.45347
 Alpha virt. eigenvalues --    3.47167   3.49192   3.50276   3.50827   3.51855
 Alpha virt. eigenvalues --    3.52930   3.54857   3.54962   3.56754   3.57736
 Alpha virt. eigenvalues --    3.59235   4.02454   4.07351   4.27672   4.35286
 Alpha virt. eigenvalues --    4.46262   4.48354   4.49223   4.55336   4.62231
 Alpha virt. eigenvalues --    4.69612   4.74610   4.77340   4.78637   4.83673
 Alpha virt. eigenvalues --    4.92592
          Condensed to atoms (all electrons):
               1          2          3          4          5          6
     1  N    6.817965   0.318279  -0.062731  -0.003431  -0.000819   0.000085
     2  C    0.318279   4.785883   0.385363  -0.033421  -0.006850   0.000076
     3  C   -0.062731   0.385363   4.965656   0.355331  -0.047455   0.003560
     4  C   -0.003431  -0.033421   0.355331   4.969280   0.362518  -0.036555
     5  C   -0.000819  -0.006850  -0.047455   0.362518   4.903373   0.371413
     6  C    0.000085   0.000076   0.003560  -0.036555   0.371413   4.970899
     7  C    0.000001   0.000001   0.000000  -0.001759  -0.029266   0.365860
     8  C   -0.000000  -0.000002   0.000171  -0.001418  -0.001974  -0.037776
     9  C   -0.000000   0.000000  -0.000003  -0.000006   0.000015   0.004040
    10  C    0.000000  -0.000000   0.000000  -0.000002  -0.000003   0.000283
    11  N   -0.000000   0.000000   0.000000   0.000000  -0.000000  -0.000029
    12  C   -0.000000   0.000000  -0.000000   0.000003  -0.000136   0.003995
    13  C    0.000000  -0.000000   0.000001   0.000001   0.003551  -0.037273
    14  C    0.001126  -0.045519  -0.011696  -0.045223   0.381811  -0.039151
    15  C   -0.076988   0.366289  -0.052093  -0.022708  -0.040129   0.003854
    16  H    0.342427  -0.042702  -0.008580   0.004667   0.000520  -0.000017
    17  H    0.341312  -0.037458   0.006823  -0.000107   0.000130  -0.000000
    18  H   -0.046832   0.391512  -0.036999   0.005170   0.000083   0.000003
    19  H    0.004739  -0.035709   0.375787  -0.035747  -0.003482  -0.000052
    20  H    0.001538  -0.029377   0.369776  -0.035403   0.004608  -0.000092
    21  H    0.000017   0.004408  -0.032997   0.381951  -0.036091  -0.009704
    22  H    0.003419  -0.005109  -0.037449   0.379554  -0.032031   0.000387
    23  H   -0.000475   0.000201   0.000734  -0.048570   0.385586  -0.044474
    24  H   -0.000003   0.000011   0.000171  -0.010620  -0.034189   0.368129
    25  H   -0.000002   0.000015  -0.000178   0.005675  -0.041438   0.369799
    26  H   -0.000003   0.000002  -0.000011  -0.000822  -0.006274  -0.047894
    27  H    0.000000  -0.000000  -0.000014  -0.000321  -0.000258  -0.006722
    28  H   -0.000002   0.000002   0.000086   0.000748   0.000100  -0.002869
    29  H    0.000000  -0.000000  -0.000000   0.000002  -0.000007   0.000009
    30  H   -0.000000  -0.000000   0.000000   0.000007  -0.000002  -0.000135
    31  H    0.000000   0.000000  -0.000000   0.000000  -0.000000   0.000005
    32  H    0.000000  -0.000000   0.000000  -0.000000   0.000000  -0.000000
    33  H   -0.000000   0.000000  -0.000000  -0.000000   0.000000   0.000000
    34  H   -0.000000  -0.000000   0.000000  -0.000000   0.000001  -0.000138
    35  H    0.000000   0.000000  -0.000000   0.000000   0.000004   0.000034
    36  H   -0.000000   0.000000  -0.000000  -0.000008   0.000123  -0.004767
    37  H   -0.000000  -0.000000   0.000000   0.000004   0.000007  -0.006917
    38  H   -0.000156  -0.004022   0.002246  -0.007063  -0.041153  -0.004728
    39  H   -0.000229   0.005104   0.000130   0.005847  -0.034092  -0.006530
    40  H   -0.007683  -0.039360   0.004210   0.000122  -0.003564  -0.000001
    41  H    0.006346  -0.026979   0.001354   0.000235   0.004972  -0.000122
               7          8          9         10         11         12
     1  N    0.000001  -0.000000  -0.000000   0.000000  -0.000000  -0.000000
     2  C    0.000001  -0.000002   0.000000  -0.000000   0.000000   0.000000
     3  C    0.000000   0.000171  -0.000003   0.000000   0.000000  -0.000000
     4  C   -0.001759  -0.001418  -0.000006  -0.000002   0.000000   0.000003
     5  C   -0.029266  -0.001974   0.000015  -0.000003  -0.000000  -0.000136
     6  C    0.365860  -0.037776   0.004040   0.000283  -0.000029   0.003995
     7  C    4.875398   0.385745  -0.035097  -0.012745  -0.001611  -0.033807
     8  C    0.385745   4.941763   0.350698  -0.036130  -0.003620  -0.020302
     9  C   -0.035097   0.350698   4.994516   0.374027  -0.060749  -0.034602
    10  C   -0.012745  -0.036130   0.374027   4.794184   0.283739   0.374577
    11  N   -0.001611  -0.003620  -0.060749   0.283739   6.850623  -0.060441
    12  C   -0.033807  -0.020302  -0.034602   0.374577  -0.060441   4.989928
    13  C    0.378170  -0.044028  -0.022000  -0.035948  -0.004350   0.350868
    14  C    0.003689  -0.000023   0.000002   0.000000  -0.000000   0.000001
    15  C   -0.000145   0.000001  -0.000000  -0.000000  -0.000000  -0.000000
    16  H   -0.000009   0.000002  -0.000000   0.000000   0.000000   0.000000
    17  H    0.000000  -0.000000   0.000000  -0.000000  -0.000000   0.000000
    18  H   -0.000000   0.000000  -0.000000   0.000000  -0.000000  -0.000000
    19  H    0.000009  -0.000010   0.000000  -0.000000   0.000000   0.000000
    20  H   -0.000003   0.000009  -0.000000   0.000000  -0.000000   0.000000
    21  H   -0.001595  -0.000041   0.000032  -0.000001  -0.000000   0.000001
    22  H    0.001407  -0.003279   0.000085  -0.000001  -0.000000  -0.000000
    23  H   -0.006905  -0.000342   0.000002   0.000000  -0.000000  -0.000006
    24  H   -0.032452  -0.010075   0.000192  -0.000009  -0.000034  -0.000058
    25  H   -0.041302   0.005301  -0.000184  -0.000008   0.000000   0.000355
    26  H    0.383710  -0.049699  -0.002023  -0.001771   0.000042  -0.002059
    27  H   -0.036231   0.378062  -0.038985  -0.007841   0.010473  -0.000651
    28  H   -0.032985   0.373082  -0.033233   0.004913   0.000092   0.000103
    29  H   -0.005517  -0.037990   0.372588  -0.033288   0.004633  -0.004517
    30  H    0.004475  -0.033062   0.371092  -0.033498  -0.005644   0.005457
    31  H   -0.000079   0.006180  -0.053511   0.394002  -0.056970  -0.054022
    32  H    0.000035   0.000035   0.006615  -0.031522   0.333186  -0.005049
    33  H    0.000030  -0.000268  -0.005146  -0.031556   0.333314   0.006612
    34  H    0.004473   0.000134   0.005383  -0.033094  -0.005599   0.370183
    35  H   -0.005797  -0.000557  -0.004508  -0.033100   0.004610   0.373055
    36  H   -0.037704  -0.006027  -0.000671  -0.008192   0.010883  -0.038971
    37  H   -0.032973   0.005464   0.000134   0.004998   0.000089  -0.033926
    38  H    0.000056  -0.000005   0.000000  -0.000000   0.000000  -0.000000
    39  H    0.000095   0.000001  -0.000000   0.000000  -0.000000   0.000000
    40  H    0.000003   0.000000   0.000000  -0.000000   0.000000   0.000000
    41  H    0.000001  -0.000000   0.000000   0.000000  -0.000000   0.000000
              13         14         15         16         17         18
     1  N    0.000000   0.001126  -0.076988   0.342427   0.341312  -0.046832
     2  C   -0.000000  -0.045519   0.366289  -0.042702  -0.037458   0.391512
     3  C    0.000001  -0.011696  -0.052093  -0.008580   0.006823  -0.036999
     4  C    0.000001  -0.045223  -0.022708   0.004667  -0.000107   0.005170
     5  C    0.003551   0.381811  -0.040129   0.000520   0.000130   0.000083
     6  C   -0.037273  -0.039151   0.003854  -0.000017  -0.000000   0.000003
     7  C    0.378170   0.003689  -0.000145  -0.000009   0.000000  -0.000000
     8  C   -0.044028  -0.000023   0.000001   0.000002  -0.000000   0.000000
     9  C   -0.022000   0.000002  -0.000000  -0.000000   0.000000  -0.000000
    10  C   -0.035948   0.000000  -0.000000   0.000000  -0.000000   0.000000
    11  N   -0.004350  -0.000000  -0.000000   0.000000  -0.000000  -0.000000
    12  C    0.350868   0.000001  -0.000000   0.000000   0.000000  -0.000000
    13  C    4.953832  -0.000168   0.000002   0.000000   0.000000  -0.000000
    14  C   -0.000168   4.945838   0.352047   0.000591  -0.000283   0.004954
    15  C    0.000002   0.352047   5.053674  -0.002705  -0.003544  -0.051806
    16  H    0.000000   0.000591  -0.002705   0.480875  -0.034189   0.007146
    17  H    0.000000  -0.000283  -0.003544  -0.034189   0.480442  -0.005304
    18  H   -0.000000   0.004954  -0.051806   0.007146  -0.005304   0.659839
    19  H   -0.000000   0.002239  -0.002469  -0.000065  -0.000255  -0.004394
    20  H   -0.000000   0.000081   0.006447  -0.000405  -0.000092  -0.003949
    21  H   -0.000023  -0.001814   0.000390  -0.000092   0.000003  -0.000178
    22  H   -0.000016   0.005130   0.000441  -0.000142  -0.000097  -0.000092
    23  H    0.000163  -0.052050  -0.003139   0.005616   0.000220   0.000012
    24  H   -0.003371  -0.003082  -0.000050   0.000004   0.000000  -0.000000
    25  H   -0.007142  -0.007477   0.000234  -0.000000  -0.000000  -0.000000
    26  H   -0.049109   0.000218  -0.000006  -0.000002   0.000000  -0.000000
    27  H   -0.006198  -0.000001   0.000000  -0.000000   0.000000  -0.000000
    28  H    0.005515  -0.000020   0.000001  -0.000006   0.000000  -0.000000
    29  H   -0.000558   0.000000   0.000000   0.000000  -0.000000  -0.000000
    30  H    0.000168  -0.000000   0.000000   0.000000   0.000000   0.000000
    31  H    0.006206   0.000000  -0.000000   0.000000   0.000000  -0.000000
    32  H   -0.000255   0.000000   0.000000  -0.000000  -0.000000   0.000000
    33  H    0.000054   0.000000   0.000000  -0.000000   0.000000   0.000000
    34  H   -0.032937  -0.000000   0.000000   0.000000  -0.000000   0.000000
    35  H   -0.037748   0.000000   0.000000   0.000000  -0.000000   0.000000
    36  H    0.377956   0.000003  -0.000000   0.000000  -0.000000   0.000000
    37  H    0.371912  -0.000013   0.000000   0.000000   0.000000   0.000000
    38  H    0.000002   0.378579  -0.035063   0.000052   0.000008  -0.000084
    39  H   -0.000015   0.377903  -0.032945  -0.000114  -0.000008  -0.000155
    40  H   -0.000000  -0.034023   0.379151   0.001964   0.005940   0.002547
    41  H   -0.000000  -0.027796   0.347672  -0.000100   0.000298  -0.009085
              19         20         21         22         23         24
     1  N    0.004739   0.001538   0.000017   0.003419  -0.000475  -0.000003
     2  C   -0.035709  -0.029377   0.004408  -0.005109   0.000201   0.000011
     3  C    0.375787   0.369776  -0.032997  -0.037449   0.000734   0.000171
     4  C   -0.035747  -0.035403   0.381951   0.379554  -0.048570  -0.010620
     5  C   -0.003482   0.004608  -0.036091  -0.032031   0.385586  -0.034189
     6  C   -0.000052  -0.000092  -0.009704   0.000387  -0.044474   0.368129
     7  C    0.000009  -0.000003  -0.001595   0.001407  -0.006905  -0.032452
     8  C   -0.000010   0.000009  -0.000041  -0.003279  -0.000342  -0.010075
     9  C    0.000000  -0.000000   0.000032   0.000085   0.000002   0.000192
    10  C   -0.000000   0.000000  -0.000001  -0.000001   0.000000  -0.000009
    11  N    0.000000  -0.000000  -0.000000  -0.000000  -0.000000  -0.000034
    12  C    0.000000   0.000000   0.000001  -0.000000  -0.000006  -0.000058
    13  C   -0.000000  -0.000000  -0.000023  -0.000016   0.000163  -0.003371
    14  C    0.002239   0.000081  -0.001814   0.005130  -0.052050  -0.003082
    15  C   -0.002469   0.006447   0.000390   0.000441  -0.003139  -0.000050
    16  H   -0.000065  -0.000405  -0.000092  -0.000142   0.005616   0.000004
    17  H   -0.000255  -0.000092   0.000003  -0.000097   0.000220   0.000000
    18  H   -0.004394  -0.003949  -0.000178  -0.000092   0.000012  -0.000000
    19  H    0.643932  -0.036333  -0.010258   0.006229  -0.000220  -0.000013
    20  H   -0.036333   0.642151   0.001254  -0.009090  -0.000172  -0.000010
    21  H   -0.010258   0.001254   0.630889  -0.039248   0.006196   0.006630
    22  H    0.006229  -0.009090  -0.039248   0.637243  -0.012681   0.000007
    23  H   -0.000220  -0.000172   0.006196  -0.012681   0.675974   0.006048
    24  H   -0.000013  -0.000010   0.006630   0.000007   0.006048   0.647249
    25  H   -0.000009   0.000004   0.000252  -0.000243  -0.002120  -0.038314
    26  H    0.000000  -0.000000   0.000190   0.000374   0.006301   0.006065
    27  H    0.000001   0.000000   0.001101   0.000039   0.000030   0.005935
    28  H    0.000006  -0.000022   0.000816   0.004097   0.000201  -0.000178
    29  H    0.000000   0.000000   0.000003   0.000015  -0.000009   0.000006
    30  H   -0.000000  -0.000000  -0.000002  -0.000004   0.000000  -0.000003
    31  H    0.000000   0.000000  -0.000000   0.000000  -0.000000  -0.000001
    32  H   -0.000000   0.000000   0.000000   0.000000   0.000000   0.000001
    33  H    0.000000  -0.000000   0.000000   0.000000   0.000000   0.000001
    34  H   -0.000000  -0.000000  -0.000000   0.000000   0.000000   0.000005
    35  H    0.000000   0.000000  -0.000000   0.000000  -0.000003   0.000001
    36  H    0.000000  -0.000000  -0.000002   0.000001   0.000009   0.003616
    37  H    0.000000  -0.000000  -0.000000  -0.000000   0.000026  -0.000255
    38  H    0.000171  -0.000026   0.002035  -0.000007   0.006899   0.004065
    39  H   -0.000009  -0.000000  -0.000123  -0.000178  -0.005474  -0.000305
    40  H   -0.000028  -0.000191   0.000013   0.000025   0.003212   0.000002
    41  H    0.000668  -0.000229   0.000026  -0.000001   0.000020   0.000004
              25         26         27         28         29         30
     1  N   -0.000002  -0.000003   0.000000  -0.000002   0.000000  -0.000000
     2  C    0.000015   0.000002  -0.000000   0.000002  -0.000000  -0.000000
     3  C   -0.000178  -0.000011  -0.000014   0.000086  -0.000000   0.000000
     4  C    0.005675  -0.000822  -0.000321   0.000748   0.000002   0.000007
     5  C   -0.041438  -0.006274  -0.000258   0.000100  -0.000007  -0.000002
     6  C    0.369799  -0.047894  -0.006722  -0.002869   0.000009  -0.000135
     7  C   -0.041302   0.383710  -0.036231  -0.032985  -0.005517   0.004475
     8  C    0.005301  -0.049699   0.378062   0.373082  -0.037990  -0.033062
     9  C   -0.000184  -0.002023  -0.038985  -0.033233   0.372588   0.371092
    10  C   -0.000008  -0.001771  -0.007841   0.004913  -0.033288  -0.033498
    11  N    0.000000   0.000042   0.010473   0.000092   0.004633  -0.005644
    12  C    0.000355  -0.002059  -0.000651   0.000103  -0.004517   0.005457
    13  C   -0.007142  -0.049109  -0.006198   0.005515  -0.000558   0.000168
    14  C   -0.007477   0.000218  -0.000001  -0.000020   0.000000  -0.000000
    15  C    0.000234  -0.000006   0.000000   0.000001   0.000000   0.000000
    16  H   -0.000000  -0.000002  -0.000000  -0.000006   0.000000   0.000000
    17  H   -0.000000   0.000000   0.000000   0.000000  -0.000000   0.000000
    18  H   -0.000000  -0.000000  -0.000000  -0.000000  -0.000000   0.000000
    19  H   -0.000009   0.000000   0.000001   0.000006   0.000000  -0.000000
    20  H    0.000004  -0.000000   0.000000  -0.000022   0.000000  -0.000000
    21  H    0.000252   0.000190   0.001101   0.000816   0.000003  -0.000002
    22  H   -0.000243   0.000374   0.000039   0.004097   0.000015  -0.000004
    23  H   -0.002120   0.006301   0.000030   0.000201  -0.000009   0.000000
    24  H   -0.038314   0.006065   0.005935  -0.000178   0.000006  -0.000003
    25  H    0.666260  -0.001198   0.000069  -0.000135   0.000003   0.000003
    26  H   -0.001198   0.679564   0.006378  -0.006172   0.004817  -0.000048
    27  H    0.000069   0.006378   0.639473  -0.039132   0.006254  -0.004892
    28  H   -0.000135  -0.006172  -0.039132   0.645309  -0.005923  -0.003190
    29  H    0.000003   0.004817   0.006254  -0.005923   0.644592  -0.035538
    30  H    0.000003  -0.000048  -0.004892  -0.003190  -0.035538   0.649318
    31  H   -0.000000  -0.000074   0.000202  -0.000145  -0.002383  -0.003864
    32  H   -0.000000   0.000001  -0.000233   0.000005  -0.000267  -0.000034
    33  H    0.000000   0.000001  -0.000127  -0.000045  -0.000161   0.005196
    34  H   -0.000016  -0.000043  -0.000031   0.000013  -0.000069  -0.000191
    35  H   -0.000006   0.004832   0.000134  -0.000029   0.003439  -0.000068
    36  H   -0.000324   0.006440   0.004357  -0.000037   0.000142  -0.000033
    37  H    0.006676  -0.006030  -0.000033  -0.000192  -0.000030   0.000014
    38  H   -0.000337   0.000007  -0.000002   0.000002  -0.000000   0.000000
    39  H    0.006734   0.000023   0.000000  -0.000003   0.000000  -0.000000
    40  H   -0.000027  -0.000001  -0.000000   0.000000  -0.000000  -0.000000
    41  H   -0.000008   0.000000   0.000000   0.000000  -0.000000  -0.000000
              31         32         33         34         35         36
     1  N    0.000000   0.000000  -0.000000  -0.000000   0.000000  -0.000000
     2  C    0.000000  -0.000000   0.000000  -0.000000   0.000000   0.000000
     3  C   -0.000000   0.000000  -0.000000   0.000000  -0.000000  -0.000000
     4  C    0.000000  -0.000000  -0.000000  -0.000000   0.000000  -0.000008
     5  C   -0.000000   0.000000   0.000000   0.000001   0.000004   0.000123
     6  C    0.000005  -0.000000   0.000000  -0.000138   0.000034  -0.004767
     7  C   -0.000079   0.000035   0.000030   0.004473  -0.005797  -0.037704
     8  C    0.006180   0.000035  -0.000268   0.000134  -0.000557  -0.006027
     9  C   -0.053511   0.006615  -0.005146   0.005383  -0.004508  -0.000671
    10  C    0.394002  -0.031522  -0.031556  -0.033094  -0.033100  -0.008192
    11  N   -0.056970   0.333186   0.333314  -0.005599   0.004610   0.010883
    12  C   -0.054022  -0.005049   0.006612   0.370183   0.373055  -0.038971
    13  C    0.006206  -0.000255   0.000054  -0.032937  -0.037748   0.377956
    14  C    0.000000   0.000000   0.000000  -0.000000   0.000000   0.000003
    15  C   -0.000000   0.000000   0.000000   0.000000   0.000000  -0.000000
    16  H    0.000000  -0.000000  -0.000000   0.000000   0.000000   0.000000
    17  H    0.000000  -0.000000   0.000000  -0.000000  -0.000000  -0.000000
    18  H   -0.000000   0.000000   0.000000   0.000000   0.000000   0.000000
    19  H    0.000000  -0.000000   0.000000  -0.000000   0.000000   0.000000
    20  H    0.000000   0.000000  -0.000000  -0.000000   0.000000  -0.000000
[...]
   108    C    8  S      Ryd( 3S)     0.00081
   109    C    8  S      Ryd( 4S)     0.00002
   110    C    8  px     Val( 2p)     1.12763
   111    C    8  px     Ryd( 3p)     0.00344
   112    C    8  py     Val( 2p)     1.10812
   113    C    8  py     Ryd( 3p)     0.00281
   114    C    8  pz     Val( 2p)     1.19097
   115    C    8  pz     Ryd( 3p)     0.00210
   116    C    8  dxy    Ryd( 3d)     0.00096
   117    C    8  dxz    Ryd( 3d)     0.00037
   118    C    8  dyz    Ryd( 3d)     0.00033
   119    C    8  dx2y2  Ryd( 3d)     0.00045
   120    C    8  dz2    Ryd( 3d)     0.00106

   121    C    9  S      Cor( 1S)     1.99929
   122    C    9  S      Val( 2S)     1.03190
   123    C    9  S      Ryd( 3S)     0.00078
   124    C    9  S      Ryd( 4S)     0.00002
   125    C    9  px     Val( 2p)     1.05309
   126    C    9  px     Ryd( 3p)     0.00185
   127    C    9  py     Val( 2p)     1.16467
   128    C    9  py     Ryd( 3p)     0.00302
   129    C    9  pz     Val( 2p)     1.21094
   130    C    9  pz     Ryd( 3p)     0.00377
   131    C    9  dxy    Ryd( 3d)     0.00071
   132    C    9  dxz    Ryd( 3d)     0.00044
   133    C    9  dyz    Ryd( 3d)     0.00042
   134    C    9  dx2y2  Ryd( 3d)     0.00067
   135    C    9  dz2    Ryd( 3d)     0.00094

   136    C   10  S      Cor( 1S)     1.99921
   137    C   10  S      Val( 2S)     0.95288
   138    C   10  S      Ryd( 3S)     0.00189
   139    C   10  S      Ryd( 4S)     0.00004
   140    C   10  px     Val( 2p)     1.10022
   141    C   10  px     Ryd( 3p)     0.00303
   142    C   10  py     Val( 2p)     1.05755
   143    C   10  py     Ryd( 3p)     0.00185
   144    C   10  pz     Val( 2p)     0.93043
   145    C   10  pz     Ryd( 3p)     0.00423
   146    C   10  dxy    Ryd( 3d)     0.00084
   147    C   10  dxz    Ryd( 3d)     0.00133
   148    C   10  dyz    Ryd( 3d)     0.00086
   149    C   10  dx2y2  Ryd( 3d)     0.00065
   150    C   10  dz2    Ryd( 3d)     0.00148

   151    N   11  S      Cor( 1S)     1.99963
   152    N   11  S      Val( 2S)     1.44242
   153    N   11  S      Ryd( 3S)     0.00084
   154    N   11  S      Ryd( 4S)     0.00001
   155    N   11  px     Val( 2p)     1.59090
   156    N   11  px     Ryd( 3p)     0.00415
   157    N   11  py     Val( 2p)     1.43836
   158    N   11  py     Ryd( 3p)     0.00250
   159    N   11  pz     Val( 2p)     1.44964
   160    N   11  pz     Ryd( 3p)     0.00322
   161    N   11  dxy    Ryd( 3d)     0.00117
   162    N   11  dxz    Ryd( 3d)     0.00090
   163    N   11  dyz    Ryd( 3d)     0.00050
   164    N   11  dx2y2  Ryd( 3d)     0.00077
   165    N   11  dz2    Ryd( 3d)     0.00121

   166    C   12  S      Cor( 1S)     1.99929
   167    C   12  S      Val( 2S)     1.03169
   168    C   12  S      Ryd( 3S)     0.00078
   169    C   12  S      Ryd( 4S)     0.00002
   170    C   12  px     Val( 2p)     1.13514
   171    C   12  px     Ryd( 3p)     0.00318
   172    C   12  py     Val( 2p)     1.10320
   173    C   12  py     Ryd( 3p)     0.00250
   174    C   12  pz     Val( 2p)     1.19072
   175    C   12  pz     Ryd( 3p)     0.00303
   176    C   12  dxy    Ryd( 3d)     0.00096
   177    C   12  dxz    Ryd( 3d)     0.00035
   178    C   12  dyz    Ryd( 3d)     0.00032
   179    C   12  dx2y2  Ryd( 3d)     0.00047
   180    C   12  dz2    Ryd( 3d)     0.00107

   181    C   13  S      Cor( 1S)     1.99931
   182    C   13  S      Val( 2S)     1.02678
   183    C   13  S      Ryd( 3S)     0.00080
   184    C   13  S      Ryd( 4S)     0.00002
   185    C   13  px     Val( 2p)     1.04741
   186    C   13  px     Ryd( 3p)     0.00204
   187    C   13  py     Val( 2p)     1.16190
   188    C   13  py     Ryd( 3p)     0.00342
   189    C   13  pz     Val( 2p)     1.21395
   190    C   13  pz     Ryd( 3p)     0.00276
   191    C   13  dxy    Ryd( 3d)     0.00067
   192    C   13  dxz    Ryd( 3d)     0.00049
   193    C   13  dyz    Ryd( 3d)     0.00048
   194    C   13  dx2y2  Ryd( 3d)     0.00068
   195    C   13  dz2    Ryd( 3d)     0.00088

   196    C   14  S      Cor( 1S)     1.99928
   197    C   14  S      Val( 2S)     1.03643
   198    C   14  S      Ryd( 3S)     0.00078
   199    C   14  S      Ryd( 4S)     0.00002
   200    C   14  px     Val( 2p)     1.02603
   201    C   14  px     Ryd( 3p)     0.00188
   202    C   14  py     Val( 2p)     1.17941
   203    C   14  py     Ryd( 3p)     0.00310
   204    C   14  pz     Val( 2p)     1.21256
   205    C   14  pz     Ryd( 3p)     0.00309
   206    C   14  dxy    Ryd( 3d)     0.00056
   207    C   14  dxz    Ryd( 3d)     0.00040
   208    C   14  dyz    Ryd( 3d)     0.00032
   209    C   14  dx2y2  Ryd( 3d)     0.00079
   210    C   14  dz2    Ryd( 3d)     0.00109

   211    C   15  S      Cor( 1S)     1.99924
   212    C   15  S      Val( 2S)     1.04978
   213    C   15  S      Ryd( 3S)     0.00080
   214    C   15  S      Ryd( 4S)     0.00003
   215    C   15  px     Val( 2p)     1.14222
   216    C   15  px     Ryd( 3p)     0.00248
   217    C   15  py     Val( 2p)     0.99601
   218    C   15  py     Ryd( 3p)     0.00292
   219    C   15  pz     Val( 2p)     1.24899
   220    C   15  pz     Ryd( 3p)     0.00317
   221    C   15  dxy    Ryd( 3d)     0.00061
   222    C   15  dxz    Ryd( 3d)     0.00064
   223    C   15  dyz    Ryd( 3d)     0.00036
   224    C   15  dx2y2  Ryd( 3d)     0.00076
   225    C   15  dz2    Ryd( 3d)     0.00077

   226    H   16  S      Val( 1S)     0.69577
   227    H   16  S      Ryd( 2S)     0.06950
   228    H   16  px     Ryd( 2p)     0.00073
   229    H   16  py     Ryd( 2p)     0.00022
   230    H   16  pz     Ryd( 2p)     0.00029

   231    H   17  S      Val( 1S)     0.66876
   232    H   17  S      Ryd( 2S)     0.05783
   233    H   17  px     Ryd( 2p)     0.00044
   234    H   17  py     Ryd( 2p)     0.00035
   235    H   17  pz     Ryd( 2p)     0.00045

   236    H   18  S      Val( 1S)     0.73636
   237    H   18  S      Ryd( 2S)     0.02039
   238    H   18  px     Ryd( 2p)     0.00035
   239    H   18  py     Ryd( 2p)     0.00010
   240    H   18  pz     Ryd( 2p)     0.00011

   241    H   19  S      Val( 1S)     0.76717
   242    H   19  S      Ryd( 2S)     0.01316
   243    H   19  px     Ryd( 2p)     0.00011
   244    H   19  py     Ryd( 2p)     0.00012
   245    H   19  pz     Ryd( 2p)     0.00033

   246    H   20  S      Val( 1S)     0.75787
   247    H   20  S      Ryd( 2S)     0.01142
   248    H   20  px     Ryd( 2p)     0.00010
   249    H   20  py     Ryd( 2p)     0.00035
   250    H   20  pz     Ryd( 2p)     0.00009

   251    H   21  S      Val( 1S)     0.77162
   252    H   21  S      Ryd( 2S)     0.00782
   253    H   21  px     Ryd( 2p)     0.00018
   254    H   21  py     Ryd( 2p)     0.00011
   255    H   21  pz     Ryd( 2p)     0.00026

   256    H   22  S      Val( 1S)     0.79800
   257    H   22  S      Ryd( 2S)     0.02586
   258    H   22  px     Ryd( 2p)     0.00014
   259    H   22  py     Ryd( 2p)     0.00021
   260    H   22  pz     Ryd( 2p)     0.00022

   261    H   23  S      Val( 1S)     0.81302
   262    H   23  S      Ryd( 2S)     0.04012
   263    H   23  px     Ryd( 2p)     0.00013
   264    H   23  py     Ryd( 2p)     0.00011
   265    H   23  pz     Ryd( 2p)     0.00037

   266    H   24  S      Val( 1S)     0.77090
   267    H   24  S      Ryd( 2S)     0.00213
   268    H   24  px     Ryd( 2p)     0.00011
   269    H   24  py     Ryd( 2p)     0.00011
   270    H   24  pz     Ryd( 2p)     0.00036

   271    H   25  S      Val( 1S)     0.77061
   272    H   25  S      Ryd( 2S)     0.00396
   273    H   25  px     Ryd( 2p)     0.00010
   274    H   25  py     Ryd( 2p)     0.00035
   275    H   25  pz     Ryd( 2p)     0.00011

   276    H   26  S      Val( 1S)     0.76915
   277    H   26  S      Ryd( 2S)     0.00426
   278    H   26  px     Ryd( 2p)     0.00012
   279    H   26  py     Ryd( 2p)     0.00011
   280    H   26  pz     Ryd( 2p)     0.00036

   281    H   27  S      Val( 1S)     0.76600
   282    H   27  S      Ryd( 2S)     0.00227
   283    H   27  px     Ryd( 2p)     0.00013
   284    H   27  py     Ryd( 2p)     0.00009
   285    H   27  pz     Ryd( 2p)     0.00034

   286    H   28  S      Val( 1S)     0.76234
   287    H   28  S      Ryd( 2S)     0.00266
   288    H   28  px     Ryd( 2p)     0.00026
   289    H   28  py     Ryd( 2p)     0.00021
   290    H   28  pz     Ryd( 2p)     0.00009

   291    H   29  S      Val( 1S)     0.76346
   292    H   29  S      Ryd( 2S)     0.00168
   293    H   29  px     Ryd( 2p)     0.00010
   294    H   29  py     Ryd( 2p)     0.00011
   295    H   29  pz     Ryd( 2p)     0.00034

   296    H   30  S      Val( 1S)     0.76072
   297    H   30  S      Ryd( 2S)     0.00130
   298    H   30  px     Ryd( 2p)     0.00011
   299    H   30  py     Ryd( 2p)     0.00031
   300    H   30  pz     Ryd( 2p)     0.00013

   301    H   31  S      Val( 1S)     0.77995
   302    H   31  S      Ryd( 2S)     0.00228
   303    H   31  px     Ryd( 2p)     0.00026
   304    H   31  py     Ryd( 2p)     0.00015
   305    H   31  pz     Ryd( 2p)     0.00018

   306    H   32  S      Val( 1S)     0.61084
   307    H   32  S      Ryd( 2S)     0.00141
   308    H   32  px     Ryd( 2p)     0.00064
   309    H   32  py     Ryd( 2p)     0.00042
   310    H   32  pz     Ryd( 2p)     0.00035

   311    H   33  S      Val( 1S)     0.61078
   312    H   33  S      Ryd( 2S)     0.00140
   313    H   33  px     Ryd( 2p)     0.00049
   314    H   33  py     Ryd( 2p)     0.00054
   315    H   33  pz     Ryd( 2p)     0.00038

   316    H   34  S      Val( 1S)     0.76045
   317    H   34  S      Ryd( 2S)     0.00132
   318    H   34  px     Ryd( 2p)     0.00025
   319    H   34  py     Ryd( 2p)     0.00021
   320    H   34  pz     Ryd( 2p)     0.00009

   321    H   35  S      Val( 1S)     0.76298
   322    H   35  S      Ryd( 2S)     0.00155
   323    H   35  px     Ryd( 2p)     0.00010
   324    H   35  py     Ryd( 2p)     0.00010
   325    H   35  pz     Ryd( 2p)     0.00036

   326    H   36  S      Val( 1S)     0.76490
   327    H   36  S      Ryd( 2S)     0.00221
   328    H   36  px     Ryd( 2p)     0.00012
   329    H   36  py     Ryd( 2p)     0.00011
   330    H   36  pz     Ryd( 2p)     0.00034

   331    H   37  S      Val( 1S)     0.76347
   332    H   37  S      Ryd( 2S)     0.00162
   333    H   37  px     Ryd( 2p)     0.00011
   334    H   37  py     Ryd( 2p)     0.00030
   335    H   37  pz     Ryd( 2p)     0.00013

   336    H   38  S      Val( 1S)     0.76318
   337    H   38  S      Ryd( 2S)     0.00644
   338    H   38  px     Ryd( 2p)     0.00010
   339    H   38  py     Ryd( 2p)     0.00011
   340    H   38  pz     Ryd( 2p)     0.00036

   341    H   39  S      Val( 1S)     0.76254
   342    H   39  S      Ryd( 2S)     0.00826
   343    H   39  px     Ryd( 2p)     0.00011
   344    H   39  py     Ryd( 2p)     0.00032
   345    H   39  pz     Ryd( 2p)     0.00011

   346    H   40  S      Val( 1S)     0.76131
   347    H   40  S      Ryd( 2S)     0.02234
   348    H   40  px     Ryd( 2p)     0.00010
   349    H   40  py     Ryd( 2p)     0.00015
   350    H   40  pz     Ryd( 2p)     0.00031

   351    H   41  S      Val( 1S)     0.74411
   352    H   41  S      Ryd( 2S)     0.01089
   353    H   41  px     Ryd( 2p)     0.00022
   354    H   41  py     Ryd( 2p)     0.00016
   355    H   41  pz     Ryd( 2p)     0.00017


 Summary of Natural Population Analysis:                  
                                                          
                                       Natural Population 
                Natural  -----------------------------------------------
    Atom  No    Charge         Core      Valence    Rydberg      Total
 -----------------------------------------------------------------------
      N    1   -0.37727      1.99933     5.36207    0.01587     7.37727
      C    2   -0.12713      1.99918     4.11177    0.01618     6.12713
      C    3   -0.47730      1.99929     4.46549    0.01252     6.47730
      C    4   -0.47962      1.99931     4.46690    0.01341     6.47962
      C    5   -0.25962      1.99921     4.24565    0.01476     6.25962
      C    6   -0.45458      1.99928     4.44028    0.01503     6.45458
      C    7   -0.24917      1.99921     4.23620    0.01376     6.24917
      C    8   -0.46381      1.99930     4.45216    0.01235     6.46381
      C    9   -0.47251      1.99929     4.46060    0.01262     6.47251
      C   10   -0.05648      1.99921     4.04107    0.01620     6.05648
      N   11   -0.93621      1.99963     5.92131    0.01527     7.93621
      C   12   -0.47273      1.99929     4.46076    0.01269     6.47273
      C   13   -0.46160      1.99931     4.45005    0.01223     6.46160
      C   14   -0.46575      1.99928     4.45443    0.01204     6.46575
      C   15   -0.44880      1.99924     4.43701    0.01255     6.44880
      H   16    0.23350      0.00000     0.69577    0.07073     0.76650
      H   17    0.27217      0.00000     0.66876    0.05907     0.72783
      H   18    0.24269      0.00000     0.73636    0.02095     0.75731
      H   19    0.21912      0.00000     0.76717    0.01371     0.78088
      H   20    0.23017      0.00000     0.75787    0.01195     0.76983
      H   21    0.22001      0.00000     0.77162    0.00837     0.77999
      H   22    0.17556      0.00000     0.79800    0.02643     0.82444
      H   23    0.14625      0.00000     0.81302    0.04073     0.85375
      H   24    0.22639      0.00000     0.77090    0.00270     0.77361
      H   25    0.22487      0.00000     0.77061    0.00452     0.77513
      H   26    0.22600      0.00000     0.76915    0.00485     0.77400
      H   27    0.23117      0.00000     0.76600    0.00283     0.76883
      H   28    0.23444      0.00000     0.76234    0.00322     0.76556
      H   29    0.23430      0.00000     0.76346    0.00223     0.76570
      H   30    0.23743      0.00000     0.76072    0.00185     0.76257
      H   31    0.21718      0.00000     0.77995    0.00286     0.78282
      H   32    0.38633      0.00000     0.61084    0.00283     0.61367
      H   33    0.38640      0.00000     0.61078    0.00282     0.61360
      H   34    0.23768      0.00000     0.76045    0.00187     0.76232
      H   35    0.23491      0.00000     0.76298    0.00211     0.76509
      H   36    0.23232      0.00000     0.76490    0.00278     0.76768
      H   37    0.23436      0.00000     0.76347    0.00217     0.76564
      H   38    0.22981      0.00000     0.76318    0.00701     0.77019
      H   39    0.22865      0.00000     0.76254    0.00881     0.77135
      H   40    0.21579      0.00000     0.76131    0.02290     0.78421
      H   41    0.24446      0.00000     0.74411    0.01143     0.75554
 =======================================================================
   * Total *   -0.00062     29.98937    87.46204    0.54921   118.00062

                                 Natural Population      
 --------------------------------------------------------
   Core                      29.98937 ( 99.9646% of  30)
   Valence                   87.46204 ( 99.3887% of  88)
   Natural Minimal Basis    117.45141 ( 99.5351% of 118)
   Natural Rydberg Basis      0.54921 (  0.4654% of 118)
 --------------------------------------------------------

    Atom  No          Natural Electron Configuration
 ----------------------------------------------------------------------------
      N    1      [core]2S( 1.47)2p( 3.89)3S( 0.01)
      C    2      [core]2S( 0.99)2p( 3.13)3p( 0.01)
      C    3      [core]2S( 1.04)2p( 3.42)3p( 0.01)
      C    4      [core]2S( 1.04)2p( 3.43)3p( 0.01)
      C    5      [core]2S( 0.98)2p( 3.26)3p( 0.01)
      C    6      [core]2S( 1.02)2p( 3.42)3p( 0.01)
      C    7      [core]2S( 0.96)2p( 3.27)3p( 0.01)
      C    8      [core]2S( 1.03)2p( 3.43)3p( 0.01)
      C    9      [core]2S( 1.03)2p( 3.43)3p( 0.01)
      C   10      [core]2S( 0.95)2p( 3.09)3p( 0.01)3d( 0.01)
      N   11      [core]2S( 1.44)2p( 4.48)3p( 0.01)
      C   12      [core]2S( 1.03)2p( 3.43)3p( 0.01)
      C   13      [core]2S( 1.03)2p( 3.42)3p( 0.01)
      C   14      [core]2S( 1.04)2p( 3.42)3p( 0.01)
      C   15      [core]2S( 1.05)2p( 3.39)3p( 0.01)
      H   16            1S( 0.70)2S( 0.07)
      H   17            1S( 0.67)2S( 0.06)
      H   18            1S( 0.74)2S( 0.02)
      H   19            1S( 0.77)2S( 0.01)
      H   20            1S( 0.76)2S( 0.01)
      H   21            1S( 0.77)2S( 0.01)
      H   22            1S( 0.80)2S( 0.03)
      H   23            1S( 0.81)2S( 0.04)
      H   24            1S( 0.77)
      H   25            1S( 0.77)
      H   26            1S( 0.77)
      H   27            1S( 0.77)
      H   28            1S( 0.76)
      H   29            1S( 0.76)
      H   30            1S( 0.76)
      H   31            1S( 0.78)
      H   32            1S( 0.61)
      H   33            1S( 0.61)
      H   34            1S( 0.76)
      H   35            1S( 0.76)
      H   36            1S( 0.76)
      H   37            1S( 0.76)
      H   38            1S( 0.76)2S( 0.01)
      H   39            1S( 0.76)2S( 0.01)
      H   40            1S( 0.76)2S( 0.02)
      H   41            1S( 0.74)2S( 0.01)


 NBO analysis skipped by request.
 1\1\GINC-DRG2-W004\SP\RB3LYP TD-FC\6-31G(d,p)\C13H26N2\QDUEZ\17-Jul-20
 24\0\\# TD(NStates=10, Root=1) B3LYP/6-31G** SCRF=(Solvent=water) volu
 me pop=NPA density=current Geom=AllCheck Guess=Read\\DZIHTWJGPDVSGE-RO
 TMJFINSA-N_conf_0\\0,1\N,0,4.0855306828,1.4778208329,-0.4751166821\C,0
 ,4.1563168534,0.023491712,-0.2216465987\C,0,3.2088553842,-0.7135443351
 ,-1.1765961441\C,0,1.7196935853,-0.3964808298,-0.9039910798\C,0,1.3815
 784682,-0.2377766995,0.6074170133\C,0,-0.0439385503,-0.6897530869,0.99
 02050744\C,0,-1.2253090746,0.2078251483,0.5602117636\C,0,-1.609622277,
 0.084263393,-0.9281901979\C,0,-2.8178887515,0.961467555,-1.2929452652\
 C,0,-4.0525516925,0.6859662794,-0.4190879449\N,0,-4.5850822817,-0.6579
 309476,-0.7152793839\C,0,-3.671767257,0.7808361292,1.068118174\C,0,-2.
 4621736461,-0.0908417603,1.4338589593\C,0,2.4376844475,-0.9803481449,1
 .4487906259\C,0,3.8584457222,-0.4132978218,1.2468401255\H,0,3.16215952
 61,1.8225516824,-0.2165697903\H,0,4.7261596385,1.9500098737,0.16166471
 06\H,0,5.1855890574,-0.2671707784,-0.4645023179\H,0,3.3816121593,-1.79
 01877395,-1.0598053819\H,0,3.4592796541,-0.4658926377,-2.2137561175\H,
 0,1.1114910247,-1.2017666801,-1.3323576498\H,0,1.4369128085,0.51409361
 46,-1.4431237486\H,0,1.4583283603,0.8289479548,0.8709212344\H,0,-0.211
 3847003,-1.7128918871,0.6208671356\H,0,-0.0749239695,-0.7603018746,2.0
 864735934\H,0,-0.9354282644,1.255306487,0.7477789793\H,0,-1.8445655697
 ,-0.9653476738,-1.1459983595\H,0,-0.7666862137,0.358304846,-1.56898188
 72\H,0,-2.5477451556,2.0198831857,-1.1771082829\H,0,-3.0767962514,0.82
 49037325,-2.3514348612\H,0,-4.7970589779,1.4741186913,-0.6278485774\H,
 0,-5.434792264,-0.802711153,-0.1718378462\H,0,-4.8798623015,-0.6877466
 934,-1.6902231468\H,0,-4.5361157905,0.5111420185,1.6896116578\H,0,-3.4
 451990961,1.8314241714,1.2949064153\H,0,-2.7290122493,-1.1493860319,1.
 3217828601\H,0,-2.2102067168,0.0591025376,2.4914895248\H,0,2.418361815
 8,-2.0453036266,1.1783321927\H,0,2.1720489068,-0.9336128973,2.51159682
 75\H,0,4.0059103991,0.4550454777,1.9013819646\H,0,4.5921525571,-1.1642
 120238,1.5646942788\\Version=ES64L-G16RevA.03\State=1-A\HF=-620.592354
 \RMSD=1.347e-09\Dipole=0.7498192,0.4384371,-0.1375588\Quadrupole=13.77
 06323,-7.3520426,-6.4185897,0.0006531,1.8881129,-0.60083\PG=C01 [X(C13
 H26N2)]\\@


 The hours that make us happy make us wise.
                         -- John Masefield
 Job cpu time:       0 days  1 hours 37 minutes 24.7 seconds.
 Elapsed time:       0 days  0 hours 32 minutes 33.6 seconds.
 File lengths (MBytes):  RWF=    994 Int=      0 D2E=      0 Chk=     65 Scr=      1
 Normal termination of Gaussian 16 at Wed Jul 17 18:28:04 2024.
