 Entering Gaussian System, Link 0=g16
 Initial command:
 /opt/sw/arch/manual/gaussian/G16_A03/g16/l1.exe "/scratch/1380873/Gau-87699.inp" -scrdir="/scratch/1380873/"
 Entering Link 1 = /opt/sw/arch/manual/gaussian/G16_A03/g16/l1.exe PID=     87700.
  
 Copyright (c) 1988,1990,1992,1993,1995,1998,2003,2009,2016,
            Gaussian, Inc.  All Rights Reserved.
  
 This is part of the Gaussian(R) 16 program.  It is based on
 the Gaussian(R) 09 system (copyright 2009, Gaussian, Inc.),
 the Gaussian(R) 03 system (copyright 2003, Gaussian, Inc.),
 the Gaussian(R) 98 system (copyright 1998, Gaussian, Inc.),
 the Gaussian(R) 94 system (copyright 1995, Gaussian, Inc.),
 the Gaussian 92(TM) system (copyright 1992, Gaussian, Inc.),
 the Gaussian 90(TM) system (copyright 1990, Gaussian, Inc.),
 the Gaussian 88(TM) system (copyright 1988, Gaussian, Inc.),
 the Gaussian 86(TM) system (copyright 1986, Carnegie Mellon
 University), and the Gaussian 82(TM) system (copyright 1983,
 Carnegie Mellon University). Gaussian is a federally registered
 trademark of Gaussian, Inc.
  
 This software contains proprietary and confidential information,
 including trade secrets, belonging to Gaussian, Inc.
  
 This software is provided under written license and may be
 used, copied, transmitted, or stored only in accord with that
 written license.
  
 The following legend is applicable only to US Government
 contracts under FAR:
  
                    RESTRICTED RIGHTS LEGEND
  
 Use, reproduction and disclosure by the US Government is
 subject to restrictions as set forth in subparagraphs (a)
 and (c) of the Commercial Computer Software - Restricted
 Rights clause in FAR 52.227-19.
  
 Gaussian, Inc.
 340 Quinnipiac St., Bldg. 40, Wallingford CT 06492
  
  
 ---------------------------------------------------------------
 Warning -- This program may not be used in any manner that
 competes with the business of Gaussian, Inc. or will provide
 assistance to any competitor of Gaussian, Inc.  The licensee
 of this program is prohibited from giving any competitor of
 Gaussian, Inc. access to this program.  By using this program,
 the user acknowledges that Gaussian, Inc. is engaged in the
 business of creating and licensing software in the field of
 computational chemistry and represents and warrants to the
 licensee that it is not a competitor of Gaussian, Inc. and that
 it will not use this program in any manner prohibited above.
 ---------------------------------------------------------------
  

 Cite this work as:
 Gaussian 16, Revision A.03,
 M. J. Frisch, G. W. Trucks, H. B. Schlegel, G. E. Scuseria, 
 M. A. Robb, J. R. Cheeseman, G. Scalmani, V. Barone, 
 G. A. Petersson, H. Nakatsuji, X. Li, M. Caricato, A. V. Marenich, 
 J. Bloino, B. G. Janesko, R. Gomperts, B. Mennucci, H. P. Hratchian, 
 J. V. Ortiz, A. F. Izmaylov, J. L. Sonnenberg, D. Williams-Young, 
 F. Ding, F. Lipparini, F. Egidi, J. Goings, B. Peng, A. Petrone, 
 T. Henderson, D. Ranasinghe, V. G. Zakrzewski, J. Gao, N. Rega, 
 G. Zheng, W. Liang, M. Hada, M. Ehara, K. Toyota, R. Fukuda, 
 J. Hasegawa, M. Ishida, T. Nakajima, Y. Honda, O. Kitao, H. Nakai, 
 T. Vreven, K. Throssell, J. A. Montgomery, Jr., J. E. Peralta, 
 F. Ogliaro, M. J. Bearpark, J. J. Heyd, E. N. Brothers, K. N. Kudin, 
 V. N. Staroverov, T. A. Keith, R. Kobayashi, J. Normand, 
 K. Raghavachari, A. P. Rendell, J. C. Burant, S. S. Iyengar, 
 J. Tomasi, M. Cossi, J. M. Millam, M. Klene, C. Adamo, R. Cammi, 
 J. W. Ochterski, R. L. Martin, K. Morokuma, O. Farkas, 
 J. B. Foresman, and D. J. Fox, Gaussian, Inc., Wallingford CT, 2016.
 
 ******************************************
 Gaussian 16:  ES64L-G16RevA.03 25-Dec-2016
                18-Jul-2024 
 ******************************************
 %nprocshared=7
 Will use up to    7 processors via shared memory.
 %mem=14GB
 %Chk=IXVDJDOFHBHDMT-UHFFFAOYSA-N_conf_1_0.chk
 -------------------------------------------------------
 # opt=CalcFc B3LYP/6-31G** SCRF=(Solvent=water) scf=xqc
 -------------------------------------------------------
 1/10=4,18=20,19=15,26=3,38=1/1,3;
 2/9=110,12=2,17=6,18=5,40=1/2;
 3/5=1,6=6,7=101,11=2,25=1,30=1,70=2201,71=2,72=1,74=-5,140=1/1,2,3;
 4//1;
 5/5=2,8=3,13=1,38=5,53=1/2,8;
 8/6=4,10=90,11=11/1;
 11/6=1,8=1,9=11,15=111,16=1/1,2,10;
 10/6=1,13=1/2;
 6/7=2,8=2,9=2,10=2,28=1/1;
 7/10=1,18=20,25=1/1,2,3,16;
 1/10=4,18=20,19=15,26=3/3(2);
 2/9=110/2;
 99//99;
 2/9=110/2;
 3/5=1,6=6,7=101,11=2,25=1,30=1,70=2205,71=1,72=1,74=-5/1,2,3;
 4/5=5,16=3,69=1/1;
 5/5=2,8=3,13=1,38=5,53=1/2,8;
 7//1,2,3,16;
 1/18=20,19=15,26=3/3(-5);
 2/9=110/2;
 6/7=2,8=2,9=2,10=2,19=2,28=1/1;
 99/9=1/99;
 ----------------------------------
 IXVDJDOFHBHDMT-UHFFFAOYSA-N_conf_1
 ----------------------------------
 Symbolic Z-matrix:
 Charge =  0 Multiplicity = 1
 C                     8.51479   0.64429  -0.71203 
 C                     7.07103   0.44143  -0.36383 
 C                     6.70942  -0.23739   0.80104 
 C                     5.36045  -0.39417   1.13866 
 C                     4.33651   0.10285   0.31997 
 N                     3.01203  -0.03509   0.75432 
 C                     1.92217   0.16411  -0.19398 
 C                     0.59011  -0.12203   0.50177 
 C                    -0.59001   0.1042   -0.44238 
 C                    -1.92209  -0.18125   0.25359 
 N                    -3.01249   0.02483  -0.69243 
 C                    -4.337    -0.11233  -0.25799 
 C                    -4.71505  -0.8397    0.87498 
 C                    -6.06358  -1.00006   1.21985 
 C                    -7.07254  -0.46794   0.41363 
 C                    -8.51412  -0.61198   0.79838 
 C                    -6.70938   0.23738  -0.73492 
 C                    -5.36026   0.39383  -1.07203 
 C                     4.71389   0.82913  -0.81386 
 C                     6.06224   0.98992  -1.15906 
 H                     8.64657   0.73713  -1.79528 
 H                     8.89207   1.55224  -0.23177 
 H                     9.11871  -0.20846  -0.38385 
 H                     7.47177  -0.64224   1.46209 
 H                     5.11376  -0.91089   2.06291 
 H                     2.9027   -0.87464   1.31848 
 H                     1.91591   1.19951  -0.55366 
 H                     2.03986  -0.50609  -1.05402 
 H                     0.57909  -1.15688   0.86663 
 H                     0.48852   0.524     1.38304 
 H                    -0.48879  -0.542    -1.32357 
 H                    -0.57853   1.13903  -0.80739 
 H                    -1.91823  -1.21807   0.60912 
 H                    -2.03715   0.48591   1.11633 
 H                    -2.90141   0.86586  -1.2544 
 H                    -3.97212  -1.2983    1.51936 
 H                    -6.31598  -1.55506   2.12057 
 H                    -9.15494  -0.63906  -0.08938 
 H                    -8.81873   0.2287    1.42928 
 H                    -8.68106  -1.54479   1.34726 
 H                    -7.47068   0.66285  -1.38416 
 H                    -5.11292   0.92294  -1.98899 
 H                     3.97096   1.2909   -1.45578 
 H                     6.31448   1.55737  -2.05192 
 

 GradGradGradGradGradGradGradGradGradGradGradGradGradGradGradGradGradGrad
 Berny optimization.
 Initialization pass.
                           ----------------------------
                           !    Initial Parameters    !
                           ! (Angstroms and Degrees)  !
 --------------------------                            --------------------------
 ! Name  Definition              Value          Derivative Info.                !
 --------------------------------------------------------------------------------
 ! R1    R(1,2)                  1.4989         calculate D2E/DX2 analytically  !
 ! R2    R(1,21)                 1.0952         calculate D2E/DX2 analytically  !
 ! R3    R(1,22)                 1.0942         calculate D2E/DX2 analytically  !
 ! R4    R(1,23)                 1.0953         calculate D2E/DX2 analytically  !
 ! R5    R(2,3)                  1.3959         calculate D2E/DX2 analytically  !
 ! R6    R(2,20)                 1.3967         calculate D2E/DX2 analytically  !
 ! R7    R(3,4)                  1.3994         calculate D2E/DX2 analytically  !
 ! R8    R(3,24)                 1.0872         calculate D2E/DX2 analytically  !
 ! R9    R(4,5)                  1.402          calculate D2E/DX2 analytically  !
 ! R10   R(4,25)                 1.0872         calculate D2E/DX2 analytically  !
 ! R11   R(5,6)                  1.4007         calculate D2E/DX2 analytically  !
 ! R12   R(5,19)                 1.3984         calculate D2E/DX2 analytically  !
 ! R13   R(6,7)                  1.4583         calculate D2E/DX2 analytically  !
 ! R14   R(6,26)                 1.0174         calculate D2E/DX2 analytically  !
 ! R15   R(7,8)                  1.5298         calculate D2E/DX2 analytically  !
 ! R16   R(7,27)                 1.0961         calculate D2E/DX2 analytically  !
 ! R17   R(7,28)                 1.0967         calculate D2E/DX2 analytically  !
 ! R18   R(8,9)                  1.5282         calculate D2E/DX2 analytically  !
 ! R19   R(8,29)                 1.0973         calculate D2E/DX2 analytically  !
 ! R20   R(8,30)                 1.0974         calculate D2E/DX2 analytically  !
 ! R21   R(9,10)                 1.5298         calculate D2E/DX2 analytically  !
 ! R22   R(9,31)                 1.0974         calculate D2E/DX2 analytically  !
 ! R23   R(9,32)                 1.0974         calculate D2E/DX2 analytically  !
 ! R24   R(10,11)                1.4582         calculate D2E/DX2 analytically  !
 ! R25   R(10,33)                1.0961         calculate D2E/DX2 analytically  !
 ! R26   R(10,34)                1.0967         calculate D2E/DX2 analytically  !
 ! R27   R(11,12)                1.4007         calculate D2E/DX2 analytically  !
 ! R28   R(11,35)                1.0176         calculate D2E/DX2 analytically  !
 ! R29   R(12,13)                1.3984         calculate D2E/DX2 analytically  !
 ! R30   R(12,18)                1.4021         calculate D2E/DX2 analytically  !
 ! R31   R(13,14)                1.4011         calculate D2E/DX2 analytically  !
 ! R32   R(13,36)                1.0851         calculate D2E/DX2 analytically  !
 ! R33   R(14,15)                1.3968         calculate D2E/DX2 analytically  !
 ! R34   R(14,37)                1.0877         calculate D2E/DX2 analytically  !
 ! R35   R(15,16)                1.499          calculate D2E/DX2 analytically  !
 ! R36   R(15,17)                1.3959         calculate D2E/DX2 analytically  !
 ! R37   R(16,38)                1.0952         calculate D2E/DX2 analytically  !
 ! R38   R(16,39)                1.0943         calculate D2E/DX2 analytically  !
 ! R39   R(16,40)                1.0951         calculate D2E/DX2 analytically  !
 ! R40   R(17,18)                1.3994         calculate D2E/DX2 analytically  !
 ! R41   R(17,41)                1.0873         calculate D2E/DX2 analytically  !
 ! R42   R(18,42)                1.0872         calculate D2E/DX2 analytically  !
 ! R43   R(19,20)                1.4011         calculate D2E/DX2 analytically  !
 ! R44   R(19,43)                1.085          calculate D2E/DX2 analytically  !
 ! R45   R(20,44)                1.0876         calculate D2E/DX2 analytically  !
 ! A1    A(2,1,21)             110.9244         calculate D2E/DX2 analytically  !
 ! A2    A(2,1,22)             110.025          calculate D2E/DX2 analytically  !
 ! A3    A(2,1,23)             110.8617         calculate D2E/DX2 analytically  !
 ! A4    A(21,1,22)            108.8016         calculate D2E/DX2 analytically  !
 ! A5    A(21,1,23)            107.2195         calculate D2E/DX2 analytically  !
 ! A6    A(22,1,23)            108.9296         calculate D2E/DX2 analytically  !
 ! A7    A(1,2,3)              120.6097         calculate D2E/DX2 analytically  !
 ! A8    A(1,2,20)             120.6808         calculate D2E/DX2 analytically  !
 ! A9    A(3,2,20)             118.6189         calculate D2E/DX2 analytically  !
 ! A10   A(2,3,4)              120.3674         calculate D2E/DX2 analytically  !
 ! A11   A(2,3,24)             120.4525         calculate D2E/DX2 analytically  !
 ! A12   A(4,3,24)             119.1775         calculate D2E/DX2 analytically  !
 ! A13   A(3,4,5)              121.5615         calculate D2E/DX2 analytically  !
 ! A14   A(3,4,25)             118.4936         calculate D2E/DX2 analytically  !
 ! A15   A(5,4,25)             119.9442         calculate D2E/DX2 analytically  !
 ! A16   A(4,5,6)              118.3331         calculate D2E/DX2 analytically  !
 ! A17   A(4,5,19)             117.4178         calculate D2E/DX2 analytically  !
 ! A18   A(6,5,19)             123.9018         calculate D2E/DX2 analytically  !
 ! A19   A(5,6,7)              119.4436         calculate D2E/DX2 analytically  !
 ! A20   A(5,6,26)             110.7835         calculate D2E/DX2 analytically  !
 ! A21   A(7,6,26)             113.1408         calculate D2E/DX2 analytically  !
 ! A22   A(6,7,8)              109.2346         calculate D2E/DX2 analytically  !
 ! A23   A(6,7,27)             110.2837         calculate D2E/DX2 analytically  !
 ! A24   A(6,7,28)             110.2598         calculate D2E/DX2 analytically  !
 ! A25   A(8,7,27)             108.7201         calculate D2E/DX2 analytically  !
 ! A26   A(8,7,28)             109.6215         calculate D2E/DX2 analytically  !
 ! A27   A(27,7,28)            108.6964         calculate D2E/DX2 analytically  !
 ! A28   A(7,8,9)              111.3302         calculate D2E/DX2 analytically  !
 ! A29   A(7,8,29)             109.6548         calculate D2E/DX2 analytically  !
 ! A30   A(7,8,30)             109.6164         calculate D2E/DX2 analytically  !
 ! A31   A(9,8,29)             109.7114         calculate D2E/DX2 analytically  !
 ! A32   A(9,8,30)             109.7246         calculate D2E/DX2 analytically  !
 ! A33   A(29,8,30)            106.6921         calculate D2E/DX2 analytically  !
 ! A34   A(8,9,10)             111.3295         calculate D2E/DX2 analytically  !
 ! A35   A(8,9,31)             109.7361         calculate D2E/DX2 analytically  !
 ! A36   A(8,9,32)             109.6957         calculate D2E/DX2 analytically  !
 ! A37   A(10,9,31)            109.6182         calculate D2E/DX2 analytically  !
 ! A38   A(10,9,32)            109.6576         calculate D2E/DX2 analytically  !
 ! A39   A(31,9,32)            106.6925         calculate D2E/DX2 analytically  !
 ! A40   A(9,10,11)            109.2445         calculate D2E/DX2 analytically  !
 ! A41   A(9,10,33)            108.7241         calculate D2E/DX2 analytically  !
 ! A42   A(9,10,34)            109.6183         calculate D2E/DX2 analytically  !
 ! A43   A(11,10,33)           110.2878         calculate D2E/DX2 analytically  !
 ! A44   A(11,10,34)           110.2393         calculate D2E/DX2 analytically  !
 ! A45   A(33,10,34)           108.7024         calculate D2E/DX2 analytically  !
 ! A46   A(10,11,12)           119.4753         calculate D2E/DX2 analytically  !
 ! A47   A(10,11,35)           113.1698         calculate D2E/DX2 analytically  !
 ! A48   A(12,11,35)           110.8207         calculate D2E/DX2 analytically  !
 ! A49   A(11,12,13)           123.908          calculate D2E/DX2 analytically  !
 ! A50   A(11,12,18)           118.3394         calculate D2E/DX2 analytically  !
 ! A51   A(13,12,18)           117.4412         calculate D2E/DX2 analytically  !
 ! A52   A(12,13,14)           121.2743         calculate D2E/DX2 analytically  !
 ! A53   A(12,13,36)           121.0533         calculate D2E/DX2 analytically  !
 ! A54   A(14,13,36)           117.6722         calculate D2E/DX2 analytically  !
 ! A55   A(13,14,15)           120.6327         calculate D2E/DX2 analytically  !
 ! A56   A(13,14,37)           119.0499         calculate D2E/DX2 analytically  !
 ! A57   A(15,14,37)           120.3142         calculate D2E/DX2 analytically  !
 ! A58   A(14,15,16)           120.6575         calculate D2E/DX2 analytically  !
 ! A59   A(14,15,17)           118.6506         calculate D2E/DX2 analytically  !
 ! A60   A(16,15,17)           120.6607         calculate D2E/DX2 analytically  !
 ! A61   A(15,16,38)           110.9171         calculate D2E/DX2 analytically  !
 ! A62   A(15,16,39)           109.9896         calculate D2E/DX2 analytically  !
 ! A63   A(15,16,40)           110.9223         calculate D2E/DX2 analytically  !
 ! A64   A(38,16,39)           108.8715         calculate D2E/DX2 analytically  !
 ! A65   A(38,16,40)           107.218          calculate D2E/DX2 analytically  !
 ! A66   A(39,16,40)           108.8432         calculate D2E/DX2 analytically  !
 ! A67   A(15,17,18)           120.3664         calculate D2E/DX2 analytically  !
 ! A68   A(15,17,41)           120.4565         calculate D2E/DX2 analytically  !
 ! A69   A(18,17,41)           119.174          calculate D2E/DX2 analytically  !
 ! A70   A(12,18,17)           121.5587         calculate D2E/DX2 analytically  !
 ! A71   A(12,18,42)           119.9559         calculate D2E/DX2 analytically  !
 ! A72   A(17,18,42)           118.4854         calculate D2E/DX2 analytically  !
 ! A73   A(5,19,20)            121.2708         calculate D2E/DX2 analytically  !
 ! A74   A(5,19,43)            121.0611         calculate D2E/DX2 analytically  !
 ! A75   A(20,19,43)           117.6679         calculate D2E/DX2 analytically  !
 ! A76   A(2,20,19)            120.6451         calculate D2E/DX2 analytically  !
 ! A77   A(2,20,44)            120.3174         calculate D2E/DX2 analytically  !
 ! A78   A(19,20,44)           119.0348         calculate D2E/DX2 analytically  !
 ! D1    D(21,1,2,3)           152.951          calculate D2E/DX2 analytically  !
 ! D2    D(21,1,2,20)          -30.5554         calculate D2E/DX2 analytically  !
 ! D3    D(22,1,2,3)           -86.6111         calculate D2E/DX2 analytically  !
 ! D4    D(22,1,2,20)           89.8825         calculate D2E/DX2 analytically  !
 ! D5    D(23,1,2,3)            33.9463         calculate D2E/DX2 analytically  !
 ! D6    D(23,1,2,20)         -149.5602         calculate D2E/DX2 analytically  !
 ! D7    D(1,2,3,4)            178.3633         calculate D2E/DX2 analytically  !
 ! D8    D(1,2,3,24)            -1.0355         calculate D2E/DX2 analytically  !
 ! D9    D(20,2,3,4)             1.7985         calculate D2E/DX2 analytically  !
 ! D10   D(20,2,3,24)         -177.6003         calculate D2E/DX2 analytically  !
 ! D11   D(1,2,20,19)         -178.3386         calculate D2E/DX2 analytically  !
 ! D12   D(1,2,20,44)            1.0665         calculate D2E/DX2 analytically  !
 ! D13   D(3,2,20,19)           -1.7764         calculate D2E/DX2 analytically  !
 ! D14   D(3,2,20,44)          177.6288         calculate D2E/DX2 analytically  !
 ! D15   D(2,3,4,5)              0.8708         calculate D2E/DX2 analytically  !
 ! D16   D(2,3,4,25)          -178.8056         calculate D2E/DX2 analytically  !
 ! D17   D(24,3,4,5)          -179.7228         calculate D2E/DX2 analytically  !
 ! D18   D(24,3,4,25)            0.6009         calculate D2E/DX2 analytically  !
 ! D19   D(3,4,5,6)           -176.9778         calculate D2E/DX2 analytically  !
 ! D20   D(3,4,5,19)            -3.4767         calculate D2E/DX2 analytically  !
 ! D21   D(25,4,5,6)             2.6939         calculate D2E/DX2 analytically  !
 ! D22   D(25,4,5,19)          176.1949         calculate D2E/DX2 analytically  !
 ! D23   D(4,5,6,7)           -165.0638         calculate D2E/DX2 analytically  !
 ! D24   D(4,5,6,26)           -30.8829         calculate D2E/DX2 analytically  !
 ! D25   D(19,5,6,7)            21.8889         calculate D2E/DX2 analytically  !
 ! D26   D(19,5,6,26)          156.0698         calculate D2E/DX2 analytically  !
 ! D27   D(4,5,19,20)            3.4936         calculate D2E/DX2 analytically  !
 ! D28   D(4,5,19,43)         -176.3115         calculate D2E/DX2 analytically  !
 ! D29   D(6,5,19,20)          176.5997         calculate D2E/DX2 analytically  !
 ! D30   D(6,5,19,43)           -3.2054         calculate D2E/DX2 analytically  !
 ! D31   D(5,6,7,8)            176.7049         calculate D2E/DX2 analytically  !
 ! D32   D(5,6,7,27)           -63.8658         calculate D2E/DX2 analytically  !
 ! D33   D(5,6,7,28)            56.1808         calculate D2E/DX2 analytically  !
 ! D34   D(26,6,7,8)            43.5195         calculate D2E/DX2 analytically  !
 ! D35   D(26,6,7,27)          162.9487         calculate D2E/DX2 analytically  !
 ! D36   D(26,6,7,28)          -77.0047         calculate D2E/DX2 analytically  !
 ! D37   D(6,7,8,9)            178.6807         calculate D2E/DX2 analytically  !
 ! D38   D(6,7,8,29)           -59.7213         calculate D2E/DX2 analytically  !
 ! D39   D(6,7,8,30)            57.0921         calculate D2E/DX2 analytically  !
 ! D40   D(27,7,8,9)            58.2889         calculate D2E/DX2 analytically  !
 ! D41   D(27,7,8,29)          179.8868         calculate D2E/DX2 analytically  !
 ! D42   D(27,7,8,30)          -63.2998         calculate D2E/DX2 analytically  !
 ! D43   D(28,7,8,9)           -60.4054         calculate D2E/DX2 analytically  !
 ! D44   D(28,7,8,29)           61.1925         calculate D2E/DX2 analytically  !
 ! D45   D(28,7,8,30)          178.006          calculate D2E/DX2 analytically  !
 ! D46   D(7,8,9,10)          -179.9709         calculate D2E/DX2 analytically  !
 ! D47   D(7,8,9,31)            58.4939         calculate D2E/DX2 analytically  !
 ! D48   D(7,8,9,32)           -58.4134         calculate D2E/DX2 analytically  !
 ! D49   D(29,8,9,10)           58.4641         calculate D2E/DX2 analytically  !
 ! D50   D(29,8,9,31)          -63.0711         calculate D2E/DX2 analytically  !
 ! D51   D(29,8,9,32)         -179.9784         calculate D2E/DX2 analytically  !
 ! D52   D(30,8,9,10)          -58.4453         calculate D2E/DX2 analytically  !
 ! D53   D(30,8,9,31)         -179.9805         calculate D2E/DX2 analytically  !
 ! D54   D(30,8,9,32)           63.1122         calculate D2E/DX2 analytically  !
 ! D55   D(8,9,10,11)         -178.984          calculate D2E/DX2 analytically  !
 ! D56   D(8,9,10,33)          -58.5788         calculate D2E/DX2 analytically  !
 ! D57   D(8,9,10,34)           60.1231         calculate D2E/DX2 analytically  !
 ! D58   D(31,9,10,11)         -57.3802         calculate D2E/DX2 analytically  !
 ! D59   D(31,9,10,33)          63.025          calculate D2E/DX2 analytically  !
 ! D60   D(31,9,10,34)        -178.2731         calculate D2E/DX2 analytically  !
 ! D61   D(32,9,10,11)          59.4363         calculate D2E/DX2 analytically  !
 ! D62   D(32,9,10,33)         179.8415         calculate D2E/DX2 analytically  !
 ! D63   D(32,9,10,34)         -61.4566         calculate D2E/DX2 analytically  !
 ! D64   D(9,10,11,12)        -176.7574         calculate D2E/DX2 analytically  !
 ! D65   D(9,10,11,35)         -43.4427         calculate D2E/DX2 analytically  !
 ! D66   D(33,10,11,12)         63.7998         calculate D2E/DX2 analytically  !
 ! D67   D(33,10,11,35)       -162.8855         calculate D2E/DX2 analytically  !
 ! D68   D(34,10,11,12)        -56.2437         calculate D2E/DX2 analytically  !
 ! D69   D(34,10,11,35)         77.071          calculate D2E/DX2 analytically  !
 ! D70   D(10,11,12,13)        -21.6715         calculate D2E/DX2 analytically  !
 ! D71   D(10,11,12,18)        164.9113         calculate D2E/DX2 analytically  !
 ! D72   D(35,11,12,13)       -155.9754         calculate D2E/DX2 analytically  !
 ! D73   D(35,11,12,18)         30.6073         calculate D2E/DX2 analytically  !
 ! D74   D(11,12,13,14)       -176.5689         calculate D2E/DX2 analytically  !
 ! D75   D(11,12,13,36)          3.5611         calculate D2E/DX2 analytically  !
 ! D76   D(18,12,13,14)         -3.097          calculate D2E/DX2 analytically  !
 ! D77   D(18,12,13,36)        177.033          calculate D2E/DX2 analytically  !
 ! D78   D(11,12,18,17)        176.9141         calculate D2E/DX2 analytically  !
 ! D79   D(11,12,18,42)         -3.1353         calculate D2E/DX2 analytically  !
 ! D80   D(13,12,18,17)          3.0683         calculate D2E/DX2 analytically  !
 ! D81   D(13,12,18,42)       -176.9812         calculate D2E/DX2 analytically  !
 ! D82   D(12,13,14,15)          1.9392         calculate D2E/DX2 analytically  !
 ! D83   D(12,13,14,37)       -178.7101         calculate D2E/DX2 analytically  !
 ! D84   D(36,13,14,15)       -178.1865         calculate D2E/DX2 analytically  !
 ! D85   D(36,13,14,37)          1.1641         calculate D2E/DX2 analytically  !
 ! D86   D(13,14,15,16)       -178.5898         calculate D2E/DX2 analytically  !
 ! D87   D(13,14,15,17)         -0.6094         calculate D2E/DX2 analytically  !
 ! D88   D(37,14,15,16)          2.0678         calculate D2E/DX2 analytically  !
 ! D89   D(37,14,15,17)       -179.9518         calculate D2E/DX2 analytically  !
 ! D90   D(14,15,16,38)       -150.4494         calculate D2E/DX2 analytically  !
 ! D91   D(14,15,16,39)         89.0534         calculate D2E/DX2 analytically  !
 ! D92   D(14,15,16,40)        -31.4119         calculate D2E/DX2 analytically  !
 ! D93   D(17,15,16,38)         31.611          calculate D2E/DX2 analytically  !
 ! D94   D(17,15,16,39)        -88.8863         calculate D2E/DX2 analytically  !
 ! D95   D(17,15,16,40)        150.6485         calculate D2E/DX2 analytically  !
 ! D96   D(14,15,17,18)          0.5703         calculate D2E/DX2 analytically  !
 ! D97   D(14,15,17,41)        179.9202         calculate D2E/DX2 analytically  !
 ! D98   D(16,15,17,18)        178.5506         calculate D2E/DX2 analytically  !
 ! D99   D(16,15,17,41)         -2.0995         calculate D2E/DX2 analytically  !
 ! D100  D(15,17,18,12)         -1.8625         calculate D2E/DX2 analytically  !
 ! D101  D(15,17,18,42)        178.1862         calculate D2E/DX2 analytically  !
 ! D102  D(41,17,18,12)        178.7792         calculate D2E/DX2 analytically  !
 ! D103  D(41,17,18,42)         -1.172          calculate D2E/DX2 analytically  !
 ! D104  D(5,19,20,2)           -0.9235         calculate D2E/DX2 analytically  !
 ! D105  D(5,19,20,44)         179.6638         calculate D2E/DX2 analytically  !
 ! D106  D(43,19,20,2)         178.888          calculate D2E/DX2 analytically  !
 ! D107  D(43,19,20,44)         -0.5247         calculate D2E/DX2 analytically  !
 --------------------------------------------------------------------------------
 Trust Radius=3.00D-01 FncErr=1.00D-07 GrdErr=1.00D-06 EigMax=2.50D+02 EigMin=1.00D-04
 Number of steps in this run=    240 maximum allowed number of steps=    264.
 GradGradGradGradGradGradGradGradGradGradGradGradGradGradGradGradGradGrad

                          Input orientation:                          
 ---------------------------------------------------------------------
 Center     Atomic      Atomic             Coordinates (Angstroms)
 Number     Number       Type             X           Y           Z
 ---------------------------------------------------------------------
      1          6           0        8.514791    0.644290   -0.712033
      2          6           0        7.071033    0.441431   -0.363833
      3          6           0        6.709417   -0.237386    0.801041
      4          6           0        5.360454   -0.394167    1.138657
      5          6           0        4.336509    0.102852    0.319970
      6          7           0        3.012031   -0.035093    0.754324
      7          6           0        1.922171    0.164107   -0.193983
      8          6           0        0.590112   -0.122033    0.501771
      9          6           0       -0.590015    0.104204   -0.442382
     10          6           0       -1.922085   -0.181247    0.253593
     11          7           0       -3.012490    0.024828   -0.692426
     12          6           0       -4.336999   -0.112326   -0.257988
     13          6           0       -4.715054   -0.839700    0.874976
     14          6           0       -6.063584   -1.000059    1.219852
     15          6           0       -7.072543   -0.467937    0.413631
     16          6           0       -8.514122   -0.611977    0.798384
     17          6           0       -6.709376    0.237380   -0.734922
     18          6           0       -5.360263    0.393829   -1.072029
     19          6           0        4.713892    0.829133   -0.813856
     20          6           0        6.062240    0.989920   -1.159058
     21          1           0        8.646569    0.737133   -1.795275
     22          1           0        8.892071    1.552242   -0.231767
     23          1           0        9.118709   -0.208463   -0.383848
     24          1           0        7.471769   -0.642244    1.462085
     25          1           0        5.113763   -0.910893    2.062908
     26          1           0        2.902703   -0.874642    1.318478
     27          1           0        1.915912    1.199511   -0.553657
     28          1           0        2.039864   -0.506093   -1.054024
     29          1           0        0.579091   -1.156883    0.866627
     30          1           0        0.488516    0.523998    1.383036
     31          1           0       -0.488786   -0.542004   -1.323569
     32          1           0       -0.578526    1.139034   -0.807392
     33          1           0       -1.918232   -1.218066    0.609121
     34          1           0       -2.037149    0.485907    1.116330
     35          1           0       -2.901414    0.865858   -1.254402
     36          1           0       -3.972118   -1.298295    1.519364
     37          1           0       -6.315978   -1.555061    2.120567
     38          1           0       -9.154936   -0.639061   -0.089378
     39          1           0       -8.818729    0.228705    1.429283
     40          1           0       -8.681061   -1.544791    1.347257
     41          1           0       -7.470680    0.662851   -1.384160
     42          1           0       -5.112916    0.922944   -1.988994
     43          1           0        3.970959    1.290897   -1.455777
     44          1           0        6.314479    1.557367   -2.051922
 ---------------------------------------------------------------------
                    Distance matrix (angstroms):
                    1          2          3          4          5
     1  C    0.000000
     2  C    1.498944   0.000000
     3  C    2.515178   1.395883   0.000000
     4  C    3.801749   2.425239   1.399381   0.000000
     5  C    4.337768   2.838986   2.444971   1.402048   0.000000
     6  N    5.735166   4.237080   3.703210   2.406602   1.400691
     7  C    6.630354   5.159122   4.906016   3.729529   2.469196
     8  C    8.053640   6.562705   6.127705   4.820357   3.757541
     9  C    9.124796   7.668868   7.412455   6.177065   4.985160
    10  C   10.513912   9.035769   8.649028   7.339213   6.265391
    11  N   11.543930  10.097473   9.839445   8.581061   7.418815
    12  C   12.882047  11.421954  11.097769   9.801563   8.695405
    13  C   13.407075  11.920059  11.440577  10.088800   9.117414
    14  C   14.797469  13.308047  12.802602  11.440382  10.497054
    15  C   15.667455  14.194088  13.789331  12.454337  11.423705
    16  C   17.141863  15.663890  15.228147  13.880456  12.879386
    17  C   15.229622  13.786915  13.514755  12.230697  11.096958
    18  C   13.881983  12.451543  12.230453  10.974599   9.800495
    19  C    3.806754   2.430833   2.779834   2.393077   1.398379
    20  C    2.516803   1.396741   2.401480   2.772670   2.439787
    21  H    1.095171   2.149135   3.382766   4.548226   4.842850
    22  H    1.094245   2.137177   3.005569   4.258979   4.812306
    23  H    1.095267   2.148427   2.685048   4.059186   4.843729
    24  H    2.733104   2.160768   1.087230   2.150302   3.418984
    25  H    4.656811   3.398347   2.142903   1.087245   2.160934
    26  H    6.158382   4.683715   3.894214   2.510722   2.002077
    27  H    6.624089   5.214018   5.184358   4.155551   2.797351
    28  H    6.585212   5.165929   5.031718   3.980790   2.744677
    29  H    8.289254   6.798084   6.199248   4.849450   4.000495
    30  H    8.296076   6.810866   6.294286   4.963721   4.014290
    31  H    9.101960   7.683690   7.511384   6.348072   5.138145
    32  H    9.107266   7.694099   7.589184   6.435006   5.148028
    33  H   10.679972   9.192794   8.685327   7.344283   6.399236
    34  H   10.710343   9.227775   8.782083   7.449802   6.434628
    35  H   11.431229  10.021125   9.889897   8.693265   7.446365
    36  H   12.832602  11.336854  10.758100   9.383990   8.510878
    37  H   15.258195  13.761188  13.158204  11.775011  10.930065
    38  H   17.727210  16.264220  15.894398  14.569303  13.518029
    39  H   17.470228  15.992031  15.547837  14.195832  13.202526
    40  H   17.456520  15.968762  15.455564  14.090123  13.161579
    41  H   15.999606  14.579146  14.375698  13.119447  11.942670
    42  H   13.690241  12.301285  12.202386  11.009471   9.761942
    43  H    4.649481   3.394760   3.863681   3.391346   2.167568
    44  H    2.733201   2.160401   3.393598   3.859851   3.413773
                    6          7          8          9         10
     6  N    0.000000
     7  C    1.458343   0.000000
     8  C    2.436603   1.529814   0.000000
     9  C    3.798190   2.525147   1.528171   0.000000
    10  C    4.961613   3.885602   2.525120   1.529796   0.000000
    11  N    6.196090   4.961725   3.798212   2.436639   1.458219
    12  C    7.418826   6.265598   4.985353   3.757762   2.469468
    13  C    7.769801   6.797284   5.366481   4.431968   2.936044
    14  C    9.138636   8.193076   6.749684   5.826009   4.330834
    15  C   10.099607   9.037342   7.670965   6.563785   5.160912
    16  C   11.540665  10.512055   9.122231   8.052570   6.628519
    17  C    9.838591   8.648791   7.412228   6.127798   4.906177
    18  C    8.579909   7.338772   6.176562   4.820332   3.729484
    19  C    2.470305   2.936019   4.431834   5.366091   6.796801
    20  C    3.743722   4.330532   5.825717   6.749119   8.192476
    21  H    6.232560   6.936139   8.421466   9.356570  10.804524
    22  H    6.169836   7.106888   8.500812   9.594328  10.962962
    23  H    6.214258   7.208676   8.574891   9.713933  11.059214
    24  H    4.556184   5.847290   6.967785   8.317243   9.482482
    25  H    2.626155   4.054065   4.850038   6.311892   7.301312
    26  H    1.017381   2.080380   2.565445   4.032102   4.989325
    27  H    2.106309   1.096114   2.148989   2.737106   4.157929
    28  H    2.106436   1.096672   2.160968   2.768182   4.184786
    29  H    2.681459   2.161891   1.097340   2.161170   2.753826
    30  H    2.660073   2.161453   1.097409   2.161390   2.753908
    31  H    4.102477   2.754500   2.161542   1.097416   2.161466
    32  H    4.087743   2.753224   2.160999   1.097378   2.161940
    33  H    5.072279   4.159817   2.739453   2.149005   1.096088
    34  H    5.088881   4.182904   2.765822   2.160897   1.096653
    35  H    6.309955   4.988378   4.031231   2.565552   2.080760
    36  H    7.138579   6.310057   4.820065   4.153802   2.655674
    37  H    9.549277   8.728103   7.236584   6.489109   4.967822
    38  H   12.211131  11.106679   9.776643   8.604356   7.255436
    39  H   11.852934  10.863061   9.460950   8.439808   7.008138
    40  H   11.805048  10.850082   9.417735   8.449084   6.981340
    41  H   10.721356   9.481082   8.315597   6.967251   5.846507
    42  H    8.628928   7.300024   6.310342   4.849637   4.053374
    43  H    2.749971   2.656936   4.154334   4.820548   6.310081
    44  H    4.617045   4.968448   6.489230   7.237011   8.728068
                   11         12         13         14         15
    11  N    0.000000
    12  C    1.400668   0.000000
    13  C    2.470402   1.398430   0.000000
    14  C    3.743846   2.439914   1.401138   0.000000
    15  C    4.236769   2.839143   2.430802   1.396834   0.000000
    16  C    5.735503   4.337503   3.806657   2.516620   1.498977
    17  C    3.703236   2.444982   2.780143   2.401967   1.395900
    18  C    2.406719   1.402115   2.393474   2.773140   2.425228
    19  C    7.769081   9.116685   9.723280  11.119168  11.920954
    20  C    9.137826  10.496239  11.119123  12.516183  13.308690
    21  H   11.732745  13.101827  13.716765  15.116132  15.919232
    22  H   12.010986  13.333408  13.860020  15.241164  16.104862
    23  H   12.137365  13.456640  13.905255  15.287266  16.212956
    24  H   10.724112  11.945144  12.202555  13.542248  14.583094
    25  H    8.631537   9.764280   9.900601  11.209450  12.305380
    26  H    6.312075   7.448466   7.630737   8.967707  10.024455
    27  H    5.068361   6.395876   7.083015   8.464975   9.192843
    28  H    5.093026   6.438409   7.032870   8.430919   9.229920
    29  H    4.089810   5.150126   5.303645   6.653908   7.695931
    30  H    4.100458   5.136483   5.403235   6.728997   7.687216
    31  H    2.662465   4.016071   4.773214   6.144687   6.809494
    32  H    2.679337   3.999232   4.884324   6.226660   6.800405
    33  H    2.106232   2.797315   2.834793   4.195767   5.212277
    34  H    2.106058   2.745166   2.997776   4.293133   5.172890
    35  H    1.017588   2.002645   3.276045   4.427516   4.686113
    36  H    2.750192   2.167635   1.085126   2.133748   3.394816
    37  H    4.617577   3.413996   2.150859   1.087666   2.160523
    38  H    6.207581   4.849578   4.547833   3.376517   2.149108
    39  H    6.185113   4.800947   4.276551   3.023995   2.136826
    40  H    6.225489   4.847643   4.055787   2.676593   2.149094
    41  H    4.556427   3.418936   3.867147   3.395007   2.160844
    42  H    2.626688   2.161068   3.386375   3.859845   3.398130
    43  H    7.138220   8.510340   9.242223  10.634826  11.337862
    44  H    9.549306  10.929778  11.660329  13.056086  13.762019
                   16         17         18         19         20
    16  C    0.000000
    17  C    2.515858   0.000000
    18  C    3.802225   1.399366   0.000000
    19  C   13.403598  11.438857  10.086859   0.000000
    20  C   14.794187  12.800797  11.438377   1.401093   0.000000
    21  H   17.407943  15.400622  14.029693   4.054331   2.673468
    22  H   17.570447  15.664840  14.324000   4.280059   3.030515
    23  H   17.677025  15.838255  14.507824   4.545759   3.373288
    24  H   15.999691  14.377255  13.120831   3.866619   3.394278
    25  H   13.689690  12.203811  11.010692   3.385759   3.859244
    26  H   11.431683   9.891669   8.694834   3.275683   4.426901
    27  H   10.672165   8.680677   7.338975   2.834356   4.195530
    28  H   10.715841   8.786569   7.454667   2.998488   4.292854
    29  H    9.109780   7.591488   6.437314   4.885167   6.227125
    30  H    9.092841   7.508499   6.344486   4.772132   6.143755
    31  H    8.301421   6.296800   4.966925   5.404413   6.729769
    32  H    8.283612   6.197221   4.846686   5.301487   6.651743
    33  H    6.626381   5.184577   4.155965   7.085263   8.466971
    34  H    6.577052   5.031760   3.980009   7.029934   8.428020
    35  H    6.156331   3.894281   2.510380   7.628126   8.965019
    36  H    4.649800   3.864284   3.391983   9.242112  10.634765
    37  H    2.733022   3.394323   3.860600  11.659899  13.055771
    38  H    1.095216   2.676871   4.053642  13.965130  15.341455
    39  H    1.094333   3.022122   4.271395  13.730404  15.123564
    40  H    1.095114   3.376262   4.543005  13.774276  15.168101
    41  H    2.734493   1.087253   2.150270  12.199044  13.538743
    42  H    4.657645   2.142750   1.087183   9.897267  11.206132
    43  H   12.828850  10.756351   9.382094   1.085005   2.133562
    44  H   15.255087  13.156658  11.773428   2.150584   1.087578
                   21         22         23         24         25
    21  H    0.000000
    22  H    1.780234   0.000000
    23  H    1.763291   1.781734   0.000000
    24  H    3.727363   3.114829   2.511582   0.000000
    25  H    5.484733   5.060453   4.745484   2.448133   0.000000
    26  H    6.729433   6.645717   6.479231   4.577225   2.333297
    27  H    6.859822   6.992484   7.341083   6.190543   4.639662
    28  H    6.763403   7.201777   7.116724   5.987899   4.396360
    29  H    8.703863   8.812007   8.682641   6.937466   4.696259
    30  H    8.757906   8.618852   8.839604   7.080409   4.890199
    31  H    9.236526   9.673592   9.659104   8.434474   6.556894
    32  H    9.286540   9.497069   9.799567   8.551651   6.696490
    33  H   11.009948  11.191263  11.127415   9.446229   7.187267
    34  H   11.076209  11.063557  11.277670   9.581847   7.347285
    35  H   11.561359  11.857622  12.099396  10.828508   8.854628
    36  H   13.204585  13.292080  13.273270  11.462820   9.110365
    37  H   15.635402  15.699477  15.694425  13.833612  11.448024
    38  H   17.935930  18.180115  18.281090  16.698933  14.432671
    39  H   17.767749  17.837693  18.034141  16.313796  13.993373
    40  H   17.757518  17.913679  17.933608  16.178433  13.827911
    41  H   16.122663  16.427375  16.642345  15.266996  13.142570
    42  H   13.762104  14.128820  14.366479  13.142833  11.151943
    43  H    4.720513   5.077780   5.467764   4.950416   4.305232
    44  H    2.485417   3.155467   3.710031   4.304167   4.946297
                   26         27         28         29         30
    26  H    0.000000
    27  H    2.963234   0.000000
    28  H    2.551291   1.781802   0.000000
    29  H    2.383905   3.058903   2.499257   0.000000
    30  H    2.790817   2.498911   3.067088   1.760750   0.000000
    31  H    4.311990   3.067281   2.543229   2.513046   3.068745
    32  H    4.548975   2.508040   3.102135   3.068168   2.512932
    33  H    4.884931   4.679466   4.351952   2.511310   3.070207
    34  H    5.127777   4.350262   4.724038   3.099326   2.539994
    35  H    6.583071   4.879447   5.132117   4.550182   4.308663
    36  H    6.890791   6.723493   6.587400   4.599953   4.820435
    37  H    9.278492   9.083125   8.999915   7.019465   7.153152
    38  H   12.141838  11.232079  11.237072   9.794559   9.824301
    39  H   11.773768  10.959335  11.163144   9.516063   9.312043
    40  H   11.603168  11.110378  11.035546   9.280727   9.400123
    41  H   10.829368   9.438530   9.587798   8.554314   8.427660
    42  H    8.855554   7.179214   7.353814   6.699194   6.550251
    43  H    3.677936   2.246194   2.668277   4.784344   4.557894
    44  H    5.377218   4.660499   4.850361   6.984250   6.841683
                   31         32         33         34         35
    31  H    0.000000
    32  H    1.760790   0.000000
    33  H    2.497133   3.058962   0.000000
    34  H    3.067105   2.500972   1.781832   0.000000
    35  H    2.794214   2.381228   2.963462   2.551800   0.000000
    36  H    4.559369   4.782346   2.247982   2.662690   3.677464
    37  H    6.844307   6.982080   4.662425   4.845866   5.376850
    38  H    8.754131   8.788172   7.293355   7.306311   6.536712
    39  H    8.806823   8.586754   7.098074   6.793667   6.528610
    40  H    8.674806   8.803209   6.810833   6.951160   6.781164
    41  H    7.085351   6.932618   6.191986   5.983896   4.575614
    42  H    4.896064   4.690796   4.641135   4.392537   2.331014
    43  H    4.823518   4.597965   6.726163   6.584915   6.888448
    44  H    7.156973   7.016935   9.086348   8.996418   9.276147
                   36         37         38         39         40
    36  H    0.000000
    37  H    2.433322   0.000000
    38  H    5.466649   3.712492   0.000000
    39  H    5.082271   3.150151   1.781119   0.000000
    40  H    4.718530   2.488318   1.763187   1.780722   0.000000
    41  H    4.951412   4.305297   2.491617   3.149790   3.714748
    42  H    4.306263   4.947359   4.731419   5.089168   5.472837
    43  H    8.868362  11.256589  13.337200  13.154008  13.265433
    44  H   11.257130  13.661088  15.747339  15.585189  15.685790
                   41         42         43         44
    41  H    0.000000
    42  H    2.447963   0.000000
    43  H   11.459087   9.106948   0.000000
    44  H   13.830281  11.445165   2.432793   0.000000
 Stoichiometry    C18H24N2
 Framework group  C1[X(C18H24N2)]
 Deg. of freedom   126
 Full point group                 C1      NOp   1
 Largest Abelian subgroup         C1      NOp   1
 Largest concise Abelian subgroup C1      NOp   1
                         Standard orientation:                         
 ---------------------------------------------------------------------
 Center     Atomic      Atomic             Coordinates (Angstroms)
 Number     Number       Type             X           Y           Z
 ---------------------------------------------------------------------
      1          6           0        8.554095    0.542019   -0.100398
      2          6           0        7.092799    0.211336   -0.054609
      3          6           0        6.664307   -1.117153   -0.055983
      4          6           0        5.300425   -1.420661    0.021324
      5          6           0        4.326915   -0.413627    0.083776
      6          7           0        2.985971   -0.793133    0.224412
      7          6           0        1.933797    0.183143   -0.033617
      8          6           0        0.570356   -0.496101    0.107759
      9          6           0       -0.570552    0.494367   -0.121612
     10          6           0       -1.933973   -0.184728    0.020472
     11          7           0       -2.986375    0.792972   -0.230436
     12          6           0       -4.327309    0.413784   -0.089069
     13          6           0       -4.774027   -0.910073   -0.147826
     14          6           0       -6.137861   -1.221672   -0.070053
     15          6           0       -7.094822   -0.208928    0.028534
     16          6           0       -8.551687   -0.542515    0.143406
     17          6           0       -6.663763    1.118352    0.060940
     18          6           0       -5.299762    1.421246   -0.016409
     19          6           0        4.772924    0.910475    0.141179
     20          6           0        6.136609    1.222577    0.063624
     21          1           0        8.719041    1.522434   -0.559723
     22          1           0        8.967691    0.553084    0.912612
     23          1           0        9.101759   -0.193115   -0.699774
     24          1           0        7.385861   -1.928818   -0.107260
     25          1           0        5.001793   -2.465959    0.037841
     26          1           0        2.816246   -1.691343   -0.222214
     27          1           0        1.993492    1.005875    0.688197
     28          1           0        2.037184    0.594546   -1.044927
     29          1           0        0.493308   -1.322204   -0.610413
     30          1           0        0.481162   -0.938649    1.108010
     31          1           0       -0.481736    0.936779   -1.121966
     32          1           0       -0.493034    1.320571    0.596452
     33          1           0       -1.996038   -1.004436   -0.704537
     34          1           0       -2.034972   -0.600105    1.030377
     35          1           0       -2.814880    1.689932    0.218493
     36          1           0       -4.074351   -1.732764   -0.253342
     37          1           0       -6.443660   -2.265085   -0.098220
     38          1           0       -9.169578    0.247392   -0.296770
     39          1           0       -8.826342   -0.661567    1.196002
     40          1           0       -8.783611   -1.470515   -0.389794
     41          1           0       -7.383453    1.929858    0.135922
     42          1           0       -4.999990    2.466281   -0.018585
     43          1           0        4.073360    1.732582    0.250668
     44          1           0        6.442728    2.265304    0.106486
 ---------------------------------------------------------------------
 Rotational constants (GHZ):           2.1139621           0.0651518           0.0634109
 Standard basis: 6-31G(d,p) (6D, 7F)
 There are   420 symmetry adapted cartesian basis functions of A   symmetry.
 There are   420 symmetry adapted basis functions of A   symmetry.
   420 basis functions,   728 primitive gaussians,   420 cartesian basis functions
    73 alpha electrons       73 beta electrons
       nuclear repulsion energy      1323.0584013683 Hartrees.
 NAtoms=   44 NActive=   44 NUniq=   44 SFac= 1.00D+00 NAtFMM=   60 NAOKFM=F Big=F
 Integral buffers will be    131072 words long.
 Raffenetti 2 integral format.
 Two-electron integral symmetry is turned on.
 Force inversion solution in PCM.
 ------------------------------------------------------------------------------
 Polarizable Continuum Model (PCM)
 =================================
 Model                : PCM.
 Atomic radii         : UFF (Universal Force Field).
 Polarization charges : Total charges.
 Charge compensation  : None.
 Solution method      : Matrix inversion.
 Cavity type          : Scaled VdW (van der Waals Surface) (Alpha=1.100).
 Cavity algorithm     : GePol (No added spheres)
                        Default sphere list used, NSphG=   44.
                        Lebedev-Laikov grids with approx.  5.0 points / Ang**2.
                        Smoothing algorithm: York/Karplus (Gamma=1.0000).
                        Polarization charges: spherical gaussians, with
                                              point-specific exponents (IZeta= 3).
                        Self-potential: point-specific (ISelfS= 7).
                        Self-field    : sphere-specific E.n sum rule (ISelfD= 2).
 1st derivatives      : Analytical E(r).r(x)/FMM algorithm (CHGder, D1EAlg=3).
                        Cavity 1st derivative terms included.
 2nd derivatives      : Analytical E(r).r(xy)/FMM algorithm (CHGder, D2EAlg=3).
                        Cavity 2nd derivative terms included.
 Solvent              : Water, Eps=  78.355300 Eps(inf)=   1.777849
 ------------------------------------------------------------------------------
 One-electron integrals computed using PRISM.
 NBasis=   420 RedAO= T EigKep=  4.18D-04  NBF=   420
 NBsUse=   420 1.00D-06 EigRej= -1.00D+00 NBFU=   420
 ExpMin= 1.61D-01 ExpMax= 4.17D+03 ExpMxC= 6.27D+02 IAcc=3 IRadAn=         5 AccDes= 0.00D+00
 Harris functional with IExCor=  402 and IRadAn=       5 diagonalized for initial guess.
 HarFok:  IExCor=  402 AccDes= 0.00D+00 IRadAn=         5 IDoV= 1 UseB2=F ITyADJ=14
 ICtDFT=  3500011 ScaDFX=  1.000000  1.000000  1.000000  1.000000
 FoFCou: FMM=F IPFlag=           0 FMFlag=      100000 FMFlg1=           0
         NFxFlg=           0 DoJE=T BraDBF=F KetDBF=T FulRan=T
         wScrn=  0.000000 ICntrl=       500 IOpCl=  0 I1Cent=   200000004 NGrid=           0
         NMat0=    1 NMatS0=      1 NMatT0=    0 NMatD0=    1 NMtDS0=    0 NMtDT0=    0
 Petite list used in FoFCou.
 Requested convergence on RMS density matrix=1.00D-08 within  32 cycles.
 Requested convergence on MAX density matrix=1.00D-06.
 Requested convergence on             energy=1.00D-06.
 No special actions if energy rises.
 Inv3:  Mode=1 IEnd=    29975763.
 Iteration    1 A*A^-1 deviation from unit magnitude is 3.33D-15 for   2478.
 Iteration    1 A*A^-1 deviation from orthogonality  is 1.67D-15 for   1919   1284.
 Iteration    1 A^-1*A deviation from unit magnitude is 3.11D-15 for   1628.
 Iteration    1 A^-1*A deviation from orthogonality  is 1.83D-15 for   2488   2326.
 Error on total polarization charges =  0.01420
 SCF Done:  E(RB3LYP) =  -809.926977334     A.U. after   12 cycles
            NFock= 12  Conv=0.30D-08     -V/T= 2.0097
 QCSCF skips out because SCF is already converged.
 DoSCS=F DFT=T ScalE2(SS,OS)=  1.000000  1.000000
 Range of M.O.s used for correlation:     1   420
 NBasis=   420 NAE=    73 NBE=    73 NFC=     0 NFV=     0
 NROrb=    420 NOA=    73 NOB=    73 NVA=   347 NVB=   347
 Symmetrizing basis deriv contribution to polar:
 IMax=3 JMax=2 DiffMx= 0.00D+00
 G2DrvN: will do    45 centers at a time, making    1 passes.
 Calling FoFCou, ICntrl=  3107 FMM=F I1Cent=   0 AccDes= 0.00D+00.
 NEqPCM:  Using equilibrium solvation (IEInf=0, Eps=  78.3553, EpsInf=   1.7778)
 G2PCM: DoFxE=T DoFxN=T DoGrad=T DoDP/DQ/DG/TGxP=FFFF NFrqRd=   0 IEInf=0 SqF1=F DoCFld=F IF1Alg=4.
 End of G2Drv F.D. properties file   721 does not exist.
 End of G2Drv F.D. properties file   722 does not exist.
 End of G2Drv F.D. properties file   788 does not exist.
          IDoAtm=11111111111111111111111111111111111111111111
 NEqPCM:  Using equilibrium solvation (IEInf=0, Eps=  78.3553, EpsInf=   1.7778)
          Differentiating once with respect to nuclear coordinates.
 CalDSu exits because no D1Ps are significant.
          There are   135 degrees of freedom in the 1st order CPHF.  IDoFFX=6 NUNeed=     0.
    129 vectors produced by pass  0 Test12= 2.53D-14 1.00D-09 XBig12= 1.52D-01 1.54D-01.
 AX will form   129 AO Fock derivatives at one time.
    129 vectors produced by pass  1 Test12= 2.53D-14 1.00D-09 XBig12= 2.62D-02 5.18D-02.
    129 vectors produced by pass  2 Test12= 2.53D-14 1.00D-09 XBig12= 2.29D-04 1.97D-03.
    129 vectors produced by pass  3 Test12= 2.53D-14 1.00D-09 XBig12= 5.48D-07 8.71D-05.
    129 vectors produced by pass  4 Test12= 2.53D-14 1.00D-09 XBig12= 5.86D-10 1.96D-06.
     69 vectors produced by pass  5 Test12= 2.53D-14 1.00D-09 XBig12= 4.86D-13 5.37D-08.
      6 vectors produced by pass  6 Test12= 2.53D-14 1.00D-09 XBig12= 4.40D-16 1.79D-09.
 InvSVY:  IOpt=1 It=  1 EMax= 4.44D-16
 Solved reduced A of dimension   720 with   135 vectors.
 End of Minotr F.D. properties file   721 does not exist.
 End of Minotr F.D. properties file   722 does not exist.
 End of Minotr F.D. properties file   788 does not exist.

 **********************************************************************

            Population analysis using the SCF density.

 **********************************************************************

 Orbital symmetries:
       Occupied  (A) (A) (A) (A) (A) (A) (A) (A) (A) (A) (A) (A)
                 (A) (A) (A) (A) (A) (A) (A) (A) (A) (A) (A) (A)
                 (A) (A) (A) (A) (A) (A) (A) (A) (A) (A) (A) (A)
                 (A) (A) (A) (A) (A) (A) (A) (A) (A) (A) (A) (A)
                 (A) (A) (A) (A) (A) (A) (A) (A) (A) (A) (A) (A)
                 (A) (A) (A) (A) (A) (A) (A) (A) (A) (A) (A) (A)
                 (A)
       Virtual   (A) (A) (A) (A) (A) (A) (A) (A) (A) (A) (A) (A)
                 (A) (A) (A) (A) (A) (A) (A) (A) (A) (A) (A) (A)
                 (A) (A) (A) (A) (A) (A) (A) (A) (A) (A) (A) (A)
                 (A) (A) (A) (A) (A) (A) (A) (A) (A) (A) (A) (A)
                 (A) (A) (A) (A) (A) (A) (A) (A) (A) (A) (A) (A)
                 (A) (A) (A) (A) (A) (A) (A) (A) (A) (A) (A) (A)
                 (A) (A) (A) (A) (A) (A) (A) (A) (A) (A) (A) (A)
                 (A) (A) (A) (A) (A) (A) (A) (A) (A) (A) (A) (A)
                 (A) (A) (A) (A) (A) (A) (A) (A) (A) (A) (A) (A)
                 (A) (A) (A) (A) (A) (A) (A) (A) (A) (A) (A) (A)
                 (A) (A) (A) (A) (A) (A) (A) (A) (A) (A) (A) (A)
                 (A) (A) (A) (A) (A) (A) (A) (A) (A) (A) (A) (A)
                 (A) (A) (A) (A) (A) (A) (A) (A) (A) (A) (A) (A)
                 (A) (A) (A) (A) (A) (A) (A) (A) (A) (A) (A) (A)
                 (A) (A) (A) (A) (A) (A) (A) (A) (A) (A) (A) (A)
                 (A) (A) (A) (A) (A) (A) (A) (A) (A) (A) (A) (A)
                 (A) (A) (A) (A) (A) (A) (A) (A) (A) (A) (A) (A)
                 (A) (A) (A) (A) (A) (A) (A) (A) (A) (A) (A) (A)
                 (A) (A) (A) (A) (A) (A) (A) (A) (A) (A) (A) (A)
                 (A) (A) (A) (A) (A) (A) (A) (A) (A) (A) (A) (A)
                 (A) (A) (A) (A) (A) (A) (A) (A) (A) (A) (A) (A)
                 (A) (A) (A) (A) (A) (A) (A) (A) (A) (A) (A) (A)
                 (A) (A) (A) (A) (A) (A) (A) (A) (A) (A) (A) (A)
                 (A) (A) (A) (A) (A) (A) (A) (A) (A) (A) (A) (A)
                 (A) (A) (A) (A) (A) (A) (A) (A) (A) (A) (A) (A)
                 (A) (A) (A) (A) (A) (A) (A) (A) (A) (A) (A) (A)
                 (A) (A) (A) (A) (A) (A) (A) (A) (A) (A) (A) (A)
                 (A) (A) (A) (A) (A) (A) (A) (A) (A) (A) (A) (A)
                 (A) (A) (A) (A) (A) (A) (A) (A) (A) (A) (A)
 The electronic state is 1-A.
 Alpha  occ. eigenvalues --  -14.33604 -14.33602 -10.21930 -10.21923 -10.21198
 Alpha  occ. eigenvalues --  -10.21197 -10.18452 -10.18431 -10.18201 -10.18195
 Alpha  occ. eigenvalues --  -10.18168 -10.18161 -10.18124 -10.18117 -10.17898
 Alpha  occ. eigenvalues --  -10.17897 -10.17849 -10.17839 -10.17459 -10.17457
 Alpha  occ. eigenvalues --   -0.92760  -0.92634  -0.84212  -0.84032  -0.79592
 Alpha  occ. eigenvalues --   -0.76359  -0.74884  -0.73752  -0.73681  -0.70957
 Alpha  occ. eigenvalues --   -0.67220  -0.65696  -0.63323  -0.61147  -0.59364
 Alpha  occ. eigenvalues --   -0.58352  -0.57036  -0.56979  -0.51879  -0.51117
 Alpha  occ. eigenvalues --   -0.49017  -0.47953  -0.47668  -0.45323  -0.45213
 Alpha  occ. eigenvalues --   -0.45003  -0.43144  -0.43018  -0.41983  -0.41661
 Alpha  occ. eigenvalues --   -0.41575  -0.41522  -0.41010  -0.40956  -0.39891
 Alpha  occ. eigenvalues --   -0.37500  -0.37345  -0.36753  -0.36455  -0.35646
 Alpha  occ. eigenvalues --   -0.35119  -0.34164  -0.34157  -0.33287  -0.33156
 Alpha  occ. eigenvalues --   -0.33000  -0.32686  -0.28312  -0.28220  -0.24463
 Alpha  occ. eigenvalues --   -0.24457  -0.19327  -0.19312
 Alpha virt. eigenvalues --    0.00081   0.00086   0.02040   0.02081   0.09157
 Alpha virt. eigenvalues --    0.09423   0.10361   0.10565   0.10594   0.11511
 Alpha virt. eigenvalues --    0.12775   0.12849   0.13534   0.14061   0.14782
 Alpha virt. eigenvalues --    0.15103   0.15301   0.16374   0.17036   0.17944
 Alpha virt. eigenvalues --    0.18026   0.18300   0.18443   0.19262   0.19947
 Alpha virt. eigenvalues --    0.20216   0.20636   0.21053   0.21183   0.21259
 Alpha virt. eigenvalues --    0.22613   0.23369   0.23426   0.24459   0.24679
 Alpha virt. eigenvalues --    0.27032   0.28657   0.30132   0.30192   0.33328
 Alpha virt. eigenvalues --    0.34079   0.34223   0.34484   0.35293   0.36776
 Alpha virt. eigenvalues --    0.37197   0.38726   0.47256   0.48042   0.50233
 Alpha virt. eigenvalues --    0.51080   0.51327   0.51804   0.52306   0.52477
 Alpha virt. eigenvalues --    0.53988   0.54509   0.54759   0.55545   0.55828
 Alpha virt. eigenvalues --    0.55868   0.56359   0.58188   0.58367   0.58465
 Alpha virt. eigenvalues --    0.58751   0.59478   0.60164   0.60305   0.60394
 Alpha virt. eigenvalues --    0.61879   0.62272   0.62415   0.62838   0.63226
 Alpha virt. eigenvalues --    0.63801   0.64960   0.65476   0.65865   0.66049
 Alpha virt. eigenvalues --    0.69274   0.69894   0.70185   0.70255   0.71280
 Alpha virt. eigenvalues --    0.71829   0.72790   0.73054   0.75180   0.75589
 Alpha virt. eigenvalues --    0.77019   0.77445   0.78595   0.79991   0.80275
 Alpha virt. eigenvalues --    0.81587   0.82106   0.82534   0.83028   0.84100
 Alpha virt. eigenvalues --    0.84859   0.85231   0.85631   0.86208   0.86565
 Alpha virt. eigenvalues --    0.86880   0.87645   0.88734   0.89117   0.89359
 Alpha virt. eigenvalues --    0.89634   0.90306   0.90597   0.91234   0.93137
 Alpha virt. eigenvalues --    0.93350   0.93983   0.94227   0.94555   0.95522
 Alpha virt. eigenvalues --    0.95871   0.96228   0.97345   0.99371   1.00455
 Alpha virt. eigenvalues --    1.01173   1.02346   1.04320   1.07229   1.08647
 Alpha virt. eigenvalues --    1.09368   1.12451   1.14040   1.15456   1.17204
 Alpha virt. eigenvalues --    1.17615   1.18287   1.19150   1.19471   1.19745
 Alpha virt. eigenvalues --    1.22862   1.26104   1.26804   1.27502   1.27615
 Alpha virt. eigenvalues --    1.29728   1.31667   1.32183   1.34549   1.38927
 Alpha virt. eigenvalues --    1.39640   1.40066   1.41148   1.41504   1.41992
 Alpha virt. eigenvalues --    1.42254   1.42768   1.44349   1.46575   1.46887
 Alpha virt. eigenvalues --    1.47284   1.48060   1.53319   1.56674   1.59495
 Alpha virt. eigenvalues --    1.63835   1.66124   1.69019   1.69171   1.73130
 Alpha virt. eigenvalues --    1.73435   1.74377   1.74662   1.76382   1.76409
 Alpha virt. eigenvalues --    1.77125   1.78342   1.78928   1.79172   1.82213
 Alpha virt. eigenvalues --    1.82372   1.83938   1.84891   1.85291   1.85343
 Alpha virt. eigenvalues --    1.86026   1.87218   1.87547   1.89510   1.91600
 Alpha virt. eigenvalues --    1.92039   1.92218   1.93496   1.93777   1.96403
 Alpha virt. eigenvalues --    1.96557   1.96849   1.97794   1.99124   2.00301
 Alpha virt. eigenvalues --    2.01552   2.02312   2.02655   2.03266   2.04100
 Alpha virt. eigenvalues --    2.05299   2.05309   2.06523   2.06880   2.07369
 Alpha virt. eigenvalues --    2.07841   2.09604   2.10106   2.10634   2.11019
 Alpha virt. eigenvalues --    2.12296   2.14273   2.15048   2.15551   2.16453
 Alpha virt. eigenvalues --    2.21448   2.21491   2.21597   2.23323   2.24122
 Alpha virt. eigenvalues --    2.25387   2.27025   2.29493   2.30181   2.30628
 Alpha virt. eigenvalues --    2.31140   2.32380   2.32693   2.33431   2.34080
 Alpha virt. eigenvalues --    2.37930   2.39172   2.39812   2.40372   2.41377
 Alpha virt. eigenvalues --    2.41984   2.42141   2.42622   2.43363   2.43591
 Alpha virt. eigenvalues --    2.44495   2.45559   2.48127   2.49182   2.49443
 Alpha virt. eigenvalues --    2.49684   2.51754   2.52556   2.53316   2.54772
 Alpha virt. eigenvalues --    2.55598   2.57601   2.57785   2.59372   2.59835
 Alpha virt. eigenvalues --    2.59924   2.61554   2.61707   2.63676   2.64833
 Alpha virt. eigenvalues --    2.66329   2.66543   2.69482   2.69936   2.70589
 Alpha virt. eigenvalues --    2.70809   2.72925   2.73173   2.74673   2.75382
 Alpha virt. eigenvalues --    2.76716   2.79579   2.79743   2.80153   2.80799
 Alpha virt. eigenvalues --    2.83564   2.83694   2.85196   2.86431   2.87069
 Alpha virt. eigenvalues --    2.88138   2.89446   2.89868   2.90615   2.91215
 Alpha virt. eigenvalues --    2.91643   2.92769   2.96146   2.99229   3.01832
 Alpha virt. eigenvalues --    3.06583   3.07393   3.08811   3.09964   3.19409
 Alpha virt. eigenvalues --    3.19466   3.20261   3.20304   3.24575   3.25818
 Alpha virt. eigenvalues --    3.25857   3.27087   3.28838   3.31771   3.31799
 Alpha virt. eigenvalues --    3.34109   3.36891   3.37207   3.39127   3.42705
 Alpha virt. eigenvalues --    3.43866   3.44140   3.45474   3.47293   3.48378
 Alpha virt. eigenvalues --    3.50887   3.51510   3.53572   3.56849   3.57803
 Alpha virt. eigenvalues --    3.83447   3.83540   4.13974   4.14057   4.15544
 Alpha virt. eigenvalues --    4.16336   4.16349   4.16404   4.20698   4.23160
 Alpha virt. eigenvalues --    4.32236   4.38462   4.38895   4.44096   4.44239
 Alpha virt. eigenvalues --    4.45181   4.53532   4.55116   4.59645   4.74381
 Alpha virt. eigenvalues --    4.84693   4.85394
          Condensed to atoms (all electrons):
               1          2          3          4          5          6
     1  C    5.034505   0.356617  -0.065320   0.007429   0.000413   0.000001
     2  C    0.356617   4.707936   0.548485  -0.033808  -0.029419   0.000422
     3  C   -0.065320   0.548485   4.901150   0.506032  -0.021867   0.004827
     4  C    0.007429  -0.033808   0.506032   5.002485   0.518053  -0.065752
     5  C    0.000413  -0.029419  -0.021867   0.518053   4.584503   0.281277
     6  N    0.000001   0.000422   0.004827  -0.065752   0.281277   6.989955
     7  C   -0.000000   0.000005  -0.000149   0.004412  -0.034032   0.277981
     8  C   -0.000000   0.000000   0.000003  -0.000214   0.003739  -0.041266
     9  C   -0.000000  -0.000000  -0.000000   0.000003  -0.000110   0.003031
    10  C    0.000000   0.000000   0.000000  -0.000000   0.000001  -0.000073
    11  N    0.000000  -0.000000  -0.000000   0.000000  -0.000000   0.000000
    12  C    0.000000   0.000000   0.000000  -0.000000   0.000000  -0.000000
    13  C    0.000000   0.000000   0.000000   0.000000   0.000000   0.000000
    14  C    0.000000   0.000000   0.000000  -0.000000   0.000000  -0.000000
    15  C    0.000000   0.000000   0.000000   0.000000   0.000000  -0.000000
    16  C    0.000000   0.000000   0.000000   0.000000   0.000000  -0.000000
    17  C    0.000000   0.000000   0.000000  -0.000000   0.000000  -0.000000
    18  C    0.000000   0.000000  -0.000000   0.000000  -0.000000   0.000000
    19  C    0.007569  -0.033970  -0.050363  -0.048236   0.533015  -0.070091
    20  C   -0.063045   0.555974  -0.025554  -0.049924  -0.023276   0.004977
    21  H    0.374360  -0.029108   0.003181  -0.000225   0.000005  -0.000000
    22  H    0.374036  -0.030587  -0.001780  -0.000184   0.000068   0.000000
    23  H    0.374236  -0.029209  -0.004083   0.000173   0.000001  -0.000000
    24  H   -0.009320  -0.045168   0.368691  -0.039575   0.003891  -0.000109
    25  H   -0.000197   0.004115  -0.033832   0.361861  -0.046324  -0.008123
    26  H   -0.000000  -0.000007  -0.000018  -0.011662  -0.027862   0.344162
    27  H    0.000000  -0.000005   0.000003  -0.000234  -0.007991  -0.039034
    28  H    0.000000  -0.000010  -0.000002   0.000757   0.002454  -0.057407
    29  H    0.000000  -0.000000  -0.000000  -0.000032  -0.000089  -0.003932
    30  H    0.000000   0.000000  -0.000000   0.000003   0.000418   0.003655
    31  H    0.000000   0.000000  -0.000000  -0.000000   0.000004   0.000042
    32  H    0.000000  -0.000000  -0.000000  -0.000000   0.000000   0.000039
    33  H    0.000000   0.000000  -0.000000   0.000000   0.000000   0.000000
    34  H   -0.000000  -0.000000  -0.000000  -0.000000  -0.000000   0.000001
    35  H   -0.000000   0.000000  -0.000000   0.000000   0.000000   0.000000
    36  H    0.000000  -0.000000  -0.000000   0.000000  -0.000000   0.000000
    37  H    0.000000   0.000000   0.000000   0.000000   0.000000   0.000000
    38  H    0.000000   0.000000   0.000000   0.000000   0.000000   0.000000
    39  H    0.000000   0.000000   0.000000   0.000000   0.000000   0.000000
    40  H    0.000000   0.000000   0.000000   0.000000   0.000000   0.000000
    41  H    0.000000   0.000000   0.000000   0.000000  -0.000000   0.000000
    42  H    0.000000  -0.000000  -0.000000   0.000000  -0.000000   0.000000
    43  H   -0.000201   0.004056   0.000786   0.005175  -0.043371  -0.009092
    44  H   -0.009455  -0.044330   0.005691   0.000601   0.003842  -0.000107
               7          8          9         10         11         12
     1  C   -0.000000  -0.000000  -0.000000   0.000000   0.000000   0.000000
     2  C    0.000005   0.000000  -0.000000   0.000000  -0.000000   0.000000
     3  C   -0.000149   0.000003  -0.000000   0.000000  -0.000000   0.000000
     4  C    0.004412  -0.000214   0.000003  -0.000000   0.000000  -0.000000
     5  C   -0.034032   0.003739  -0.000110   0.000001  -0.000000   0.000000
     6  N    0.277981  -0.041266   0.003031  -0.000073   0.000000  -0.000000
     7  C    4.797312   0.366590  -0.035903   0.003245  -0.000073   0.000001
     8  C    0.366590   4.950428   0.354295  -0.035906   0.003030  -0.000111
     9  C   -0.035903   0.354295   4.950269   0.366708  -0.041188   0.003723
    10  C    0.003245  -0.035906   0.366708   4.797119   0.277808  -0.033966
    11  N   -0.000073   0.003030  -0.041188   0.277808   6.990829   0.280955
    12  C    0.000001  -0.000111   0.003723  -0.033966   0.280955   4.583800
    13  C    0.000000   0.000003   0.000386  -0.006685  -0.069864   0.532598
    14  C   -0.000000  -0.000000  -0.000005   0.000004   0.004944  -0.023138
    15  C    0.000000  -0.000000  -0.000000   0.000005   0.000441  -0.029767
    16  C    0.000000  -0.000000  -0.000000  -0.000000   0.000001   0.000422
    17  C    0.000000  -0.000000   0.000003  -0.000155   0.004814  -0.021800
    18  C   -0.000000   0.000003  -0.000213   0.004475  -0.065734   0.518478
    19  C   -0.006603   0.000391   0.000003   0.000000   0.000000   0.000000
    20  C    0.000014  -0.000005  -0.000000  -0.000000  -0.000000   0.000000
    21  H    0.000000   0.000000   0.000000   0.000000   0.000000   0.000000
    22  H   -0.000000  -0.000000  -0.000000  -0.000000   0.000000   0.000000
    23  H   -0.000000   0.000000   0.000000   0.000000   0.000000   0.000000
    24  H    0.000002  -0.000000   0.000000  -0.000000   0.000000  -0.000000
    25  H    0.000065  -0.000020   0.000000   0.000000   0.000000  -0.000000
    26  H   -0.040429  -0.004543  -0.000072  -0.000002   0.000000   0.000000
    27  H    0.385205  -0.031072  -0.005039  -0.000020   0.000000   0.000000
    28  H    0.379082  -0.040606  -0.000653   0.000008   0.000001  -0.000000
    29  H   -0.035904   0.384437  -0.036307  -0.004670   0.000039   0.000000
    30  H   -0.037488   0.379298  -0.035057  -0.003833   0.000042   0.000004
    31  H   -0.003795  -0.035031   0.379255  -0.037392   0.003633   0.000412
    32  H   -0.004709  -0.036370   0.384520  -0.035970  -0.003975  -0.000082
    33  H   -0.000023  -0.005030  -0.030892   0.385071  -0.039039  -0.008031
    34  H    0.000011  -0.000638  -0.040851   0.379238  -0.057463   0.002507
    35  H   -0.000002  -0.000074  -0.004546  -0.040481   0.344030  -0.027816
    36  H   -0.000000   0.000008  -0.000079   0.004728  -0.009111  -0.043123
    37  H   -0.000000   0.000000  -0.000000   0.000002  -0.000107   0.003839
    38  H   -0.000000  -0.000000   0.000000   0.000000  -0.000000   0.000025
    39  H    0.000000   0.000000   0.000000  -0.000000  -0.000000   0.000013
    40  H   -0.000000  -0.000000  -0.000000   0.000000   0.000000   0.000026
    41  H   -0.000000   0.000000  -0.000000   0.000002  -0.000108   0.003881
    42  H    0.000000   0.000000  -0.000020   0.000069  -0.008211  -0.046106
    43  H    0.004694  -0.000076   0.000008  -0.000000   0.000000  -0.000000
    44  H    0.000002  -0.000000   0.000000  -0.000000   0.000000   0.000000
              13         14         15         16         17         18
     1  C    0.000000   0.000000   0.000000   0.000000   0.000000   0.000000
     2  C    0.000000   0.000000   0.000000   0.000000   0.000000   0.000000
     3  C    0.000000   0.000000   0.000000   0.000000   0.000000  -0.000000
     4  C    0.000000  -0.000000   0.000000   0.000000  -0.000000   0.000000
     5  C    0.000000   0.000000   0.000000   0.000000   0.000000  -0.000000
     6  N    0.000000  -0.000000  -0.000000  -0.000000  -0.000000   0.000000
     7  C    0.000000  -0.000000   0.000000   0.000000   0.000000  -0.000000
     8  C    0.000003  -0.000000  -0.000000  -0.000000  -0.000000   0.000003
     9  C    0.000386  -0.000005  -0.000000  -0.000000   0.000003  -0.000213
    10  C   -0.006685   0.000004   0.000005  -0.000000  -0.000155   0.004475
    11  N   -0.069864   0.004944   0.000441   0.000001   0.004814  -0.065734
    12  C    0.532598  -0.023138  -0.029767   0.000422  -0.021800   0.518478
    13  C    4.975041   0.496321  -0.033583   0.007511  -0.050261  -0.048758
    14  C    0.496321   4.914909   0.555137  -0.063568  -0.025430  -0.049881
    15  C   -0.033583   0.555137   4.706958   0.356936   0.548791  -0.033790
    16  C    0.007511  -0.063568   0.356936   5.034178  -0.064396   0.007516
    17  C   -0.050261  -0.025430   0.548791  -0.064396   4.901385   0.505210
    18  C   -0.048758  -0.049881  -0.033790   0.007516   0.505210   5.003526
    19  C    0.000000  -0.000000   0.000000   0.000000   0.000000   0.000000
    20  C   -0.000000   0.000000   0.000000   0.000000   0.000000  -0.000000
    21  H    0.000000   0.000000   0.000000   0.000000   0.000000   0.000000
    22  H    0.000000   0.000000   0.000000   0.000000   0.000000   0.000000
    23  H    0.000000   0.000000   0.000000   0.000000   0.000000   0.000000
    24  H   -0.000000   0.000000   0.000000   0.000000   0.000000   0.000000
    25  H    0.000000   0.000000  -0.000000   0.000000  -0.000000   0.000000
    26  H   -0.000000  -0.000000   0.000000  -0.000000  -0.000000   0.000000
    27  H   -0.000000  -0.000000   0.000000   0.000000   0.000000   0.000000
    28  H    0.000000   0.000000  -0.000000   0.000000  -0.000000  -0.000000
    29  H   -0.000002   0.000000  -0.000000   0.000000  -0.000000  -0.000000
    30  H   -0.000001  -0.000000   0.000000   0.000000  -0.000000  -0.000000
    31  H   -0.000035  -0.000000   0.000000   0.000000  -0.000000   0.000003
    32  H    0.000019   0.000000  -0.000000   0.000000  -0.000000  -0.000032
    33  H    0.004201   0.000262  -0.000003   0.000000   0.000002  -0.000227
    34  H    0.002718  -0.000200  -0.000013  -0.000000   0.000001   0.000737
    35  H    0.006557  -0.000095  -0.000004  -0.000000  -0.000045  -0.011649
    36  H    0.362531  -0.035153   0.004002  -0.000200   0.000779   0.005187
    37  H   -0.039475   0.367999  -0.044242  -0.009503   0.005710   0.000596
    38  H   -0.000254   0.003145  -0.029290   0.373836  -0.003849   0.000123
    39  H   -0.000067  -0.002145  -0.030927   0.374660  -0.002164  -0.000116
    40  H    0.000065  -0.004163  -0.028944   0.373921   0.003242  -0.000249
    41  H    0.000498   0.005782  -0.044491  -0.009554   0.368269  -0.039727
    42  H    0.005345   0.000737   0.004088  -0.000197  -0.033812   0.361757
    43  H    0.000000  -0.000000  -0.000000   0.000000  -0.000000   0.000000
    44  H   -0.000000   0.000000   0.000000   0.000000   0.000000   0.000000
              19         20         21         22         23         24
     1  C    0.007569  -0.063045   0.374360   0.374036   0.374236  -0.009320
     2  C   -0.033970   0.555974  -0.029108  -0.030587  -0.029209  -0.045168
     3  C   -0.050363  -0.025554   0.003181  -0.001780  -0.004083   0.368691
     4  C   -0.048236  -0.049924  -0.000225  -0.000184   0.000173  -0.039575
     5  C    0.533015  -0.023276   0.000005   0.000068   0.000001   0.003891
     6  N   -0.070091   0.004977  -0.000000   0.000000  -0.000000  -0.000109
     7  C   -0.006603   0.000014   0.000000  -0.000000  -0.000000   0.000002
     8  C    0.000391  -0.000005   0.000000  -0.000000   0.000000  -0.000000
     9  C    0.000003  -0.000000   0.000000  -0.000000   0.000000   0.000000
    10  C    0.000000  -0.000000   0.000000  -0.000000   0.000000  -0.000000
    11  N    0.000000  -0.000000   0.000000   0.000000   0.000000   0.000000
    12  C    0.000000   0.000000   0.000000   0.000000   0.000000  -0.000000
    13  C    0.000000  -0.000000   0.000000   0.000000   0.000000  -0.000000
    14  C   -0.000000   0.000000   0.000000   0.000000   0.000000   0.000000
    15  C    0.000000   0.000000   0.000000   0.000000   0.000000   0.000000
    16  C    0.000000   0.000000   0.000000   0.000000   0.000000   0.000000
    17  C    0.000000   0.000000   0.000000   0.000000   0.000000   0.000000
    18  C    0.000000  -0.000000   0.000000   0.000000   0.000000   0.000000
    19  C    4.974740   0.495910   0.000210  -0.000252  -0.000210   0.000505
    20  C    0.495910   4.914229  -0.004040  -0.002085   0.003046   0.005730
    21  H    0.000210  -0.004040   0.596741  -0.029874  -0.029290   0.000046
    22  H   -0.000252  -0.002085  -0.029874   0.595031  -0.030290   0.000732
    23  H   -0.000210   0.003046  -0.029290  -0.030290   0.597631   0.004451
    24  H    0.000505   0.005730   0.000046   0.000732   0.004451   0.627849
    25  H    0.005333   0.000739   0.000003   0.000001  -0.000004  -0.006255
    26  H    0.006487  -0.000085  -0.000000   0.000000  -0.000000  -0.000010
    27  H    0.004143   0.000280  -0.000000   0.000000  -0.000000   0.000000
    28  H    0.002781  -0.000223   0.000000  -0.000000   0.000000  -0.000000
    29  H    0.000019   0.000000  -0.000000   0.000000  -0.000000  -0.000000
    30  H   -0.000035  -0.000000   0.000000  -0.000000   0.000000  -0.000000
    31  H   -0.000001  -0.000000  -0.000000   0.000000  -0.000000   0.000000
    32  H   -0.000002   0.000000   0.000000  -0.000000  -0.000000  -0.000000
    33  H   -0.000000  -0.000000   0.000000  -0.000000   0.000000  -0.000000
    34  H    0.000000   0.000000  -0.000000   0.000000  -0.000000   0.000000
    35  H   -0.000000  -0.000000   0.000000  -0.000000   0.000000   0.000000
    36  H    0.000000  -0.000000   0.000000   0.000000   0.000000   0.000000
    37  H   -0.000000   0.000000   0.000000   0.000000   0.000000   0.000000
    38  H    0.000000   0.000000   0.000000   0.000000   0.000000   0.000000
    39  H    0.000000   0.000000   0.000000   0.000000   0.000000   0.000000
    40  H    0.000000   0.000000   0.000000   0.000000   0.000000   0.000000
    41  H   -0.000000   0.000000   0.000000   0.000000   0.000000   0.000000
    42  H    0.000000   0.000000   0.000000   0.000000   0.000000   0.000000
    43  H    0.362612  -0.035147  -0.000005   0.000002   0.000003   0.000018
    44  H   -0.039520   0.368107   0.004758   0.000612   0.000055  -0.000183
              25         26         27         28         29         30
     1  C   -0.000197  -0.000000   0.000000   0.000000   0.000000   0.000000
     2  C    0.004115  -0.000007  -0.000005  -0.000010  -0.000000   0.000000
     3  C   -0.033832  -0.000018   0.000003  -0.000002  -0.000000  -0.000000
     4  C    0.361861  -0.011662  -0.000234   0.000757  -0.000032   0.000003
     5  C   -0.046324  -0.027862  -0.007991   0.002454  -0.000089   0.000418
     6  N   -0.008123   0.344162  -0.039034  -0.057407  -0.003932   0.003655
     7  C    0.000065  -0.040429   0.385205   0.379082  -0.035904  -0.037488
     8  C   -0.000020  -0.004543  -0.031072  -0.040606   0.384437   0.379298
     9  C    0.000000  -0.000072  -0.005039  -0.000653  -0.036307  -0.035057
    10  C    0.000000  -0.000002  -0.000020   0.000008  -0.004670  -0.003833
    11  N    0.000000   0.000000   0.000000   0.000001   0.000039   0.000042
    12  C   -0.000000   0.000000   0.000000  -0.000000   0.000000   0.000004
    13  C    0.000000  -0.000000  -0.000000   0.000000  -0.000002  -0.000001
    14  C    0.000000  -0.000000  -0.000000   0.000000   0.000000  -0.000000
    15  C   -0.000000   0.000000   0.000000  -0.000000  -0.000000   0.000000
    16  C    0.000000  -0.000000   0.000000   0.000000   0.000000   0.000000
    17  C   -0.000000  -0.000000   0.000000  -0.000000  -0.000000  -0.000000
    18  C    0.000000   0.000000   0.000000  -0.000000  -0.000000  -0.000000
    19  C    0.005333   0.006487   0.004143   0.002781   0.000019  -0.000035
    20  C    0.000739  -0.000085   0.000280  -0.000223   0.000000  -0.000000
    21  H    0.000003  -0.000000  -0.000000   0.000000  -0.000000   0.000000
    22  H    0.000001   0.000000   0.000000  -0.000000   0.000000  -0.000000
    23  H   -0.000004  -0.000000  -0.000000   0.000000  -0.000000   0.000000
    24  H   -0.006255  -0.000010   0.000000  -0.000000  -0.000000  -0.000000
    25  H    0.628757   0.005628  -0.000007   0.000030  -0.000004   0.000005
    26  H    0.005628   0.453268   0.005493  -0.002003   0.006012  -0.000513
    27  H   -0.000007   0.005493   0.620861  -0.053625   0.005712  -0.007764
    28  H    0.000030  -0.002003  -0.053625   0.665041  -0.007639   0.006467
    29  H   -0.000004   0.006012   0.005712  -0.007639   0.620947  -0.040331
    30  H    0.000005  -0.000513  -0.007764   0.006467  -0.040331   0.621235
    31  H    0.000000   0.000008  -0.000544   0.004493  -0.005664   0.005689
    32  H   -0.000000   0.000015   0.004766  -0.000458   0.005614  -0.005657
    33  H    0.000000  -0.000003   0.000002   0.000019   0.004731  -0.000539
    34  H   -0.000000   0.000002   0.000019  -0.000005  -0.000462   0.004524
    35  H    0.000000  -0.000000  -0.000003   0.000002   0.000015   0.000008
    36  H    0.000000   0.000000  -0.000000   0.000000  -0.000005   0.000003
    37  H    0.000000  -0.000000  -0.000000  -0.000000  -0.000000  -0.000000
    38  H    0.000000  -0.000000  -0.000000   0.000000  -0.000000   0.000000
[...]
   182    C   13  S      Val( 2S)     0.94756
   183    C   13  S      Ryd( 3S)     0.00065
   184    C   13  S      Ryd( 4S)     0.00004
   185    C   13  px     Val( 2p)     1.13168
   186    C   13  px     Ryd( 3p)     0.00353
   187    C   13  py     Val( 2p)     1.12271
   188    C   13  py     Ryd( 3p)     0.00443
   189    C   13  pz     Val( 2p)     1.10988
   190    C   13  pz     Ryd( 3p)     0.00431
   191    C   13  dxy    Ryd( 3d)     0.00069
   192    C   13  dxz    Ryd( 3d)     0.00048
   193    C   13  dyz    Ryd( 3d)     0.00039
   194    C   13  dx2y2  Ryd( 3d)     0.00057
   195    C   13  dz2    Ryd( 3d)     0.00038

   196    C   14  S      Cor( 1S)     1.99906
   197    C   14  S      Val( 2S)     0.94653
   198    C   14  S      Ryd( 3S)     0.00064
   199    C   14  S      Ryd( 4S)     0.00004
   200    C   14  px     Val( 2p)     1.06834
   201    C   14  px     Ryd( 3p)     0.00415
   202    C   14  py     Val( 2p)     1.18351
   203    C   14  py     Ryd( 3p)     0.00496
   204    C   14  pz     Val( 2p)     1.07610
   205    C   14  pz     Ryd( 3p)     0.00380
   206    C   14  dxy    Ryd( 3d)     0.00064
   207    C   14  dxz    Ryd( 3d)     0.00058
   208    C   14  dyz    Ryd( 3d)     0.00031
   209    C   14  dx2y2  Ryd( 3d)     0.00072
   210    C   14  dz2    Ryd( 3d)     0.00036

   211    C   15  S      Cor( 1S)     1.99903
   212    C   15  S      Val( 2S)     0.88813
   213    C   15  S      Ryd( 3S)     0.00043
   214    C   15  S      Ryd( 4S)     0.00005
   215    C   15  px     Val( 2p)     1.06087
   216    C   15  px     Ryd( 3p)     0.00461
   217    C   15  py     Val( 2p)     1.08510
   218    C   15  py     Ryd( 3p)     0.00436
   219    C   15  pz     Val( 2p)     0.96137
   220    C   15  pz     Ryd( 3p)     0.00197
   221    C   15  dxy    Ryd( 3d)     0.00080
   222    C   15  dxz    Ryd( 3d)     0.00058
   223    C   15  dyz    Ryd( 3d)     0.00081
   224    C   15  dx2y2  Ryd( 3d)     0.00071
   225    C   15  dz2    Ryd( 3d)     0.00032

   226    C   16  S      Cor( 1S)     1.99939
   227    C   16  S      Val( 2S)     1.09971
   228    C   16  S      Ryd( 3S)     0.00020
   229    C   16  S      Ryd( 4S)     0.00001
   230    C   16  px     Val( 2p)     1.10238
   231    C   16  px     Ryd( 3p)     0.00097
   232    C   16  py     Val( 2p)     1.24850
   233    C   16  py     Ryd( 3p)     0.00266
   234    C   16  pz     Val( 2p)     1.24778
   235    C   16  pz     Ryd( 3p)     0.00038
   236    C   16  dxy    Ryd( 3d)     0.00037
   237    C   16  dxz    Ryd( 3d)     0.00076
   238    C   16  dyz    Ryd( 3d)     0.00039
   239    C   16  dx2y2  Ryd( 3d)     0.00078
   240    C   16  dz2    Ryd( 3d)     0.00053

   241    C   17  S      Cor( 1S)     1.99906
   242    C   17  S      Val( 2S)     0.94541
   243    C   17  S      Ryd( 3S)     0.00065
   244    C   17  S      Ryd( 4S)     0.00004
   245    C   17  px     Val( 2p)     1.12143
   246    C   17  px     Ryd( 3p)     0.00431
   247    C   17  py     Val( 2p)     1.13125
   248    C   17  py     Ryd( 3p)     0.00473
   249    C   17  pz     Val( 2p)     1.08322
   250    C   17  pz     Ryd( 3p)     0.00389
   251    C   17  dxy    Ryd( 3d)     0.00072
   252    C   17  dxz    Ryd( 3d)     0.00052
   253    C   17  dyz    Ryd( 3d)     0.00039
   254    C   17  dx2y2  Ryd( 3d)     0.00062
   255    C   17  dz2    Ryd( 3d)     0.00036

   256    C   18  S      Cor( 1S)     1.99907
   257    C   18  S      Val( 2S)     0.94732
   258    C   18  S      Ryd( 3S)     0.00070
   259    C   18  S      Ryd( 4S)     0.00004
   260    C   18  px     Val( 2p)     1.07417
   261    C   18  px     Ryd( 3p)     0.00454
   262    C   18  py     Val( 2p)     1.17092
   263    C   18  py     Ryd( 3p)     0.00437
   264    C   18  pz     Val( 2p)     1.11465
   265    C   18  pz     Ryd( 3p)     0.00476
   266    C   18  dxy    Ryd( 3d)     0.00070
   267    C   18  dxz    Ryd( 3d)     0.00058
   268    C   18  dyz    Ryd( 3d)     0.00031
   269    C   18  dx2y2  Ryd( 3d)     0.00056
   270    C   18  dz2    Ryd( 3d)     0.00038

   271    C   19  S      Cor( 1S)     1.99906
   272    C   19  S      Val( 2S)     0.94783
   273    C   19  S      Ryd( 3S)     0.00065
   274    C   19  S      Ryd( 4S)     0.00004
   275    C   19  px     Val( 2p)     1.13180
   276    C   19  px     Ryd( 3p)     0.00352
   277    C   19  py     Val( 2p)     1.12364
   278    C   19  py     Ryd( 3p)     0.00442
   279    C   19  pz     Val( 2p)     1.10663
   280    C   19  pz     Ryd( 3p)     0.00396
   281    C   19  dxy    Ryd( 3d)     0.00069
   282    C   19  dxz    Ryd( 3d)     0.00047
   283    C   19  dyz    Ryd( 3d)     0.00038
   284    C   19  dx2y2  Ryd( 3d)     0.00057
   285    C   19  dz2    Ryd( 3d)     0.00038

   286    C   20  S      Cor( 1S)     1.99906
   287    C   20  S      Val( 2S)     0.94701
   288    C   20  S      Ryd( 3S)     0.00064
   289    C   20  S      Ryd( 4S)     0.00004
   290    C   20  px     Val( 2p)     1.06882
   291    C   20  px     Ryd( 3p)     0.00410
   292    C   20  py     Val( 2p)     1.18415
   293    C   20  py     Ryd( 3p)     0.00498
   294    C   20  pz     Val( 2p)     1.06788
   295    C   20  pz     Ryd( 3p)     0.00345
   296    C   20  dxy    Ryd( 3d)     0.00064
   297    C   20  dxz    Ryd( 3d)     0.00059
   298    C   20  dyz    Ryd( 3d)     0.00031
   299    C   20  dx2y2  Ryd( 3d)     0.00072
   300    C   20  dz2    Ryd( 3d)     0.00036

   301    H   21  S      Val( 1S)     0.75685
   302    H   21  S      Ryd( 2S)     0.00084
   303    H   21  px     Ryd( 2p)     0.00008
   304    H   21  py     Ryd( 2p)     0.00034
   305    H   21  pz     Ryd( 2p)     0.00008

   306    H   22  S      Val( 1S)     0.75015
   307    H   22  S      Ryd( 2S)     0.00115
   308    H   22  px     Ryd( 2p)     0.00016
   309    H   22  py     Ryd( 2p)     0.00012
   310    H   22  pz     Ryd( 2p)     0.00026

   311    H   23  S      Val( 1S)     0.75143
   312    H   23  S      Ryd( 2S)     0.00127
   313    H   23  px     Ryd( 2p)     0.00014
   314    H   23  py     Ryd( 2p)     0.00013
   315    H   23  pz     Ryd( 2p)     0.00026

   316    H   24  S      Val( 1S)     0.76505
   317    H   24  S      Ryd( 2S)     0.00099
   318    H   24  px     Ryd( 2p)     0.00022
   319    H   24  py     Ryd( 2p)     0.00024
   320    H   24  pz     Ryd( 2p)     0.00017

   321    H   25  S      Val( 1S)     0.76424
   322    H   25  S      Ryd( 2S)     0.00109
   323    H   25  px     Ryd( 2p)     0.00008
   324    H   25  py     Ryd( 2p)     0.00038
   325    H   25  pz     Ryd( 2p)     0.00018

   326    H   26  S      Val( 1S)     0.57218
   327    H   26  S      Ryd( 2S)     0.00252
   328    H   26  px     Ryd( 2p)     0.00020
   329    H   26  py     Ryd( 2p)     0.00054
   330    H   26  pz     Ryd( 2p)     0.00050

   331    H   27  S      Val( 1S)     0.75409
   332    H   27  S      Ryd( 2S)     0.00188
   333    H   27  px     Ryd( 2p)     0.00010
   334    H   27  py     Ryd( 2p)     0.00023
   335    H   27  pz     Ryd( 2p)     0.00024

   336    H   28  S      Val( 1S)     0.76214
   337    H   28  S      Ryd( 2S)     0.00240
   338    H   28  px     Ryd( 2p)     0.00010
   339    H   28  py     Ryd( 2p)     0.00013
   340    H   28  pz     Ryd( 2p)     0.00033

   341    H   29  S      Val( 1S)     0.75688
   342    H   29  S      Ryd( 2S)     0.00158
   343    H   29  px     Ryd( 2p)     0.00010
   344    H   29  py     Ryd( 2p)     0.00024
   345    H   29  pz     Ryd( 2p)     0.00022

   346    H   30  S      Val( 1S)     0.75162
   347    H   30  S      Ryd( 2S)     0.00193
   348    H   30  px     Ryd( 2p)     0.00009
   349    H   30  py     Ryd( 2p)     0.00014
   350    H   30  pz     Ryd( 2p)     0.00031

   351    H   31  S      Val( 1S)     0.75147
   352    H   31  S      Ryd( 2S)     0.00192
   353    H   31  px     Ryd( 2p)     0.00009
   354    H   31  py     Ryd( 2p)     0.00014
   355    H   31  pz     Ryd( 2p)     0.00031

   356    H   32  S      Val( 1S)     0.75672
   357    H   32  S      Ryd( 2S)     0.00158
   358    H   32  px     Ryd( 2p)     0.00010
   359    H   32  py     Ryd( 2p)     0.00024
   360    H   32  pz     Ryd( 2p)     0.00022

   361    H   33  S      Val( 1S)     0.75278
   362    H   33  S      Ryd( 2S)     0.00190
   363    H   33  px     Ryd( 2p)     0.00010
   364    H   33  py     Ryd( 2p)     0.00023
   365    H   33  pz     Ryd( 2p)     0.00024

   366    H   34  S      Val( 1S)     0.76001
   367    H   34  S      Ryd( 2S)     0.00237
   368    H   34  px     Ryd( 2p)     0.00010
   369    H   34  py     Ryd( 2p)     0.00013
   370    H   34  pz     Ryd( 2p)     0.00033

   371    H   35  S      Val( 1S)     0.57097
   372    H   35  S      Ryd( 2S)     0.00258
   373    H   35  px     Ryd( 2p)     0.00020
   374    H   35  py     Ryd( 2p)     0.00054
   375    H   35  pz     Ryd( 2p)     0.00049

   376    H   36  S      Val( 1S)     0.76118
   377    H   36  S      Ryd( 2S)     0.00094
   378    H   36  px     Ryd( 2p)     0.00020
   379    H   36  py     Ryd( 2p)     0.00025
   380    H   36  pz     Ryd( 2p)     0.00018

   381    H   37  S      Val( 1S)     0.76573
   382    H   37  S      Ryd( 2S)     0.00101
   383    H   37  px     Ryd( 2p)     0.00009
   384    H   37  py     Ryd( 2p)     0.00038
   385    H   37  pz     Ryd( 2p)     0.00016

   386    H   38  S      Val( 1S)     0.74960
   387    H   38  S      Ryd( 2S)     0.00117
   388    H   38  px     Ryd( 2p)     0.00016
   389    H   38  py     Ryd( 2p)     0.00012
   390    H   38  pz     Ryd( 2p)     0.00026

   391    H   39  S      Val( 1S)     0.75099
   392    H   39  S      Ryd( 2S)     0.00131
   393    H   39  px     Ryd( 2p)     0.00014
   394    H   39  py     Ryd( 2p)     0.00013
   395    H   39  pz     Ryd( 2p)     0.00026

   396    H   40  S      Val( 1S)     0.75678
   397    H   40  S      Ryd( 2S)     0.00085
   398    H   40  px     Ryd( 2p)     0.00008
   399    H   40  py     Ryd( 2p)     0.00034
   400    H   40  pz     Ryd( 2p)     0.00008

   401    H   41  S      Val( 1S)     0.76600
   402    H   41  S      Ryd( 2S)     0.00099
   403    H   41  px     Ryd( 2p)     0.00022
   404    H   41  py     Ryd( 2p)     0.00024
   405    H   41  pz     Ryd( 2p)     0.00017

   406    H   42  S      Val( 1S)     0.76510
   407    H   42  S      Ryd( 2S)     0.00110
   408    H   42  px     Ryd( 2p)     0.00008
   409    H   42  py     Ryd( 2p)     0.00038
   410    H   42  pz     Ryd( 2p)     0.00018

   411    H   43  S      Val( 1S)     0.76047
   412    H   43  S      Ryd( 2S)     0.00093
   413    H   43  px     Ryd( 2p)     0.00021
   414    H   43  py     Ryd( 2p)     0.00025
   415    H   43  pz     Ryd( 2p)     0.00018

   416    H   44  S      Val( 1S)     0.76494
   417    H   44  S      Ryd( 2S)     0.00101
   418    H   44  px     Ryd( 2p)     0.00009
   419    H   44  py     Ryd( 2p)     0.00038
   420    H   44  pz     Ryd( 2p)     0.00016


 Summary of Natural Population Analysis:                  
                                                          
                                       Natural Population 
                Natural  -----------------------------------------------
    Atom  No    Charge         Core      Valence    Rydberg      Total
 -----------------------------------------------------------------------
      C    1   -0.70425      1.99940     4.69782    0.00704     6.70425
      C    2   -0.01672      1.99903     4.00310    0.01459     6.01672
      C    3   -0.28891      1.99906     4.27401    0.01584     6.28891
      C    4   -0.31845      1.99907     4.30289    0.01650     6.31845
      C    5    0.16750      1.99901     3.81508    0.01841     5.83250
      N    6   -0.55227      1.99939     5.54128    0.01160     7.55227
      C    7   -0.27041      1.99933     4.25685    0.01424     6.27041
      C    8   -0.47398      1.99934     4.46321    0.01144     6.47398
      C    9   -0.47424      1.99934     4.46346    0.01144     6.47424
      C   10   -0.27163      1.99933     4.25805    0.01425     6.27163
      N   11   -0.54003      1.99939     5.52912    0.01151     7.54003
      C   12    0.16774      1.99901     3.81476    0.01850     5.83226
      C   13   -0.32636      1.99907     4.31183    0.01547     6.32636
      C   14   -0.28976      1.99906     4.27449    0.01621     6.28976
      C   15   -0.00916      1.99903     3.99548    0.01465     6.00916
      C   16   -0.70482      1.99939     4.69836    0.00706     6.70482
      C   17   -0.29659      1.99906     4.28132    0.01622     6.29659
      C   18   -0.32308      1.99907     4.30706    0.01695     6.32308
      C   19   -0.32406      1.99906     4.30990    0.01509     6.32406
      C   20   -0.28276      1.99906     4.26786    0.01584     6.28276
      H   21    0.24182      0.00000     0.75685    0.00134     0.75818
      H   22    0.24816      0.00000     0.75015    0.00169     0.75184
      H   23    0.24677      0.00000     0.75143    0.00180     0.75323
      H   24    0.23333      0.00000     0.76505    0.00162     0.76667
      H   25    0.23404      0.00000     0.76424    0.00172     0.76596
      H   26    0.42407      0.00000     0.57218    0.00375     0.57593
      H   27    0.24346      0.00000     0.75409    0.00245     0.75654
      H   28    0.23490      0.00000     0.76214    0.00296     0.76510
      H   29    0.24098      0.00000     0.75688    0.00214     0.75902
      H   30    0.24591      0.00000     0.75162    0.00247     0.75409
      H   31    0.24607      0.00000     0.75147    0.00246     0.75393
      H   32    0.24115      0.00000     0.75672    0.00213     0.75885
      H   33    0.24476      0.00000     0.75278    0.00246     0.75524
      H   34    0.23706      0.00000     0.76001    0.00292     0.76294
      H   35    0.42522      0.00000     0.57097    0.00381     0.57478
      H   36    0.23724      0.00000     0.76118    0.00158     0.76276
      H   37    0.23263      0.00000     0.76573    0.00164     0.76737
      H   38    0.24869      0.00000     0.74960    0.00171     0.75131
      H   39    0.24717      0.00000     0.75099    0.00184     0.75283
      H   40    0.24188      0.00000     0.75678    0.00134     0.75812
      H   41    0.23238      0.00000     0.76600    0.00162     0.76762
      H   42    0.23316      0.00000     0.76510    0.00174     0.76684
      H   43    0.23797      0.00000     0.76047    0.00156     0.76203
      H   44    0.23343      0.00000     0.76494    0.00163     0.76657
 =======================================================================
   * Total *   -0.00000     39.98347   105.68330    0.33323   146.00000

                                 Natural Population      
 --------------------------------------------------------
   Core                      39.98347 ( 99.9587% of  40)
   Valence                  105.68330 ( 99.7012% of 106)
   Natural Minimal Basis    145.66677 ( 99.7718% of 146)
   Natural Rydberg Basis      0.33323 (  0.2282% of 146)
 --------------------------------------------------------

    Atom  No          Natural Electron Configuration
 ----------------------------------------------------------------------------
      C    1      [core]2S( 1.10)2p( 3.60)
      C    2      [core]2S( 0.89)2p( 3.12)3p( 0.01)
      C    3      [core]2S( 0.95)2p( 3.33)3p( 0.01)
      C    4      [core]2S( 0.95)2p( 3.36)3p( 0.01)
      C    5      [core]2S( 0.84)2p( 2.98)3p( 0.01)
      N    6      [core]2S( 1.28)2p( 4.26)3p( 0.01)
      C    7      [core]2S( 1.02)2p( 3.24)3p( 0.01)
      C    8      [core]2S( 1.04)2p( 3.43)3p( 0.01)
      C    9      [core]2S( 1.04)2p( 3.43)3p( 0.01)
      C   10      [core]2S( 1.02)2p( 3.24)3p( 0.01)
      N   11      [core]2S( 1.28)2p( 4.25)3p( 0.01)
      C   12      [core]2S( 0.84)2p( 2.97)3p( 0.01)
      C   13      [core]2S( 0.95)2p( 3.36)3p( 0.01)
      C   14      [core]2S( 0.95)2p( 3.33)3p( 0.01)
      C   15      [core]2S( 0.89)2p( 3.11)3p( 0.01)
      C   16      [core]2S( 1.10)2p( 3.60)
      C   17      [core]2S( 0.95)2p( 3.34)3p( 0.01)
      C   18      [core]2S( 0.95)2p( 3.36)3p( 0.01)
      C   19      [core]2S( 0.95)2p( 3.36)3p( 0.01)
      C   20      [core]2S( 0.95)2p( 3.32)3p( 0.01)
      H   21            1S( 0.76)
      H   22            1S( 0.75)
      H   23            1S( 0.75)
      H   24            1S( 0.77)
      H   25            1S( 0.76)
      H   26            1S( 0.57)
      H   27            1S( 0.75)
      H   28            1S( 0.76)
      H   29            1S( 0.76)
      H   30            1S( 0.75)
      H   31            1S( 0.75)
      H   32            1S( 0.76)
      H   33            1S( 0.75)
      H   34            1S( 0.76)
      H   35            1S( 0.57)
      H   36            1S( 0.76)
      H   37            1S( 0.77)
      H   38            1S( 0.75)
      H   39            1S( 0.75)
      H   40            1S( 0.76)
      H   41            1S( 0.77)
      H   42            1S( 0.77)
      H   43            1S( 0.76)
      H   44            1S( 0.76)


 NBO analysis skipped by request.
 1\1\GINC-DRG2-W002\SP\RB3LYP TD-FC\6-31G(d,p)\C18H24N2\QDUEZ\18-Jul-20
 24\0\\# TD(NStates=10, Root=1) B3LYP/6-31G** SCRF=(Solvent=water) volu
 me pop=NPA density=current Geom=AllCheck Guess=Read\\IXVDJDOFHBHDMT-UH
 FFFAOYSA-N_conf_1\\0,1\C,0,8.5626168032,0.6448259217,-0.7242697447\C,0
 ,7.1078203735,0.4599509566,-0.3594956246\C,0,6.7318273598,-0.246013540
 9,0.7962226633\C,0,5.3984923028,-0.4148565141,1.1472300585\C,0,4.36385
 66037,0.1188739563,0.3486999077\N,0,3.038320356,-0.0266117676,0.753676
 5354\C,0,1.9345509875,0.1937119205,-0.1727070635\C,0,0.5971647331,-0.1
 242413214,0.4974354651\C,0,-0.5971662372,0.1242866624,-0.4295046079\C,
 0,-1.9345487583,-0.1936790949,0.2406394072\N,0,-3.0383261553,0.0266577
 073,-0.6857298117\C,0,-4.3638570987,-0.1188633782,-0.2807522759\C,0,-4
 .7307655336,-0.8183503027,0.8826380665\C,0,-6.078485592,-0.9821735191,
 1.2157215001\C,0,-7.1078150237,-0.4600034766,0.4274326211\C,0,-8.56261
 36349,-0.6448518491,0.7922069259\C,0,-6.7318336943,0.2459813851,-0.728
 2843531\C,0,-5.3985060042,0.4148556189,-1.0792828234\C,0,4.730778552,0
 .8183377496,-0.8147063799\C,0,6.078495178,0.9821281373,-1.1477964041\H
 ,0,8.6681148058,1.1318369259,-1.6979417144\H,0,9.0902555106,1.26291567
 56,0.0126282199\H,0,9.0930035697,-0.3134032915,-0.7714112808\H,0,7.501
 1835867,-0.67483321,1.4347673407\H,0,5.141754729,-0.9644703418,2.04995
 46543\H,0,2.8927715818,-0.8169707542,1.3699751677\H,0,1.9388579145,1.2
 455557615,-0.4850735224\H,0,2.0443658834,-0.4078124672,-1.0914636415\H
 ,0,0.5958476274,-1.1746053893,0.8200713698\H,0,0.5008089409,0.48436686
 42,1.405177739\H,0,-0.5008077831,-0.4843153756,-1.3372507327\H,0,-0.59
 5854611,1.1746528075,-0.7521335755\H,0,-1.9388521971,-1.2455282331,0.5
 529883993\H,0,-2.0443587178,0.4078288484,1.1594075021\H,0,-2.892790357
 ,0.8170229138,-1.3020231559\H,0,-3.9709230284,-1.2363326919,1.53349437
 03\H,0,-6.3278141074,-1.5287720271,2.1225134886\H,0,-9.0903862285,-1.2
 625089737,0.0550430692\H,0,-9.0928753287,0.3134271174,0.8398345806\H,0
 ,-8.6681071773,-1.1323026348,1.7656559316\H,0,-7.501197148,0.674785823
 4,-1.3668315098\H,0,-5.1417743911,0.9644774509,-1.9820043676\H,0,3.970
 9407668,1.2363174392,-1.4655701891\H,0,6.3278306413,1.5287025111,-2.05
 46017232\\Version=ES64L-G16RevA.03\State=1-A\HF=-809.9315699\RMSD=2.89
 2e-09\Dipole=0.0846544,0.0021206,-0.0066553\Quadrupole=-19.7882255,8.3
 129515,11.475274,-5.3428122,0.1080191,-5.8611526\PG=C01 [X(C18H24N2)]\
 \@


 MICRO CREDO - NEVER TRUST A COMPUTER BIGGER
               BIGGER THAN YOU CAN LIFT.
 Job cpu time:       0 days  1 hours 26 minutes  3.2 seconds.
 Elapsed time:       0 days  0 hours 28 minutes 45.7 seconds.
 File lengths (MBytes):  RWF=   1405 Int=      0 D2E=      0 Chk=     88 Scr=      1
 Normal termination of Gaussian 16 at Thu Jul 18 04:56:20 2024.
