 Entering Gaussian System, Link 0=g16
 Initial command:
 /opt/sw/arch/manual/gaussian/G16_A03/g16/l1.exe "/scratch/1380876/Gau-40391.inp" -scrdir="/scratch/1380876/"
 Entering Link 1 = /opt/sw/arch/manual/gaussian/G16_A03/g16/l1.exe PID=     40392.
  
 Copyright (c) 1988,1990,1992,1993,1995,1998,2003,2009,2016,
            Gaussian, Inc.  All Rights Reserved.
  
 This is part of the Gaussian(R) 16 program.  It is based on
 the Gaussian(R) 09 system (copyright 2009, Gaussian, Inc.),
 the Gaussian(R) 03 system (copyright 2003, Gaussian, Inc.),
 the Gaussian(R) 98 system (copyright 1998, Gaussian, Inc.),
 the Gaussian(R) 94 system (copyright 1995, Gaussian, Inc.),
 the Gaussian 92(TM) system (copyright 1992, Gaussian, Inc.),
 the Gaussian 90(TM) system (copyright 1990, Gaussian, Inc.),
 the Gaussian 88(TM) system (copyright 1988, Gaussian, Inc.),
 the Gaussian 86(TM) system (copyright 1986, Carnegie Mellon
 University), and the Gaussian 82(TM) system (copyright 1983,
 Carnegie Mellon University). Gaussian is a federally registered
 trademark of Gaussian, Inc.
  
 This software contains proprietary and confidential information,
 including trade secrets, belonging to Gaussian, Inc.
  
 This software is provided under written license and may be
 used, copied, transmitted, or stored only in accord with that
 written license.
  
 The following legend is applicable only to US Government
 contracts under FAR:
  
                    RESTRICTED RIGHTS LEGEND
  
 Use, reproduction and disclosure by the US Government is
 subject to restrictions as set forth in subparagraphs (a)
 and (c) of the Commercial Computer Software - Restricted
 Rights clause in FAR 52.227-19.
  
 Gaussian, Inc.
 340 Quinnipiac St., Bldg. 40, Wallingford CT 06492
  
  
 ---------------------------------------------------------------
 Warning -- This program may not be used in any manner that
 competes with the business of Gaussian, Inc. or will provide
 assistance to any competitor of Gaussian, Inc.  The licensee
 of this program is prohibited from giving any competitor of
 Gaussian, Inc. access to this program.  By using this program,
 the user acknowledges that Gaussian, Inc. is engaged in the
 business of creating and licensing software in the field of
 computational chemistry and represents and warrants to the
 licensee that it is not a competitor of Gaussian, Inc. and that
 it will not use this program in any manner prohibited above.
 ---------------------------------------------------------------
  

 Cite this work as:
 Gaussian 16, Revision A.03,
 M. J. Frisch, G. W. Trucks, H. B. Schlegel, G. E. Scuseria, 
 M. A. Robb, J. R. Cheeseman, G. Scalmani, V. Barone, 
 G. A. Petersson, H. Nakatsuji, X. Li, M. Caricato, A. V. Marenich, 
 J. Bloino, B. G. Janesko, R. Gomperts, B. Mennucci, H. P. Hratchian, 
 J. V. Ortiz, A. F. Izmaylov, J. L. Sonnenberg, D. Williams-Young, 
 F. Ding, F. Lipparini, F. Egidi, J. Goings, B. Peng, A. Petrone, 
 T. Henderson, D. Ranasinghe, V. G. Zakrzewski, J. Gao, N. Rega, 
 G. Zheng, W. Liang, M. Hada, M. Ehara, K. Toyota, R. Fukuda, 
 J. Hasegawa, M. Ishida, T. Nakajima, Y. Honda, O. Kitao, H. Nakai, 
 T. Vreven, K. Throssell, J. A. Montgomery, Jr., J. E. Peralta, 
 F. Ogliaro, M. J. Bearpark, J. J. Heyd, E. N. Brothers, K. N. Kudin, 
 V. N. Staroverov, T. A. Keith, R. Kobayashi, J. Normand, 
 K. Raghavachari, A. P. Rendell, J. C. Burant, S. S. Iyengar, 
 J. Tomasi, M. Cossi, J. M. Millam, M. Klene, C. Adamo, R. Cammi, 
 J. W. Ochterski, R. L. Martin, K. Morokuma, O. Farkas, 
 J. B. Foresman, and D. J. Fox, Gaussian, Inc., Wallingford CT, 2016.
 
 ******************************************
 Gaussian 16:  ES64L-G16RevA.03 25-Dec-2016
                18-Jul-2024 
 ******************************************
 %nprocshared=7
 Will use up to    7 processors via shared memory.
 %mem=14GB
 %Chk=IXVDJDOFHBHDMT-UHFFFAOYSA-N_conf_4_0.chk
 -------------------------------------------------------
 # opt=CalcFc B3LYP/6-31G** SCRF=(Solvent=water) scf=xqc
 -------------------------------------------------------
 1/10=4,18=20,19=15,26=3,38=1/1,3;
 2/9=110,12=2,17=6,18=5,40=1/2;
 3/5=1,6=6,7=101,11=2,25=1,30=1,70=2201,71=2,72=1,74=-5,140=1/1,2,3;
 4//1;
 5/5=2,8=3,13=1,38=5,53=1/2,8;
 8/6=4,10=90,11=11/1;
 11/6=1,8=1,9=11,15=111,16=1/1,2,10;
 10/6=1,13=1/2;
 6/7=2,8=2,9=2,10=2,28=1/1;
 7/10=1,18=20,25=1/1,2,3,16;
 1/10=4,18=20,19=15,26=3/3(2);
 2/9=110/2;
 99//99;
 2/9=110/2;
 3/5=1,6=6,7=101,11=2,25=1,30=1,70=2205,71=1,72=1,74=-5/1,2,3;
 4/5=5,16=3,69=1/1;
 5/5=2,8=3,13=1,38=5,53=1/2,8;
 7//1,2,3,16;
 1/18=20,19=15,26=3/3(-5);
 2/9=110/2;
 6/7=2,8=2,9=2,10=2,19=2,28=1/1;
 99/9=1/99;
 ----------------------------------
 IXVDJDOFHBHDMT-UHFFFAOYSA-N_conf_4
 ----------------------------------
 Symbolic Z-matrix:
 Charge =  0 Multiplicity = 1
 C                     7.4628   -1.79594   1.16596 
 C                     6.17819  -1.08278   0.86913 
 C                     5.70612  -0.07944   1.71672 
 C                     4.49124   0.56111   1.44732 
 C                     3.69672   0.1959    0.35116 
 N                     2.52692   0.92583   0.10521 
 C                     1.51478   0.37768  -0.79147 
 C                     0.30655   1.31505  -0.82461 
 C                    -0.76558   0.80293  -1.791 
 C                    -1.9768    1.73428  -1.86648 
 N                    -2.68059   1.79087  -0.59144 
 C                    -3.74103   0.93467  -0.29308 
 C                    -4.52418   1.2167    0.8355 
 C                    -5.56503   0.37173   1.23723 
 C                    -5.82787  -0.80601   0.53667 
 C                    -6.95958  -1.70165   0.94172 
 C                    -5.04145  -1.11135  -0.57634 
 C                    -4.00129  -0.25951  -0.97162 
 C                     4.19417  -0.79161  -0.50472 
 C                     5.40869  -1.43817  -0.24087 
 H                     8.14706  -1.15345   1.73011 
 H                     7.26338  -2.69815   1.75191 
 H                     7.97363  -2.07843   0.23931 
 H                     6.28123   0.22153   2.58891 
 H                     4.16545   1.35728   2.11244 
 H                     2.13101   1.28012   0.97342 
 H                     1.91758   0.28695  -1.80692 
 H                     1.20112  -0.61571  -0.4482 
 H                    -0.109     1.40812   0.18669 
 H                     0.6271    2.31994  -1.12681 
 H                    -0.33138   0.71791  -2.79486 
 H                    -1.07275  -0.20536  -1.49041 
 H                    -1.6309    2.7456   -2.11279 
 H                    -2.64515   1.44017  -2.68403 
 H                    -2.86134   2.74177  -0.27899 
 H                    -4.32793   2.11106   1.4214 
 H                    -6.15895   0.63961   2.10778 
 H                    -7.13386  -1.64848   2.02146 
 H                    -7.87502  -1.40563   0.42125 
 H                    -6.7367   -2.74606   0.69975 
 H                    -5.22244  -2.02159  -1.14374 
 H                    -3.40587  -0.55772  -1.8278 
 H                     3.64961  -1.08423  -1.39648 
 H                     5.75136  -2.21553  -0.92005 
 

 GradGradGradGradGradGradGradGradGradGradGradGradGradGradGradGradGradGrad
 Berny optimization.
 Initialization pass.
                           ----------------------------
                           !    Initial Parameters    !
                           ! (Angstroms and Degrees)  !
 --------------------------                            --------------------------
 ! Name  Definition              Value          Derivative Info.                !
 --------------------------------------------------------------------------------
 ! R1    R(1,2)                  1.499          calculate D2E/DX2 analytically  !
 ! R2    R(1,21)                 1.0951         calculate D2E/DX2 analytically  !
 ! R3    R(1,22)                 1.0941         calculate D2E/DX2 analytically  !
 ! R4    R(1,23)                 1.0952         calculate D2E/DX2 analytically  !
 ! R5    R(2,3)                  1.3957         calculate D2E/DX2 analytically  !
 ! R6    R(2,20)                 1.3966         calculate D2E/DX2 analytically  !
 ! R7    R(3,4)                  1.3996         calculate D2E/DX2 analytically  !
 ! R8    R(3,24)                 1.0872         calculate D2E/DX2 analytically  !
 ! R9    R(4,5)                  1.4022         calculate D2E/DX2 analytically  !
 ! R10   R(4,25)                 1.0874         calculate D2E/DX2 analytically  !
 ! R11   R(5,6)                  1.4006         calculate D2E/DX2 analytically  !
 ! R12   R(5,19)                 1.3983         calculate D2E/DX2 analytically  !
 ! R13   R(6,7)                  1.4591         calculate D2E/DX2 analytically  !
 ! R14   R(6,26)                 1.0179         calculate D2E/DX2 analytically  !
 ! R15   R(7,8)                  1.5296         calculate D2E/DX2 analytically  !
 ! R16   R(7,27)                 1.0962         calculate D2E/DX2 analytically  !
 ! R17   R(7,28)                 1.0968         calculate D2E/DX2 analytically  !
 ! R18   R(8,9)                  1.5316         calculate D2E/DX2 analytically  !
 ! R19   R(8,29)                 1.0973         calculate D2E/DX2 analytically  !
 ! R20   R(8,30)                 1.0972         calculate D2E/DX2 analytically  !
 ! R21   R(9,10)                 1.5298         calculate D2E/DX2 analytically  !
 ! R22   R(9,31)                 1.097          calculate D2E/DX2 analytically  !
 ! R23   R(9,32)                 1.0961         calculate D2E/DX2 analytically  !
 ! R24   R(10,11)                1.4575         calculate D2E/DX2 analytically  !
 ! R25   R(10,33)                1.0968         calculate D2E/DX2 analytically  !
 ! R26   R(10,34)                1.0962         calculate D2E/DX2 analytically  !
 ! R27   R(11,12)                1.3952         calculate D2E/DX2 analytically  !
 ! R28   R(11,35)                1.0171         calculate D2E/DX2 analytically  !
 ! R29   R(12,13)                1.4023         calculate D2E/DX2 analytically  !
 ! R30   R(12,18)                1.3979         calculate D2E/DX2 analytically  !
 ! R31   R(13,14)                1.3995         calculate D2E/DX2 analytically  !
 ! R32   R(13,36)                1.0871         calculate D2E/DX2 analytically  !
 ! R33   R(14,15)                1.3953         calculate D2E/DX2 analytically  !
 ! R34   R(14,37)                1.0874         calculate D2E/DX2 analytically  !
 ! R35   R(15,16)                1.499          calculate D2E/DX2 analytically  !
 ! R36   R(15,17)                1.3966         calculate D2E/DX2 analytically  !
 ! R37   R(16,38)                1.095          calculate D2E/DX2 analytically  !
 ! R38   R(16,39)                1.0939         calculate D2E/DX2 analytically  !
 ! R39   R(16,40)                1.095          calculate D2E/DX2 analytically  !
 ! R40   R(17,18)                1.4014         calculate D2E/DX2 analytically  !
 ! R41   R(17,41)                1.0878         calculate D2E/DX2 analytically  !
 ! R42   R(18,42)                1.0847         calculate D2E/DX2 analytically  !
 ! R43   R(19,20)                1.401          calculate D2E/DX2 analytically  !
 ! R44   R(19,43)                1.0851         calculate D2E/DX2 analytically  !
 ! R45   R(20,44)                1.0877         calculate D2E/DX2 analytically  !
 ! A1    A(2,1,21)             110.9994         calculate D2E/DX2 analytically  !
 ! A2    A(2,1,22)             110.0085         calculate D2E/DX2 analytically  !
 ! A3    A(2,1,23)             110.7875         calculate D2E/DX2 analytically  !
 ! A4    A(21,1,22)            108.7708         calculate D2E/DX2 analytically  !
 ! A5    A(21,1,23)            107.2032         calculate D2E/DX2 analytically  !
 ! A6    A(22,1,23)            108.9934         calculate D2E/DX2 analytically  !
 ! A7    A(1,2,3)              120.7721         calculate D2E/DX2 analytically  !
 ! A8    A(1,2,20)             120.564          calculate D2E/DX2 analytically  !
 ! A9    A(3,2,20)             118.6355         calculate D2E/DX2 analytically  !
 ! A10   A(2,3,4)              120.3785         calculate D2E/DX2 analytically  !
 ! A11   A(2,3,24)             120.4824         calculate D2E/DX2 analytically  !
 ! A12   A(4,3,24)             119.1365         calculate D2E/DX2 analytically  !
 ! A13   A(3,4,5)              121.5418         calculate D2E/DX2 analytically  !
 ! A14   A(3,4,25)             118.5176         calculate D2E/DX2 analytically  !
 ! A15   A(5,4,25)             119.9404         calculate D2E/DX2 analytically  !
 ! A16   A(4,5,6)              118.3449         calculate D2E/DX2 analytically  !
 ! A17   A(4,5,19)             117.4423         calculate D2E/DX2 analytically  !
 ! A18   A(6,5,19)             123.8974         calculate D2E/DX2 analytically  !
 ! A19   A(5,6,7)              119.4386         calculate D2E/DX2 analytically  !
 ! A20   A(5,6,26)             110.8837         calculate D2E/DX2 analytically  !
 ! A21   A(7,6,26)             112.6527         calculate D2E/DX2 analytically  !
 ! A22   A(6,7,8)              109.3314         calculate D2E/DX2 analytically  !
 ! A23   A(6,7,27)             110.2115         calculate D2E/DX2 analytically  !
 ! A24   A(6,7,28)             110.2611         calculate D2E/DX2 analytically  !
 ! A25   A(8,7,27)             108.7178         calculate D2E/DX2 analytically  !
 ! A26   A(8,7,28)             109.6287         calculate D2E/DX2 analytically  !
 ! A27   A(27,7,28)            108.6649         calculate D2E/DX2 analytically  !
 ! A28   A(7,8,9)              111.2053         calculate D2E/DX2 analytically  !
 ! A29   A(7,8,29)             109.3388         calculate D2E/DX2 analytically  !
 ! A30   A(7,8,30)             109.6611         calculate D2E/DX2 analytically  !
 ! A31   A(9,8,29)             110.1692         calculate D2E/DX2 analytically  !
 ! A32   A(9,8,30)             109.6922         calculate D2E/DX2 analytically  !
 ! A33   A(29,8,30)            106.6668         calculate D2E/DX2 analytically  !
 ! A34   A(8,9,10)             112.4459         calculate D2E/DX2 analytically  !
 ! A35   A(8,9,31)             109.0408         calculate D2E/DX2 analytically  !
 ! A36   A(8,9,32)             109.3135         calculate D2E/DX2 analytically  !
 ! A37   A(10,9,31)            108.3861         calculate D2E/DX2 analytically  !
 ! A38   A(10,9,32)            110.592          calculate D2E/DX2 analytically  !
 ! A39   A(31,9,32)            106.8927         calculate D2E/DX2 analytically  !
 ! A40   A(9,10,11)            111.2726         calculate D2E/DX2 analytically  !
 ! A41   A(9,10,33)            108.8286         calculate D2E/DX2 analytically  !
 ! A42   A(9,10,34)            110.8665         calculate D2E/DX2 analytically  !
 ! A43   A(11,10,33)           108.2365         calculate D2E/DX2 analytically  !
 ! A44   A(11,10,34)           111.6211         calculate D2E/DX2 analytically  !
 ! A45   A(33,10,34)           105.7941         calculate D2E/DX2 analytically  !
 ! A46   A(10,11,12)           122.0232         calculate D2E/DX2 analytically  !
 ! A47   A(10,11,35)           113.0076         calculate D2E/DX2 analytically  !
 ! A48   A(12,11,35)           111.8982         calculate D2E/DX2 analytically  !
 ! A49   A(11,12,13)           118.2382         calculate D2E/DX2 analytically  !
 ! A50   A(11,12,18)           124.1893         calculate D2E/DX2 analytically  !
 ! A51   A(13,12,18)           117.288          calculate D2E/DX2 analytically  !
 ! A52   A(12,13,14)           121.6628         calculate D2E/DX2 analytically  !
 ! A53   A(12,13,36)           119.895          calculate D2E/DX2 analytically  !
 ! A54   A(14,13,36)           118.4422         calculate D2E/DX2 analytically  !
 ! A55   A(13,14,15)           120.369          calculate D2E/DX2 analytically  !
 ! A56   A(13,14,37)           119.1623         calculate D2E/DX2 analytically  !
 ! A57   A(15,14,37)           120.4656         calculate D2E/DX2 analytically  !
 ! A58   A(14,15,16)           120.7217         calculate D2E/DX2 analytically  !
 ! A59   A(14,15,17)           118.5936         calculate D2E/DX2 analytically  !
 ! A60   A(16,15,17)           120.653          calculate D2E/DX2 analytically  !
 ! A61   A(15,16,38)           110.9522         calculate D2E/DX2 analytically  !
 ! A62   A(15,16,39)           109.9722         calculate D2E/DX2 analytically  !
 ! A63   A(15,16,40)           110.886          calculate D2E/DX2 analytically  !
 ! A64   A(38,16,39)           108.8344         calculate D2E/DX2 analytically  !
 ! A65   A(38,16,40)           107.2538         calculate D2E/DX2 analytically  !
 ! A66   A(39,16,40)           108.864          calculate D2E/DX2 analytically  !
 ! A67   A(15,17,18)           120.6542         calculate D2E/DX2 analytically  !
 ! A68   A(15,17,41)           120.3285         calculate D2E/DX2 analytically  !
 ! A69   A(18,17,41)           119.0144         calculate D2E/DX2 analytically  !
 ! A70   A(12,18,17)           121.3685         calculate D2E/DX2 analytically  !
 ! A71   A(12,18,42)           121.0515         calculate D2E/DX2 analytically  !
 ! A72   A(17,18,42)           117.5795         calculate D2E/DX2 analytically  !
 ! A73   A(5,19,20)            121.2698         calculate D2E/DX2 analytically  !
 ! A74   A(5,19,43)            120.9942         calculate D2E/DX2 analytically  !
 ! A75   A(20,19,43)           117.7359         calculate D2E/DX2 analytically  !
 ! A76   A(2,20,19)            120.6571         calculate D2E/DX2 analytically  !
 ! A77   A(2,20,44)            120.3032         calculate D2E/DX2 analytically  !
 ! A78   A(19,20,44)           119.0362         calculate D2E/DX2 analytically  !
 ! D1    D(21,1,2,3)           -28.2468         calculate D2E/DX2 analytically  !
 ! D2    D(21,1,2,20)          153.7166         calculate D2E/DX2 analytically  !
 ! D3    D(22,1,2,3)            92.1902         calculate D2E/DX2 analytically  !
 ! D4    D(22,1,2,20)          -85.8464         calculate D2E/DX2 analytically  !
 ! D5    D(23,1,2,3)          -147.2316         calculate D2E/DX2 analytically  !
 ! D6    D(23,1,2,20)           34.7319         calculate D2E/DX2 analytically  !
 ! D7    D(1,2,3,4)           -178.6157         calculate D2E/DX2 analytically  !
 ! D8    D(1,2,3,24)             1.9819         calculate D2E/DX2 analytically  !
 ! D9    D(20,2,3,4)            -0.5419         calculate D2E/DX2 analytically  !
 ! D10   D(20,2,3,24)         -179.9444         calculate D2E/DX2 analytically  !
 ! D11   D(1,2,20,19)          178.6805         calculate D2E/DX2 analytically  !
 ! D12   D(1,2,20,44)           -2.0078         calculate D2E/DX2 analytically  !
 ! D13   D(3,2,20,19)            0.6026         calculate D2E/DX2 analytically  !
 ! D14   D(3,2,20,44)          179.9143         calculate D2E/DX2 analytically  !
 ! D15   D(2,3,4,5)              1.8193         calculate D2E/DX2 analytically  !
 ! D16   D(2,3,4,25)          -178.3442         calculate D2E/DX2 analytically  !
 ! D17   D(24,3,4,5)          -178.7703         calculate D2E/DX2 analytically  !
 ! D18   D(24,3,4,25)            1.0662         calculate D2E/DX2 analytically  !
 ! D19   D(3,4,5,6)           -176.8401         calculate D2E/DX2 analytically  !
 ! D20   D(3,4,5,19)            -3.0337         calculate D2E/DX2 analytically  !
 ! D21   D(25,4,5,6)             3.3257         calculate D2E/DX2 analytically  !
 ! D22   D(25,4,5,19)          177.132          calculate D2E/DX2 analytically  !
 ! D23   D(4,5,6,7)           -164.3252         calculate D2E/DX2 analytically  !
 ! D24   D(4,5,6,26)           -30.8006         calculate D2E/DX2 analytically  !
 ! D25   D(19,5,6,7)            22.2989         calculate D2E/DX2 analytically  !
 ! D26   D(19,5,6,26)          155.8235         calculate D2E/DX2 analytically  !
 ! D27   D(4,5,19,20)            3.0847         calculate D2E/DX2 analytically  !
 ! D28   D(4,5,19,43)         -177.0288         calculate D2E/DX2 analytically  !
 ! D29   D(6,5,19,20)          176.5158         calculate D2E/DX2 analytically  !
 ! D30   D(6,5,19,43)           -3.5977         calculate D2E/DX2 analytically  !
 ! D31   D(5,6,7,8)            176.4722         calculate D2E/DX2 analytically  !
 ! D32   D(5,6,7,27)           -64.0853         calculate D2E/DX2 analytically  !
 ! D33   D(5,6,7,28)            55.8768         calculate D2E/DX2 analytically  !
 ! D34   D(26,6,7,8)            43.7013         calculate D2E/DX2 analytically  !
 ! D35   D(26,6,7,27)          163.1438         calculate D2E/DX2 analytically  !
 ! D36   D(26,6,7,28)          -76.8941         calculate D2E/DX2 analytically  !
 ! D37   D(6,7,8,9)            178.1204         calculate D2E/DX2 analytically  !
 ! D38   D(6,7,8,29)           -60.0015         calculate D2E/DX2 analytically  !
 ! D39   D(6,7,8,30)            56.6246         calculate D2E/DX2 analytically  !
 ! D40   D(27,7,8,9)            57.7598         calculate D2E/DX2 analytically  !
 ! D41   D(27,7,8,29)          179.638          calculate D2E/DX2 analytically  !
 ! D42   D(27,7,8,30)          -63.736          calculate D2E/DX2 analytically  !
 ! D43   D(28,7,8,9)           -60.8991         calculate D2E/DX2 analytically  !
 ! D44   D(28,7,8,29)           60.9791         calculate D2E/DX2 analytically  !
 ! D45   D(28,7,8,30)          177.6051         calculate D2E/DX2 analytically  !
 ! D46   D(7,8,9,10)          -178.902          calculate D2E/DX2 analytically  !
 ! D47   D(7,8,9,31)           -58.6636         calculate D2E/DX2 analytically  !
 ! D48   D(7,8,9,32)            57.8674         calculate D2E/DX2 analytically  !
 ! D49   D(29,8,9,10)           59.7039         calculate D2E/DX2 analytically  !
 ! D50   D(29,8,9,31)          179.9423         calculate D2E/DX2 analytically  !
 ! D51   D(29,8,9,32)          -63.5267         calculate D2E/DX2 analytically  !
 ! D52   D(30,8,9,10)          -57.4243         calculate D2E/DX2 analytically  !
 ! D53   D(30,8,9,31)           62.814          calculate D2E/DX2 analytically  !
 ! D54   D(30,8,9,32)          179.3451         calculate D2E/DX2 analytically  !
 ! D55   D(8,9,10,11)          -64.8902         calculate D2E/DX2 analytically  !
 ! D56   D(8,9,10,33)           54.2904         calculate D2E/DX2 analytically  !
 ! D57   D(8,9,10,34)          170.2498         calculate D2E/DX2 analytically  !
 ! D58   D(31,9,10,11)         174.4939         calculate D2E/DX2 analytically  !
 ! D59   D(31,9,10,33)         -66.3256         calculate D2E/DX2 analytically  !
 ! D60   D(31,9,10,34)          49.6339         calculate D2E/DX2 analytically  !
 ! D61   D(32,9,10,11)          57.6222         calculate D2E/DX2 analytically  !
 ! D62   D(32,9,10,33)         176.8028         calculate D2E/DX2 analytically  !
 ! D63   D(32,9,10,34)         -67.2378         calculate D2E/DX2 analytically  !
 ! D64   D(9,10,11,12)         -91.8308         calculate D2E/DX2 analytically  !
 ! D65   D(9,10,11,35)         130.1395         calculate D2E/DX2 analytically  !
 ! D66   D(33,10,11,12)        148.6358         calculate D2E/DX2 analytically  !
 ! D67   D(33,10,11,35)         10.6061         calculate D2E/DX2 analytically  !
 ! D68   D(34,10,11,12)         32.6047         calculate D2E/DX2 analytically  !
 ! D69   D(34,10,11,35)       -105.425          calculate D2E/DX2 analytically  !
 ! D70   D(10,11,12,13)       -168.0096         calculate D2E/DX2 analytically  !
 ! D71   D(10,11,12,18)         18.2947         calculate D2E/DX2 analytically  !
 ! D72   D(35,11,12,13)        -29.5705         calculate D2E/DX2 analytically  !
 ! D73   D(35,11,12,18)        156.7338         calculate D2E/DX2 analytically  !
 ! D74   D(11,12,13,14)       -176.9294         calculate D2E/DX2 analytically  !
 ! D75   D(11,12,13,36)          3.0756         calculate D2E/DX2 analytically  !
 ! D76   D(18,12,13,14)         -2.7956         calculate D2E/DX2 analytically  !
 ! D77   D(18,12,13,36)        177.2094         calculate D2E/DX2 analytically  !
 ! D78   D(11,12,18,17)        176.5348         calculate D2E/DX2 analytically  !
 ! D79   D(11,12,18,42)         -3.7353         calculate D2E/DX2 analytically  !
 ! D80   D(13,12,18,17)          2.7841         calculate D2E/DX2 analytically  !
 ! D81   D(13,12,18,42)       -177.486          calculate D2E/DX2 analytically  !
 ! D82   D(12,13,14,15)          1.8037         calculate D2E/DX2 analytically  !
 ! D83   D(12,13,14,37)       -178.8288         calculate D2E/DX2 analytically  !
 ! D84   D(36,13,14,15)       -178.2013         calculate D2E/DX2 analytically  !
 ! D85   D(36,13,14,37)          1.1663         calculate D2E/DX2 analytically  !
 ! D86   D(13,14,15,16)       -178.6504         calculate D2E/DX2 analytically  !
 ! D87   D(13,14,15,17)         -0.6856         calculate D2E/DX2 analytically  !
 ! D88   D(37,14,15,16)          1.9903         calculate D2E/DX2 analytically  !
 ! D89   D(37,14,15,17)        179.9551         calculate D2E/DX2 analytically  !
 ! D90   D(14,15,16,38)        -30.915          calculate D2E/DX2 analytically  !
 ! D91   D(14,15,16,39)         89.5471         calculate D2E/DX2 analytically  !
 ! D92   D(14,15,16,40)       -149.9965         calculate D2E/DX2 analytically  !
 ! D93   D(17,15,16,38)        151.1623         calculate D2E/DX2 analytically  !
 ! D94   D(17,15,16,39)        -88.3756         calculate D2E/DX2 analytically  !
 ! D95   D(17,15,16,40)         32.0807         calculate D2E/DX2 analytically  !
 ! D96   D(14,15,17,18)          0.6849         calculate D2E/DX2 analytically  !
 ! D97   D(14,15,17,41)       -179.9345         calculate D2E/DX2 analytically  !
 ! D98   D(16,15,17,18)        178.6512         calculate D2E/DX2 analytically  !
 ! D99   D(16,15,17,41)         -1.9682         calculate D2E/DX2 analytically  !
 ! D100  D(15,17,18,12)         -1.7987         calculate D2E/DX2 analytically  !
 ! D101  D(15,17,18,42)        178.4623         calculate D2E/DX2 analytically  !
 ! D102  D(41,17,18,12)        178.8126         calculate D2E/DX2 analytically  !
 ! D103  D(41,17,18,42)         -0.9263         calculate D2E/DX2 analytically  !
 ! D104  D(5,19,20,2)           -1.9404         calculate D2E/DX2 analytically  !
 ! D105  D(5,19,20,44)         178.7393         calculate D2E/DX2 analytically  !
 ! D106  D(43,19,20,2)         178.1695         calculate D2E/DX2 analytically  !
 ! D107  D(43,19,20,44)         -1.1508         calculate D2E/DX2 analytically  !
 --------------------------------------------------------------------------------
 Trust Radius=3.00D-01 FncErr=1.00D-07 GrdErr=1.00D-06 EigMax=2.50D+02 EigMin=1.00D-04
 Number of steps in this run=    240 maximum allowed number of steps=    264.
 GradGradGradGradGradGradGradGradGradGradGradGradGradGradGradGradGradGrad

                          Input orientation:                          
 ---------------------------------------------------------------------
 Center     Atomic      Atomic             Coordinates (Angstroms)
 Number     Number       Type             X           Y           Z
 ---------------------------------------------------------------------
      1          6           0        7.462803   -1.795943    1.165956
      2          6           0        6.178187   -1.082783    0.869129
      3          6           0        5.706122   -0.079436    1.716722
      4          6           0        4.491240    0.561108    1.447318
      5          6           0        3.696717    0.195896    0.351158
      6          7           0        2.526915    0.925831    0.105210
      7          6           0        1.514780    0.377680   -0.791466
      8          6           0        0.306549    1.315054   -0.824605
      9          6           0       -0.765581    0.802927   -1.791003
     10          6           0       -1.976801    1.734284   -1.866476
     11          7           0       -2.680588    1.790870   -0.591436
     12          6           0       -3.741034    0.934669   -0.293082
     13          6           0       -4.524178    1.216696    0.835497
     14          6           0       -5.565034    0.371733    1.237229
     15          6           0       -5.827869   -0.806008    0.536673
     16          6           0       -6.959583   -1.701654    0.941720
     17          6           0       -5.041450   -1.111347   -0.576338
     18          6           0       -4.001288   -0.259510   -0.971619
     19          6           0        4.194168   -0.791614   -0.504717
     20          6           0        5.408688   -1.438169   -0.240865
     21          1           0        8.147058   -1.153453    1.730105
     22          1           0        7.263379   -2.698152    1.751908
     23          1           0        7.973634   -2.078426    0.239315
     24          1           0        6.281232    0.221534    2.588911
     25          1           0        4.165453    1.357279    2.112439
     26          1           0        2.131012    1.280115    0.973419
     27          1           0        1.917575    0.286955   -1.806918
     28          1           0        1.201116   -0.615707   -0.448204
     29          1           0       -0.109000    1.408120    0.186685
     30          1           0        0.627103    2.319936   -1.126812
     31          1           0       -0.331376    0.717907   -2.794859
     32          1           0       -1.072746   -0.205358   -1.490411
     33          1           0       -1.630903    2.745599   -2.112792
     34          1           0       -2.645147    1.440166   -2.684025
     35          1           0       -2.861342    2.741771   -0.278985
     36          1           0       -4.327930    2.111061    1.421403
     37          1           0       -6.158945    0.639613    2.107785
     38          1           0       -7.133862   -1.648482    2.021464
     39          1           0       -7.875020   -1.405629    0.421253
     40          1           0       -6.736703   -2.746062    0.699754
     41          1           0       -5.222444   -2.021591   -1.143738
     42          1           0       -3.405874   -0.557724   -1.827805
     43          1           0        3.649606   -1.084230   -1.396484
     44          1           0        5.751360   -2.215529   -0.920051
 ---------------------------------------------------------------------
                    Distance matrix (angstroms):
                    1          2          3          4          5
     1  C    0.000000
     2  C    1.498980   0.000000
     3  C    2.517075   1.395695   0.000000
     4  C    3.803293   2.425380   1.399576   0.000000
     5  C    4.337594   2.839191   2.445053   1.402218   0.000000
     6  N    5.735523   4.236730   3.703362   2.406834   1.400618
     7  C    6.628357   5.161191   4.905845   3.728956   2.469713
     8  C    8.053111   6.564639   6.128486   4.820966   3.758746
     9  C    9.121624   7.671252   7.413882   6.178946   4.986927
    10  C   10.524460   9.051145   8.669268   7.361598   6.282781
    11  N   10.901469   9.427037   8.897334   7.556716   6.640967
    12  C   11.623725  10.188807   9.711667   8.422522   7.502064
    13  C   12.364179  10.946659  10.349665   9.059906   8.298176
    14  C   13.207136  11.838680  11.290369  10.060251   9.305701
    15  C   13.342335  12.013846  11.616943  10.449033   9.578933
    16  C   14.424437  13.152538  12.792666  11.683196  10.840026
    17  C   12.643599  11.312402  11.037811   9.887592   8.883957
    18  C   11.762450  10.377275  10.074394   8.868354   7.824092
    19  C    3.805758   2.430753   2.779927   2.393439   1.398269
    20  C    2.515260   1.396608   2.401410   2.772865   2.439571
    21  H    1.095109   2.150054   2.666807   4.047801   4.850544
    22  H    1.094116   2.136904   3.046959   4.289557   4.801947
    23  H    1.095175   2.147464   3.364566   4.533594   4.845314
    24  H    2.736992   2.160906   1.087220   2.150027   3.418759
    25  H    4.659523   3.398650   2.143456   1.087387   2.161165
    26  H    6.158506   4.687621   3.896447   2.512415   2.003540
    27  H    6.627668   5.214424   5.186846   4.158000   2.798379
    28  H    6.573218   5.169600   5.026885   3.975276   2.743301
    29  H    8.279927   6.796988   6.194310   4.844464   3.997501
    30  H    8.302050   6.810052   6.295960   4.964995   4.014781
    31  H    9.097072   7.683860   7.579018   6.424818   5.137650
    32  H    9.079749   7.675502   7.500308   6.338428   5.128368
    33  H   10.680415   9.194033   8.745167   7.411276   6.399653
    34  H   11.290057   9.840802   9.561353   8.292693   7.140012
    35  H   11.369550   9.882229   9.238154   7.861035   7.063051
    36  H   12.423821  10.994733  10.274615   8.954373   8.319149
    37  H   13.869787  12.518217  11.893267  10.670934  10.020813
    38  H   14.622457  13.373800  12.939087  11.847148  11.112744
    39  H   15.360851  14.064048  13.707095  12.563648  11.682247
    40  H   14.238892  13.022656  12.765932  11.728723  10.845869
    41  H   12.895778  11.614963  11.462450  10.379767   9.311466
    42  H   11.341249   9.970123   9.788816   8.622217   7.467437
    43  H    4.648990   3.395103   3.864056   3.391563   2.166840
    44  H    2.730662   2.160199   3.393746   3.860318   3.413576
                    6          7          8          9         10
     6  N    0.000000
     7  C    1.459080   0.000000
     8  C    2.438458   1.529572   0.000000
     9  C    3.801482   2.525857   1.531555   0.000000
    10  C    4.982429   3.897071   2.544590   1.529763   0.000000
    11  N    5.324632   4.431504   3.033770   2.466221   1.457480
    12  C    6.280597   5.308691   4.100016   3.333832   2.495490
    13  C    7.094776   6.310307   5.108966   4.603993   3.749358
    14  C    8.189514   7.364741   6.294164   5.691297   4.936087
    15  C    8.543292   7.555101   6.631973   5.799440   5.201820
    16  C    9.879123   8.896200   8.063318   7.218473   6.672312
    17  C    7.867322   6.726636   5.877938   4.839722   4.376546
    18  C    6.721758   5.555670   4.588935   3.502850   2.979015
    19  C    2.470094   2.937447   4.433279   5.366210   6.805543
    20  C    3.743378   4.331627   5.826904   6.748855   8.200763
    21  H    6.208841   7.258774   8.607767   9.780632  11.125059
    22  H    6.186999   6.998277   8.434555   9.448490  10.868308
    23  H    6.221759   6.986541   8.451735   9.423283  10.861964
    24  H    4.556281   5.845545   6.967404   8.317406   9.504420
    25  H    2.626770   4.051955   4.849654   6.313419   7.328108
    26  H    1.017862   2.075801   2.561791   4.032367   5.014518
    27  H    2.106108   1.096183   2.148797   2.732363   4.155054
    28  H    2.107214   1.096828   2.160964   2.771918   4.199180
    29  H    2.680912   2.157602   1.097292   2.169933   2.794734
    30  H    2.659077   2.161663   1.097212   2.163802   2.769550
    31  H    4.077188   2.745474   2.155326   1.097037   2.145306
    32  H    4.096725   2.742945   2.158102   1.096058   2.172775
    33  H    5.051588   4.153103   2.731228   2.150885   1.096847
    34  H    5.898695   4.692083   3.490788   2.176311   1.096165
    35  H    5.698996   5.000200   3.516924   3.230715   2.077876
    36  H    7.079975   6.483723   5.211198   4.972032   4.059547
    37  H    8.918318   8.207333   7.131462   6.656996   5.872256
    38  H   10.179869   9.317559   8.499551   7.816604   7.290711
    39  H   10.664701   9.634273   8.711621   7.766332   7.062701
    40  H    9.982530   8.948099   8.271864   7.379260   7.022514
    41  H    8.384494   7.160362   6.465663   5.316058   5.016288
    42  H    6.413694   5.114862   4.277358   2.970500   2.701305
    43  H    2.748793   2.657199   4.154471   4.817767   6.310417
    44  H    4.616963   4.968891   6.489999   7.234650   8.730477
                   11         12         13         14         15
    11  N    0.000000
    12  C    1.395220   0.000000
    13  C    2.400965   1.402336   0.000000
    14  C    3.698377   2.446575   1.399547   0.000000
    15  C    4.233412   2.841361   2.424920   1.395326   0.000000
    16  C    5.732197   4.339815   3.802531   2.516153   1.499007
    17  C    3.741224   2.440799   2.771395   2.400561   1.396596
    18  C    2.468368   1.397930   2.391290   2.778989   2.431050
    19  C    7.344319   8.123563   9.046494   9.981472  10.076007
    20  C    8.716994   9.452539  10.337732  11.219763  11.281152
    21  H   11.458469  12.238475  12.922003  13.805455  14.030095
    22  H   11.159079  11.767602  12.454411  13.200654  13.282988
    23  H   11.365476  12.107668  12.938646  13.794732  13.863222
    24  H    9.638031  10.452763  10.991892  11.924077  12.324684
    25  H    7.373413   8.275123   8.784078   9.819351  10.345497
    26  H    5.085384   6.016999   6.656921   7.753958   8.239322
    27  H    4.988213   5.893309   7.024454   8.078580   8.165714
    28  H    4.569437   5.181947   6.146916   7.042479   7.100199
    29  H    2.713860   3.694050   4.466699   5.652084   6.142501
    30  H    3.392251   4.657756   5.621699   6.908455   7.362430
    31  H    3.394867   4.234576   5.568470   6.615795   6.605517
    32  H    2.716291   3.138952   4.398235   5.287127   5.203945
    33  H    2.080354   3.323170   4.404655   5.686411   6.103122
    34  H    2.122070   2.678265   3.995965   5.004351   5.054495
    35  H    1.017108   2.009894   2.516535   3.902043   4.695989
    36  H    2.620645   2.160511   1.087055   2.142337   3.397330
    37  H    4.550841   3.420163   2.150397   1.087362   2.160514
    38  H    6.203872   4.851915   4.052926   2.675353   2.149415
    39  H    6.182658   4.803864   4.275082   3.026693   2.136281
    40  H    6.221172   4.848457   4.540610   3.373771   2.148577
    41  H    4.615292   3.414332   3.858944   3.393284   2.160547
    42  H    2.751461   2.166781   3.390036   3.862680   3.393885
    43  H    6.998975   7.740478   8.779905   9.693599   9.676623
    44  H    9.341144  10.021097  10.974917  11.807140  11.755311
                   16         17         18         19         20
    16  C    0.000000
    17  C    2.516385   0.000000
    18  C    3.806856   1.401361   0.000000
    19  C   11.283905   9.241429   8.225973   0.000000
    20  C   12.427472  10.460628   9.511619   1.400967   0.000000
    21  H   15.137129  13.388734  12.477210   4.555293   3.385921
    22  H   14.280828  12.623292  11.843027   4.259964   2.999763
    23  H   14.954473  13.076427  12.172657   4.061259   2.686903
    24  H   13.480766  11.832096  10.892153   3.866890   3.394640
    25  H   11.597157   9.904075   8.878123   3.386454   3.859819
    26  H    9.567176   7.717839   6.615037   3.276212   4.427947
    27  H    9.503342   7.204000   6.002440   2.835827   4.197194
    28  H    8.349142   6.263522   5.240787   2.998750   4.292214
    29  H    7.561168   5.590974   4.390053   4.882020   6.223266
    30  H    8.832316   6.649002   5.300909   4.774170   6.145877
    31  H    7.984323   5.518406   4.212814   5.291876   6.642280
    32  H    6.542860   4.172165   2.974632   5.390332   6.714922
    33  H    7.583068   5.372947   3.993955   7.002088   8.400230
    34  H    6.452242   4.085932   2.767734   7.517078   8.894835
    35  H    6.166824   4.437094   3.284342   7.894047   9.266431
    36  H    4.657519   3.857978   3.384207   9.206608  10.495804
    37  H    2.735372   3.393990   3.866088  10.773140  11.985136
    38  H    1.095011   3.378650   4.549814  11.637873  12.746683
    39  H    1.093866   3.018428   4.273112  12.120220  13.300239
    40  H    1.094994   2.678541   4.056960  11.169358  12.251770
    41  H    2.732974   1.087771   2.150762   9.518076  10.685342
    42  H    4.648407   2.132552   1.084667   7.717896   8.999448
    43  H   10.881327   8.729709   7.706935   1.085090   2.134268
    44  H   12.856840  10.854590   9.947000   2.150554   1.087661
                   21         22         23         24         25
    21  H    0.000000
    22  H    1.779736   0.000000
    23  H    1.762983   1.782263   0.000000
    24  H    2.471729   3.192139   3.697924   0.000000
    25  H    4.722620   5.116019   5.460303   2.448155   0.000000
    26  H    6.533578   6.540172   6.779007   4.577635   2.332868
    27  H    7.306967   7.081929   6.816006   6.194279   4.643264
    28  H    7.299337   6.777027   6.962703   5.977677   4.385984
    29  H    8.781019   8.582736   8.802712   6.929194   4.688502
    30  H    8.762199   8.803885   8.670836   7.083718   4.892787
    31  H    9.790870   9.488037   9.273558   8.541543   6.686691
    32  H    9.812003   9.285345   9.398794   8.420457   6.546838
    33  H   11.206203  11.121087  11.002306   9.543521   7.306007
    34  H   11.945003  11.618178  11.562219  10.438829   8.330498
    35  H   11.848801  11.671643  11.870115   9.907728   7.550600
    36  H   12.898747  12.553733  13.049046  10.839175   8.554722
    37  H   14.422880  13.835682  14.512364  12.456496  10.349312
    38  H   15.291712  14.437971  15.218322  13.556685  11.692621
    39  H   16.077428  15.251635  15.863971  14.413392  12.468631
    40  H   15.004145  14.039644  14.732676  13.484887  11.734142
    41  H   13.702417  12.835041  13.268479  12.300359  10.495335
    42  H   12.103052  11.455511  11.665278  10.674954   8.747442
    43  H    5.477904   5.057319   4.728793   4.951146   4.305764
    44  H    3.727024   3.107811   2.510264   4.304980   4.947328
                   26         27         28         29         30
    26  H    0.000000
    27  H    2.960100   0.000000
    28  H    2.545557   1.781633   0.000000
    29  H    2.377601   3.055891   2.493063   0.000000
    30  H    2.784589   2.502174   3.067246   1.760264   0.000000
    31  H    4.536446   2.493899   3.103844   3.068461   2.503510
    32  H    4.305944   3.047059   2.534764   2.518883   3.065747
    33  H    5.081765   4.327839   4.699953   3.064740   2.500388
    34  H    6.017823   4.787238   4.900943   3.830672   3.729146
    35  H    5.350565   5.585584   5.273031   3.093681   3.614693
    36  H    6.527564   7.263316   6.442131   4.451745   5.575786
    37  H    8.391687   8.982174   7.891730   6.393987   7.703023
    38  H    9.773073  10.016533   8.754298   7.877685   9.267824
    39  H   10.374911  10.184523   9.151840   8.263370   9.410762
    40  H    9.742759   9.506794   8.298505   7.838809   9.122846
    41  H    8.334082   7.533197   6.612291   6.299227   7.284665
    42  H    6.471600   5.390086   4.809472   4.334985   5.003721
    43  H    3.675962   2.246894   2.667180   4.779681   4.560328
    44  H    5.376958   4.663353   4.846318   6.978504   6.846255
                   31         32         33         34         35
    31  H    0.000000
    32  H    1.761712   0.000000
    33  H    2.503102   3.067090   0.000000
    34  H    2.426412   2.570001   1.749043   0.000000
    35  H    4.101996   3.654065   2.208357   2.743197   0.000000
    36  H    5.974127   4.943752   4.490783   4.487361   2.332380
    37  H    7.615944   6.287322   6.538472   5.995758   4.581477
    38  H    8.664328   7.152133   8.165940   7.199302   6.543761
    39  H    8.471089   7.167011   7.914738   6.715123   6.544328
    40  H    8.077104   6.582736   8.008617   6.761309   6.789158
    41  H    5.844108   4.543003   6.046845   4.582435   5.386299
    42  H    3.466261   2.383586   3.760809   2.302908   3.685379
    43  H    4.588177   4.804357   6.562351   6.903205   7.634102
    44  H    7.008540   7.136843   8.974031   9.326148   9.958133
                   36         37         38         39         40
    36  H    0.000000
    37  H    2.447222   0.000000
    38  H    4.729427   2.488632   0.000000
    39  H    5.094041   3.157897   1.780160   0.000000
    40  H    5.469425   3.712028   1.763331   1.780474   0.000000
    41  H    4.945596   4.304816   3.716347   3.140823   2.493251
    42  H    4.304643   4.949937   5.468502   5.074492   4.719300
    43  H    9.043863  10.557424  11.326249  11.671524  10.725265
    44  H   11.215787  12.616458  13.228870  13.716168  12.603847
                   41         42         43         44
    41  H    0.000000
    42  H    2.431209   0.000000
    43  H    8.925009   7.088233   0.000000
    44  H   10.977797   9.350255   2.433968   0.000000
 Stoichiometry    C18H24N2
 Framework group  C1[X(C18H24N2)]
 Deg. of freedom   126
 Full point group                 C1      NOp   1
 Largest Abelian subgroup         C1      NOp   1
 Largest concise Abelian subgroup C1      NOp   1
                         Standard orientation:                         
 ---------------------------------------------------------------------
 Center     Atomic      Atomic             Coordinates (Angstroms)
 Number     Number       Type             X           Y           Z
 ---------------------------------------------------------------------
      1          6           0       -7.594499    1.585655   -0.273086
      2          6           0       -6.257355    0.940570   -0.066073
      3          6           0       -5.775778    0.692271    1.220161
      4          6           0       -4.513752    0.115937    1.404404
      5          6           0       -3.683022   -0.193589    0.317989
      6          7           0       -2.462144   -0.830235    0.574638
      7          6           0       -1.435637   -0.857268   -0.461927
      8          6           0       -0.176214   -1.527191    0.090021
      9          6           0        0.915919   -1.620207   -0.979677
     10          6           0        2.180272   -2.310661   -0.465031
     11          7           0        2.816074   -1.531579    0.589974
     12          6           0        3.808591   -0.589421    0.318155
     13          6           0        4.544209   -0.071454    1.393851
     14          6           0        5.512238    0.922624    1.210925
     15          6           0        5.745457    1.455276   -0.057469
     16          6           0        6.801013    2.498657   -0.267655
     17          6           0        5.004413    0.964949   -1.134925
     18          6           0        4.037116   -0.030639   -0.942697
     19          6           0       -4.188563    0.035168   -0.965465
     20          6           0       -5.450267    0.612952   -1.157763
     21          1           0       -8.270787    1.362739    0.558904
     22          1           0       -7.478531    2.670779   -0.351493
     23          1           0       -8.069598    1.211078   -1.185983
     24          1           0       -6.379283    0.934759    2.091382
     25          1           0       -4.179862   -0.089392    2.418686
     26          1           0       -2.094386   -0.556849    1.483515
     27          1           0       -1.787360   -1.429212   -1.328408
     28          1           0       -1.197808    0.162716   -0.787659
     29          1           0        0.188581   -0.958623    0.954721
     30          1           0       -0.422483   -2.532069    0.455323
     31          1           0        0.532579   -2.192130   -1.833751
     32          1           0        1.148735   -0.614646   -1.348441
     33          1           0        1.906076   -3.288901   -0.051584
     34          1           0        2.874158   -2.518365   -1.287807
     35          1           0        3.033235   -2.083770    1.416070
     36          1           0        4.367521   -0.443162    2.399984
     37          1           0        6.072371    1.281426    2.071081
     38          1           0        6.919315    3.121398    0.625232
     39          1           0        7.758586    2.021002   -0.494464
     40          1           0        6.532741    3.164307   -1.094668
     41          1           0        5.163991    1.359237   -2.136084
     42          1           0        3.472988   -0.356813   -1.809802
     43          1           0       -3.613977   -0.228141   -1.847474
     44          1           0       -5.799162    0.793549   -2.171994
 ---------------------------------------------------------------------
 Rotational constants (GHZ):           0.7770178           0.0863036           0.0833441
 Standard basis: 6-31G(d,p) (6D, 7F)
 There are   420 symmetry adapted cartesian basis functions of A   symmetry.
 There are   420 symmetry adapted basis functions of A   symmetry.
   420 basis functions,   728 primitive gaussians,   420 cartesian basis functions
    73 alpha electrons       73 beta electrons
       nuclear repulsion energy      1362.9369853963 Hartrees.
 NAtoms=   44 NActive=   44 NUniq=   44 SFac= 1.00D+00 NAtFMM=   60 NAOKFM=F Big=F
 Integral buffers will be    131072 words long.
 Raffenetti 2 integral format.
 Two-electron integral symmetry is turned on.
 Force inversion solution in PCM.
 ------------------------------------------------------------------------------
 Polarizable Continuum Model (PCM)
 =================================
 Model                : PCM.
 Atomic radii         : UFF (Universal Force Field).
 Polarization charges : Total charges.
 Charge compensation  : None.
 Solution method      : Matrix inversion.
 Cavity type          : Scaled VdW (van der Waals Surface) (Alpha=1.100).
 Cavity algorithm     : GePol (No added spheres)
                        Default sphere list used, NSphG=   44.
                        Lebedev-Laikov grids with approx.  5.0 points / Ang**2.
                        Smoothing algorithm: York/Karplus (Gamma=1.0000).
                        Polarization charges: spherical gaussians, with
                                              point-specific exponents (IZeta= 3).
                        Self-potential: point-specific (ISelfS= 7).
                        Self-field    : sphere-specific E.n sum rule (ISelfD= 2).
 1st derivatives      : Analytical E(r).r(x)/FMM algorithm (CHGder, D1EAlg=3).
                        Cavity 1st derivative terms included.
 2nd derivatives      : Analytical E(r).r(xy)/FMM algorithm (CHGder, D2EAlg=3).
                        Cavity 2nd derivative terms included.
 Solvent              : Water, Eps=  78.355300 Eps(inf)=   1.777849
 ------------------------------------------------------------------------------
 One-electron integrals computed using PRISM.
 NBasis=   420 RedAO= T EigKep=  4.18D-04  NBF=   420
 NBsUse=   420 1.00D-06 EigRej= -1.00D+00 NBFU=   420
 ExpMin= 1.61D-01 ExpMax= 4.17D+03 ExpMxC= 6.27D+02 IAcc=3 IRadAn=         5 AccDes= 0.00D+00
 Harris functional with IExCor=  402 and IRadAn=       5 diagonalized for initial guess.
 HarFok:  IExCor=  402 AccDes= 0.00D+00 IRadAn=         5 IDoV= 1 UseB2=F ITyADJ=14
 ICtDFT=  3500011 ScaDFX=  1.000000  1.000000  1.000000  1.000000
 FoFCou: FMM=F IPFlag=           0 FMFlag=      100000 FMFlg1=           0
         NFxFlg=           0 DoJE=T BraDBF=F KetDBF=T FulRan=T
         wScrn=  0.000000 ICntrl=       500 IOpCl=  0 I1Cent=   200000004 NGrid=           0
         NMat0=    1 NMatS0=      1 NMatT0=    0 NMatD0=    1 NMtDS0=    0 NMtDT0=    0
 Petite list used in FoFCou.
 Requested convergence on RMS density matrix=1.00D-08 within  32 cycles.
 Requested convergence on MAX density matrix=1.00D-06.
 Requested convergence on             energy=1.00D-06.
 No special actions if energy rises.
 Inv3:  Mode=1 IEnd=    28385328.
 Iteration    1 A*A^-1 deviation from unit magnitude is 3.77D-15 for   1730.
 Iteration    1 A*A^-1 deviation from orthogonality  is 2.11D-15 for   2561    863.
 Iteration    1 A^-1*A deviation from unit magnitude is 3.55D-15 for   1730.
 Iteration    1 A^-1*A deviation from orthogonality  is 9.83D-15 for   2736   2681.
 Error on total polarization charges =  0.01388
 SCF Done:  E(RB3LYP) =  -809.925847113     A.U. after   12 cycles
            NFock= 12  Conv=0.56D-08     -V/T= 2.0097
 QCSCF skips out because SCF is already converged.
 DoSCS=F DFT=T ScalE2(SS,OS)=  1.000000  1.000000
 Range of M.O.s used for correlation:     1   420
 NBasis=   420 NAE=    73 NBE=    73 NFC=     0 NFV=     0
 NROrb=    420 NOA=    73 NOB=    73 NVA=   347 NVB=   347
 Symmetrizing basis deriv contribution to polar:
 IMax=3 JMax=2 DiffMx= 0.00D+00
 G2DrvN: will do    45 centers at a time, making    1 passes.
 Calling FoFCou, ICntrl=  3107 FMM=F I1Cent=   0 AccDes= 0.00D+00.
 NEqPCM:  Using equilibrium solvation (IEInf=0, Eps=  78.3553, EpsInf=   1.7778)
 G2PCM: DoFxE=T DoFxN=T DoGrad=T DoDP/DQ/DG/TGxP=FFFF NFrqRd=   0 IEInf=0 SqF1=F DoCFld=F IF1Alg=4.
 End of G2Drv F.D. properties file   721 does not exist.
 End of G2Drv F.D. properties file   722 does not exist.
 End of G2Drv F.D. properties file   788 does not exist.
          IDoAtm=11111111111111111111111111111111111111111111
 NEqPCM:  Using equilibrium solvation (IEInf=0, Eps=  78.3553, EpsInf=   1.7778)
          Differentiating once with respect to nuclear coordinates.
 CalDSu exits because no D1Ps are significant.
          There are   135 degrees of freedom in the 1st order CPHF.  IDoFFX=6 NUNeed=     0.
    129 vectors produced by pass  0 Test12= 2.53D-14 1.00D-09 XBig12= 1.56D-01 2.08D-01.
 AX will form   129 AO Fock derivatives at one time.
    129 vectors produced by pass  1 Test12= 2.53D-14 1.00D-09 XBig12= 1.98D-02 5.14D-02.
    129 vectors produced by pass  2 Test12= 2.53D-14 1.00D-09 XBig12= 1.53D-04 2.59D-03.
    129 vectors produced by pass  3 Test12= 2.53D-14 1.00D-09 XBig12= 4.53D-07 7.47D-05.
    129 vectors produced by pass  4 Test12= 2.53D-14 1.00D-09 XBig12= 4.57D-10 2.38D-06.
     69 vectors produced by pass  5 Test12= 2.53D-14 1.00D-09 XBig12= 3.35D-13 5.44D-08.
      7 vectors produced by pass  6 Test12= 2.53D-14 1.00D-09 XBig12= 2.45D-16 2.00D-09.
 InvSVY:  IOpt=1 It=  1 EMax= 8.33D-16
 Solved reduced A of dimension   721 with   135 vectors.
 End of Minotr F.D. properties file   721 does not exist.
 End of Minotr F.D. properties file   722 does not exist.
 End of Minotr F.D. properties file   788 does not exist.

 **********************************************************************

            Population analysis using the SCF density.

 **********************************************************************

 Orbital symmetries:
       Occupied  (A) (A) (A) (A) (A) (A) (A) (A) (A) (A) (A) (A)
                 (A) (A) (A) (A) (A) (A) (A) (A) (A) (A) (A) (A)
                 (A) (A) (A) (A) (A) (A) (A) (A) (A) (A) (A) (A)
                 (A) (A) (A) (A) (A) (A) (A) (A) (A) (A) (A) (A)
                 (A) (A) (A) (A) (A) (A) (A) (A) (A) (A) (A) (A)
                 (A) (A) (A) (A) (A) (A) (A) (A) (A) (A) (A) (A)
                 (A)
       Virtual   (A) (A) (A) (A) (A) (A) (A) (A) (A) (A) (A) (A)
                 (A) (A) (A) (A) (A) (A) (A) (A) (A) (A) (A) (A)
                 (A) (A) (A) (A) (A) (A) (A) (A) (A) (A) (A) (A)
                 (A) (A) (A) (A) (A) (A) (A) (A) (A) (A) (A) (A)
                 (A) (A) (A) (A) (A) (A) (A) (A) (A) (A) (A) (A)
                 (A) (A) (A) (A) (A) (A) (A) (A) (A) (A) (A) (A)
                 (A) (A) (A) (A) (A) (A) (A) (A) (A) (A) (A) (A)
                 (A) (A) (A) (A) (A) (A) (A) (A) (A) (A) (A) (A)
                 (A) (A) (A) (A) (A) (A) (A) (A) (A) (A) (A) (A)
                 (A) (A) (A) (A) (A) (A) (A) (A) (A) (A) (A) (A)
                 (A) (A) (A) (A) (A) (A) (A) (A) (A) (A) (A) (A)
                 (A) (A) (A) (A) (A) (A) (A) (A) (A) (A) (A) (A)
                 (A) (A) (A) (A) (A) (A) (A) (A) (A) (A) (A) (A)
                 (A) (A) (A) (A) (A) (A) (A) (A) (A) (A) (A) (A)
                 (A) (A) (A) (A) (A) (A) (A) (A) (A) (A) (A) (A)
                 (A) (A) (A) (A) (A) (A) (A) (A) (A) (A) (A) (A)
                 (A) (A) (A) (A) (A) (A) (A) (A) (A) (A) (A) (A)
                 (A) (A) (A) (A) (A) (A) (A) (A) (A) (A) (A) (A)
                 (A) (A) (A) (A) (A) (A) (A) (A) (A) (A) (A) (A)
                 (A) (A) (A) (A) (A) (A) (A) (A) (A) (A) (A) (A)
                 (A) (A) (A) (A) (A) (A) (A) (A) (A) (A) (A) (A)
                 (A) (A) (A) (A) (A) (A) (A) (A) (A) (A) (A) (A)
                 (A) (A) (A) (A) (A) (A) (A) (A) (A) (A) (A) (A)
                 (A) (A) (A) (A) (A) (A) (A) (A) (A) (A) (A) (A)
                 (A) (A) (A) (A) (A) (A) (A) (A) (A) (A) (A) (A)
                 (A) (A) (A) (A) (A) (A) (A) (A) (A) (A) (A) (A)
                 (A) (A) (A) (A) (A) (A) (A) (A) (A) (A) (A) (A)
                 (A) (A) (A) (A) (A) (A) (A) (A) (A) (A) (A) (A)
                 (A) (A) (A) (A) (A) (A) (A) (A) (A) (A) (A)
 The electronic state is 1-A.
 Alpha  occ. eigenvalues --  -14.33712 -14.33511 -10.22074 -10.21879 -10.21189
 Alpha  occ. eigenvalues --  -10.20970 -10.18180 -10.18177 -10.18161 -10.18143
 Alpha  occ. eigenvalues --  -10.18099 -10.18081 -10.17906 -10.17874 -10.17864
 Alpha  occ. eigenvalues --  -10.17861 -10.17824 -10.17821 -10.17447 -10.17438
 Alpha  occ. eigenvalues --   -0.92750  -0.92554  -0.84160  -0.83996  -0.79158
 Alpha  occ. eigenvalues --   -0.76280  -0.74864  -0.73738  -0.73629  -0.70955
 Alpha  occ. eigenvalues --   -0.67350  -0.65909  -0.63089  -0.60663  -0.59764
 Alpha  occ. eigenvalues --   -0.58343  -0.57055  -0.56386  -0.52078  -0.51101
 Alpha  occ. eigenvalues --   -0.49473  -0.48128  -0.46599  -0.45295  -0.45188
 Alpha  occ. eigenvalues --   -0.44347  -0.43899  -0.42455  -0.42207  -0.41855
 Alpha  occ. eigenvalues --   -0.41558  -0.41474  -0.40997  -0.40870  -0.39092
 Alpha  occ. eigenvalues --   -0.37861  -0.37205  -0.36870  -0.36534  -0.35756
 Alpha  occ. eigenvalues --   -0.34416  -0.34200  -0.33762  -0.33426  -0.33149
 Alpha  occ. eigenvalues --   -0.32719  -0.32520  -0.28431  -0.28042  -0.24441
 Alpha  occ. eigenvalues --   -0.24439  -0.19286  -0.19168
 Alpha virt. eigenvalues --    0.00037   0.00097   0.02091   0.02155   0.08767
 Alpha virt. eigenvalues --    0.09881   0.10280   0.10498   0.10716   0.11986
 Alpha virt. eigenvalues --    0.12912   0.13012   0.14211   0.14363   0.14933
 Alpha virt. eigenvalues --    0.15023   0.15488   0.16180   0.17072   0.17636
 Alpha virt. eigenvalues --    0.17800   0.18240   0.18661   0.18752   0.20065
 Alpha virt. eigenvalues --    0.20418   0.20726   0.20825   0.21011   0.21966
 Alpha virt. eigenvalues --    0.23133   0.23628   0.24095   0.24736   0.25330
 Alpha virt. eigenvalues --    0.26735   0.28184   0.29494   0.30301   0.33066
 Alpha virt. eigenvalues --    0.33773   0.34488   0.34630   0.35312   0.35669
 Alpha virt. eigenvalues --    0.37789   0.39455   0.47057   0.47641   0.49328
 Alpha virt. eigenvalues --    0.50837   0.51525   0.52002   0.52264   0.52557
 Alpha virt. eigenvalues --    0.53116   0.53637   0.54954   0.55273   0.55884
 Alpha virt. eigenvalues --    0.56238   0.56487   0.57788   0.58664   0.58705
 Alpha virt. eigenvalues --    0.59464   0.59868   0.60293   0.60373   0.60542
 Alpha virt. eigenvalues --    0.60928   0.62053   0.62552   0.62755   0.63100
 Alpha virt. eigenvalues --    0.64138   0.64741   0.65061   0.66111   0.66893
 Alpha virt. eigenvalues --    0.68679   0.69530   0.69913   0.70743   0.71401
 Alpha virt. eigenvalues --    0.72252   0.72688   0.73791   0.75762   0.75892
 Alpha virt. eigenvalues --    0.77301   0.77672   0.79650   0.80072   0.80455
 Alpha virt. eigenvalues --    0.81281   0.82255   0.82549   0.82993   0.83958
 Alpha virt. eigenvalues --    0.85134   0.85352   0.85688   0.86476   0.86807
 Alpha virt. eigenvalues --    0.87137   0.88006   0.88338   0.89147   0.89213
 Alpha virt. eigenvalues --    0.89294   0.89760   0.91591   0.92181   0.92786
 Alpha virt. eigenvalues --    0.93856   0.94144   0.94335   0.94678   0.95094
 Alpha virt. eigenvalues --    0.95957   0.97177   0.97764   1.00415   1.00854
 Alpha virt. eigenvalues --    1.01832   1.02836   1.04366   1.05790   1.07211
 Alpha virt. eigenvalues --    1.08240   1.11029   1.13495   1.14827   1.16547
 Alpha virt. eigenvalues --    1.18030   1.18098   1.18334   1.18737   1.21241
 Alpha virt. eigenvalues --    1.22218   1.25607   1.26914   1.27443   1.28436
 Alpha virt. eigenvalues --    1.30320   1.31405   1.32252   1.35319   1.39194
 Alpha virt. eigenvalues --    1.39588   1.39766   1.41405   1.41629   1.42352
 Alpha virt. eigenvalues --    1.43120   1.43220   1.44675   1.44946   1.46833
 Alpha virt. eigenvalues --    1.47693   1.49822   1.50968   1.57990   1.58898
 Alpha virt. eigenvalues --    1.62057   1.65940   1.66862   1.70217   1.73247
 Alpha virt. eigenvalues --    1.74187   1.74401   1.75370   1.76346   1.77219
 Alpha virt. eigenvalues --    1.77924   1.77970   1.78850   1.80988   1.81685
 Alpha virt. eigenvalues --    1.82684   1.83595   1.84804   1.85382   1.85688
 Alpha virt. eigenvalues --    1.86435   1.87448   1.89255   1.90884   1.91569
 Alpha virt. eigenvalues --    1.92001   1.93120   1.93549   1.94221   1.94796
 Alpha virt. eigenvalues --    1.96801   1.97147   1.97613   1.97901   1.99848
 Alpha virt. eigenvalues --    2.00809   2.02054   2.02951   2.03431   2.04862
 Alpha virt. eigenvalues --    2.05293   2.05340   2.06818   2.07429   2.07788
 Alpha virt. eigenvalues --    2.08771   2.10273   2.10337   2.10522   2.12092
 Alpha virt. eigenvalues --    2.13542   2.15146   2.15448   2.16004   2.17351
 Alpha virt. eigenvalues --    2.20330   2.21555   2.21902   2.22689   2.24798
 Alpha virt. eigenvalues --    2.26255   2.27315   2.29338   2.29441   2.30832
 Alpha virt. eigenvalues --    2.31488   2.32064   2.32663   2.33331   2.34218
 Alpha virt. eigenvalues --    2.37163   2.37441   2.39066   2.39652   2.40972
 Alpha virt. eigenvalues --    2.41841   2.41973   2.42880   2.43177   2.44281
 Alpha virt. eigenvalues --    2.44489   2.47075   2.47270   2.49052   2.49297
 Alpha virt. eigenvalues --    2.49970   2.51572   2.52565   2.52649   2.54324
 Alpha virt. eigenvalues --    2.55504   2.57224   2.57999   2.59627   2.59776
 Alpha virt. eigenvalues --    2.59939   2.60722   2.61078   2.62321   2.63696
 Alpha virt. eigenvalues --    2.65409   2.66695   2.66954   2.69573   2.69908
 Alpha virt. eigenvalues --    2.70805   2.72243   2.73539   2.73840   2.74682
 Alpha virt. eigenvalues --    2.76570   2.78451   2.79164   2.79837   2.80665
 Alpha virt. eigenvalues --    2.82208   2.82869   2.83931   2.85772   2.86972
 Alpha virt. eigenvalues --    2.87925   2.88949   2.89372   2.89556   2.91541
 Alpha virt. eigenvalues --    2.92128   2.93192   2.94175   2.99894   3.02743
 Alpha virt. eigenvalues --    3.06789   3.06844   3.09171   3.09277   3.19437
 Alpha virt. eigenvalues --    3.19578   3.20252   3.21172   3.24611   3.25868
 Alpha virt. eigenvalues --    3.26018   3.29255   3.30552   3.31436   3.32047
 Alpha virt. eigenvalues --    3.35080   3.37137   3.37531   3.38565   3.42565
 Alpha virt. eigenvalues --    3.43793   3.44237   3.45379   3.47480   3.48048
 Alpha virt. eigenvalues --    3.50740   3.51284   3.53055   3.57375   3.59601
 Alpha virt. eigenvalues --    3.83517   3.83668   4.13974   4.14101   4.15784
 Alpha virt. eigenvalues --    4.16282   4.16380   4.17839   4.21137   4.22207
 Alpha virt. eigenvalues --    4.34105   4.38796   4.39088   4.44217   4.44334
 Alpha virt. eigenvalues --    4.49573   4.53948   4.56177   4.61803   4.75018
 Alpha virt. eigenvalues --    4.84908   4.85205
          Condensed to atoms (all electrons):
               1          2          3          4          5          6
     1  C    5.034432   0.356856  -0.063125   0.007621   0.000420   0.000001
     2  C    0.356856   4.706852   0.550469  -0.034250  -0.029769   0.000440
     3  C   -0.063125   0.550469   4.900053   0.504534  -0.021701   0.004806
     4  C    0.007621  -0.034250   0.504534   5.005535   0.518354  -0.065872
     5  C    0.000420  -0.029769  -0.021701   0.518354   4.585281   0.281234
     6  N    0.000001   0.000440   0.004806  -0.065872   0.281234   6.990297
     7  C   -0.000000   0.000005  -0.000156   0.004453  -0.033923   0.279220
     8  C   -0.000000  -0.000000   0.000003  -0.000223   0.003656  -0.043016
     9  C   -0.000000  -0.000000  -0.000000   0.000003  -0.000110   0.003087
    10  C    0.000000   0.000000   0.000000  -0.000000   0.000001  -0.000080
    11  N   -0.000000   0.000000  -0.000000   0.000000   0.000000   0.000005
    12  C    0.000000  -0.000000  -0.000000   0.000000  -0.000000   0.000000
    13  C    0.000000  -0.000000   0.000000  -0.000000  -0.000000   0.000000
    14  C    0.000000   0.000000   0.000000  -0.000000   0.000000  -0.000000
    15  C    0.000000   0.000000  -0.000000   0.000000   0.000000   0.000000
    16  C    0.000000   0.000000   0.000000   0.000000  -0.000000  -0.000000
    17  C    0.000000   0.000000  -0.000000  -0.000000   0.000000   0.000000
    18  C   -0.000000  -0.000000   0.000000  -0.000000  -0.000000  -0.000000
    19  C    0.007406  -0.033071  -0.050121  -0.048842   0.532134  -0.069796
    20  C   -0.064945   0.553533  -0.025368  -0.050152  -0.023100   0.004947
    21  H    0.373844  -0.029197  -0.003919   0.000131   0.000022  -0.000000
    22  H    0.374672  -0.030921  -0.001902  -0.000132   0.000013  -0.000000
    23  H    0.373926  -0.029076   0.003067  -0.000252   0.000029   0.000000
    24  H   -0.009766  -0.043853   0.367865  -0.039958   0.003867  -0.000108
    25  H   -0.000198   0.004109  -0.033804   0.361634  -0.046210  -0.008181
    26  H   -0.000000  -0.000004  -0.000037  -0.011728  -0.028084   0.343003
    27  H    0.000000  -0.000003   0.000003  -0.000236  -0.008259  -0.039376
    28  H   -0.000000  -0.000013   0.000000   0.000763   0.002696  -0.057393
    29  H    0.000000  -0.000000  -0.000000  -0.000031  -0.000094  -0.003679
    30  H    0.000000   0.000000  -0.000000   0.000003   0.000463   0.003804
    31  H    0.000000  -0.000000  -0.000000  -0.000000   0.000002   0.000047
    32  H    0.000000   0.000000  -0.000000  -0.000000   0.000005   0.000035
    33  H    0.000000   0.000000  -0.000000  -0.000000   0.000000  -0.000002
    34  H    0.000000   0.000000  -0.000000   0.000000  -0.000000   0.000001
    35  H    0.000000  -0.000000   0.000000  -0.000000   0.000000  -0.000000
    36  H   -0.000000   0.000000  -0.000000   0.000000   0.000000   0.000000
    37  H    0.000000   0.000000   0.000000  -0.000000  -0.000000   0.000000
    38  H    0.000000   0.000000   0.000000  -0.000000  -0.000000  -0.000000
    39  H    0.000000   0.000000   0.000000   0.000000   0.000000   0.000000
    40  H    0.000000   0.000000   0.000000  -0.000000  -0.000000  -0.000000
    41  H    0.000000   0.000000   0.000000   0.000000   0.000000   0.000000
    42  H    0.000000   0.000000  -0.000000  -0.000000   0.000000  -0.000000
    43  H   -0.000198   0.003984   0.000772   0.005231  -0.042975  -0.009082
    44  H   -0.009314  -0.044972   0.005682   0.000601   0.003860  -0.000108
               7          8          9         10         11         12
     1  C   -0.000000  -0.000000  -0.000000   0.000000  -0.000000   0.000000
     2  C    0.000005  -0.000000  -0.000000   0.000000   0.000000  -0.000000
     3  C   -0.000156   0.000003  -0.000000   0.000000  -0.000000  -0.000000
     4  C    0.004453  -0.000223   0.000003  -0.000000   0.000000   0.000000
     5  C   -0.033923   0.003656  -0.000110   0.000001   0.000000  -0.000000
     6  N    0.279220  -0.043016   0.003087  -0.000080   0.000005   0.000000
     7  C    4.796644   0.370111  -0.036539   0.003428   0.000167  -0.000022
     8  C    0.370111   4.950552   0.363552  -0.036386  -0.007584   0.000383
     9  C   -0.036539   0.363552   4.976110   0.359447  -0.070939  -0.005403
    10  C    0.003428  -0.036386   0.359447   4.829692   0.295999  -0.036108
    11  N    0.000167  -0.007584  -0.070939   0.295999   6.938641   0.288700
    12  C   -0.000022   0.000383  -0.005403  -0.036108   0.288700   4.576834
    13  C   -0.000001   0.000001  -0.000263   0.004524  -0.065497   0.519979
    14  C    0.000000  -0.000000   0.000002  -0.000151   0.004841  -0.022975
    15  C    0.000000   0.000000  -0.000000   0.000003   0.000457  -0.029633
    16  C   -0.000000  -0.000000   0.000000  -0.000000   0.000001   0.000406
    17  C    0.000000  -0.000002   0.000101  -0.000046   0.004931  -0.023595
    18  C   -0.000001   0.000069   0.000191  -0.004684  -0.072306   0.531846
    19  C   -0.006799   0.000388   0.000003   0.000000  -0.000000   0.000000
    20  C    0.000008  -0.000005  -0.000000  -0.000000  -0.000000   0.000000
    21  H    0.000000   0.000000   0.000000  -0.000000   0.000000  -0.000000
    22  H   -0.000000   0.000000   0.000000   0.000000   0.000000   0.000000
    23  H   -0.000000  -0.000000  -0.000000  -0.000000  -0.000000  -0.000000
    24  H    0.000002  -0.000000   0.000000  -0.000000   0.000000   0.000000
    25  H    0.000066  -0.000022   0.000000  -0.000000   0.000000   0.000000
    26  H   -0.040930  -0.003634  -0.000070  -0.000000  -0.000011   0.000000
    27  H    0.384538  -0.031869  -0.004554  -0.000068  -0.000007   0.000000
    28  H    0.378523  -0.040840  -0.001119   0.000037   0.000020   0.000002
    29  H   -0.035844   0.379420  -0.037626  -0.006418   0.013411   0.000538
    30  H   -0.037833   0.377136  -0.038333  -0.003026   0.000165   0.000001
    31  H   -0.004768  -0.037769   0.368797  -0.031240   0.004548   0.000162
    32  H   -0.003758  -0.039699   0.385017  -0.036261  -0.005019   0.001797
    33  H    0.000133  -0.007610  -0.042240   0.386604  -0.032388   0.004043
    34  H   -0.000101   0.004650  -0.052413   0.379316  -0.046180  -0.001384
    35  H   -0.000002   0.000295   0.004603  -0.035444   0.348113  -0.026394
    36  H   -0.000000  -0.000000  -0.000008   0.000015  -0.008103  -0.046612
    37  H    0.000000  -0.000000  -0.000000   0.000002  -0.000106   0.003936
    38  H   -0.000000   0.000000  -0.000000   0.000000  -0.000000   0.000023
    39  H    0.000000   0.000000  -0.000000  -0.000000  -0.000000   0.000015
    40  H   -0.000000  -0.000000   0.000000   0.000000   0.000000   0.000027
    41  H    0.000000   0.000000  -0.000001   0.000004  -0.000110   0.003804
    42  H   -0.000003  -0.000030  -0.001340   0.003778  -0.008846  -0.040775
    43  H    0.004712  -0.000088   0.000009  -0.000000   0.000000   0.000000
    44  H    0.000002  -0.000000   0.000000  -0.000000  -0.000000   0.000000
              13         14         15         16         17         18
     1  C    0.000000   0.000000   0.000000   0.000000   0.000000  -0.000000
     2  C   -0.000000   0.000000   0.000000   0.000000   0.000000  -0.000000
     3  C    0.000000   0.000000  -0.000000   0.000000  -0.000000   0.000000
     4  C   -0.000000  -0.000000   0.000000   0.000000  -0.000000  -0.000000
     5  C   -0.000000   0.000000   0.000000  -0.000000   0.000000  -0.000000
     6  N    0.000000  -0.000000   0.000000  -0.000000   0.000000  -0.000000
     7  C   -0.000001   0.000000   0.000000  -0.000000   0.000000  -0.000001
     8  C    0.000001  -0.000000   0.000000  -0.000000  -0.000002   0.000069
     9  C   -0.000263   0.000002  -0.000000   0.000000   0.000101   0.000191
    10  C    0.004524  -0.000151   0.000003  -0.000000  -0.000046  -0.004684
    11  N   -0.065497   0.004841   0.000457   0.000001   0.004931  -0.072306
    12  C    0.519979  -0.022975  -0.029633   0.000406  -0.023595   0.531846
    13  C    5.002793   0.506613  -0.033965   0.007539  -0.050480  -0.049933
    14  C    0.506613   4.899807   0.548807  -0.064110  -0.025401  -0.050143
    15  C   -0.033965   0.548807   4.707744   0.356914   0.555444  -0.034255
    16  C    0.007539  -0.064110   0.356914   5.034265  -0.064023   0.007556
    17  C   -0.050480  -0.025401   0.555444  -0.064023   4.913083   0.500079
    18  C   -0.049933  -0.050143  -0.034255   0.007556   0.500079   4.974659
    19  C    0.000000  -0.000000  -0.000000   0.000000  -0.000000   0.000000
    20  C   -0.000000  -0.000000  -0.000000   0.000000   0.000000   0.000000
    21  H    0.000000   0.000000   0.000000   0.000000   0.000000  -0.000000
    22  H    0.000000   0.000000   0.000000   0.000000   0.000000  -0.000000
    23  H    0.000000   0.000000   0.000000   0.000000   0.000000   0.000000
    24  H    0.000000  -0.000000   0.000000   0.000000  -0.000000  -0.000000
    25  H   -0.000000  -0.000000   0.000000   0.000000  -0.000000  -0.000000
    26  H    0.000000  -0.000000  -0.000000   0.000000  -0.000000   0.000000
    27  H   -0.000000  -0.000000   0.000000   0.000000  -0.000000   0.000000
    28  H    0.000000  -0.000000   0.000000   0.000000  -0.000000  -0.000007
    29  H   -0.000024  -0.000001   0.000000  -0.000000  -0.000001  -0.000129
    30  H   -0.000000  -0.000000   0.000000   0.000000  -0.000000  -0.000007
    31  H    0.000006  -0.000000   0.000000  -0.000000  -0.000003  -0.000205
    32  H   -0.000150  -0.000002   0.000000  -0.000000   0.000011   0.001772
    33  H   -0.000215   0.000003  -0.000000  -0.000000  -0.000004   0.000071
    34  H    0.000779   0.000001  -0.000021  -0.000000  -0.000194   0.003433
    35  H   -0.011342  -0.000007  -0.000004  -0.000000  -0.000102   0.006394
    36  H    0.361124  -0.033402   0.004118  -0.000197   0.000746   0.005449
    37  H   -0.039880   0.368215  -0.044348  -0.009566   0.005809   0.000487
    38  H    0.000138  -0.003825  -0.029296   0.373829   0.003170  -0.000253
    39  H   -0.000128  -0.002162  -0.031000   0.374727  -0.002148  -0.000076
    40  H   -0.000250   0.003236  -0.028997   0.373933  -0.004143   0.000078
    41  H    0.000603   0.005717  -0.044335  -0.009472   0.367796  -0.039187
    42  H    0.005161   0.000782   0.003913  -0.000198  -0.034938   0.360913
    43  H   -0.000000  -0.000000   0.000000   0.000000  -0.000000  -0.000000
    44  H    0.000000  -0.000000  -0.000000   0.000000  -0.000000  -0.000000
              19         20         21         22         23         24
     1  C    0.007406  -0.064945   0.373844   0.374672   0.373926  -0.009766
     2  C   -0.033071   0.553533  -0.029197  -0.030921  -0.029076  -0.043853
     3  C   -0.050121  -0.025368  -0.003919  -0.001902   0.003067   0.367865
     4  C   -0.048842  -0.050152   0.000131  -0.000132  -0.000252  -0.039958
     5  C    0.532134  -0.023100   0.000022   0.000013   0.000029   0.003867
     6  N   -0.069796   0.004947  -0.000000  -0.000000   0.000000  -0.000108
     7  C   -0.006799   0.000008   0.000000  -0.000000  -0.000000   0.000002
     8  C    0.000388  -0.000005   0.000000   0.000000  -0.000000  -0.000000
     9  C    0.000003  -0.000000   0.000000   0.000000  -0.000000   0.000000
    10  C    0.000000  -0.000000  -0.000000   0.000000  -0.000000  -0.000000
    11  N   -0.000000  -0.000000   0.000000   0.000000  -0.000000   0.000000
    12  C    0.000000   0.000000  -0.000000   0.000000  -0.000000   0.000000
    13  C    0.000000  -0.000000   0.000000   0.000000   0.000000   0.000000
    14  C   -0.000000  -0.000000   0.000000   0.000000   0.000000  -0.000000
    15  C   -0.000000  -0.000000   0.000000   0.000000   0.000000   0.000000
    16  C    0.000000   0.000000   0.000000   0.000000   0.000000   0.000000
    17  C   -0.000000   0.000000   0.000000   0.000000   0.000000  -0.000000
    18  C    0.000000   0.000000  -0.000000  -0.000000   0.000000  -0.000000
    19  C    4.974369   0.496642  -0.000249  -0.000048   0.000051   0.000496
    20  C    0.496642   4.916907   0.003308  -0.002360  -0.004114   0.005827
    21  H   -0.000249   0.003308   0.597739  -0.030092  -0.029250   0.005085
    22  H   -0.000048  -0.002360  -0.030092   0.595666  -0.030314   0.000503
    23  H    0.000051  -0.004114  -0.029250  -0.030314   0.597310   0.000060
    24  H    0.000496   0.005827   0.005085   0.000503   0.000060   0.627965
    25  H    0.005347   0.000741  -0.000008   0.000004   0.000003  -0.006240
    26  H    0.006583  -0.000094   0.000000  -0.000000   0.000000  -0.000011
    27  H    0.004191   0.000271   0.000000  -0.000000   0.000000   0.000000
    28  H    0.002673  -0.000208  -0.000000   0.000000  -0.000000  -0.000000
    29  H    0.000019   0.000000   0.000000  -0.000000   0.000000  -0.000000
    30  H   -0.000038  -0.000000  -0.000000   0.000000  -0.000000  -0.000000
    31  H   -0.000002   0.000000  -0.000000   0.000000  -0.000000  -0.000000
    32  H   -0.000001  -0.000000  -0.000000  -0.000000   0.000000  -0.000000
    33  H    0.000000   0.000000   0.000000  -0.000000   0.000000  -0.000000
    34  H   -0.000000  -0.000000   0.000000   0.000000   0.000000   0.000000
    35  H    0.000000   0.000000  -0.000000  -0.000000   0.000000  -0.000000
    36  H   -0.000000  -0.000000   0.000000   0.000000   0.000000   0.000000
    37  H   -0.000000  -0.000000   0.000000   0.000000   0.000000   0.000000
    38  H    0.000000   0.000000   0.000000   0.000000   0.000000   0.000000
    39  H   -0.000000   0.000000   0.000000   0.000000   0.000000   0.000000
    40  H    0.000000   0.000000   0.000000   0.000000   0.000000   0.000000
    41  H   -0.000000  -0.000000   0.000000   0.000000   0.000000   0.000000
    42  H   -0.000000  -0.000000   0.000000  -0.000000   0.000000  -0.000000
    43  H    0.362538  -0.035352   0.000003   0.000003  -0.000008   0.000018
    44  H   -0.039359   0.368282   0.000048   0.000697   0.004526  -0.000183
              25         26         27         28         29         30
     1  C   -0.000198  -0.000000   0.000000  -0.000000   0.000000   0.000000
     2  C    0.004109  -0.000004  -0.000003  -0.000013  -0.000000   0.000000
     3  C   -0.033804  -0.000037   0.000003   0.000000  -0.000000  -0.000000
     4  C    0.361634  -0.011728  -0.000236   0.000763  -0.000031   0.000003
     5  C   -0.046210  -0.028084  -0.008259   0.002696  -0.000094   0.000463
     6  N   -0.008181   0.343003  -0.039376  -0.057393  -0.003679   0.003804
     7  C    0.000066  -0.040930   0.384538   0.378523  -0.035844  -0.037833
     8  C   -0.000022  -0.003634  -0.031869  -0.040840   0.379420   0.377136
     9  C    0.000000  -0.000070  -0.004554  -0.001119  -0.037626  -0.038333
    10  C   -0.000000  -0.000000  -0.000068   0.000037  -0.006418  -0.003026
    11  N    0.000000  -0.000011  -0.000007   0.000020   0.013411   0.000165
    12  C    0.000000   0.000000   0.000000   0.000002   0.000538   0.000001
    13  C   -0.000000   0.000000  -0.000000   0.000000  -0.000024  -0.000000
    14  C   -0.000000  -0.000000  -0.000000  -0.000000  -0.000001  -0.000000
    15  C    0.000000  -0.000000   0.000000   0.000000   0.000000   0.000000
    16  C    0.000000   0.000000   0.000000   0.000000  -0.000000   0.000000
    17  C   -0.000000  -0.000000  -0.000000  -0.000000  -0.000001  -0.000000
    18  C   -0.000000   0.000000   0.000000  -0.000007  -0.000129  -0.000007
    19  C    0.005347   0.006583   0.004191   0.002673   0.000019  -0.000038
    20  C    0.000741  -0.000094   0.000271  -0.000208   0.000000  -0.000000
    21  H   -0.000008   0.000000   0.000000  -0.000000   0.000000  -0.000000
    22  H    0.000004  -0.000000  -0.000000   0.000000  -0.000000   0.000000
    23  H    0.000003   0.000000   0.000000  -0.000000   0.000000  -0.000000
    24  H   -0.006240  -0.000011   0.000000  -0.000000  -0.000000  -0.000000
    25  H    0.629443   0.005677  -0.000007   0.000030  -0.000003   0.000005
    26  H    0.005677   0.455510   0.005656  -0.002132   0.006064  -0.000628
    27  H   -0.000007   0.005656   0.625784  -0.054096   0.005672  -0.007880
    28  H    0.000030  -0.002132  -0.054096   0.668212  -0.007623   0.006603
    29  H   -0.000003   0.006064   0.005672  -0.007623   0.617618  -0.039197
    30  H    0.000005  -0.000628  -0.007880   0.006603  -0.039197   0.631632
    31  H   -0.000000   0.000014   0.004826  -0.000436   0.006001  -0.005216
    32  H    0.000000   0.000005  -0.000596   0.004885  -0.005078   0.005665
    33  H   -0.000000   0.000001   0.000007   0.000003   0.000035   0.005303
    34  H    0.000000  -0.000000  -0.000008   0.000008   0.000266   0.000096
    35  H   -0.000000   0.000000   0.000000  -0.000000  -0.000548  -0.000032
    36  H    0.000000  -0.000000  -0.000000   0.000000   0.000013   0.000000
    37  H   -0.000000  -0.000000   0.000000  -0.000000   0.000000  -0.000000
    38  H   -0.000000   0.000000   0.000000  -0.000000  -0.000000  -0.000000
[...]
   185    C   13  px     Val( 2p)     1.10724
   186    C   13  px     Ryd( 3p)     0.00603
   187    C   13  py     Val( 2p)     1.13127
   188    C   13  py     Ryd( 3p)     0.00629
   189    C   13  pz     Val( 2p)     1.15345
   190    C   13  pz     Ryd( 3p)     0.00440
   191    C   13  dxy    Ryd( 3d)     0.00038
   192    C   13  dxz    Ryd( 3d)     0.00050
   193    C   13  dyz    Ryd( 3d)     0.00054
   194    C   13  dx2y2  Ryd( 3d)     0.00069
   195    C   13  dz2    Ryd( 3d)     0.00051

   196    C   14  S      Cor( 1S)     1.99907
   197    C   14  S      Val( 2S)     0.93960
   198    C   14  S      Ryd( 3S)     0.00068
   199    C   14  S      Ryd( 4S)     0.00004
   200    C   14  px     Val( 2p)     1.14522
   201    C   14  px     Ryd( 3p)     0.00540
   202    C   14  py     Val( 2p)     1.12138
   203    C   14  py     Ryd( 3p)     0.00562
   204    C   14  pz     Val( 2p)     1.13717
   205    C   14  pz     Ryd( 3p)     0.00488
   206    C   14  dxy    Ryd( 3d)     0.00042
   207    C   14  dxz    Ryd( 3d)     0.00054
   208    C   14  dyz    Ryd( 3d)     0.00046
   209    C   14  dx2y2  Ryd( 3d)     0.00054
   210    C   14  dz2    Ryd( 3d)     0.00056

   211    C   15  S      Cor( 1S)     1.99903
   212    C   15  S      Val( 2S)     0.89365
   213    C   15  S      Ryd( 3S)     0.00045
   214    C   15  S      Ryd( 4S)     0.00005
   215    C   15  px     Val( 2p)     0.98185
   216    C   15  px     Ryd( 3p)     0.00336
   217    C   15  py     Val( 2p)     0.97763
   218    C   15  py     Ryd( 3p)     0.00325
   219    C   15  pz     Val( 2p)     1.08342
   220    C   15  pz     Ryd( 3p)     0.00438
   221    C   15  dxy    Ryd( 3d)     0.00047
   222    C   15  dxz    Ryd( 3d)     0.00090
   223    C   15  dyz    Ryd( 3d)     0.00100
   224    C   15  dx2y2  Ryd( 3d)     0.00056
   225    C   15  dz2    Ryd( 3d)     0.00066

   226    C   16  S      Cor( 1S)     1.99939
   227    C   16  S      Val( 2S)     1.10179
   228    C   16  S      Ryd( 3S)     0.00021
   229    C   16  S      Ryd( 4S)     0.00001
   230    C   16  px     Val( 2p)     1.17574
   231    C   16  px     Ryd( 3p)     0.00080
   232    C   16  py     Val( 2p)     1.17060
   233    C   16  py     Ryd( 3p)     0.00068
   234    C   16  pz     Val( 2p)     1.25443
   235    C   16  pz     Ryd( 3p)     0.00269
   236    C   16  dxy    Ryd( 3d)     0.00058
   237    C   16  dxz    Ryd( 3d)     0.00038
   238    C   16  dyz    Ryd( 3d)     0.00049
   239    C   16  dx2y2  Ryd( 3d)     0.00066
   240    C   16  dz2    Ryd( 3d)     0.00072

   241    C   17  S      Cor( 1S)     1.99907
   242    C   17  S      Val( 2S)     0.94221
   243    C   17  S      Ryd( 3S)     0.00068
   244    C   17  S      Ryd( 4S)     0.00004
   245    C   17  px     Val( 2p)     1.09707
   246    C   17  px     Ryd( 3p)     0.00537
   247    C   17  py     Val( 2p)     1.11491
   248    C   17  py     Ryd( 3p)     0.00539
   249    C   17  pz     Val( 2p)     1.17028
   250    C   17  pz     Ryd( 3p)     0.00494
   251    C   17  dxy    Ryd( 3d)     0.00041
   252    C   17  dxz    Ryd( 3d)     0.00047
   253    C   17  dyz    Ryd( 3d)     0.00051
   254    C   17  dx2y2  Ryd( 3d)     0.00056
   255    C   17  dz2    Ryd( 3d)     0.00062

   256    C   18  S      Cor( 1S)     1.99907
   257    C   18  S      Val( 2S)     0.94376
   258    C   18  S      Ryd( 3S)     0.00065
   259    C   18  S      Ryd( 4S)     0.00004
   260    C   18  px     Val( 2p)     1.14568
   261    C   18  px     Ryd( 3p)     0.00576
   262    C   18  py     Val( 2p)     1.12274
   263    C   18  py     Ryd( 3p)     0.00563
   264    C   18  pz     Val( 2p)     1.12710
   265    C   18  pz     Ryd( 3p)     0.00467
   266    C   18  dxy    Ryd( 3d)     0.00040
   267    C   18  dxz    Ryd( 3d)     0.00056
   268    C   18  dyz    Ryd( 3d)     0.00050
   269    C   18  dx2y2  Ryd( 3d)     0.00060
   270    C   18  dz2    Ryd( 3d)     0.00052

   271    C   19  S      Cor( 1S)     1.99906
   272    C   19  S      Val( 2S)     0.94998
   273    C   19  S      Ryd( 3S)     0.00064
   274    C   19  S      Ryd( 4S)     0.00004
   275    C   19  px     Val( 2p)     1.11783
   276    C   19  px     Ryd( 3p)     0.00308
   277    C   19  py     Val( 2p)     1.08193
   278    C   19  py     Ryd( 3p)     0.00153
   279    C   19  pz     Val( 2p)     1.14516
   280    C   19  pz     Ryd( 3p)     0.00434
   281    C   19  dxy    Ryd( 3d)     0.00038
   282    C   19  dxz    Ryd( 3d)     0.00066
   283    C   19  dyz    Ryd( 3d)     0.00042
   284    C   19  dx2y2  Ryd( 3d)     0.00042
   285    C   19  dz2    Ryd( 3d)     0.00053

   286    C   20  S      Cor( 1S)     1.99905
   287    C   20  S      Val( 2S)     0.95079
   288    C   20  S      Ryd( 3S)     0.00061
   289    C   20  S      Ryd( 4S)     0.00004
   290    C   20  px     Val( 2p)     1.06346
   291    C   20  px     Ryd( 3p)     0.00318
   292    C   20  py     Val( 2p)     1.02154
   293    C   20  py     Ryd( 3p)     0.00117
   294    C   20  pz     Val( 2p)     1.17957
   295    C   20  pz     Ryd( 3p)     0.00511
   296    C   20  dxy    Ryd( 3d)     0.00049
   297    C   20  dxz    Ryd( 3d)     0.00059
   298    C   20  dyz    Ryd( 3d)     0.00042
   299    C   20  dx2y2  Ryd( 3d)     0.00051
   300    C   20  dz2    Ryd( 3d)     0.00067

   301    H   21  S      Val( 1S)     0.75459
   302    H   21  S      Ryd( 2S)     0.00098
   303    H   21  px     Ryd( 2p)     0.00024
   304    H   21  py     Ryd( 2p)     0.00019
   305    H   21  pz     Ryd( 2p)     0.00011

   306    H   22  S      Val( 1S)     0.75501
   307    H   22  S      Ryd( 2S)     0.00094
   308    H   22  px     Ryd( 2p)     0.00009
   309    H   22  py     Ryd( 2p)     0.00027
   310    H   22  pz     Ryd( 2p)     0.00017

   311    H   23  S      Val( 1S)     0.75743
   312    H   23  S      Ryd( 2S)     0.00079
   313    H   23  px     Ryd( 2p)     0.00008
   314    H   23  py     Ryd( 2p)     0.00010
   315    H   23  pz     Ryd( 2p)     0.00031

   316    H   24  S      Val( 1S)     0.75774
   317    H   24  S      Ryd( 2S)     0.00096
   318    H   24  px     Ryd( 2p)     0.00019
   319    H   24  py     Ryd( 2p)     0.00012
   320    H   24  pz     Ryd( 2p)     0.00029

   321    H   25  S      Val( 1S)     0.75774
   322    H   25  S      Ryd( 2S)     0.00097
   323    H   25  px     Ryd( 2p)     0.00010
   324    H   25  py     Ryd( 2p)     0.00014
   325    H   25  pz     Ryd( 2p)     0.00036

   326    H   26  S      Val( 1S)     0.58207
   327    H   26  S      Ryd( 2S)     0.00201
   328    H   26  px     Ryd( 2p)     0.00025
   329    H   26  py     Ryd( 2p)     0.00049
   330    H   26  pz     Ryd( 2p)     0.00052

   331    H   27  S      Val( 1S)     0.76519
   332    H   27  S      Ryd( 2S)     0.00176
   333    H   27  px     Ryd( 2p)     0.00013
   334    H   27  py     Ryd( 2p)     0.00018
   335    H   27  pz     Ryd( 2p)     0.00026

   336    H   28  S      Val( 1S)     0.77950
   337    H   28  S      Ryd( 2S)     0.00267
   338    H   28  px     Ryd( 2p)     0.00010
   339    H   28  py     Ryd( 2p)     0.00036
   340    H   28  pz     Ryd( 2p)     0.00010

   341    H   29  S      Val( 1S)     0.75937
   342    H   29  S      Ryd( 2S)     0.00180
   343    H   29  px     Ryd( 2p)     0.00015
   344    H   29  py     Ryd( 2p)     0.00016
   345    H   29  pz     Ryd( 2p)     0.00026

   346    H   30  S      Val( 1S)     0.75522
   347    H   30  S      Ryd( 2S)     0.00202
   348    H   30  px     Ryd( 2p)     0.00011
   349    H   30  py     Ryd( 2p)     0.00032
   350    H   30  pz     Ryd( 2p)     0.00011

   351    H   31  S      Val( 1S)     0.74524
   352    H   31  S      Ryd( 2S)     0.00141
   353    H   31  px     Ryd( 2p)     0.00012
   354    H   31  py     Ryd( 2p)     0.00017
   355    H   31  pz     Ryd( 2p)     0.00026

   356    H   32  S      Val( 1S)     0.75449
   357    H   32  S      Ryd( 2S)     0.00299
   358    H   32  px     Ryd( 2p)     0.00011
   359    H   32  py     Ryd( 2p)     0.00032
   360    H   32  pz     Ryd( 2p)     0.00012

   361    H   33  S      Val( 1S)     0.73782
   362    H   33  S      Ryd( 2S)     0.00120
   363    H   33  px     Ryd( 2p)     0.00010
   364    H   33  py     Ryd( 2p)     0.00035
   365    H   33  pz     Ryd( 2p)     0.00009

   366    H   34  S      Val( 1S)     0.73751
   367    H   34  S      Ryd( 2S)     0.00246
   368    H   34  px     Ryd( 2p)     0.00019
   369    H   34  py     Ryd( 2p)     0.00009
   370    H   34  pz     Ryd( 2p)     0.00024

   371    H   35  S      Val( 1S)     0.55136
   372    H   35  S      Ryd( 2S)     0.00215
   373    H   35  px     Ryd( 2p)     0.00031
   374    H   35  py     Ryd( 2p)     0.00033
   375    H   35  pz     Ryd( 2p)     0.00053

   376    H   36  S      Val( 1S)     0.77215
   377    H   36  S      Ryd( 2S)     0.00122
   378    H   36  px     Ryd( 2p)     0.00014
   379    H   36  py     Ryd( 2p)     0.00019
   380    H   36  pz     Ryd( 2p)     0.00035

   381    H   37  S      Val( 1S)     0.77372
   382    H   37  S      Ryd( 2S)     0.00096
   383    H   37  px     Ryd( 2p)     0.00023
   384    H   37  py     Ryd( 2p)     0.00018
   385    H   37  pz     Ryd( 2p)     0.00026

   386    H   38  S      Val( 1S)     0.74542
   387    H   38  S      Ryd( 2S)     0.00135
   388    H   38  px     Ryd( 2p)     0.00011
   389    H   38  py     Ryd( 2p)     0.00029
   390    H   38  pz     Ryd( 2p)     0.00014

   391    H   39  S      Val( 1S)     0.74852
   392    H   39  S      Ryd( 2S)     0.00171
   393    H   39  px     Ryd( 2p)     0.00030
   394    H   39  py     Ryd( 2p)     0.00011
   395    H   39  pz     Ryd( 2p)     0.00012

   396    H   40  S      Val( 1S)     0.75633
   397    H   40  S      Ryd( 2S)     0.00092
   398    H   40  px     Ryd( 2p)     0.00008
   399    H   40  py     Ryd( 2p)     0.00009
   400    H   40  pz     Ryd( 2p)     0.00033

   401    H   41  S      Val( 1S)     0.77204
   402    H   41  S      Ryd( 2S)     0.00102
   403    H   41  px     Ryd( 2p)     0.00014
   404    H   41  py     Ryd( 2p)     0.00017
   405    H   41  pz     Ryd( 2p)     0.00034

   406    H   42  S      Val( 1S)     0.76822
   407    H   42  S      Ryd( 2S)     0.00115
   408    H   42  px     Ryd( 2p)     0.00023
   409    H   42  py     Ryd( 2p)     0.00018
   410    H   42  pz     Ryd( 2p)     0.00027

   411    H   43  S      Val( 1S)     0.75491
   412    H   43  S      Ryd( 2S)     0.00081
   413    H   43  px     Ryd( 2p)     0.00018
   414    H   43  py     Ryd( 2p)     0.00014
   415    H   43  pz     Ryd( 2p)     0.00029

   416    H   44  S      Val( 1S)     0.75883
   417    H   44  S      Ryd( 2S)     0.00097
   418    H   44  px     Ryd( 2p)     0.00010
   419    H   44  py     Ryd( 2p)     0.00013
   420    H   44  pz     Ryd( 2p)     0.00037

 WARNING:  1 low occupancy (<1.9990e) core orbital  found on  C   12


 Summary of Natural Population Analysis:                  
                                                          
                                       Natural Population 
                Natural  -----------------------------------------------
    Atom  No    Charge         Core      Valence    Rydberg      Total
 -----------------------------------------------------------------------
      C    1   -0.69978      1.99940     4.69352    0.00686     6.69978
      C    2   -0.07697      1.99902     4.06383    0.01412     6.07697
      C    3   -0.22808      1.99905     4.21636    0.01267     6.22808
      C    4   -0.28221      1.99906     4.27044    0.01271     6.28221
      C    5    0.16580      1.99902     3.81748    0.01771     5.83420
      N    6   -0.64852      1.99941     5.63698    0.01213     7.64852
      C    7   -0.26153      1.99934     4.24809    0.01411     6.26153
      C    8   -0.47778      1.99933     4.46663    0.01181     6.47778
      C    9   -0.46919      1.99931     4.45901    0.01087     6.46919
      C   10   -0.28537      1.99931     4.26953    0.01654     6.28537
      N   11   -0.44572      1.99939     5.43513    0.01121     7.44572
      C   12    0.16934      1.99899     3.81208    0.01959     5.83066
      C   13   -0.35449      1.99908     4.33532    0.02008     6.35449
      C   14   -0.36158      1.99907     4.34337    0.01915     6.36158
      C   15    0.04936      1.99903     3.93655    0.01506     5.95064
      C   16   -0.70917      1.99939     4.70255    0.00722     6.70917
      C   17   -0.34252      1.99907     4.32447    0.01899     6.34252
      C   18   -0.35768      1.99907     4.33928    0.01932     6.35768
      C   19   -0.30600      1.99906     4.29490    0.01204     6.30600
      C   20   -0.22719      1.99905     4.21535    0.01279     6.22719
      H   21    0.24389      0.00000     0.75459    0.00152     0.75611
      H   22    0.24353      0.00000     0.75501    0.00147     0.75647
      H   23    0.24128      0.00000     0.75743    0.00129     0.75872
      H   24    0.24070      0.00000     0.75774    0.00156     0.75930
      H   25    0.24070      0.00000     0.75774    0.00156     0.75930
      H   26    0.41466      0.00000     0.58207    0.00327     0.58534
      H   27    0.23249      0.00000     0.76519    0.00233     0.76751
      H   28    0.21727      0.00000     0.77950    0.00323     0.78273
      H   29    0.23826      0.00000     0.75937    0.00236     0.76174
      H   30    0.24222      0.00000     0.75522    0.00256     0.75778
      H   31    0.25280      0.00000     0.74524    0.00196     0.74720
      H   32    0.24197      0.00000     0.75449    0.00354     0.75803
      H   33    0.26043      0.00000     0.73782    0.00174     0.73957
      H   34    0.25949      0.00000     0.73751    0.00300     0.74051
      H   35    0.44532      0.00000     0.55136    0.00332     0.55468
      H   36    0.22595      0.00000     0.77215    0.00190     0.77405
      H   37    0.22465      0.00000     0.77372    0.00163     0.77535
      H   38    0.25268      0.00000     0.74542    0.00189     0.74732
      H   39    0.24924      0.00000     0.74852    0.00224     0.75076
      H   40    0.24226      0.00000     0.75633    0.00141     0.75774
      H   41    0.22629      0.00000     0.77204    0.00167     0.77371
      H   42    0.22994      0.00000     0.76822    0.00183     0.77006
      H   43    0.24367      0.00000     0.75491    0.00142     0.75633
      H   44    0.23960      0.00000     0.75883    0.00157     0.76040
 =======================================================================
   * Total *   -0.00000     39.98344   105.68131    0.33525   146.00000

                                 Natural Population      
 --------------------------------------------------------
   Core                      39.98344 ( 99.9586% of  40)
   Valence                  105.68131 ( 99.6993% of 106)
   Natural Minimal Basis    145.66475 ( 99.7704% of 146)
   Natural Rydberg Basis      0.33525 (  0.2296% of 146)
 --------------------------------------------------------

    Atom  No          Natural Electron Configuration
 ----------------------------------------------------------------------------
      C    1      [core]2S( 1.10)2p( 3.60)
      C    2      [core]2S( 0.88)2p( 3.18)3p( 0.01)
      C    3      [core]2S( 0.95)2p( 3.27)3p( 0.01)
      C    4      [core]2S( 0.95)2p( 3.32)3p( 0.01)
      C    5      [core]2S( 0.84)2p( 2.98)3p( 0.01)
      N    6      [core]2S( 1.27)2p( 4.37)3p( 0.01)
      C    7      [core]2S( 1.01)2p( 3.23)3p( 0.01)
      C    8      [core]2S( 1.04)2p( 3.43)3p( 0.01)
      C    9      [core]2S( 1.04)2p( 3.42)3p( 0.01)
      C   10      [core]2S( 1.02)2p( 3.25)3p( 0.01)
      N   11      [core]2S( 1.27)2p( 4.16)3p( 0.01)
      C   12      [core]2S( 0.84)2p( 2.97)3p( 0.01)3d( 0.01)
      C   13      [core]2S( 0.94)2p( 3.39)3p( 0.02)
      C   14      [core]2S( 0.94)2p( 3.40)3p( 0.02)
      C   15      [core]2S( 0.89)2p( 3.04)3p( 0.01)
      C   16      [core]2S( 1.10)2p( 3.60)
      C   17      [core]2S( 0.94)2p( 3.38)3p( 0.02)
      C   18      [core]2S( 0.94)2p( 3.40)3p( 0.02)
      C   19      [core]2S( 0.95)2p( 3.34)3p( 0.01)
      C   20      [core]2S( 0.95)2p( 3.26)3p( 0.01)
      H   21            1S( 0.75)
      H   22            1S( 0.76)
      H   23            1S( 0.76)
      H   24            1S( 0.76)
      H   25            1S( 0.76)
      H   26            1S( 0.58)
      H   27            1S( 0.77)
      H   28            1S( 0.78)
      H   29            1S( 0.76)
      H   30            1S( 0.76)
      H   31            1S( 0.75)
      H   32            1S( 0.75)
      H   33            1S( 0.74)
      H   34            1S( 0.74)
      H   35            1S( 0.55)
      H   36            1S( 0.77)
      H   37            1S( 0.77)
      H   38            1S( 0.75)
      H   39            1S( 0.75)
      H   40            1S( 0.76)
      H   41            1S( 0.77)
      H   42            1S( 0.77)
      H   43            1S( 0.75)
      H   44            1S( 0.76)


 NBO analysis skipped by request.
 1\1\GINC-DRG2-W008\SP\RB3LYP TD-FC\6-31G(d,p)\C18H24N2\QDUEZ\18-Jul-20
 24\0\\# TD(NStates=10, Root=1) B3LYP/6-31G** SCRF=(Solvent=water) volu
 me pop=NPA density=current Geom=AllCheck Guess=Read\\IXVDJDOFHBHDMT-UH
 FFFAOYSA-N_conf_4\\0,1\C,0,7.4661509916,-1.8389574887,1.2322684578\C,0
 ,6.1701804562,-1.1272557053,0.9197148305\C,0,5.7083810865,-0.070782443
 1,1.7234398733\C,0,4.5244568773,0.5983917189,1.4403728366\C,0,3.733939
 3583,0.2375616311,0.3276724562\N,0,2.5757347991,0.9577616458,0.0441132
 246\C,0,1.5542941767,0.4315954079,-0.8540828153\C,0,0.3416806432,1.361
 729555,-0.8944369407\C,0,-0.7514856787,0.8710629887,-1.848403745\C,0,-
 2.0043807674,1.7632896612,-1.8419109067\N,0,-2.7069197119,1.7857561173
 ,-0.5643023239\C,0,-3.7411462907,0.9178476118,-0.2425890926\C,0,-4.566
 2200849,1.1993111968,0.8689757534\C,0,-5.5965646859,0.3410557859,1.231
 7636474\C,0,-5.8642369268,-0.837841396,0.5155517846\C,0,-6.9813570211,
 -1.768360885,0.9277615215\C,0,-5.0449349002,-1.1106265131,-0.583933988
 7\C,0,-4.0021229293,-0.261992788,-0.9646590325\C,0,4.1839686325,-0.824
 7161305,-0.4766440907\C,0,5.3808729776,-1.4821171503,-0.1779550154\H,0
 ,8.3331489123,-1.1794410511,1.1017509747\H,0,7.4925508865,-2.194946807
 ,2.2686740094\H,0,7.6105812782,-2.7043226561,0.5790607874\H,0,6.288536
 1955,0.2331427142,2.5921260601\H,0,4.1962144096,1.4129274977,2.0820893
 94\H,0,2.191350851,1.4326613054,0.8517222672\H,0,1.9789809443,0.345199
 2378,-1.8624207697\H,0,1.2360973754,-0.5835255287,-0.5597797409\H,0,-0
 .0802870946,1.4531940096,0.1150263698\H,0,0.6714397593,2.3659068675,-1
 .1918560815\H,0,-0.3625295727,0.8362554434,-2.8745775073\H,0,-1.035190
 9473,-0.1559635428,-1.5865546615\H,0,-1.710277241,2.792694458,-2.07274
 80564\H,0,-2.6854468981,1.4457359336,-2.6432558822\H,0,-2.7582248877,2
 .6869594758,-0.1136110579\H,0,-4.3904668742,2.1058732234,1.4435588022\
 H,0,-6.2124993813,0.5958247293,2.0916356965\H,0,-6.78146831,-2.2388345
 412,1.8985857378\H,0,-7.9357001793,-1.2376422468,1.0239887321\H,0,-7.1
 189667992,-2.5703158281,0.196721115\H,0,-5.2191314071,-2.0128083581,-1
 .1662132008\H,0,-3.3937092242,-0.5268235348,-1.8221911934\H,0,3.604740
 826,-1.1446359972,-1.3356436719\H,0,5.6999663769,-2.2998276242,-0.8204
 436674\\Version=ES64L-G16RevA.03\State=1-A\HF=-809.9303894\RMSD=4.589e
 -09\Dipole=0.6813533,1.4326113,-0.6918537\Quadrupole=-19.3862893,11.42
 08028,7.9654865,-5.0129494,3.4844216,0.5032349\PG=C01 [X(C18H24N2)]\\@


 MORNING PEOPLE ARE USUALLY ADMIRED AS EARLY BIRDS.
 RECALL BEN FRANKLIN'S APHORISM THAT THE EARLY BIRD GETS THE WORM.
 I IDENTIFY WITH THE WORM. --  CRAIG JAGGER, MINNEAPOLIS, KS.
 Job cpu time:       0 days  1 hours 34 minutes  1.9 seconds.
 Elapsed time:       0 days  0 hours 31 minutes 26.3 seconds.
 File lengths (MBytes):  RWF=   1399 Int=      0 D2E=      0 Chk=     88 Scr=      1
 Normal termination of Gaussian 16 at Thu Jul 18 05:21:31 2024.
