 Entering Gaussian System, Link 0=g16
 Initial command:
 /opt/sw/arch/manual/gaussian/G16_A03/g16/l1.exe "/scratch/1380875/Gau-88417.inp" -scrdir="/scratch/1380875/"
 Entering Link 1 = /opt/sw/arch/manual/gaussian/G16_A03/g16/l1.exe PID=     88418.
  
 Copyright (c) 1988,1990,1992,1993,1995,1998,2003,2009,2016,
            Gaussian, Inc.  All Rights Reserved.
  
 This is part of the Gaussian(R) 16 program.  It is based on
 the Gaussian(R) 09 system (copyright 2009, Gaussian, Inc.),
 the Gaussian(R) 03 system (copyright 2003, Gaussian, Inc.),
 the Gaussian(R) 98 system (copyright 1998, Gaussian, Inc.),
 the Gaussian(R) 94 system (copyright 1995, Gaussian, Inc.),
 the Gaussian 92(TM) system (copyright 1992, Gaussian, Inc.),
 the Gaussian 90(TM) system (copyright 1990, Gaussian, Inc.),
 the Gaussian 88(TM) system (copyright 1988, Gaussian, Inc.),
 the Gaussian 86(TM) system (copyright 1986, Carnegie Mellon
 University), and the Gaussian 82(TM) system (copyright 1983,
 Carnegie Mellon University). Gaussian is a federally registered
 trademark of Gaussian, Inc.
  
 This software contains proprietary and confidential information,
 including trade secrets, belonging to Gaussian, Inc.
  
 This software is provided under written license and may be
 used, copied, transmitted, or stored only in accord with that
 written license.
  
 The following legend is applicable only to US Government
 contracts under FAR:
  
                    RESTRICTED RIGHTS LEGEND
  
 Use, reproduction and disclosure by the US Government is
 subject to restrictions as set forth in subparagraphs (a)
 and (c) of the Commercial Computer Software - Restricted
 Rights clause in FAR 52.227-19.
  
 Gaussian, Inc.
 340 Quinnipiac St., Bldg. 40, Wallingford CT 06492
  
  
 ---------------------------------------------------------------
 Warning -- This program may not be used in any manner that
 competes with the business of Gaussian, Inc. or will provide
 assistance to any competitor of Gaussian, Inc.  The licensee
 of this program is prohibited from giving any competitor of
 Gaussian, Inc. access to this program.  By using this program,
 the user acknowledges that Gaussian, Inc. is engaged in the
 business of creating and licensing software in the field of
 computational chemistry and represents and warrants to the
 licensee that it is not a competitor of Gaussian, Inc. and that
 it will not use this program in any manner prohibited above.
 ---------------------------------------------------------------
  

 Cite this work as:
 Gaussian 16, Revision A.03,
 M. J. Frisch, G. W. Trucks, H. B. Schlegel, G. E. Scuseria, 
 M. A. Robb, J. R. Cheeseman, G. Scalmani, V. Barone, 
 G. A. Petersson, H. Nakatsuji, X. Li, M. Caricato, A. V. Marenich, 
 J. Bloino, B. G. Janesko, R. Gomperts, B. Mennucci, H. P. Hratchian, 
 J. V. Ortiz, A. F. Izmaylov, J. L. Sonnenberg, D. Williams-Young, 
 F. Ding, F. Lipparini, F. Egidi, J. Goings, B. Peng, A. Petrone, 
 T. Henderson, D. Ranasinghe, V. G. Zakrzewski, J. Gao, N. Rega, 
 G. Zheng, W. Liang, M. Hada, M. Ehara, K. Toyota, R. Fukuda, 
 J. Hasegawa, M. Ishida, T. Nakajima, Y. Honda, O. Kitao, H. Nakai, 
 T. Vreven, K. Throssell, J. A. Montgomery, Jr., J. E. Peralta, 
 F. Ogliaro, M. J. Bearpark, J. J. Heyd, E. N. Brothers, K. N. Kudin, 
 V. N. Staroverov, T. A. Keith, R. Kobayashi, J. Normand, 
 K. Raghavachari, A. P. Rendell, J. C. Burant, S. S. Iyengar, 
 J. Tomasi, M. Cossi, J. M. Millam, M. Klene, C. Adamo, R. Cammi, 
 J. W. Ochterski, R. L. Martin, K. Morokuma, O. Farkas, 
 J. B. Foresman, and D. J. Fox, Gaussian, Inc., Wallingford CT, 2016.
 
 ******************************************
 Gaussian 16:  ES64L-G16RevA.03 25-Dec-2016
                18-Jul-2024 
 ******************************************
 %nprocshared=7
 Will use up to    7 processors via shared memory.
 %mem=14GB
 %Chk=IXVDJDOFHBHDMT-UHFFFAOYSA-N_conf_3_0.chk
 -------------------------------------------------------
 # opt=CalcFc B3LYP/6-31G** SCRF=(Solvent=water) scf=xqc
 -------------------------------------------------------
 1/10=4,18=20,19=15,26=3,38=1/1,3;
 2/9=110,12=2,17=6,18=5,40=1/2;
 3/5=1,6=6,7=101,11=2,25=1,30=1,70=2201,71=2,72=1,74=-5,140=1/1,2,3;
 4//1;
 5/5=2,8=3,13=1,38=5,53=1/2,8;
 8/6=4,10=90,11=11/1;
 11/6=1,8=1,9=11,15=111,16=1/1,2,10;
 10/6=1,13=1/2;
 6/7=2,8=2,9=2,10=2,28=1/1;
 7/10=1,18=20,25=1/1,2,3,16;
 1/10=4,18=20,19=15,26=3/3(2);
 2/9=110/2;
 99//99;
 2/9=110/2;
 3/5=1,6=6,7=101,11=2,25=1,30=1,70=2205,71=1,72=1,74=-5/1,2,3;
 4/5=5,16=3,69=1/1;
 5/5=2,8=3,13=1,38=5,53=1/2,8;
 7//1,2,3,16;
 1/18=20,19=15,26=3/3(-5);
 2/9=110/2;
 6/7=2,8=2,9=2,10=2,19=2,28=1/1;
 99/9=1/99;
 ----------------------------------
 IXVDJDOFHBHDMT-UHFFFAOYSA-N_conf_3
 ----------------------------------
 Symbolic Z-matrix:
 Charge =  0 Multiplicity = 1
 C                     8.27892  -0.69411  -0.17242 
 C                     6.79346  -0.51091  -0.25532 
 C                     6.1039   -0.77978  -1.43855 
 C                     4.71299  -0.635    -1.49499 
 C                     3.97426  -0.20144  -0.38482 
 N                     2.57942  -0.14019  -0.49716 
 C                     1.81353   0.6117    0.49055 
 C                     0.33509   0.60249   0.09475 
 C                    -0.51482   1.37847   1.10486 
 C                    -1.99451   1.43516   0.71569 
 N                    -2.63233   0.14249   0.93761 
 C                    -3.97129  -0.03703   0.56762 
 C                    -4.88132   1.01176   0.4006 
 C                    -6.22638   0.7655    0.09549 
 C                    -6.70454  -0.54293  -0.01127 
 C                    -8.13712  -0.80273  -0.36814 
 C                    -5.81247  -1.59936   0.18106 
 C                    -4.47015  -1.34512   0.48493 
 C                     4.67043   0.01008   0.80925 
 C                     6.06284  -0.13191   0.87361 
 H                     8.51312  -1.67406   0.25552 
 H                     8.7409   -0.62514  -1.16328 
 H                     8.72934   0.08528   0.45205 
 H                     6.63801  -1.1133   -2.32512 
 H                     4.20453  -0.87122  -2.4265 
 H                     2.30318   0.06168  -1.45508 
 H                     2.17422   1.64611   0.54122 
 H                     1.91609   0.15435   1.48117 
 H                     0.21798   1.04662  -0.90186 
 H                    -0.01103  -0.435     0.01903 
 H                    -0.13551   2.40591   1.16617 
 H                    -0.40603   0.9353    2.10226 
 H                    -2.47461   2.19295   1.34641 
 H                    -2.09394   1.74432  -0.3321 
 H                    -2.06734  -0.65059   0.64467 
 H                    -4.56808   2.04594   0.50162 
 H                    -6.89866   1.60839  -0.04696 
 H                    -8.79373  -0.06063   0.09832 
 H                    -8.2658   -0.7588   -1.45425 
 H                    -8.45931  -1.78844  -0.01587 
 H                    -6.15284  -2.62964   0.10767 
 H                    -3.80855  -2.19045   0.65774 
 H                     4.14902   0.28638   1.72004 
 H                     6.56912   0.04692   1.81933 
 

 GradGradGradGradGradGradGradGradGradGradGradGradGradGradGradGradGradGrad
 Berny optimization.
 Initialization pass.
                           ----------------------------
                           !    Initial Parameters    !
                           ! (Angstroms and Degrees)  !
 --------------------------                            --------------------------
 ! Name  Definition              Value          Derivative Info.                !
 --------------------------------------------------------------------------------
 ! R1    R(1,2)                  1.499          calculate D2E/DX2 analytically  !
 ! R2    R(1,21)                 1.0947         calculate D2E/DX2 analytically  !
 ! R3    R(1,22)                 1.0954         calculate D2E/DX2 analytically  !
 ! R4    R(1,23)                 1.0956         calculate D2E/DX2 analytically  !
 ! R5    R(2,3)                  1.3956         calculate D2E/DX2 analytically  !
 ! R6    R(2,20)                 1.3971         calculate D2E/DX2 analytically  !
 ! R7    R(3,4)                  1.3996         calculate D2E/DX2 analytically  !
 ! R8    R(3,24)                 1.0874         calculate D2E/DX2 analytically  !
 ! R9    R(4,5)                  1.4022         calculate D2E/DX2 analytically  !
 ! R10   R(4,25)                 1.0872         calculate D2E/DX2 analytically  !
 ! R11   R(5,6)                  1.4007         calculate D2E/DX2 analytically  !
 ! R12   R(5,19)                 1.3983         calculate D2E/DX2 analytically  !
 ! R13   R(6,7)                  1.4586         calculate D2E/DX2 analytically  !
 ! R14   R(6,26)                 1.0172         calculate D2E/DX2 analytically  !
 ! R15   R(7,8)                  1.5305         calculate D2E/DX2 analytically  !
 ! R16   R(7,27)                 1.0967         calculate D2E/DX2 analytically  !
 ! R17   R(7,28)                 1.0959         calculate D2E/DX2 analytically  !
 ! R18   R(8,9)                  1.5313         calculate D2E/DX2 analytically  !
 ! R19   R(8,29)                 1.0974         calculate D2E/DX2 analytically  !
 ! R20   R(8,30)                 1.0963         calculate D2E/DX2 analytically  !
 ! R21   R(9,10)                 1.5311         calculate D2E/DX2 analytically  !
 ! R22   R(9,31)                 1.0969         calculate D2E/DX2 analytically  !
 ! R23   R(9,32)                 1.0968         calculate D2E/DX2 analytically  !
 ! R24   R(10,11)                1.4584         calculate D2E/DX2 analytically  !
 ! R25   R(10,33)                1.0966         calculate D2E/DX2 analytically  !
 ! R26   R(10,34)                1.097          calculate D2E/DX2 analytically  !
 ! R27   R(11,12)                1.4007         calculate D2E/DX2 analytically  !
 ! R28   R(11,35)                1.0169         calculate D2E/DX2 analytically  !
 ! R29   R(12,13)                1.3986         calculate D2E/DX2 analytically  !
 ! R30   R(12,18)                1.4024         calculate D2E/DX2 analytically  !
 ! R31   R(13,14)                1.4011         calculate D2E/DX2 analytically  !
 ! R32   R(13,36)                1.0853         calculate D2E/DX2 analytically  !
 ! R33   R(14,15)                1.3971         calculate D2E/DX2 analytically  !
 ! R34   R(14,37)                1.0875         calculate D2E/DX2 analytically  !
 ! R35   R(15,16)                1.499          calculate D2E/DX2 analytically  !
 ! R36   R(15,17)                1.396          calculate D2E/DX2 analytically  !
 ! R37   R(16,38)                1.0952         calculate D2E/DX2 analytically  !
 ! R38   R(16,39)                1.0946         calculate D2E/DX2 analytically  !
 ! R39   R(16,40)                1.0952         calculate D2E/DX2 analytically  !
 ! R40   R(17,18)                1.3996         calculate D2E/DX2 analytically  !
 ! R41   R(17,41)                1.0875         calculate D2E/DX2 analytically  !
 ! R42   R(18,42)                1.0873         calculate D2E/DX2 analytically  !
 ! R43   R(19,20)                1.4011         calculate D2E/DX2 analytically  !
 ! R44   R(19,43)                1.0852         calculate D2E/DX2 analytically  !
 ! R45   R(20,44)                1.0875         calculate D2E/DX2 analytically  !
 ! A1    A(2,1,21)             110.0623         calculate D2E/DX2 analytically  !
 ! A2    A(2,1,22)             111.1128         calculate D2E/DX2 analytically  !
 ! A3    A(2,1,23)             110.6093         calculate D2E/DX2 analytically  !
 ! A4    A(21,1,22)            108.6473         calculate D2E/DX2 analytically  !
 ! A5    A(21,1,23)            109.0294         calculate D2E/DX2 analytically  !
 ! A6    A(22,1,23)            107.3017         calculate D2E/DX2 analytically  !
 ! A7    A(1,2,3)              120.8608         calculate D2E/DX2 analytically  !
 ! A8    A(1,2,20)             120.4436         calculate D2E/DX2 analytically  !
 ! A9    A(3,2,20)             118.6166         calculate D2E/DX2 analytically  !
 ! A10   A(2,3,4)              120.3503         calculate D2E/DX2 analytically  !
 ! A11   A(2,3,24)             120.5056         calculate D2E/DX2 analytically  !
 ! A12   A(4,3,24)             119.1415         calculate D2E/DX2 analytically  !
 ! A13   A(3,4,5)              121.5762         calculate D2E/DX2 analytically  !
 ! A14   A(3,4,25)             118.4801         calculate D2E/DX2 analytically  !
 ! A15   A(5,4,25)             119.9433         calculate D2E/DX2 analytically  !
 ! A16   A(4,5,6)              118.3369         calculate D2E/DX2 analytically  !
 ! A17   A(4,5,19)             117.4246         calculate D2E/DX2 analytically  !
 ! A18   A(6,5,19)             123.8943         calculate D2E/DX2 analytically  !
 ! A19   A(5,6,7)              119.4148         calculate D2E/DX2 analytically  !
 ! A20   A(5,6,26)             110.7716         calculate D2E/DX2 analytically  !
 ! A21   A(7,6,26)             113.129          calculate D2E/DX2 analytically  !
 ! A22   A(6,7,8)              109.208          calculate D2E/DX2 analytically  !
 ! A23   A(6,7,27)             110.1704         calculate D2E/DX2 analytically  !
 ! A24   A(6,7,28)             110.3554         calculate D2E/DX2 analytically  !
 ! A25   A(8,7,27)             109.5927         calculate D2E/DX2 analytically  !
 ! A26   A(8,7,28)             108.7626         calculate D2E/DX2 analytically  !
 ! A27   A(27,7,28)            108.7286         calculate D2E/DX2 analytically  !
 ! A28   A(7,8,9)              111.2538         calculate D2E/DX2 analytically  !
 ! A29   A(7,8,29)             109.6034         calculate D2E/DX2 analytically  !
 ! A30   A(7,8,30)             109.1788         calculate D2E/DX2 analytically  !
 ! A31   A(9,8,29)             109.558          calculate D2E/DX2 analytically  !
 ! A32   A(9,8,30)             110.4809         calculate D2E/DX2 analytically  !
 ! A33   A(29,8,30)            106.6543         calculate D2E/DX2 analytically  !
 ! A34   A(8,9,10)             112.7987         calculate D2E/DX2 analytically  !
 ! A35   A(8,9,31)             108.6385         calculate D2E/DX2 analytically  !
 ! A36   A(8,9,32)             109.8798         calculate D2E/DX2 analytically  !
 ! A37   A(10,9,31)            108.2833         calculate D2E/DX2 analytically  !
 ! A38   A(10,9,32)            109.9964         calculate D2E/DX2 analytically  !
 ! A39   A(31,9,32)            107.0572         calculate D2E/DX2 analytically  !
 ! A40   A(9,10,11)            110.5585         calculate D2E/DX2 analytically  !
 ! A41   A(9,10,33)            107.6078         calculate D2E/DX2 analytically  !
 ! A42   A(9,10,34)            109.9273         calculate D2E/DX2 analytically  !
 ! A43   A(11,10,33)           109.4813         calculate D2E/DX2 analytically  !
 ! A44   A(11,10,34)           110.8243         calculate D2E/DX2 analytically  !
 ! A45   A(33,10,34)           108.3569         calculate D2E/DX2 analytically  !
 ! A46   A(10,11,12)           119.4366         calculate D2E/DX2 analytically  !
 ! A47   A(10,11,35)           113.8567         calculate D2E/DX2 analytically  !
 ! A48   A(12,11,35)           110.7983         calculate D2E/DX2 analytically  !
 ! A49   A(11,12,13)           123.8787         calculate D2E/DX2 analytically  !
 ! A50   A(11,12,18)           118.3694         calculate D2E/DX2 analytically  !
 ! A51   A(13,12,18)           117.4492         calculate D2E/DX2 analytically  !
 ! A52   A(12,13,14)           121.2567         calculate D2E/DX2 analytically  !
 ! A53   A(12,13,36)           121.0426         calculate D2E/DX2 analytically  !
 ! A54   A(14,13,36)           117.7006         calculate D2E/DX2 analytically  !
 ! A55   A(13,14,15)           120.6515         calculate D2E/DX2 analytically  !
 ! A56   A(13,14,37)           119.0626         calculate D2E/DX2 analytically  !
 ! A57   A(15,14,37)           120.2825         calculate D2E/DX2 analytically  !
 ! A58   A(14,15,16)           120.5013         calculate D2E/DX2 analytically  !
 ! A59   A(14,15,17)           118.6511         calculate D2E/DX2 analytically  !
 ! A60   A(16,15,17)           120.8194         calculate D2E/DX2 analytically  !
 ! A61   A(15,16,38)           110.7404         calculate D2E/DX2 analytically  !
 ! A62   A(15,16,39)           109.9756         calculate D2E/DX2 analytically  !
 ! A63   A(15,16,40)           111.1332         calculate D2E/DX2 analytically  !
 ! A64   A(38,16,39)           108.9622         calculate D2E/DX2 analytically  !
 ! A65   A(38,16,40)           107.2458         calculate D2E/DX2 analytically  !
 ! A66   A(39,16,40)           108.7042         calculate D2E/DX2 analytically  !
 ! A67   A(15,17,18)           120.3526         calculate D2E/DX2 analytically  !
 ! A68   A(15,17,41)           120.5051         calculate D2E/DX2 analytically  !
 ! A69   A(18,17,41)           119.1389         calculate D2E/DX2 analytically  !
 ! A70   A(12,18,17)           121.5609         calculate D2E/DX2 analytically  !
 ! A71   A(12,18,42)           119.9574         calculate D2E/DX2 analytically  !
 ! A72   A(17,18,42)           118.4817         calculate D2E/DX2 analytically  !
 ! A73   A(5,19,20)            121.2439         calculate D2E/DX2 analytically  !
 ! A74   A(5,19,43)            121.064          calculate D2E/DX2 analytically  !
 ! A75   A(20,19,43)           117.6917         calculate D2E/DX2 analytically  !
 ! A76   A(2,20,19)            120.6687         calculate D2E/DX2 analytically  !
 ! A77   A(2,20,44)            120.2546         calculate D2E/DX2 analytically  !
 ! A78   A(19,20,44)           119.0736         calculate D2E/DX2 analytically  !
 ! D1    D(21,1,2,3)           -96.3168         calculate D2E/DX2 analytically  !
 ! D2    D(21,1,2,20)           80.4058         calculate D2E/DX2 analytically  !
 ! D3    D(22,1,2,3)            24.0746         calculate D2E/DX2 analytically  !
 ! D4    D(22,1,2,20)         -159.2029         calculate D2E/DX2 analytically  !
 ! D5    D(23,1,2,3)           143.14           calculate D2E/DX2 analytically  !
 ! D6    D(23,1,2,20)          -40.1374         calculate D2E/DX2 analytically  !
 ! D7    D(1,2,3,4)            178.5034         calculate D2E/DX2 analytically  !
 ! D8    D(1,2,3,24)            -0.9064         calculate D2E/DX2 analytically  !
 ! D9    D(20,2,3,4)             1.7221         calculate D2E/DX2 analytically  !
 ! D10   D(20,2,3,24)         -177.6877         calculate D2E/DX2 analytically  !
 ! D11   D(1,2,20,19)         -178.4884         calculate D2E/DX2 analytically  !
 ! D12   D(1,2,20,44)            0.8608         calculate D2E/DX2 analytically  !
 ! D13   D(3,2,20,19)           -1.6932         calculate D2E/DX2 analytically  !
 ! D14   D(3,2,20,44)          177.656          calculate D2E/DX2 analytically  !
 ! D15   D(2,3,4,5)              0.9369         calculate D2E/DX2 analytically  !
 ! D16   D(2,3,4,25)          -178.8248         calculate D2E/DX2 analytically  !
 ! D17   D(24,3,4,5)          -179.6453         calculate D2E/DX2 analytically  !
 ! D18   D(24,3,4,25)            0.593          calculate D2E/DX2 analytically  !
 ! D19   D(3,4,5,6)           -177.0674         calculate D2E/DX2 analytically  !
 ! D20   D(3,4,5,19)            -3.5374         calculate D2E/DX2 analytically  !
 ! D21   D(25,4,5,6)             2.6908         calculate D2E/DX2 analytically  !
 ! D22   D(25,4,5,19)          176.2209         calculate D2E/DX2 analytically  !
 ! D23   D(4,5,6,7)           -164.5618         calculate D2E/DX2 analytically  !
 ! D24   D(4,5,6,26)           -30.4442         calculate D2E/DX2 analytically  !
 ! D25   D(19,5,6,7)            22.3588         calculate D2E/DX2 analytically  !
 ! D26   D(19,5,6,26)          156.4764         calculate D2E/DX2 analytically  !
 ! D27   D(4,5,19,20)            3.5599         calculate D2E/DX2 analytically  !
 ! D28   D(4,5,19,43)         -176.1915         calculate D2E/DX2 analytically  !
 ! D29   D(6,5,19,20)          176.6976         calculate D2E/DX2 analytically  !
 ! D30   D(6,5,19,43)           -3.0538         calculate D2E/DX2 analytically  !
 ! D31   D(5,6,7,8)            176.2386         calculate D2E/DX2 analytically  !
 ! D32   D(5,6,7,27)            55.8222         calculate D2E/DX2 analytically  !
 ! D33   D(5,6,7,28)           -64.2529         calculate D2E/DX2 analytically  !
 ! D34   D(26,6,7,8)            43.1181         calculate D2E/DX2 analytically  !
 ! D35   D(26,6,7,27)          -77.2983         calculate D2E/DX2 analytically  !
 ! D36   D(26,6,7,28)          162.6266         calculate D2E/DX2 analytically  !
 ! D37   D(6,7,8,9)            179.8702         calculate D2E/DX2 analytically  !
 ! D38   D(6,7,8,29)           -58.8096         calculate D2E/DX2 analytically  !
 ! D39   D(6,7,8,30)            57.6768         calculate D2E/DX2 analytically  !
 ! D40   D(27,7,8,9)           -59.3601         calculate D2E/DX2 analytically  !
 ! D41   D(27,7,8,29)           61.96           calculate D2E/DX2 analytically  !
 ! D42   D(27,7,8,30)          178.4464         calculate D2E/DX2 analytically  !
 ! D43   D(28,7,8,9)            59.3814         calculate D2E/DX2 analytically  !
 ! D44   D(28,7,8,29)         -179.2984         calculate D2E/DX2 analytically  !
 ! D45   D(28,7,8,30)          -62.812          calculate D2E/DX2 analytically  !
 ! D46   D(7,8,9,10)           177.9078         calculate D2E/DX2 analytically  !
 ! D47   D(7,8,9,31)            57.8475         calculate D2E/DX2 analytically  !
 ! D48   D(7,8,9,32)           -58.9692         calculate D2E/DX2 analytically  !
 ! D49   D(29,8,9,10)           56.5611         calculate D2E/DX2 analytically  !
 ! D50   D(29,8,9,31)          -63.4992         calculate D2E/DX2 analytically  !
 ! D51   D(29,8,9,32)          179.6841         calculate D2E/DX2 analytically  !
 ! D52   D(30,8,9,10)          -60.6556         calculate D2E/DX2 analytically  !
 ! D53   D(30,8,9,31)          179.2841         calculate D2E/DX2 analytically  !
 ! D54   D(30,8,9,32)           62.4674         calculate D2E/DX2 analytically  !
 ! D55   D(8,9,10,11)           73.7099         calculate D2E/DX2 analytically  !
 ! D56   D(8,9,10,33)         -166.7706         calculate D2E/DX2 analytically  !
 ! D57   D(8,9,10,34)          -48.9623         calculate D2E/DX2 analytically  !
 ! D58   D(31,9,10,11)        -166.0258         calculate D2E/DX2 analytically  !
 ! D59   D(31,9,10,33)         -46.5063         calculate D2E/DX2 analytically  !
 ! D60   D(31,9,10,34)          71.302          calculate D2E/DX2 analytically  !
 ! D61   D(32,9,10,11)         -49.3481         calculate D2E/DX2 analytically  !
 ! D62   D(32,9,10,33)          70.1713         calculate D2E/DX2 analytically  !
 ! D63   D(32,9,10,34)        -172.0203         calculate D2E/DX2 analytically  !
 ! D64   D(9,10,11,12)        -176.2268         calculate D2E/DX2 analytically  !
 ! D65   D(9,10,11,35)         -42.1705         calculate D2E/DX2 analytically  !
 ! D66   D(33,10,11,12)         65.39           calculate D2E/DX2 analytically  !
 ! D67   D(33,10,11,35)       -160.5538         calculate D2E/DX2 analytically  !
 ! D68   D(34,10,11,12)        -54.0793         calculate D2E/DX2 analytically  !
 ! D69   D(34,10,11,35)         79.9769         calculate D2E/DX2 analytically  !
 ! D70   D(10,11,12,13)        -21.6075         calculate D2E/DX2 analytically  !
 ! D71   D(10,11,12,18)        164.8818         calculate D2E/DX2 analytically  !
 ! D72   D(35,11,12,13)       -156.9336         calculate D2E/DX2 analytically  !
 ! D73   D(35,11,12,18)         29.5557         calculate D2E/DX2 analytically  !
 ! D74   D(11,12,13,14)       -176.7097         calculate D2E/DX2 analytically  !
 ! D75   D(11,12,13,36)          3.3939         calculate D2E/DX2 analytically  !
 ! D76   D(18,12,13,14)         -3.1437         calculate D2E/DX2 analytically  !
 ! D77   D(18,12,13,36)        176.9598         calculate D2E/DX2 analytically  !
 ! D78   D(11,12,18,17)        177.0535         calculate D2E/DX2 analytically  !
 ! D79   D(11,12,18,42)         -3.0136         calculate D2E/DX2 analytically  !
 ! D80   D(13,12,18,17)          3.1229         calculate D2E/DX2 analytically  !
 ! D81   D(13,12,18,42)       -176.9442         calculate D2E/DX2 analytically  !
 ! D82   D(12,13,14,15)          1.922          calculate D2E/DX2 analytically  !
 ! D83   D(12,13,14,37)       -178.7484         calculate D2E/DX2 analytically  !
 ! D84   D(36,13,14,15)       -178.1783         calculate D2E/DX2 analytically  !
 ! D85   D(36,13,14,37)          1.1513         calculate D2E/DX2 analytically  !
 ! D86   D(13,14,15,16)       -178.62           calculate D2E/DX2 analytically  !
 ! D87   D(13,14,15,17)         -0.5351         calculate D2E/DX2 analytically  !
 ! D88   D(37,14,15,16)          2.0586         calculate D2E/DX2 analytically  !
 ! D89   D(37,14,15,17)       -179.8565         calculate D2E/DX2 analytically  !
 ! D90   D(14,15,16,38)        -37.2185         calculate D2E/DX2 analytically  !
 ! D91   D(14,15,16,39)         83.2688         calculate D2E/DX2 analytically  !
 ! D92   D(14,15,16,40)       -156.3126         calculate D2E/DX2 analytically  !
 ! D93   D(17,15,16,38)        144.7384         calculate D2E/DX2 analytically  !
 ! D94   D(17,15,16,39)        -94.7743         calculate D2E/DX2 analytically  !
 ! D95   D(17,15,16,40)         25.6443         calculate D2E/DX2 analytically  !
 ! D96   D(14,15,17,18)          0.5029         calculate D2E/DX2 analytically  !
 ! D97   D(14,15,17,41)        179.8329         calculate D2E/DX2 analytically  !
 ! D98   D(16,15,17,18)        178.5816         calculate D2E/DX2 analytically  !
 ! D99   D(16,15,17,41)         -2.0885         calculate D2E/DX2 analytically  !
 ! D100  D(15,17,18,12)         -1.8598         calculate D2E/DX2 analytically  !
 ! D101  D(15,17,18,42)        178.2064         calculate D2E/DX2 analytically  !
 ! D102  D(41,17,18,12)        178.8012         calculate D2E/DX2 analytically  !
 ! D103  D(41,17,18,42)         -1.1327         calculate D2E/DX2 analytically  !
 ! D104  D(5,19,20,2)           -1.0042         calculate D2E/DX2 analytically  !
 ! D105  D(5,19,20,44)         179.639          calculate D2E/DX2 analytically  !
 ! D106  D(43,19,20,2)         178.7553         calculate D2E/DX2 analytically  !
 ! D107  D(43,19,20,44)         -0.6015         calculate D2E/DX2 analytically  !
 --------------------------------------------------------------------------------
 Trust Radius=3.00D-01 FncErr=1.00D-07 GrdErr=1.00D-06 EigMax=2.50D+02 EigMin=1.00D-04
 Number of steps in this run=    240 maximum allowed number of steps=    264.
 GradGradGradGradGradGradGradGradGradGradGradGradGradGradGradGradGradGrad

                          Input orientation:                          
 ---------------------------------------------------------------------
 Center     Atomic      Atomic             Coordinates (Angstroms)
 Number     Number       Type             X           Y           Z
 ---------------------------------------------------------------------
      1          6           0        8.278918   -0.694107   -0.172419
      2          6           0        6.793458   -0.510909   -0.255316
      3          6           0        6.103904   -0.779776   -1.438546
      4          6           0        4.712987   -0.635003   -1.494987
      5          6           0        3.974264   -0.201438   -0.384823
      6          7           0        2.579425   -0.140189   -0.497157
      7          6           0        1.813531    0.611698    0.490550
      8          6           0        0.335086    0.602487    0.094745
      9          6           0       -0.514822    1.378470    1.104860
     10          6           0       -1.994508    1.435157    0.715685
     11          7           0       -2.632331    0.142491    0.937611
     12          6           0       -3.971293   -0.037029    0.567618
     13          6           0       -4.881318    1.011764    0.400605
     14          6           0       -6.226383    0.765497    0.095487
     15          6           0       -6.704539   -0.542931   -0.011272
     16          6           0       -8.137116   -0.802726   -0.368142
     17          6           0       -5.812466   -1.599360    0.181062
     18          6           0       -4.470152   -1.345116    0.484925
     19          6           0        4.670429    0.010076    0.809246
     20          6           0        6.062841   -0.131906    0.873609
     21          1           0        8.513123   -1.674062    0.255520
     22          1           0        8.740903   -0.625138   -1.163283
     23          1           0        8.729341    0.085276    0.452055
     24          1           0        6.638008   -1.113302   -2.325124
     25          1           0        4.204533   -0.871225   -2.426495
     26          1           0        2.303181    0.061683   -1.455079
     27          1           0        2.174223    1.646107    0.541223
     28          1           0        1.916090    0.154353    1.481167
     29          1           0        0.217983    1.046618   -0.901856
     30          1           0       -0.011029   -0.435001    0.019025
     31          1           0       -0.135514    2.405906    1.166172
     32          1           0       -0.406032    0.935298    2.102256
     33          1           0       -2.474608    2.192951    1.346412
     34          1           0       -2.093939    1.744316   -0.332096
     35          1           0       -2.067336   -0.650595    0.644671
     36          1           0       -4.568085    2.045939    0.501618
     37          1           0       -6.898664    1.608386   -0.046960
     38          1           0       -8.793734   -0.060630    0.098322
     39          1           0       -8.265801   -0.758803   -1.454245
     40          1           0       -8.459308   -1.788444   -0.015865
     41          1           0       -6.152843   -2.629636    0.107669
     42          1           0       -3.808548   -2.190447    0.657745
     43          1           0        4.149025    0.286376    1.720039
     44          1           0        6.569118    0.046920    1.819326
 ---------------------------------------------------------------------
                    Distance matrix (angstroms):
                    1          2          3          4          5
     1  C    0.000000
     2  C    1.499008   0.000000
     3  C    2.518155   1.395639   0.000000
     4  C    3.803753   2.424983   1.399569   0.000000
     5  C    4.337959   2.839085   2.445439   1.402196   0.000000
     6  N    5.735547   4.237216   3.703679   2.406781   1.400695
     7  C    6.629170   5.159093   4.905600   3.728736   2.469056
     8  C    8.053385   6.562985   6.127062   4.819196   3.757645
     9  C    9.124521   7.670123   7.411779   6.176024   4.986698
    10  C   10.529282   9.053086   8.667809   7.359560   6.286159
    11  N   10.999428   9.523419   9.100466   7.776614   6.746422
    12  C   12.290121  10.806556  10.299803   8.945872   8.004126
    13  C   13.282701  11.791911  11.281276   9.917449   8.972741
    14  C   14.581014  13.086961  12.521066  11.142748  10.257624
    15  C   14.985086  13.500242  12.889896  11.513896  10.690790
    16  C   16.417560  14.933852  14.281209  12.900507  12.126308
    17  C   14.124855  12.660351  12.053826  10.701602   9.902247
    18  C   12.782594  11.318692  10.762435   9.420954   8.565782
    19  C    3.805356   2.431454   2.780518   2.393204   1.398279
    20  C    2.514208   1.397110   2.401558   2.772266   2.439393
    21  H    1.094667   2.138019   3.077977   4.311026   4.814551
    22  H    1.095445   2.151742   2.655833   4.041563   4.848338
    23  H    1.095575   2.145565   3.348971   4.521158   4.836665
    24  H    2.739060   2.161283   1.087441   2.150256   3.419327
    25  H    4.659705   3.397997   2.142899   1.087214   2.161033
    26  H    6.158398   4.682936   3.892791   2.508811   2.001799
    27  H    6.576716   5.159896   5.024618   3.974285   2.740644
    28  H    6.628711   5.219834   5.189904   4.159713   2.800819
    29  H    8.278941   6.788282   6.186098   4.835775   3.991818
    30  H    8.296204   6.810438   6.295695   4.964732   4.012505
    31  H    9.066673   7.651084   7.474186   6.311644   5.108238
    32  H    9.124552   7.712478   7.606445   6.450609   5.163789
    33  H   11.237449   9.786391   9.496523   8.229969   7.093533
    34  H   10.656808   9.169393   8.648693   7.303952   6.372740
    35  H   10.378559   8.907478   8.433601   7.109933   6.145121
    36  H   13.153238  11.670265  11.208936   9.864694   8.877398
    37  H   15.351750  13.856733  13.293103  11.914698  11.027700
    38  H   17.086546  15.597704  14.993957  13.612497  12.777912
    39  H   16.594427  15.108944  14.369729  12.979443  12.299330
    40  H   16.774692  15.308047  14.667261  13.305171  12.539873
    41  H   14.563668  13.123546  12.491621  11.163034  10.425784
    42  H   12.207991  10.772979  10.229424   8.925818   8.100325
    43  H    4.647446   3.395691   3.864568   3.391663   2.167705
    44  H    2.727560   2.160010   3.393167   3.859393   3.413682
                    6          7          8          9         10
     6  N    0.000000
     7  C    1.458593   0.000000
     8  C    2.437001   1.530538   0.000000
     9  C    3.800940   2.527161   1.531282   0.000000
    10  C    4.987340   3.902554   2.550669   1.531059   0.000000
    11  N    5.413027   4.492850   3.118907   2.457531   1.458442
    12  C    6.637491   5.821595   4.379210   3.773520   2.469197
    13  C    7.602345   6.707394   5.241366   4.438100   2.934656
    14  C    8.872077   8.051083   6.563493   5.832366   4.329186
    15  C    9.305390   8.610604   7.132989   6.576483   5.160009
    16  C   10.737777  10.087285   8.600412   8.063915   6.626797
    17  C    8.544764   7.946093   6.530541   6.147024   4.906212
    18  C    7.218925   6.581324   5.199587   4.842197   3.729877
    19  C    2.470135   2.936901   4.433584   5.370914   6.816230
    20  C    3.743428   4.330857   5.826933   6.752804   8.209842
    21  H    6.174792   7.082688   8.490513   9.567817  10.967648
    22  H    6.216327   7.228653   8.587635   9.737935  11.091636
    23  H    6.226821   6.935924   8.417761   9.356979  10.811689
    24  H    4.556370   5.846300   6.966098   8.314847   9.500605
    25  H    2.626354   4.052790   4.847793   6.309034   7.322622
    26  H    1.017191   2.080324   2.562776   4.028443   5.006873
    27  H    2.105534   1.096662   2.161229   2.760485   4.177709
    28  H    2.107257   1.095903   2.150015   2.747617   4.185594
    29  H    2.673705   2.161879   1.097351   2.161953   2.768126
    30  H    2.657782   2.155674   1.096316   2.172906   2.813719
    31  H    4.076782   2.733938   2.149823   1.096932   2.145030
    32  H    4.102020   2.762023   2.165668   1.096830   2.166955
    33  H    5.863918   4.649838   3.462748   2.135998   1.096615
    34  H    5.041719   4.150649   2.717743   2.166170   1.096955
    35  H    4.812137   4.083902   2.764825   2.595992   2.088230
    36  H    7.540796   6.540809   5.127395   4.151910   2.653710
    37  H    9.648542   8.785479   7.304728   6.490993   4.966123
    38  H   11.389015  10.635786   9.152873   8.463127   6.989134
    39  H   10.904936  10.356324   8.844645   8.437691   6.989362
    40  H   11.171482  10.561645   9.114282   8.625556   7.260882
    41  H    9.100311   8.609062   7.248448   6.989033   5.846706
    42  H    6.807610   6.283927   5.028633   4.877060   4.054516
    43  H    2.749829   2.659325   4.157841   4.829346   6.330199
    44  H    4.617224   4.969933   6.491995   7.243321   8.745337
                   11         12         13         14         15
    11  N    0.000000
    12  C    1.400693   0.000000
    13  C    2.470213   1.398573   0.000000
    14  C    3.743597   2.439751   1.401051   0.000000
    15  C    4.237106   2.839311   2.431225   1.397146   0.000000
    16  C    5.735947   4.337744   3.805729   2.514991   1.499042
    17  C    3.704008   2.445450   2.780865   2.402332   1.396005
    18  C    2.407382   1.402423   2.393961   2.773210   2.425324
    19  C    7.305088   8.645228   9.612816  10.946261  11.417923
    20  C    8.699736  10.039246  11.013915  12.346490  12.804607
    21  H   11.313101  12.595154  13.661835  14.940886  15.261975
    22  H   11.591094  12.842968  13.809059  15.084364  15.488563
    23  H   11.372187  12.701749  13.642253  14.975430  15.453607
    24  H    9.907655  11.049144  12.026652  13.224288  13.553700
    25  H    7.686841   8.746698   9.700042  10.855563  11.178056
    26  H    5.485505   6.593183   7.480858   8.697877   9.142710
    27  H    5.051825   6.371892   7.085394   8.458388   9.161307
    28  H    4.580799   5.960912   6.935958   8.282117   8.776607
    29  H    3.510751   4.569866   5.263125   6.527141   7.158290
    30  H    2.836992   4.017839   5.094943   6.330693   6.694449
    31  H    3.377778   4.586873   5.005235   6.398124   7.296171
    32  H    2.634644   4.001452   4.788491   6.158932   6.806126
    33  H    2.096755   2.796319   2.842887   4.204552   5.217344
    34  H    2.113732   2.739914   2.973712   4.268255   5.156749
    35  H    1.016867   2.001863   3.277423   4.427707   4.684604
    36  H    2.749609   2.167781   1.085282   2.134110   3.395547
    37  H    4.617340   3.413883   2.150804   1.087527   2.160352
    38  H    6.221620   4.845280   4.067974   2.696996   2.146942
    39  H    6.186218   4.801218   4.246188   2.980670   2.136893
    40  H    6.212189   4.852853   4.562524   3.394255   2.151868
    41  H    4.557137   3.419404   3.868124   3.395951   2.161678
    42  H    2.627625   2.161439   3.386903   3.860008   3.398331
    43  H    6.827861   8.208059   9.155009  10.512745  11.022025
    44  H    9.244091  10.614805  11.578263  12.931080  13.412271
                   16         17         18         19         20
    16  C    0.000000
    17  C    2.517985   0.000000
    18  C    3.803753   1.399564   0.000000
    19  C   12.887207  10.624311   9.246186   0.000000
    20  C   14.269924  11.985656  10.609755   1.401111   0.000000
    21  H   16.684683  14.325977  12.989468   4.231929   2.960432
    22  H   16.897672  14.647762  13.332927   4.567617   3.400622
    23  H   16.909721  14.641571  13.276812   4.075292   2.708339
    24  H   14.907398  12.709505  11.460425   3.867507   3.394973
    25  H   12.512306  10.376406   9.162484   3.385819   3.858833
    26  H   10.532257   8.443918   7.184757   3.276232   4.426659
    27  H   10.637079   8.628440   7.286858   2.996578   4.288725
    28  H   10.266591   8.030963   6.635133   2.838781   4.200787
    29  H    8.573950   6.673847   5.442625   4.881246   6.221218
    30  H    8.143612   5.919347   4.574840   4.768499   6.141178
    31  H    8.756431   7.017150   5.772639   5.381866   6.704154
    32  H    8.300196   6.272560   4.932861   5.319621   6.670443
    33  H    6.631575   5.184686   4.152382   7.490330   8.860956
    34  H    6.558103   5.027021   3.982273   7.075798   8.456180
    35  H    6.155581   3.891156   2.506274   6.772078   8.149921
    36  H    4.648587   3.865158   3.392510   9.465174  10.858083
    37  H    2.729539   3.394327   3.860537  11.710320  13.110174
    38  H    1.095190   3.355964   4.526889  13.483105  14.876961
    39  H    1.094582   3.065880   4.302452  13.155251  14.530034
    40  H    1.095238   2.660884   4.044835  13.278007  14.643363
    41  H    2.738857   1.087525   2.150293  11.162594  12.491927
    42  H    4.659905   2.142965   1.087277   8.761182  10.086055
    43  H   12.509833  10.254548   8.858752   1.085241   2.134032
    44  H   14.892288  12.597531  11.206422   2.150963   1.087509
                   21         22         23         24         25
    21  H    0.000000
    22  H    1.779081   0.000000
    23  H    1.783437   1.764692   0.000000
    24  H    3.238863   2.451601   3.677361   0.000000
    25  H    5.138259   4.715392   5.447461   2.447586   0.000000
    26  H    6.671007   6.480829   6.703227   4.574745   2.330044
    27  H    7.161481   7.154383   6.738970   5.979603   4.389359
    28  H    6.954578   7.360625   6.890881   6.196072   4.643124
    29  H    8.806302   8.689262   8.671820   6.921536   4.679233
    30  H    8.616981   8.833477   8.766542   7.082712   4.893038
    31  H    9.605953   9.664594   9.191351   8.393721   6.517886
    32  H    9.474730   9.836927   9.322056   8.568368   6.710470
    33  H   11.699319  11.833338  11.435499  10.365869   8.260443
    34  H   11.159765  11.122005  10.977736   9.401331   7.134305
    35  H   10.636965  10.958438  10.823439   9.209602   6.986921
    36  H   13.602094  13.676100  13.441287  11.981143   9.697552
    37  H   15.760366  15.837641  15.709979  13.994252  11.622893
    38  H   17.382611  17.589026  17.527253  15.656304  13.265998
    39  H   16.890627  17.009719  17.122538  14.933440  12.508683
    40  H   16.974986  17.277648  17.296804  15.287820  12.923826
    41  H   14.697807  15.081677  15.131713  13.108150  10.806906
    42  H   12.339044  12.777131  12.744406  10.917338   8.686907
    43  H    5.003347   5.498159   4.756839   4.951512   4.305446
    44  H    3.030911   3.750236   2.556847   4.304338   4.945832
                   26         27         28         29         30
    26  H    0.000000
    27  H    2.551912   0.000000
    28  H    2.963101   1.781981   0.000000
    29  H    2.371540   2.503745   3.059167   0.000000
    30  H    2.788412   3.062519   2.489775   1.759450   0.000000
    31  H    4.279436   2.510525   3.062317   2.499873   3.066300
    32  H    4.556058   3.098352   2.527424   3.070257   2.524598
    33  H    5.934469   4.749631   4.842754   3.690371   3.838920
    34  H    4.840145   4.357698   4.679341   2.481208   3.034999
    35  H    4.900786   4.824558   4.149138   3.239592   2.160165
    36  H    7.414865   6.754269   6.825111   5.086731   5.211019
    37  H    9.436580   9.092011   9.063623   7.189791   7.184658
    38  H   11.205781  11.108789  10.800871   9.134408   8.791039
    39  H   10.600782  10.897687  10.635855   8.691334   8.391463
    40  H   11.014784  11.188318  10.661353   9.171583   8.556077
    41  H    9.010533   9.370697   8.645505   7.424379   6.522742
    42  H    6.847579   7.108183   6.240801   5.396656   4.232105
    43  H    3.679538   2.671763   2.249553   4.785957   4.551909
    44  H    5.377748   4.848304   4.666537   6.981486   6.838981
                   31         32         33         34         35
    31  H    0.000000
    32  H    1.764121   0.000000
    33  H    2.355674   2.536139   0.000000
    34  H    2.553025   3.070767   1.778643   0.000000
    35  H    3.653231   2.720209   2.957037   2.586576   0.000000
    36  H    4.496543   4.595460   2.262286   2.628204   3.680422
    37  H    6.917220   6.872150   4.674984   4.815098   5.378019
    38  H    9.065809   8.681082   6.824054   6.952003   6.774289
    39  H    9.109531   8.791738   7.077744   6.754014   6.545085
    40  H    9.395495   8.761305   7.316006   7.286859   6.525973
    41  H    7.917409   7.050742   6.190415   5.983272   4.571252
    42  H    5.905603   4.840869   4.633340   4.404773   2.324465
    43  H    4.812115   4.616896   6.902690   6.731377   6.377889
    44  H    7.137472   7.037186   9.306883   9.086161   8.743837
                   36         37         38         39         40
    36  H    0.000000
    37  H    2.433925   0.000000
    38  H    4.738818   2.529429   0.000000
    39  H    5.036377   3.074590   1.782308   0.000000
    40  H    5.487431   3.738319   1.763581   1.779478   0.000000
    41  H    4.952540   4.305925   3.684316   3.225552   2.458180
    42  H    4.306767   4.947379   5.449876   5.135875   4.716452
    43  H    8.976002  11.265941  13.048578  12.856764  12.895282
    44  H   11.391652  13.685845  15.459323  15.213162  15.250904
                   41         42         43         44
    41  H    0.000000
    42  H    2.447690   0.000000
    43  H   10.827342   8.401553   0.000000
    44  H   13.112666  10.679468   2.433937   0.000000
 Stoichiometry    C18H24N2
 Framework group  C1[X(C18H24N2)]
 Deg. of freedom   126
 Full point group                 C1      NOp   1
 Largest Abelian subgroup         C1      NOp   1
 Largest concise Abelian subgroup C1      NOp   1
                         Standard orientation:                         
 ---------------------------------------------------------------------
 Center     Atomic      Atomic             Coordinates (Angstroms)
 Number     Number       Type             X           Y           Z
 ---------------------------------------------------------------------
      1          6           0        8.291627   -0.440075    0.327942
      2          6           0        6.808337   -0.378245    0.120459
      3          6           0        6.167139   -1.275277   -0.735115
      4          6           0        4.777764   -1.228039   -0.896972
      5          6           0        3.992650   -0.277448   -0.229044
      6          7           0        2.602435   -0.330781   -0.391534
      7          6           0        1.791109    0.817032   -0.001959
      8          6           0        0.328879    0.546238   -0.364037
      9          6           0       -0.567520    1.723929    0.028821
     10          6           0       -2.032004    1.511712   -0.364106
     11          7           0       -2.662731    0.536331    0.517862
     12          6           0       -3.984588    0.141961    0.274743
     13          6           0       -4.899748    0.896973   -0.465828
     14          6           0       -6.229381    0.482480   -0.618196
     15          6           0       -6.687966   -0.682225    0.002432
     16          6           0       -8.102931   -1.139177   -0.187823
     17          6           0       -5.791612   -1.430207    0.767875
     18          6           0       -4.464774   -1.009834    0.914728
     19          6           0        4.640709    0.577920    0.667365
     20          6           0        6.031247    0.537420    0.834326
     21          1           0        8.520839   -1.014561    1.231116
     22          1           0        8.789887   -0.914249   -0.524639
     23          1           0        8.709073    0.567693    0.430063
     24          1           0        6.738186   -2.025515   -1.276941
     25          1           0        4.307636   -1.953666   -1.556123
     26          1           0        2.360257   -0.698476   -1.308501
     27          1           0        2.137616    1.718710   -0.521167
     28          1           0        1.861463    0.984357    1.078808
     29          1           0        0.244373    0.364152   -1.442871
     30          1           0       -0.002079   -0.371360    0.136353
     31          1           0       -0.202732    2.626219   -0.477204
     32          1           0       -0.491360    1.906998    1.107580
     33          1           0       -2.544341    2.476537   -0.268246
     34          1           0       -2.095355    1.189399   -1.410725
     35          1           0       -2.077918   -0.269279    0.725236
     36          1           0       -4.602562    1.824737   -0.944127
     37          1           0       -6.905525    1.086537   -1.218745
     38          1           0       -8.785259   -0.283310   -0.224697
     39          1           0       -8.190991   -1.704716   -1.120840
     40          1           0       -8.426755   -1.777116    0.641464
     41          1           0       -6.117009   -2.340332    1.266371
     42          1           0       -3.800418   -1.599524    1.541680
     43          1           0        4.082100    1.294154    1.261262
     44          1           0        6.499327    1.222936    1.536925
 ---------------------------------------------------------------------
 Rotational constants (GHZ):           1.4426766           0.0721010           0.0704729
 Standard basis: 6-31G(d,p) (6D, 7F)
 There are   420 symmetry adapted cartesian basis functions of A   symmetry.
 There are   420 symmetry adapted basis functions of A   symmetry.
   420 basis functions,   728 primitive gaussians,   420 cartesian basis functions
    73 alpha electrons       73 beta electrons
       nuclear repulsion energy      1339.8770528009 Hartrees.
 NAtoms=   44 NActive=   44 NUniq=   44 SFac= 1.00D+00 NAtFMM=   60 NAOKFM=F Big=F
 Integral buffers will be    131072 words long.
 Raffenetti 2 integral format.
 Two-electron integral symmetry is turned on.
 Force inversion solution in PCM.
 ------------------------------------------------------------------------------
 Polarizable Continuum Model (PCM)
 =================================
 Model                : PCM.
 Atomic radii         : UFF (Universal Force Field).
 Polarization charges : Total charges.
 Charge compensation  : None.
 Solution method      : Matrix inversion.
 Cavity type          : Scaled VdW (van der Waals Surface) (Alpha=1.100).
 Cavity algorithm     : GePol (No added spheres)
                        Default sphere list used, NSphG=   44.
                        Lebedev-Laikov grids with approx.  5.0 points / Ang**2.
                        Smoothing algorithm: York/Karplus (Gamma=1.0000).
                        Polarization charges: spherical gaussians, with
                                              point-specific exponents (IZeta= 3).
                        Self-potential: point-specific (ISelfS= 7).
                        Self-field    : sphere-specific E.n sum rule (ISelfD= 2).
 1st derivatives      : Analytical E(r).r(x)/FMM algorithm (CHGder, D1EAlg=3).
                        Cavity 1st derivative terms included.
 2nd derivatives      : Analytical E(r).r(xy)/FMM algorithm (CHGder, D2EAlg=3).
                        Cavity 2nd derivative terms included.
 Solvent              : Water, Eps=  78.355300 Eps(inf)=   1.777849
 ------------------------------------------------------------------------------
 One-electron integrals computed using PRISM.
 NBasis=   420 RedAO= T EigKep=  4.19D-04  NBF=   420
 NBsUse=   420 1.00D-06 EigRej= -1.00D+00 NBFU=   420
 ExpMin= 1.61D-01 ExpMax= 4.17D+03 ExpMxC= 6.27D+02 IAcc=3 IRadAn=         5 AccDes= 0.00D+00
 Harris functional with IExCor=  402 and IRadAn=       5 diagonalized for initial guess.
 HarFok:  IExCor=  402 AccDes= 0.00D+00 IRadAn=         5 IDoV= 1 UseB2=F ITyADJ=14
 ICtDFT=  3500011 ScaDFX=  1.000000  1.000000  1.000000  1.000000
 FoFCou: FMM=F IPFlag=           0 FMFlag=      100000 FMFlg1=           0
         NFxFlg=           0 DoJE=T BraDBF=F KetDBF=T FulRan=T
         wScrn=  0.000000 ICntrl=       500 IOpCl=  0 I1Cent=   200000004 NGrid=           0
         NMat0=    1 NMatS0=      1 NMatT0=    0 NMatD0=    1 NMtDS0=    0 NMtDT0=    0
 Petite list used in FoFCou.
 Requested convergence on RMS density matrix=1.00D-08 within  32 cycles.
 Requested convergence on MAX density matrix=1.00D-06.
 Requested convergence on             energy=1.00D-06.
 No special actions if energy rises.
 Inv3:  Mode=1 IEnd=    28459200.
 Iteration    1 A*A^-1 deviation from unit magnitude is 3.44D-15 for   2676.
 Iteration    1 A*A^-1 deviation from orthogonality  is 1.78D-15 for   2800    381.
 Iteration    1 A^-1*A deviation from unit magnitude is 3.22D-15 for    841.
 Iteration    1 A^-1*A deviation from orthogonality  is 2.13D-15 for   2842   2101.
 Error on total polarization charges =  0.01412
 SCF Done:  E(RB3LYP) =  -809.925935274     A.U. after   12 cycles
            NFock= 12  Conv=0.28D-08     -V/T= 2.0097
 QCSCF skips out because SCF is already converged.
 DoSCS=F DFT=T ScalE2(SS,OS)=  1.000000  1.000000
 Range of M.O.s used for correlation:     1   420
 NBasis=   420 NAE=    73 NBE=    73 NFC=     0 NFV=     0
 NROrb=    420 NOA=    73 NOB=    73 NVA=   347 NVB=   347
 Symmetrizing basis deriv contribution to polar:
 IMax=3 JMax=2 DiffMx= 0.00D+00
 G2DrvN: will do    45 centers at a time, making    1 passes.
 Calling FoFCou, ICntrl=  3107 FMM=F I1Cent=   0 AccDes= 0.00D+00.
 NEqPCM:  Using equilibrium solvation (IEInf=0, Eps=  78.3553, EpsInf=   1.7778)
 G2PCM: DoFxE=T DoFxN=T DoGrad=T DoDP/DQ/DG/TGxP=FFFF NFrqRd=   0 IEInf=0 SqF1=F DoCFld=F IF1Alg=4.
 End of G2Drv F.D. properties file   721 does not exist.
 End of G2Drv F.D. properties file   722 does not exist.
 End of G2Drv F.D. properties file   788 does not exist.
          IDoAtm=11111111111111111111111111111111111111111111
 NEqPCM:  Using equilibrium solvation (IEInf=0, Eps=  78.3553, EpsInf=   1.7778)
          Differentiating once with respect to nuclear coordinates.
 CalDSu exits because no D1Ps are significant.
          There are   135 degrees of freedom in the 1st order CPHF.  IDoFFX=6 NUNeed=     0.
    129 vectors produced by pass  0 Test12= 2.53D-14 1.00D-09 XBig12= 1.19D-01 1.15D-01.
 AX will form   129 AO Fock derivatives at one time.
    129 vectors produced by pass  1 Test12= 2.53D-14 1.00D-09 XBig12= 2.11D-02 4.50D-02.
    129 vectors produced by pass  2 Test12= 2.53D-14 1.00D-09 XBig12= 1.46D-04 1.61D-03.
    129 vectors produced by pass  3 Test12= 2.53D-14 1.00D-09 XBig12= 3.36D-07 9.38D-05.
    129 vectors produced by pass  4 Test12= 2.53D-14 1.00D-09 XBig12= 3.68D-10 1.73D-06.
     69 vectors produced by pass  5 Test12= 2.53D-14 1.00D-09 XBig12= 3.12D-13 4.71D-08.
      7 vectors produced by pass  6 Test12= 2.53D-14 1.00D-09 XBig12= 3.49D-16 1.93D-09.
 InvSVY:  IOpt=1 It=  1 EMax= 5.00D-16
 Solved reduced A of dimension   721 with   135 vectors.
 End of Minotr F.D. properties file   721 does not exist.
 End of Minotr F.D. properties file   722 does not exist.
 End of Minotr F.D. properties file   788 does not exist.

 **********************************************************************

            Population analysis using the SCF density.

 **********************************************************************

 Orbital symmetries:
       Occupied  (A) (A) (A) (A) (A) (A) (A) (A) (A) (A) (A) (A)
                 (A) (A) (A) (A) (A) (A) (A) (A) (A) (A) (A) (A)
                 (A) (A) (A) (A) (A) (A) (A) (A) (A) (A) (A) (A)
                 (A) (A) (A) (A) (A) (A) (A) (A) (A) (A) (A) (A)
                 (A) (A) (A) (A) (A) (A) (A) (A) (A) (A) (A) (A)
                 (A) (A) (A) (A) (A) (A) (A) (A) (A) (A) (A) (A)
                 (A)
       Virtual   (A) (A) (A) (A) (A) (A) (A) (A) (A) (A) (A) (A)
                 (A) (A) (A) (A) (A) (A) (A) (A) (A) (A) (A) (A)
                 (A) (A) (A) (A) (A) (A) (A) (A) (A) (A) (A) (A)
                 (A) (A) (A) (A) (A) (A) (A) (A) (A) (A) (A) (A)
                 (A) (A) (A) (A) (A) (A) (A) (A) (A) (A) (A) (A)
                 (A) (A) (A) (A) (A) (A) (A) (A) (A) (A) (A) (A)
                 (A) (A) (A) (A) (A) (A) (A) (A) (A) (A) (A) (A)
                 (A) (A) (A) (A) (A) (A) (A) (A) (A) (A) (A) (A)
                 (A) (A) (A) (A) (A) (A) (A) (A) (A) (A) (A) (A)
                 (A) (A) (A) (A) (A) (A) (A) (A) (A) (A) (A) (A)
                 (A) (A) (A) (A) (A) (A) (A) (A) (A) (A) (A) (A)
                 (A) (A) (A) (A) (A) (A) (A) (A) (A) (A) (A) (A)
                 (A) (A) (A) (A) (A) (A) (A) (A) (A) (A) (A) (A)
                 (A) (A) (A) (A) (A) (A) (A) (A) (A) (A) (A) (A)
                 (A) (A) (A) (A) (A) (A) (A) (A) (A) (A) (A) (A)
                 (A) (A) (A) (A) (A) (A) (A) (A) (A) (A) (A) (A)
                 (A) (A) (A) (A) (A) (A) (A) (A) (A) (A) (A) (A)
                 (A) (A) (A) (A) (A) (A) (A) (A) (A) (A) (A) (A)
                 (A) (A) (A) (A) (A) (A) (A) (A) (A) (A) (A) (A)
                 (A) (A) (A) (A) (A) (A) (A) (A) (A) (A) (A) (A)
                 (A) (A) (A) (A) (A) (A) (A) (A) (A) (A) (A) (A)
                 (A) (A) (A) (A) (A) (A) (A) (A) (A) (A) (A) (A)
                 (A) (A) (A) (A) (A) (A) (A) (A) (A) (A) (A) (A)
                 (A) (A) (A) (A) (A) (A) (A) (A) (A) (A) (A) (A)
                 (A) (A) (A) (A) (A) (A) (A) (A) (A) (A) (A) (A)
                 (A) (A) (A) (A) (A) (A) (A) (A) (A) (A) (A) (A)
                 (A) (A) (A) (A) (A) (A) (A) (A) (A) (A) (A) (A)
                 (A) (A) (A) (A) (A) (A) (A) (A) (A) (A) (A) (A)
                 (A) (A) (A) (A) (A) (A) (A) (A) (A) (A) (A)
 The electronic state is 1-A.
 Alpha  occ. eigenvalues --  -14.33659 -14.33629 -10.21974 -10.21937 -10.21257
 Alpha  occ. eigenvalues --  -10.21231 -10.18553 -10.18498 -10.18215 -10.18206
 Alpha  occ. eigenvalues --  -10.18180 -10.18172 -10.18137 -10.18128 -10.17905
 Alpha  occ. eigenvalues --  -10.17886 -10.17880 -10.17875 -10.17472 -10.17467
 Alpha  occ. eigenvalues --   -0.92816  -0.92644  -0.84235  -0.84028  -0.79536
 Alpha  occ. eigenvalues --   -0.76343  -0.74805  -0.73765  -0.73690  -0.71108
 Alpha  occ. eigenvalues --   -0.67164  -0.65908  -0.63595  -0.61079  -0.59430
 Alpha  occ. eigenvalues --   -0.58234  -0.57117  -0.56809  -0.52046  -0.51406
 Alpha  occ. eigenvalues --   -0.48920  -0.48415  -0.46716  -0.45361  -0.45225
 Alpha  occ. eigenvalues --   -0.44803  -0.43215  -0.42921  -0.42496  -0.41625
 Alpha  occ. eigenvalues --   -0.41568  -0.41418  -0.41025  -0.40917  -0.39864
 Alpha  occ. eigenvalues --   -0.38473  -0.37313  -0.37150  -0.36038  -0.35925
 Alpha  occ. eigenvalues --   -0.34600  -0.34351  -0.33886  -0.33691  -0.33143
 Alpha  occ. eigenvalues --   -0.32890  -0.32543  -0.28303  -0.28257  -0.24473
 Alpha  occ. eigenvalues --   -0.24469  -0.19337  -0.19316
 Alpha virt. eigenvalues --    0.00043   0.00060   0.02057   0.02080   0.08632
 Alpha virt. eigenvalues --    0.09793   0.10132   0.10349   0.10543   0.11455
 Alpha virt. eigenvalues --    0.12746   0.13220   0.14062   0.14297   0.14772
 Alpha virt. eigenvalues --    0.15008   0.15545   0.16169   0.16883   0.17559
 Alpha virt. eigenvalues --    0.17849   0.17931   0.18626   0.19021   0.19761
 Alpha virt. eigenvalues --    0.19927   0.20827   0.21140   0.21274   0.21799
 Alpha virt. eigenvalues --    0.22766   0.24015   0.24453   0.24666   0.25405
 Alpha virt. eigenvalues --    0.26704   0.28149   0.29256   0.30059   0.33744
 Alpha virt. eigenvalues --    0.33929   0.34286   0.34654   0.34872   0.36480
 Alpha virt. eigenvalues --    0.37522   0.37849   0.47000   0.48021   0.49866
 Alpha virt. eigenvalues --    0.50645   0.51721   0.51958   0.52180   0.52573
 Alpha virt. eigenvalues --    0.53404   0.54396   0.54959   0.55342   0.55993
 Alpha virt. eigenvalues --    0.56087   0.56579   0.57458   0.58283   0.58505
 Alpha virt. eigenvalues --    0.58918   0.59545   0.60043   0.60180   0.60294
 Alpha virt. eigenvalues --    0.60359   0.62703   0.62826   0.63076   0.63551
 Alpha virt. eigenvalues --    0.64195   0.65115   0.65660   0.66053   0.67285
 Alpha virt. eigenvalues --    0.67669   0.69048   0.70156   0.70667   0.71121
 Alpha virt. eigenvalues --    0.71759   0.72365   0.75026   0.75297   0.75896
 Alpha virt. eigenvalues --    0.76969   0.77432   0.79199   0.79863   0.81204
 Alpha virt. eigenvalues --    0.81991   0.82380   0.82635   0.83130   0.84536
 Alpha virt. eigenvalues --    0.84888   0.84917   0.85290   0.85775   0.86526
 Alpha virt. eigenvalues --    0.86615   0.87120   0.88186   0.88967   0.89388
 Alpha virt. eigenvalues --    0.89581   0.89621   0.90249   0.91010   0.92225
 Alpha virt. eigenvalues --    0.93980   0.94143   0.94463   0.94904   0.95539
 Alpha virt. eigenvalues --    0.96782   0.97450   0.98521   0.99549   1.00840
 Alpha virt. eigenvalues --    1.01451   1.02883   1.04300   1.05264   1.08142
 Alpha virt. eigenvalues --    1.10892   1.11577   1.13497   1.15894   1.16493
 Alpha virt. eigenvalues --    1.17571   1.18124   1.18525   1.19060   1.21436
 Alpha virt. eigenvalues --    1.23958   1.24833   1.27302   1.27600   1.28555
 Alpha virt. eigenvalues --    1.29838   1.31557   1.32822   1.34076   1.35866
 Alpha virt. eigenvalues --    1.39551   1.39912   1.41475   1.41619   1.42040
 Alpha virt. eigenvalues --    1.42272   1.43155   1.44712   1.46570   1.47103
 Alpha virt. eigenvalues --    1.47428   1.48067   1.52848   1.55422   1.59320
 Alpha virt. eigenvalues --    1.64506   1.67001   1.67863   1.69770   1.73254
 Alpha virt. eigenvalues --    1.74100   1.74572   1.74875   1.76742   1.77175
 Alpha virt. eigenvalues --    1.77892   1.78564   1.78827   1.79045   1.82203
 Alpha virt. eigenvalues --    1.82609   1.83317   1.84572   1.85010   1.85469
 Alpha virt. eigenvalues --    1.85831   1.87396   1.87927   1.90663   1.90935
 Alpha virt. eigenvalues --    1.92065   1.92177   1.93224   1.93846   1.96002
 Alpha virt. eigenvalues --    1.96503   1.96870   1.98007   1.98821   2.00037
 Alpha virt. eigenvalues --    2.00498   2.02188   2.02369   2.02969   2.03666
 Alpha virt. eigenvalues --    2.05155   2.05226   2.06592   2.07063   2.07598
 Alpha virt. eigenvalues --    2.09206   2.09736   2.10059   2.10292   2.11123
 Alpha virt. eigenvalues --    2.13118   2.14128   2.15007   2.16254   2.16513
 Alpha virt. eigenvalues --    2.19408   2.21431   2.21557   2.22988   2.24019
 Alpha virt. eigenvalues --    2.24751   2.26161   2.29328   2.30394   2.30567
 Alpha virt. eigenvalues --    2.31614   2.32340   2.33080   2.33734   2.34298
 Alpha virt. eigenvalues --    2.36933   2.38094   2.38835   2.40056   2.40834
 Alpha virt. eigenvalues --    2.41915   2.42009   2.42297   2.43194   2.43460
 Alpha virt. eigenvalues --    2.43949   2.46812   2.47907   2.48686   2.50035
 Alpha virt. eigenvalues --    2.50169   2.51206   2.51661   2.54678   2.55454
 Alpha virt. eigenvalues --    2.56451   2.57672   2.57987   2.59358   2.59796
 Alpha virt. eigenvalues --    2.60027   2.60995   2.61800   2.62567   2.64259
 Alpha virt. eigenvalues --    2.66097   2.67415   2.69633   2.70085   2.70535
 Alpha virt. eigenvalues --    2.70609   2.72004   2.72919   2.74668   2.75011
 Alpha virt. eigenvalues --    2.75404   2.78063   2.78745   2.80265   2.81591
 Alpha virt. eigenvalues --    2.82314   2.82887   2.85797   2.86147   2.86672
 Alpha virt. eigenvalues --    2.87873   2.88922   2.89449   2.89990   2.91087
 Alpha virt. eigenvalues --    2.92293   2.92536   2.93447   2.99767   3.00546
 Alpha virt. eigenvalues --    3.06617   3.06829   3.08970   3.09823   3.19364
 Alpha virt. eigenvalues --    3.19418   3.20050   3.20273   3.24551   3.25810
 Alpha virt. eigenvalues --    3.25827   3.28178   3.29512   3.31201   3.33415
 Alpha virt. eigenvalues --    3.35863   3.36756   3.37395   3.38891   3.41212
 Alpha virt. eigenvalues --    3.43762   3.43956   3.46646   3.47422   3.48670
 Alpha virt. eigenvalues --    3.50866   3.51463   3.54208   3.55633   3.58022
 Alpha virt. eigenvalues --    3.83480   3.83489   4.13954   4.14038   4.14436
 Alpha virt. eigenvalues --    4.15771   4.16347   4.16361   4.20839   4.22148
 Alpha virt. eigenvalues --    4.31705   4.38645   4.38852   4.44182   4.44246
 Alpha virt. eigenvalues --    4.48877   4.53749   4.55647   4.60779   4.73997
 Alpha virt. eigenvalues --    4.84705   4.84986
          Condensed to atoms (all electrons):
               1          2          3          4          5          6
     1  C    5.034817   0.356393  -0.061551   0.007744   0.000410   0.000001
     2  C    0.356393   4.707493   0.553206  -0.035305  -0.029357   0.000422
     3  C   -0.061551   0.553206   4.896378   0.504710  -0.021815   0.004826
     4  C    0.007744  -0.035305   0.504710   5.004953   0.519535  -0.066031
     5  C    0.000410  -0.029357  -0.021815   0.519535   4.584638   0.281258
     6  N    0.000001   0.000422   0.004826  -0.066031   0.281258   6.988683
     7  C   -0.000000   0.000005  -0.000149   0.004431  -0.033978   0.279099
     8  C   -0.000000   0.000000   0.000003  -0.000219   0.003731  -0.041400
     9  C   -0.000000  -0.000000  -0.000000   0.000003  -0.000118   0.003067
    10  C    0.000000   0.000000   0.000000  -0.000000   0.000002  -0.000081
    11  N   -0.000000  -0.000000   0.000000  -0.000000  -0.000000  -0.000000
    12  C    0.000000   0.000000   0.000000  -0.000000   0.000000  -0.000000
    13  C    0.000000  -0.000000   0.000000   0.000000  -0.000000   0.000000
    14  C    0.000000   0.000000   0.000000  -0.000000  -0.000000   0.000000
    15  C    0.000000   0.000000   0.000000  -0.000000   0.000000   0.000000
    16  C    0.000000   0.000000   0.000000   0.000000   0.000000   0.000000
    17  C    0.000000   0.000000   0.000000  -0.000000   0.000000   0.000000
    18  C    0.000000   0.000000   0.000000   0.000000  -0.000000   0.000000
    19  C    0.007263  -0.032600  -0.049903  -0.048211   0.531569  -0.069947
    20  C   -0.066743   0.551483  -0.025556  -0.050395  -0.023237   0.004959
    21  H    0.374019  -0.030461  -0.001077  -0.000226   0.000067   0.000000
    22  H    0.374194  -0.028994  -0.004202   0.000185   0.000000  -0.000000
    23  H    0.374359  -0.029503   0.002602  -0.000227   0.000006  -0.000000
    24  H   -0.009906  -0.043191   0.367687  -0.040080   0.003849  -0.000108
    25  H   -0.000200   0.004180  -0.033629   0.361724  -0.046481  -0.008191
    26  H   -0.000000  -0.000007  -0.000016  -0.011623  -0.027993   0.344394
    27  H    0.000000  -0.000010  -0.000002   0.000771   0.002573  -0.057776
    28  H    0.000000  -0.000005   0.000003  -0.000231  -0.007953  -0.039018
    29  H    0.000000  -0.000000  -0.000000  -0.000035  -0.000082  -0.004069
    30  H    0.000000   0.000000  -0.000000   0.000003   0.000429   0.004233
    31  H    0.000000   0.000000  -0.000000   0.000000   0.000004   0.000036
    32  H    0.000000  -0.000000  -0.000000  -0.000000  -0.000001   0.000036
    33  H    0.000000  -0.000000  -0.000000   0.000000  -0.000000   0.000001
    34  H    0.000000   0.000000   0.000000   0.000000   0.000000  -0.000001
    35  H    0.000000  -0.000000  -0.000000   0.000000  -0.000000  -0.000001
    36  H    0.000000  -0.000000  -0.000000   0.000000  -0.000000   0.000000
    37  H    0.000000   0.000000   0.000000  -0.000000  -0.000000  -0.000000
    38  H    0.000000   0.000000   0.000000   0.000000   0.000000  -0.000000
    39  H    0.000000   0.000000   0.000000   0.000000  -0.000000   0.000000
    40  H    0.000000   0.000000   0.000000   0.000000   0.000000  -0.000000
    41  H    0.000000   0.000000  -0.000000   0.000000  -0.000000  -0.000000
    42  H    0.000000   0.000000   0.000000  -0.000000  -0.000000   0.000000
    43  H   -0.000197   0.003974   0.000772   0.005194  -0.043183  -0.009036
    44  H   -0.008870  -0.046118   0.005586   0.000614   0.003873  -0.000108
               7          8          9         10         11         12
     1  C   -0.000000  -0.000000  -0.000000   0.000000  -0.000000   0.000000
     2  C    0.000005   0.000000  -0.000000   0.000000  -0.000000   0.000000
     3  C   -0.000149   0.000003  -0.000000   0.000000   0.000000   0.000000
     4  C    0.004431  -0.000219   0.000003  -0.000000  -0.000000  -0.000000
     5  C   -0.033978   0.003731  -0.000118   0.000002  -0.000000   0.000000
     6  N    0.279099  -0.041400   0.003067  -0.000081  -0.000000  -0.000000
     7  C    4.794965   0.366941  -0.036871   0.003565   0.000123   0.000001
     8  C    0.366941   4.960492   0.362351  -0.036115  -0.004153  -0.000021
     9  C   -0.036871   0.362351   4.954421   0.361502  -0.044628   0.003803
    10  C    0.003565  -0.036115   0.361502   4.796535   0.293357  -0.035670
    11  N    0.000123  -0.004153  -0.044628   0.293357   6.974465   0.285632
    12  C    0.000001  -0.000021   0.003803  -0.035670   0.285632   4.578089
    13  C   -0.000000   0.000003   0.000432  -0.006666  -0.070631   0.532553
    14  C   -0.000000   0.000000  -0.000005   0.000013   0.004965  -0.023463
    15  C    0.000000   0.000000  -0.000000   0.000004   0.000445  -0.029591
    16  C   -0.000000   0.000000  -0.000000  -0.000000   0.000001   0.000415
    17  C    0.000000  -0.000000   0.000003  -0.000155   0.004837  -0.021883
    18  C   -0.000000  -0.000041  -0.000206   0.004704  -0.066422   0.520615
    19  C   -0.006585   0.000390   0.000004   0.000000   0.000000  -0.000000
    20  C    0.000019  -0.000005  -0.000000  -0.000000   0.000000  -0.000000
    21  H   -0.000000  -0.000000  -0.000000  -0.000000  -0.000000   0.000000
    22  H   -0.000000   0.000000   0.000000  -0.000000  -0.000000   0.000000
    23  H    0.000000   0.000000   0.000000   0.000000  -0.000000   0.000000
    24  H    0.000002  -0.000000   0.000000  -0.000000  -0.000000  -0.000000
    25  H    0.000070  -0.000021   0.000000   0.000000  -0.000000   0.000000
    26  H   -0.040611  -0.004501  -0.000073  -0.000002   0.000000  -0.000000
    27  H    0.380877  -0.041705  -0.001048  -0.000003  -0.000004   0.000000
    28  H    0.384793  -0.030667  -0.004385   0.000004  -0.000002  -0.000000
    29  H   -0.036259   0.383707  -0.036668  -0.004243  -0.000391  -0.000018
    30  H   -0.036454   0.376965  -0.037366  -0.003567   0.000466  -0.000059
    31  H   -0.004947  -0.039058   0.379200  -0.031072   0.003777  -0.000118
    32  H   -0.004730  -0.041298   0.377491  -0.036094   0.001222   0.000403
    33  H   -0.000122   0.004940  -0.028545   0.384215  -0.040994  -0.008878
    34  H   -0.000033  -0.012016  -0.036007   0.375540  -0.059351   0.002371
    35  H   -0.000251   0.004807  -0.005723  -0.042817   0.343063  -0.027398
    36  H    0.000000  -0.000002  -0.000092   0.004734  -0.009223  -0.042586
    37  H    0.000000  -0.000000  -0.000000   0.000002  -0.000109   0.003854
    38  H    0.000000   0.000000  -0.000000  -0.000000   0.000000   0.000030
    39  H   -0.000000  -0.000000   0.000000  -0.000000  -0.000000   0.000017
    40  H    0.000000   0.000000   0.000000   0.000000  -0.000000   0.000019
    41  H   -0.000000  -0.000000  -0.000000   0.000002  -0.000108   0.003834
    42  H   -0.000000  -0.000008  -0.000014   0.000085  -0.008360  -0.045732
    43  H    0.004690  -0.000081   0.000008  -0.000000  -0.000000  -0.000000
    44  H    0.000002  -0.000000   0.000000  -0.000000  -0.000000  -0.000000
              13         14         15         16         17         18
     1  C    0.000000   0.000000   0.000000   0.000000   0.000000   0.000000
     2  C   -0.000000   0.000000   0.000000   0.000000   0.000000   0.000000
     3  C    0.000000   0.000000   0.000000   0.000000   0.000000   0.000000
     4  C    0.000000  -0.000000  -0.000000   0.000000  -0.000000   0.000000
     5  C   -0.000000  -0.000000   0.000000   0.000000   0.000000  -0.000000
     6  N    0.000000   0.000000   0.000000   0.000000   0.000000   0.000000
     7  C   -0.000000  -0.000000   0.000000  -0.000000   0.000000  -0.000000
     8  C    0.000003   0.000000   0.000000   0.000000  -0.000000  -0.000041
     9  C    0.000432  -0.000005  -0.000000  -0.000000   0.000003  -0.000206
    10  C   -0.006666   0.000013   0.000004  -0.000000  -0.000155   0.004704
    11  N   -0.070631   0.004965   0.000445   0.000001   0.004837  -0.066422
    12  C    0.532553  -0.023463  -0.029591   0.000415  -0.021883   0.520615
    13  C    4.973546   0.496905  -0.032834   0.007320  -0.049788  -0.049213
    14  C    0.496905   4.918534   0.552318  -0.065825  -0.025425  -0.050286
    15  C   -0.032834   0.552318   4.706617   0.356859   0.551668  -0.034673
    16  C    0.007320  -0.065825   0.356859   5.034222  -0.062070   0.007703
    17  C   -0.049788  -0.025425   0.551668  -0.062070   4.898708   0.504002
    18  C   -0.049213  -0.050286  -0.034673   0.007703   0.504002   5.006219
    19  C    0.000000   0.000000  -0.000000   0.000000  -0.000000  -0.000000
    20  C    0.000000  -0.000000   0.000000   0.000000  -0.000000  -0.000000
    21  H    0.000000   0.000000   0.000000   0.000000   0.000000   0.000000
    22  H    0.000000   0.000000   0.000000   0.000000   0.000000   0.000000
    23  H    0.000000   0.000000   0.000000   0.000000   0.000000   0.000000
    24  H    0.000000   0.000000   0.000000   0.000000   0.000000  -0.000000
    25  H    0.000000   0.000000   0.000000   0.000000  -0.000000  -0.000000
    26  H    0.000000   0.000000   0.000000   0.000000  -0.000000  -0.000000
    27  H   -0.000000  -0.000000   0.000000   0.000000  -0.000000   0.000000
    28  H    0.000000   0.000000  -0.000000   0.000000  -0.000000  -0.000000
    29  H    0.000001  -0.000000   0.000000   0.000000   0.000000   0.000000
    30  H   -0.000002  -0.000000   0.000000  -0.000000  -0.000001  -0.000013
    31  H   -0.000002  -0.000000  -0.000000  -0.000000  -0.000000   0.000004
    32  H   -0.000033  -0.000000   0.000000   0.000000  -0.000000  -0.000005
    33  H    0.004425   0.000264  -0.000003   0.000000   0.000003  -0.000247
    34  H    0.002785  -0.000203  -0.000015  -0.000000   0.000000   0.000739
    35  H    0.006584  -0.000094  -0.000004  -0.000000  -0.000055  -0.011150
    36  H    0.362647  -0.035366   0.003955  -0.000197   0.000765   0.005192
    37  H   -0.039100   0.368558  -0.045370  -0.009133   0.005641   0.000604
    38  H    0.000040  -0.004069  -0.029122   0.373900   0.002915  -0.000255
    39  H   -0.000035  -0.002521  -0.030990   0.374671  -0.001685  -0.000145
    40  H   -0.000244   0.003412  -0.029056   0.373903  -0.003981   0.000138
    41  H    0.000492   0.005828  -0.043196  -0.009880   0.367640  -0.039989
    42  H    0.005284   0.000747   0.004095  -0.000198  -0.033632   0.361435
    43  H    0.000000   0.000000  -0.000000   0.000000  -0.000000  -0.000000
    44  H    0.000000   0.000000   0.000000   0.000000   0.000000   0.000000
              19         20         21         22         23         24
     1  C    0.007263  -0.066743   0.374019   0.374194   0.374359  -0.009906
     2  C   -0.032600   0.551483  -0.030461  -0.028994  -0.029503  -0.043191
     3  C   -0.049903  -0.025556  -0.001077  -0.004202   0.002602   0.367687
     4  C   -0.048211  -0.050395  -0.000226   0.000185  -0.000227  -0.040080
     5  C    0.531569  -0.023237   0.000067   0.000000   0.000006   0.003849
     6  N   -0.069947   0.004959   0.000000  -0.000000  -0.000000  -0.000108
     7  C   -0.006585   0.000019  -0.000000  -0.000000   0.000000   0.000002
     8  C    0.000390  -0.000005  -0.000000   0.000000   0.000000  -0.000000
     9  C    0.000004  -0.000000  -0.000000   0.000000   0.000000   0.000000
    10  C    0.000000  -0.000000  -0.000000  -0.000000   0.000000  -0.000000
    11  N    0.000000   0.000000  -0.000000  -0.000000  -0.000000  -0.000000
    12  C   -0.000000  -0.000000   0.000000   0.000000   0.000000  -0.000000
    13  C    0.000000   0.000000   0.000000   0.000000   0.000000   0.000000
    14  C    0.000000  -0.000000   0.000000   0.000000   0.000000   0.000000
    15  C   -0.000000   0.000000   0.000000   0.000000   0.000000   0.000000
    16  C    0.000000   0.000000   0.000000   0.000000   0.000000   0.000000
    17  C   -0.000000  -0.000000   0.000000   0.000000   0.000000   0.000000
    18  C   -0.000000  -0.000000   0.000000   0.000000   0.000000  -0.000000
    19  C    4.972366   0.497385  -0.000213  -0.000211   0.000199   0.000494
    20  C    0.497385   4.918680  -0.002719   0.003492  -0.003873   0.005828
    21  H   -0.000213  -0.002719   0.594983  -0.029651  -0.030459   0.000467
    22  H   -0.000211   0.003492  -0.029651   0.597091  -0.029166   0.005254
    23  H    0.000199  -0.003873  -0.030459  -0.029166   0.596926   0.000064
    24  H    0.000494   0.005828   0.000467   0.005254   0.000064   0.627100
    25  H    0.005303   0.000752   0.000002  -0.000005   0.000003  -0.006244
    26  H    0.006484  -0.000087   0.000000  -0.000000  -0.000000  -0.000011
    27  H    0.002824  -0.000219  -0.000000   0.000000   0.000000  -0.000000
    28  H    0.004039   0.000272   0.000000  -0.000000  -0.000000   0.000000
    29  H    0.000019   0.000000   0.000000  -0.000000  -0.000000  -0.000000
    30  H   -0.000036  -0.000000  -0.000000   0.000000   0.000000  -0.000000
    31  H   -0.000002  -0.000000   0.000000  -0.000000  -0.000000   0.000000
    32  H   -0.000001   0.000000  -0.000000  -0.000000   0.000000  -0.000000
    33  H    0.000000   0.000000  -0.000000   0.000000   0.000000   0.000000
    34  H   -0.000000  -0.000000  -0.000000   0.000000   0.000000  -0.000000
    35  H    0.000000   0.000000   0.000000  -0.000000  -0.000000   0.000000
    36  H    0.000000   0.000000   0.000000   0.000000   0.000000   0.000000
    37  H    0.000000   0.000000   0.000000   0.000000   0.000000   0.000000
    38  H    0.000000   0.000000   0.000000   0.000000   0.000000   0.000000
    39  H    0.000000   0.000000   0.000000   0.000000   0.000000   0.000000
    40  H    0.000000   0.000000   0.000000   0.000000   0.000000   0.000000
    41  H    0.000000   0.000000   0.000000   0.000000   0.000000   0.000000
    42  H   -0.000000  -0.000000  -0.000000   0.000000   0.000000   0.000000
    43  H    0.362757  -0.035252   0.000001   0.000003  -0.000003   0.000017
    44  H   -0.039016   0.369027   0.000946   0.000042   0.003906  -0.000184
              25         26         27         28         29         30
     1  C   -0.000200  -0.000000   0.000000   0.000000   0.000000   0.000000
     2  C    0.004180  -0.000007  -0.000010  -0.000005  -0.000000   0.000000
     3  C   -0.033629  -0.000016  -0.000002   0.000003  -0.000000  -0.000000
     4  C    0.361724  -0.011623   0.000771  -0.000231  -0.000035   0.000003
     5  C   -0.046481  -0.027993   0.002573  -0.007953  -0.000082   0.000429
     6  N   -0.008191   0.344394  -0.057776  -0.039018  -0.004069   0.004233
     7  C    0.000070  -0.040611   0.380877   0.384793  -0.036259  -0.036454
     8  C   -0.000021  -0.004501  -0.041705  -0.030667   0.383707   0.376965
     9  C    0.000000  -0.000073  -0.001048  -0.004385  -0.036668  -0.037366
    10  C    0.000000  -0.000002  -0.000003   0.000004  -0.004243  -0.003567
    11  N   -0.000000   0.000000  -0.000004  -0.000002  -0.000391   0.000466
    12  C    0.000000  -0.000000   0.000000  -0.000000  -0.000018  -0.000059
    13  C    0.000000   0.000000  -0.000000   0.000000   0.000001  -0.000002
    14  C    0.000000   0.000000  -0.000000   0.000000  -0.000000  -0.000000
    15  C    0.000000   0.000000   0.000000  -0.000000   0.000000   0.000000
    16  C    0.000000   0.000000   0.000000   0.000000   0.000000  -0.000000
    17  C   -0.000000  -0.000000  -0.000000  -0.000000   0.000000  -0.000001
    18  C   -0.000000  -0.000000   0.000000  -0.000000   0.000000  -0.000013
    19  C    0.005303   0.006484   0.002824   0.004039   0.000019  -0.000036
    20  C    0.000752  -0.000087  -0.000219   0.000272   0.000000  -0.000000
    21  H    0.000002   0.000000  -0.000000   0.000000   0.000000  -0.000000
    22  H   -0.000005  -0.000000   0.000000  -0.000000  -0.000000   0.000000
    23  H    0.000003  -0.000000   0.000000  -0.000000  -0.000000   0.000000
    24  H   -0.006244  -0.000011  -0.000000   0.000000  -0.000000  -0.000000
    25  H    0.628969   0.005681   0.000030  -0.000007  -0.000004   0.000005
    26  H    0.005681   0.453007  -0.001919   0.005465   0.006122  -0.000574
    27  H    0.000030  -0.001919   0.662751  -0.053285  -0.007483   0.006549
    28  H   -0.000007   0.005465  -0.053285   0.619500   0.005672  -0.008029
    29  H   -0.000004   0.006122  -0.007483   0.005672   0.618765  -0.040520
    30  H    0.000005  -0.000574   0.006549  -0.008029  -0.040520   0.624489
    31  H    0.000000   0.000005   0.005187  -0.000640  -0.005457   0.005787
    32  H   -0.000000   0.000014  -0.000453   0.004591   0.005717  -0.005405
    33  H    0.000000   0.000000  -0.000003   0.000006   0.000030  -0.000013
    34  H   -0.000000  -0.000003   0.000022   0.000002   0.006037  -0.000118
    35  H   -0.000000   0.000002   0.000001   0.000025  -0.000009   0.005339
    36  H    0.000000  -0.000000   0.000000  -0.000000  -0.000000  -0.000000
    37  H   -0.000000   0.000000  -0.000000   0.000000   0.000000   0.000000
    38  H    0.000000   0.000000  -0.000000   0.000000  -0.000000   0.000000
[...]
   183    C   13  S      Ryd( 3S)     0.00065
   184    C   13  S      Ryd( 4S)     0.00004
   185    C   13  px     Val( 2p)     1.08061
   186    C   13  px     Ryd( 3p)     0.00418
   187    C   13  py     Val( 2p)     1.17079
   188    C   13  py     Ryd( 3p)     0.00464
   189    C   13  pz     Val( 2p)     1.12975
   190    C   13  pz     Ryd( 3p)     0.00622
   191    C   13  dxy    Ryd( 3d)     0.00064
   192    C   13  dxz    Ryd( 3d)     0.00061
   193    C   13  dyz    Ryd( 3d)     0.00045
   194    C   13  dx2y2  Ryd( 3d)     0.00050
   195    C   13  dz2    Ryd( 3d)     0.00040

   196    C   14  S      Cor( 1S)     1.99907
   197    C   14  S      Val( 2S)     0.94261
   198    C   14  S      Ryd( 3S)     0.00068
   199    C   14  S      Ryd( 4S)     0.00004
   200    C   14  px     Val( 2p)     1.11092
   201    C   14  px     Ryd( 3p)     0.00450
   202    C   14  py     Val( 2p)     1.12011
   203    C   14  py     Ryd( 3p)     0.00536
   204    C   14  pz     Val( 2p)     1.15412
   205    C   14  pz     Ryd( 3p)     0.00591
   206    C   14  dxy    Ryd( 3d)     0.00058
   207    C   14  dxz    Ryd( 3d)     0.00058
   208    C   14  dyz    Ryd( 3d)     0.00047
   209    C   14  dx2y2  Ryd( 3d)     0.00058
   210    C   14  dz2    Ryd( 3d)     0.00034

   211    C   15  S      Cor( 1S)     1.99903
   212    C   15  S      Val( 2S)     0.89407
   213    C   15  S      Ryd( 3S)     0.00045
   214    C   15  S      Ryd( 4S)     0.00005
   215    C   15  px     Val( 2p)     1.04713
   216    C   15  px     Ryd( 3p)     0.00442
   217    C   15  py     Val( 2p)     1.03405
   218    C   15  py     Ryd( 3p)     0.00379
   219    C   15  pz     Val( 2p)     0.96023
   220    C   15  pz     Ryd( 3p)     0.00280
   221    C   15  dxy    Ryd( 3d)     0.00075
   222    C   15  dxz    Ryd( 3d)     0.00061
   223    C   15  dyz    Ryd( 3d)     0.00052
   224    C   15  dx2y2  Ryd( 3d)     0.00079
   225    C   15  dz2    Ryd( 3d)     0.00091

   226    C   16  S      Cor( 1S)     1.99939
   227    C   16  S      Val( 2S)     1.10195
   228    C   16  S      Ryd( 3S)     0.00021
   229    C   16  S      Ryd( 4S)     0.00001
   230    C   16  px     Val( 2p)     1.10916
   231    C   16  px     Ryd( 3p)     0.00096
   232    C   16  py     Val( 2p)     1.24323
   233    C   16  py     Ryd( 3p)     0.00210
   234    C   16  pz     Val( 2p)     1.24840
   235    C   16  pz     Ryd( 3p)     0.00114
   236    C   16  dxy    Ryd( 3d)     0.00042
   237    C   16  dxz    Ryd( 3d)     0.00072
   238    C   16  dyz    Ryd( 3d)     0.00045
   239    C   16  dx2y2  Ryd( 3d)     0.00074
   240    C   16  dz2    Ryd( 3d)     0.00049

   241    C   17  S      Cor( 1S)     1.99907
   242    C   17  S      Val( 2S)     0.94028
   243    C   17  S      Ryd( 3S)     0.00068
   244    C   17  S      Ryd( 4S)     0.00004
   245    C   17  px     Val( 2p)     1.07462
   246    C   17  px     Ryd( 3p)     0.00474
   247    C   17  py     Val( 2p)     1.17680
   248    C   17  py     Ryd( 3p)     0.00514
   249    C   17  pz     Val( 2p)     1.14680
   250    C   17  pz     Ryd( 3p)     0.00590
   251    C   17  dxy    Ryd( 3d)     0.00059
   252    C   17  dxz    Ryd( 3d)     0.00054
   253    C   17  dyz    Ryd( 3d)     0.00047
   254    C   17  dx2y2  Ryd( 3d)     0.00058
   255    C   17  dz2    Ryd( 3d)     0.00036

   256    C   18  S      Cor( 1S)     1.99908
   257    C   18  S      Val( 2S)     0.94295
   258    C   18  S      Ryd( 3S)     0.00072
   259    C   18  S      Ryd( 4S)     0.00004
   260    C   18  px     Val( 2p)     1.12927
   261    C   18  px     Ryd( 3p)     0.00483
   262    C   18  py     Val( 2p)     1.10409
   263    C   18  py     Ryd( 3p)     0.00554
   264    C   18  pz     Val( 2p)     1.16502
   265    C   18  pz     Ryd( 3p)     0.00662
   266    C   18  dxy    Ryd( 3d)     0.00056
   267    C   18  dxz    Ryd( 3d)     0.00066
   268    C   18  dyz    Ryd( 3d)     0.00047
   269    C   18  dx2y2  Ryd( 3d)     0.00058
   270    C   18  dz2    Ryd( 3d)     0.00033

   271    C   19  S      Cor( 1S)     1.99906
   272    C   19  S      Val( 2S)     0.94996
   273    C   19  S      Ryd( 3S)     0.00064
   274    C   19  S      Ryd( 4S)     0.00004
   275    C   19  px     Val( 2p)     1.10619
   276    C   19  px     Ryd( 3p)     0.00346
   277    C   19  py     Val( 2p)     1.13744
   278    C   19  py     Ryd( 3p)     0.00330
   279    C   19  pz     Val( 2p)     1.10095
   280    C   19  pz     Ryd( 3p)     0.00216
   281    C   19  dxy    Ryd( 3d)     0.00064
   282    C   19  dxz    Ryd( 3d)     0.00051
   283    C   19  dyz    Ryd( 3d)     0.00043
   284    C   19  dx2y2  Ryd( 3d)     0.00046
   285    C   19  dz2    Ryd( 3d)     0.00038

   286    C   20  S      Cor( 1S)     1.99905
   287    C   20  S      Val( 2S)     0.95082
   288    C   20  S      Ryd( 3S)     0.00061
   289    C   20  S      Ryd( 4S)     0.00004
   290    C   20  px     Val( 2p)     1.08888
   291    C   20  px     Ryd( 3p)     0.00383
   292    C   20  py     Val( 2p)     1.11294
   293    C   20  py     Ryd( 3p)     0.00359
   294    C   20  pz     Val( 2p)     1.06260
   295    C   20  pz     Ryd( 3p)     0.00204
   296    C   20  dxy    Ryd( 3d)     0.00064
   297    C   20  dxz    Ryd( 3d)     0.00063
   298    C   20  dyz    Ryd( 3d)     0.00048
   299    C   20  dx2y2  Ryd( 3d)     0.00058
   300    C   20  dz2    Ryd( 3d)     0.00034

   301    H   21  S      Val( 1S)     0.75442
   302    H   21  S      Ryd( 2S)     0.00098
   303    H   21  px     Ryd( 2p)     0.00012
   304    H   21  py     Ryd( 2p)     0.00026
   305    H   21  pz     Ryd( 2p)     0.00016

   306    H   22  S      Val( 1S)     0.75490
   307    H   22  S      Ryd( 2S)     0.00094
   308    H   22  px     Ryd( 2p)     0.00015
   309    H   22  py     Ryd( 2p)     0.00009
   310    H   22  pz     Ryd( 2p)     0.00029

   311    H   23  S      Val( 1S)     0.75734
   312    H   23  S      Ryd( 2S)     0.00079
   313    H   23  px     Ryd( 2p)     0.00011
   314    H   23  py     Ryd( 2p)     0.00025
   315    H   23  pz     Ryd( 2p)     0.00014

   316    H   24  S      Val( 1S)     0.75756
   317    H   24  S      Ryd( 2S)     0.00096
   318    H   24  px     Ryd( 2p)     0.00016
   319    H   24  py     Ryd( 2p)     0.00027
   320    H   24  pz     Ryd( 2p)     0.00017

   321    H   25  S      Val( 1S)     0.75745
   322    H   25  S      Ryd( 2S)     0.00097
   323    H   25  px     Ryd( 2p)     0.00012
   324    H   25  py     Ryd( 2p)     0.00026
   325    H   25  pz     Ryd( 2p)     0.00021

   326    H   26  S      Val( 1S)     0.58162
   327    H   26  S      Ryd( 2S)     0.00201
   328    H   26  px     Ryd( 2p)     0.00025
   329    H   26  py     Ryd( 2p)     0.00041
   330    H   26  pz     Ryd( 2p)     0.00061

   331    H   27  S      Val( 1S)     0.77828
   332    H   27  S      Ryd( 2S)     0.00263
   333    H   27  px     Ryd( 2p)     0.00014
   334    H   27  py     Ryd( 2p)     0.00026
   335    H   27  pz     Ryd( 2p)     0.00017

   336    H   28  S      Val( 1S)     0.76371
   337    H   28  S      Ryd( 2S)     0.00175
   338    H   28  px     Ryd( 2p)     0.00011
   339    H   28  py     Ryd( 2p)     0.00008
   340    H   28  pz     Ryd( 2p)     0.00038

   341    H   29  S      Val( 1S)     0.75658
   342    H   29  S      Ryd( 2S)     0.00171
   343    H   29  px     Ryd( 2p)     0.00010
   344    H   29  py     Ryd( 2p)     0.00010
   345    H   29  pz     Ryd( 2p)     0.00035

   346    H   30  S      Val( 1S)     0.76293
   347    H   30  S      Ryd( 2S)     0.00204
   348    H   30  px     Ryd( 2p)     0.00011
   349    H   30  py     Ryd( 2p)     0.00029
   350    H   30  pz     Ryd( 2p)     0.00015

   351    H   31  S      Val( 1S)     0.73959
   352    H   31  S      Ryd( 2S)     0.00123
   353    H   31  px     Ryd( 2p)     0.00012
   354    H   31  py     Ryd( 2p)     0.00027
   355    H   31  pz     Ryd( 2p)     0.00014

   356    H   32  S      Val( 1S)     0.75014
   357    H   32  S      Ryd( 2S)     0.00186
   358    H   32  px     Ryd( 2p)     0.00009
   359    H   32  py     Ryd( 2p)     0.00010
   360    H   32  pz     Ryd( 2p)     0.00035

   361    H   33  S      Val( 1S)     0.73477
   362    H   33  S      Ryd( 2S)     0.00179
   363    H   33  px     Ryd( 2p)     0.00015
   364    H   33  py     Ryd( 2p)     0.00033
   365    H   33  pz     Ryd( 2p)     0.00007

   366    H   34  S      Val( 1S)     0.74301
   367    H   34  S      Ryd( 2S)     0.00214
   368    H   34  px     Ryd( 2p)     0.00010
   369    H   34  py     Ryd( 2p)     0.00008
   370    H   34  pz     Ryd( 2p)     0.00037

   371    H   35  S      Val( 1S)     0.56414
   372    H   35  S      Ryd( 2S)     0.00291
   373    H   35  px     Ryd( 2p)     0.00033
   374    H   35  py     Ryd( 2p)     0.00049
   375    H   35  pz     Ryd( 2p)     0.00038

   376    H   36  S      Val( 1S)     0.76666
   377    H   36  S      Ryd( 2S)     0.00105
   378    H   36  px     Ryd( 2p)     0.00010
   379    H   36  py     Ryd( 2p)     0.00034
   380    H   36  pz     Ryd( 2p)     0.00023

   381    H   37  S      Val( 1S)     0.77212
   382    H   37  S      Ryd( 2S)     0.00101
   383    H   37  px     Ryd( 2p)     0.00020
   384    H   37  py     Ryd( 2p)     0.00020
   385    H   37  pz     Ryd( 2p)     0.00026

   386    H   38  S      Val( 1S)     0.75618
   387    H   38  S      Ryd( 2S)     0.00092
   388    H   38  px     Ryd( 2p)     0.00014
   389    H   38  py     Ryd( 2p)     0.00016
   390    H   38  pz     Ryd( 2p)     0.00019

   391    H   39  S      Val( 1S)     0.74798
   392    H   39  S      Ryd( 2S)     0.00165
   393    H   39  px     Ryd( 2p)     0.00010
   394    H   39  py     Ryd( 2p)     0.00032
   395    H   39  pz     Ryd( 2p)     0.00012

   396    H   40  S      Val( 1S)     0.74499
   397    H   40  S      Ryd( 2S)     0.00129
   398    H   40  px     Ryd( 2p)     0.00017
   399    H   40  py     Ryd( 2p)     0.00010
   400    H   40  pz     Ryd( 2p)     0.00028

   401    H   41  S      Val( 1S)     0.77353
   402    H   41  S      Ryd( 2S)     0.00096
   403    H   41  px     Ryd( 2p)     0.00011
   404    H   41  py     Ryd( 2p)     0.00034
   405    H   41  pz     Ryd( 2p)     0.00023

   406    H   42  S      Val( 1S)     0.77204
   407    H   42  S      Ryd( 2S)     0.00118
   408    H   42  px     Ryd( 2p)     0.00019
   409    H   42  py     Ryd( 2p)     0.00021
   410    H   42  pz     Ryd( 2p)     0.00028

   411    H   43  S      Val( 1S)     0.75483
   412    H   43  S      Ryd( 2S)     0.00081
   413    H   43  px     Ryd( 2p)     0.00015
   414    H   43  py     Ryd( 2p)     0.00027
   415    H   43  pz     Ryd( 2p)     0.00019

   416    H   44  S      Val( 1S)     0.75865
   417    H   44  S      Ryd( 2S)     0.00097
   418    H   44  px     Ryd( 2p)     0.00013
   419    H   44  py     Ryd( 2p)     0.00026
   420    H   44  pz     Ryd( 2p)     0.00021

 WARNING:  1 low occupancy (<1.9990e) core orbital  found on  C   12


 Summary of Natural Population Analysis:                  
                                                          
                                       Natural Population 
                Natural  -----------------------------------------------
    Atom  No    Charge         Core      Valence    Rydberg      Total
 -----------------------------------------------------------------------
      C    1   -0.69987      1.99940     4.69360    0.00687     6.69987
      C    2   -0.07641      1.99902     4.06327    0.01412     6.07641
      C    3   -0.22795      1.99905     4.21623    0.01267     6.22795
      C    4   -0.28176      1.99906     4.26998    0.01272     6.28176
      C    5    0.16540      1.99902     3.81787    0.01771     5.83460
      N    6   -0.64946      1.99941     5.63787    0.01218     7.64946
      C    7   -0.26062      1.99934     4.24701    0.01426     6.26062
      C    8   -0.47753      1.99933     4.46680    0.01139     6.47753
      C    9   -0.47922      1.99934     4.46840    0.01148     6.47922
      C   10   -0.28492      1.99931     4.27072    0.01490     6.28492
      N   11   -0.44482      1.99938     5.43453    0.01091     7.44482
      C   12    0.16921      1.99900     3.81262    0.01917     5.83079
      C   13   -0.34405      1.99907     4.32664    0.01834     6.34405
      C   14   -0.34586      1.99907     4.32776    0.01903     6.34586
      C   15    0.05038      1.99903     3.93549    0.01510     5.94962
      C   16   -0.70939      1.99939     4.70275    0.00724     6.70939
      C   17   -0.35662      1.99907     4.33851    0.01904     6.35662
      C   18   -0.36076      1.99908     4.34134    0.02034     6.36076
      C   19   -0.30561      1.99906     4.29454    0.01202     6.30561
      C   20   -0.22708      1.99905     4.21524    0.01279     6.22708
      H   21    0.24407      0.00000     0.75442    0.00151     0.75593
      H   22    0.24363      0.00000     0.75490    0.00147     0.75637
      H   23    0.24136      0.00000     0.75734    0.00129     0.75864
      H   24    0.24088      0.00000     0.75756    0.00156     0.75912
      H   25    0.24099      0.00000     0.75745    0.00156     0.75901
      H   26    0.41511      0.00000     0.58162    0.00327     0.58489
      H   27    0.21853      0.00000     0.77828    0.00320     0.78147
      H   28    0.23398      0.00000     0.76371    0.00232     0.76602
      H   29    0.24116      0.00000     0.75658    0.00226     0.75884
      H   30    0.23448      0.00000     0.76293    0.00259     0.76552
      H   31    0.25864      0.00000     0.73959    0.00177     0.74136
      H   32    0.24745      0.00000     0.75014    0.00241     0.75255
      H   33    0.26288      0.00000     0.73477    0.00235     0.73712
      H   34    0.25431      0.00000     0.74301    0.00269     0.74569
      H   35    0.43174      0.00000     0.56414    0.00412     0.56826
      H   36    0.23163      0.00000     0.76666    0.00172     0.76837
      H   37    0.22621      0.00000     0.77212    0.00167     0.77379
      H   38    0.24241      0.00000     0.75618    0.00141     0.75759
      H   39    0.24983      0.00000     0.74798    0.00219     0.75017
      H   40    0.25317      0.00000     0.74499    0.00184     0.74683
      H   41    0.22484      0.00000     0.77353    0.00163     0.77516
      H   42    0.22611      0.00000     0.77204    0.00185     0.77389
      H   43    0.24375      0.00000     0.75483    0.00142     0.75625
      H   44    0.23978      0.00000     0.75865    0.00157     0.76022
 =======================================================================
   * Total *    0.00000     39.98347   105.68460    0.33193   146.00000

                                 Natural Population      
 --------------------------------------------------------
   Core                      39.98347 ( 99.9587% of  40)
   Valence                  105.68460 ( 99.7025% of 106)
   Natural Minimal Basis    145.66807 ( 99.7726% of 146)
   Natural Rydberg Basis      0.33193 (  0.2274% of 146)
 --------------------------------------------------------

    Atom  No          Natural Electron Configuration
 ----------------------------------------------------------------------------
      C    1      [core]2S( 1.10)2p( 3.60)
      C    2      [core]2S( 0.88)2p( 3.18)3p( 0.01)
      C    3      [core]2S( 0.95)2p( 3.27)3p( 0.01)
      C    4      [core]2S( 0.95)2p( 3.32)3p( 0.01)
      C    5      [core]2S( 0.84)2p( 2.98)3p( 0.01)
      N    6      [core]2S( 1.27)2p( 4.37)3p( 0.01)
      C    7      [core]2S( 1.01)2p( 3.23)3p( 0.01)
      C    8      [core]2S( 1.04)2p( 3.43)3p( 0.01)
      C    9      [core]2S( 1.04)2p( 3.43)3p( 0.01)
      C   10      [core]2S( 1.03)2p( 3.25)3p( 0.01)
      N   11      [core]2S( 1.28)2p( 4.15)3p( 0.01)
      C   12      [core]2S( 0.84)2p( 2.97)3p( 0.01)3d( 0.01)
      C   13      [core]2S( 0.95)2p( 3.38)3p( 0.02)
      C   14      [core]2S( 0.94)2p( 3.39)3p( 0.02)
      C   15      [core]2S( 0.89)2p( 3.04)3p( 0.01)
      C   16      [core]2S( 1.10)2p( 3.60)
      C   17      [core]2S( 0.94)2p( 3.40)3p( 0.02)
      C   18      [core]2S( 0.94)2p( 3.40)3p( 0.02)
      C   19      [core]2S( 0.95)2p( 3.34)3p( 0.01)
      C   20      [core]2S( 0.95)2p( 3.26)3p( 0.01)
      H   21            1S( 0.75)
      H   22            1S( 0.75)
      H   23            1S( 0.76)
      H   24            1S( 0.76)
      H   25            1S( 0.76)
      H   26            1S( 0.58)
      H   27            1S( 0.78)
      H   28            1S( 0.76)
      H   29            1S( 0.76)
      H   30            1S( 0.76)
      H   31            1S( 0.74)
      H   32            1S( 0.75)
      H   33            1S( 0.73)
      H   34            1S( 0.74)
      H   35            1S( 0.56)
      H   36            1S( 0.77)
      H   37            1S( 0.77)
      H   38            1S( 0.76)
      H   39            1S( 0.75)
      H   40            1S( 0.74)
      H   41            1S( 0.77)
      H   42            1S( 0.77)
      H   43            1S( 0.75)
      H   44            1S( 0.76)


 NBO analysis skipped by request.
 1\1\GINC-DRG2-W002\SP\RB3LYP TD-FC\6-31G(d,p)\C18H24N2\QDUEZ\18-Jul-20
 24\0\\# TD(NStates=10, Root=1) B3LYP/6-31G** SCRF=(Solvent=water) volu
 me pop=NPA density=current Geom=AllCheck Guess=Read\\IXVDJDOFHBHDMT-UH
 FFFAOYSA-N_conf_3\\0,1\C,0,8.3293490713,-0.6519374371,-0.2247189005\C,
 0,6.8260649206,-0.5057325664,-0.2742436065\C,0,6.1002769118,-0.8434720
 559,-1.429442219\C,0,4.7173564115,-0.7241857281,-1.4836476596\C,0,3.98
 48100099,-0.2539316021,-0.3724099705\N,0,2.5941283774,-0.191759879,-0.
 4425888238\C,0,1.8216311423,0.5913855764,0.5136296761\C,0,0.3351928455
 ,0.5675604203,0.1537942839\C,0,-0.5187258178,1.3498989227,1.1612379198
 \C,0,-2.0072411367,1.4244853378,0.8090644378\N,0,-2.6572128505,0.12547
 3757,0.9375402362\C,0,-3.9899038802,-0.0570518247,0.5761644062\C,0,-4.
 8860210863,1.0141697225,0.4107280779\C,0,-6.2271591779,0.774050654,0.0
 979610313\C,0,-6.7314406751,-0.5186071969,-0.0704974565\C,0,-8.1843671
 436,-0.770036099,-0.4013565503\C,0,-5.8268677503,-1.5827086129,0.08751
 99604\C,0,-4.4918101712,-1.3652843261,0.4032371014\C,0,4.7039146667,0.
 0960845009,0.7841516136\C,0,6.0950555664,-0.0360464996,0.8206079835\H,
 0,8.636582065,-1.7038811617,-0.2763072755\H,0,8.8134899541,-0.13926741
 66,-1.0639332299\H,0,8.7378303271,-0.2354969153,0.7005241159\H,0,6.630
 8620479,-1.2061574662,-2.3071892751\H,0,4.1854939947,-0.9959004149,-2.
 3926292292\H,0,2.2445011805,-0.1241777009,-1.390654119\H,0,2.174467936
 4,1.6356507199,0.5693136612\H,0,1.9556865325,0.1620647745,1.514429076\
 H,0,0.1966738198,0.9980074316,-0.8477130178\H,0,0.0155930636,-0.480342
 7084,0.0912062913\H,0,-0.1408799669,2.377157439,1.2252134031\H,0,-0.41
 09561743,0.912454944,2.1619752591\H,0,-2.4942278505,2.1274989656,1.495
 3839807\H,0,-2.1268127249,1.8421387994,-0.2057737174\H,0,-2.0662560217
 ,-0.657499844,0.6910712876\H,0,-4.5443595858,2.0370806207,0.5227237902
 \H,0,-6.8936675472,1.6250982265,-0.0232979758\H,0,-8.7116022901,0.1658
 579556,-0.6075466187\H,0,-8.2932286455,-1.4154256097,-1.2806169022\H,0
 ,-8.7081860245,-1.2681316539,0.4240082888\H,0,-6.1761149239,-2.6048895
 453,-0.0416898513\H,0,-3.8184095843,-2.2113278617,0.5207251342\H,0,4.1
 857798175,0.4735165735,1.6586763666\H,0,6.6207103663,0.2436167843,1.73
 09255245\\Version=ES64L-G16RevA.03\State=1-A\HF=-809.9305644\RMSD=8.16
 3e-09\Dipole=1.4409487,0.9371393,-0.0772581\Quadrupole=-18.0961764,8.5
 679853,9.5281911,-1.3792127,1.1440177,2.4000212\PG=C01 [X(C18H24N2)]\\
 @


 MOM AND DAD WENT TO ALPHA CENTAURI AND ALL
 I GOT WAS THIS DUMB T-SHIRT.
 Job cpu time:       0 days  1 hours 31 minutes 32.7 seconds.
 Elapsed time:       0 days  0 hours 30 minutes 36.0 seconds.
 File lengths (MBytes):  RWF=   1403 Int=      0 D2E=      0 Chk=     88 Scr=      1
 Normal termination of Gaussian 16 at Thu Jul 18 05:17:00 2024.
