 Entering Gaussian System, Link 0=g16
 Initial command:
 /opt/sw/arch/manual/gaussian/G16_A03/g16/l1.exe "/scratch/1380872/Gau-71944.inp" -scrdir="/scratch/1380872/"
 Entering Link 1 = /opt/sw/arch/manual/gaussian/G16_A03/g16/l1.exe PID=     71945.
  
 Copyright (c) 1988,1990,1992,1993,1995,1998,2003,2009,2016,
            Gaussian, Inc.  All Rights Reserved.
  
 This is part of the Gaussian(R) 16 program.  It is based on
 the Gaussian(R) 09 system (copyright 2009, Gaussian, Inc.),
 the Gaussian(R) 03 system (copyright 2003, Gaussian, Inc.),
 the Gaussian(R) 98 system (copyright 1998, Gaussian, Inc.),
 the Gaussian(R) 94 system (copyright 1995, Gaussian, Inc.),
 the Gaussian 92(TM) system (copyright 1992, Gaussian, Inc.),
 the Gaussian 90(TM) system (copyright 1990, Gaussian, Inc.),
 the Gaussian 88(TM) system (copyright 1988, Gaussian, Inc.),
 the Gaussian 86(TM) system (copyright 1986, Carnegie Mellon
 University), and the Gaussian 82(TM) system (copyright 1983,
 Carnegie Mellon University). Gaussian is a federally registered
 trademark of Gaussian, Inc.
  
 This software contains proprietary and confidential information,
 including trade secrets, belonging to Gaussian, Inc.
  
 This software is provided under written license and may be
 used, copied, transmitted, or stored only in accord with that
 written license.
  
 The following legend is applicable only to US Government
 contracts under FAR:
  
                    RESTRICTED RIGHTS LEGEND
  
 Use, reproduction and disclosure by the US Government is
 subject to restrictions as set forth in subparagraphs (a)
 and (c) of the Commercial Computer Software - Restricted
 Rights clause in FAR 52.227-19.
  
 Gaussian, Inc.
 340 Quinnipiac St., Bldg. 40, Wallingford CT 06492
  
  
 ---------------------------------------------------------------
 Warning -- This program may not be used in any manner that
 competes with the business of Gaussian, Inc. or will provide
 assistance to any competitor of Gaussian, Inc.  The licensee
 of this program is prohibited from giving any competitor of
 Gaussian, Inc. access to this program.  By using this program,
 the user acknowledges that Gaussian, Inc. is engaged in the
 business of creating and licensing software in the field of
 computational chemistry and represents and warrants to the
 licensee that it is not a competitor of Gaussian, Inc. and that
 it will not use this program in any manner prohibited above.
 ---------------------------------------------------------------
  

 Cite this work as:
 Gaussian 16, Revision A.03,
 M. J. Frisch, G. W. Trucks, H. B. Schlegel, G. E. Scuseria, 
 M. A. Robb, J. R. Cheeseman, G. Scalmani, V. Barone, 
 G. A. Petersson, H. Nakatsuji, X. Li, M. Caricato, A. V. Marenich, 
 J. Bloino, B. G. Janesko, R. Gomperts, B. Mennucci, H. P. Hratchian, 
 J. V. Ortiz, A. F. Izmaylov, J. L. Sonnenberg, D. Williams-Young, 
 F. Ding, F. Lipparini, F. Egidi, J. Goings, B. Peng, A. Petrone, 
 T. Henderson, D. Ranasinghe, V. G. Zakrzewski, J. Gao, N. Rega, 
 G. Zheng, W. Liang, M. Hada, M. Ehara, K. Toyota, R. Fukuda, 
 J. Hasegawa, M. Ishida, T. Nakajima, Y. Honda, O. Kitao, H. Nakai, 
 T. Vreven, K. Throssell, J. A. Montgomery, Jr., J. E. Peralta, 
 F. Ogliaro, M. J. Bearpark, J. J. Heyd, E. N. Brothers, K. N. Kudin, 
 V. N. Staroverov, T. A. Keith, R. Kobayashi, J. Normand, 
 K. Raghavachari, A. P. Rendell, J. C. Burant, S. S. Iyengar, 
 J. Tomasi, M. Cossi, J. M. Millam, M. Klene, C. Adamo, R. Cammi, 
 J. W. Ochterski, R. L. Martin, K. Morokuma, O. Farkas, 
 J. B. Foresman, and D. J. Fox, Gaussian, Inc., Wallingford CT, 2016.
 
 ******************************************
 Gaussian 16:  ES64L-G16RevA.03 25-Dec-2016
                18-Jul-2024 
 ******************************************
 %nprocshared=7
 Will use up to    7 processors via shared memory.
 %mem=14GB
 %Chk=IXVDJDOFHBHDMT-UHFFFAOYSA-N_conf_0_0.chk
 -------------------------------------------------------
 # opt=CalcFc B3LYP/6-31G** SCRF=(Solvent=water) scf=xqc
 -------------------------------------------------------
 1/10=4,18=20,19=15,26=3,38=1/1,3;
 2/9=110,12=2,17=6,18=5,40=1/2;
 3/5=1,6=6,7=101,11=2,25=1,30=1,70=2201,71=2,72=1,74=-5,140=1/1,2,3;
 4//1;
 5/5=2,8=3,13=1,38=5,53=1/2,8;
 8/6=4,10=90,11=11/1;
 11/6=1,8=1,9=11,15=111,16=1/1,2,10;
 10/6=1,13=1/2;
 6/7=2,8=2,9=2,10=2,28=1/1;
 7/10=1,18=20,25=1/1,2,3,16;
 1/10=4,18=20,19=15,26=3/3(2);
 2/9=110/2;
 99//99;
 2/9=110/2;
 3/5=1,6=6,7=101,11=2,25=1,30=1,70=2205,71=1,72=1,74=-5/1,2,3;
 4/5=5,16=3,69=1/1;
 5/5=2,8=3,13=1,38=5,53=1/2,8;
 7//1,2,3,16;
 1/18=20,19=15,26=3/3(-5);
 2/9=110/2;
 6/7=2,8=2,9=2,10=2,19=2,28=1/1;
 99/9=1/99;
 ----------------------------------
 IXVDJDOFHBHDMT-UHFFFAOYSA-N_conf_0
 ----------------------------------
 Symbolic Z-matrix:
 Charge =  0 Multiplicity = 1
 C                     7.18126   0.56221   1.20405 
 C                     5.88125  -0.08627   0.83497 
 C                     5.8526   -1.20158  -0.00349 
 C                     4.63216  -1.78294  -0.3661 
 C                     3.40791  -1.2505    0.06213 
 N                     2.23405  -1.91778  -0.28874 
 C                     0.92496  -1.28394  -0.18923 
 C                     0.72396  -0.25764  -1.3066 
 C                    -0.67408   0.36404  -1.30111 
 C                    -0.90972   1.29155  -0.10686 
 N                    -2.21126   1.94226  -0.19679 
 C                    -3.40071   1.25525   0.04842 
 C                    -3.48275   0.08135   0.80368 
 C                    -4.71519  -0.52929   1.07064 
 C                    -5.9058    0.04389   0.6193 
 C                    -7.22324  -0.62252   0.87813 
 C                    -5.84089   1.22979  -0.11373 
 C                    -4.60561   1.83277  -0.37621 
 C                     3.45294  -0.1489    0.92217 
 C                     4.6702    0.43929   1.29042 
 H                     7.41781   1.35857   0.49154 
 H                     7.99836  -0.16699   1.20224 
 H                     7.1311    0.99015   2.21095 
 H                     6.7775   -1.63638  -0.37442 
 H                     4.64809  -2.66747  -0.99803 
 H                     2.34307  -2.47697  -1.13112 
 H                     0.76967  -0.85307   0.80412 
 H                     0.16978  -2.07246  -0.29318 
 H                     1.47754   0.53646  -1.2444 
 H                     0.87925  -0.75208  -2.27433 
 H                    -1.42821  -0.43125  -1.32879 
 H                    -0.80072   0.93893  -2.22758 
 H                    -0.79191   0.77506   0.85007 
 H                    -0.1474    2.08004  -0.1154 
 H                    -2.28612   2.57367  -0.99046 
 H                    -2.59196  -0.38942   1.20552 
 H                    -4.73361  -1.45188   1.64627 
 H                    -7.19292  -1.20283   1.8065 
 H                    -7.4724   -1.2941    0.05052 
 H                    -8.02101   0.12066   0.98618 
 H                    -6.74947   1.70211  -0.47893 
 H                    -4.59391   2.77113  -0.92549 
 H                     2.54458   0.28092   1.33035 
 H                     4.66088   1.30616   1.94717 
 

 GradGradGradGradGradGradGradGradGradGradGradGradGradGradGradGradGradGrad
 Berny optimization.
 Initialization pass.
                           ----------------------------
                           !    Initial Parameters    !
                           ! (Angstroms and Degrees)  !
 --------------------------                            --------------------------
 ! Name  Definition              Value          Derivative Info.                !
 --------------------------------------------------------------------------------
 ! R1    R(1,2)                  1.4989         calculate D2E/DX2 analytically  !
 ! R2    R(1,21)                 1.0944         calculate D2E/DX2 analytically  !
 ! R3    R(1,22)                 1.0952         calculate D2E/DX2 analytically  !
 ! R4    R(1,23)                 1.0952         calculate D2E/DX2 analytically  !
 ! R5    R(2,3)                  1.3956         calculate D2E/DX2 analytically  !
 ! R6    R(2,20)                 1.3965         calculate D2E/DX2 analytically  !
 ! R7    R(3,4)                  1.3996         calculate D2E/DX2 analytically  !
 ! R8    R(3,24)                 1.0872         calculate D2E/DX2 analytically  !
 ! R9    R(4,5)                  1.402          calculate D2E/DX2 analytically  !
 ! R10   R(4,25)                 1.0872         calculate D2E/DX2 analytically  !
 ! R11   R(5,6)                  1.3951         calculate D2E/DX2 analytically  !
 ! R12   R(5,19)                 1.3983         calculate D2E/DX2 analytically  !
 ! R13   R(6,7)                  1.4579         calculate D2E/DX2 analytically  !
 ! R14   R(6,26)                 1.017          calculate D2E/DX2 analytically  !
 ! R15   R(7,8)                  1.5304         calculate D2E/DX2 analytically  !
 ! R16   R(7,27)                 1.0939         calculate D2E/DX2 analytically  !
 ! R17   R(7,28)                 1.0968         calculate D2E/DX2 analytically  !
 ! R18   R(8,9)                  1.53           calculate D2E/DX2 analytically  !
 ! R19   R(8,29)                 1.0965         calculate D2E/DX2 analytically  !
 ! R20   R(8,30)                 1.0978         calculate D2E/DX2 analytically  !
 ! R21   R(9,10)                 1.5304         calculate D2E/DX2 analytically  !
 ! R22   R(9,31)                 1.0963         calculate D2E/DX2 analytically  !
 ! R23   R(9,32)                 1.0977         calculate D2E/DX2 analytically  !
 ! R24   R(10,11)                1.4579         calculate D2E/DX2 analytically  !
 ! R25   R(10,33)                1.0938         calculate D2E/DX2 analytically  !
 ! R26   R(10,34)                1.0968         calculate D2E/DX2 analytically  !
 ! R27   R(11,12)                1.3953         calculate D2E/DX2 analytically  !
 ! R28   R(11,35)                1.0169         calculate D2E/DX2 analytically  !
 ! R29   R(12,13)                1.3983         calculate D2E/DX2 analytically  !
 ! R30   R(12,18)                1.402          calculate D2E/DX2 analytically  !
 ! R31   R(13,14)                1.4011         calculate D2E/DX2 analytically  !
 ! R32   R(13,36)                1.0847         calculate D2E/DX2 analytically  !
 ! R33   R(14,15)                1.3964         calculate D2E/DX2 analytically  !
 ! R34   R(14,37)                1.0876         calculate D2E/DX2 analytically  !
 ! R35   R(15,16)                1.4989         calculate D2E/DX2 analytically  !
 ! R36   R(15,17)                1.3957         calculate D2E/DX2 analytically  !
 ! R37   R(16,38)                1.0952         calculate D2E/DX2 analytically  !
 ! R38   R(16,39)                1.0946         calculate D2E/DX2 analytically  !
 ! R39   R(16,40)                1.0956         calculate D2E/DX2 analytically  !
 ! R40   R(17,18)                1.3994         calculate D2E/DX2 analytically  !
 ! R41   R(17,41)                1.0872         calculate D2E/DX2 analytically  !
 ! R42   R(18,42)                1.0874         calculate D2E/DX2 analytically  !
 ! R43   R(19,20)                1.4012         calculate D2E/DX2 analytically  !
 ! R44   R(19,43)                1.0847         calculate D2E/DX2 analytically  !
 ! R45   R(20,44)                1.0876         calculate D2E/DX2 analytically  !
 ! A1    A(2,1,21)             109.9962         calculate D2E/DX2 analytically  !
 ! A2    A(2,1,22)             111.0149         calculate D2E/DX2 analytically  !
 ! A3    A(2,1,23)             110.8364         calculate D2E/DX2 analytically  !
 ! A4    A(21,1,22)            108.7934         calculate D2E/DX2 analytically  !
 ! A5    A(21,1,23)            108.9119         calculate D2E/DX2 analytically  !
 ! A6    A(22,1,23)            107.2082         calculate D2E/DX2 analytically  !
 ! A7    A(1,2,3)              120.7624         calculate D2E/DX2 analytically  !
 ! A8    A(1,2,20)             120.5963         calculate D2E/DX2 analytically  !
 ! A9    A(3,2,20)             118.6119         calculate D2E/DX2 analytically  !
 ! A10   A(2,3,4)              120.3643         calculate D2E/DX2 analytically  !
 ! A11   A(2,3,24)             120.47           calculate D2E/DX2 analytically  !
 ! A12   A(4,3,24)             119.1623         calculate D2E/DX2 analytically  !
 ! A13   A(3,4,5)              121.6372         calculate D2E/DX2 analytically  !
 ! A14   A(3,4,25)             118.4086         calculate D2E/DX2 analytically  !
 ! A15   A(5,4,25)             119.9541         calculate D2E/DX2 analytically  !
 ! A16   A(4,5,6)              118.4414         calculate D2E/DX2 analytically  !
 ! A17   A(4,5,19)             117.3179         calculate D2E/DX2 analytically  !
 ! A18   A(6,5,19)             123.9596         calculate D2E/DX2 analytically  !
 ! A19   A(5,6,7)              122.0341         calculate D2E/DX2 analytically  !
 ! A20   A(5,6,26)             112.4037         calculate D2E/DX2 analytically  !
 ! A21   A(7,6,26)             113.0711         calculate D2E/DX2 analytically  !
 ! A22   A(6,7,8)              111.079          calculate D2E/DX2 analytically  !
 ! A23   A(6,7,27)             111.1452         calculate D2E/DX2 analytically  !
 ! A24   A(6,7,28)             107.4124         calculate D2E/DX2 analytically  !
 ! A25   A(8,7,27)             112.3474         calculate D2E/DX2 analytically  !
 ! A26   A(8,7,28)             108.8133         calculate D2E/DX2 analytically  !
 ! A27   A(27,7,28)            105.7548         calculate D2E/DX2 analytically  !
 ! A28   A(7,8,9)              112.9458         calculate D2E/DX2 analytically  !
 ! A29   A(7,8,29)             110.7302         calculate D2E/DX2 analytically  !
 ! A30   A(7,8,30)             108.8444         calculate D2E/DX2 analytically  !
 ! A31   A(9,8,29)             109.4814         calculate D2E/DX2 analytically  !
 ! A32   A(9,8,30)             108.3872         calculate D2E/DX2 analytically  !
 ! A33   A(29,8,30)            106.1984         calculate D2E/DX2 analytically  !
 ! A34   A(8,9,10)             112.9393         calculate D2E/DX2 analytically  !
 ! A35   A(8,9,31)             109.493          calculate D2E/DX2 analytically  !
 ! A36   A(8,9,32)             108.3726         calculate D2E/DX2 analytically  !
 ! A37   A(10,9,31)            110.6973         calculate D2E/DX2 analytically  !
 ! A38   A(10,9,32)            108.8723         calculate D2E/DX2 analytically  !
 ! A39   A(31,9,32)            106.2148         calculate D2E/DX2 analytically  !
 ! A40   A(9,10,11)            111.0901         calculate D2E/DX2 analytically  !
 ! A41   A(9,10,33)            112.3304         calculate D2E/DX2 analytically  !
 ! A42   A(9,10,34)            108.8212         calculate D2E/DX2 analytically  !
 ! A43   A(11,10,33)           111.1545         calculate D2E/DX2 analytically  !
 ! A44   A(11,10,34)           107.4067         calculate D2E/DX2 analytically  !
 ! A45   A(33,10,34)           105.7489         calculate D2E/DX2 analytically  !
 ! A46   A(10,11,12)           122.0343         calculate D2E/DX2 analytically  !
 ! A47   A(10,11,35)           113.0158         calculate D2E/DX2 analytically  !
 ! A48   A(12,11,35)           112.3401         calculate D2E/DX2 analytically  !
 ! A49   A(11,12,13)           123.938          calculate D2E/DX2 analytically  !
 ! A50   A(11,12,18)           118.4616         calculate D2E/DX2 analytically  !
 ! A51   A(13,12,18)           117.3221         calculate D2E/DX2 analytically  !
 ! A52   A(12,13,14)           121.3603         calculate D2E/DX2 analytically  !
 ! A53   A(12,13,36)           121.083          calculate D2E/DX2 analytically  !
 ! A54   A(14,13,36)           117.5566         calculate D2E/DX2 analytically  !
 ! A55   A(13,14,15)           120.6326         calculate D2E/DX2 analytically  !
 ! A56   A(13,14,37)           119.0419         calculate D2E/DX2 analytically  !
 ! A57   A(15,14,37)           120.3212         calculate D2E/DX2 analytically  !
 ! A58   A(14,15,16)           120.7378         calculate D2E/DX2 analytically  !
 ! A59   A(14,15,17)           118.6135         calculate D2E/DX2 analytically  !
 ! A60   A(16,15,17)           120.62           calculate D2E/DX2 analytically  !
 ! A61   A(15,16,38)           110.9532         calculate D2E/DX2 analytically  !
 ! A62   A(15,16,39)           110.0165         calculate D2E/DX2 analytically  !
 ! A63   A(15,16,40)           110.8202         calculate D2E/DX2 analytically  !
 ! A64   A(38,16,39)           108.7911         calculate D2E/DX2 analytically  !
 ! A65   A(38,16,40)           107.2158         calculate D2E/DX2 analytically  !
 ! A66   A(39,16,40)           108.9659         calculate D2E/DX2 analytically  !
 ! A67   A(15,17,18)           120.376          calculate D2E/DX2 analytically  !
 ! A68   A(15,17,41)           120.4446         calculate D2E/DX2 analytically  !
 ! A69   A(18,17,41)           119.1763         calculate D2E/DX2 analytically  !
 ! A70   A(12,18,17)           121.6222         calculate D2E/DX2 analytically  !
 ! A71   A(12,18,42)           119.9485         calculate D2E/DX2 analytically  !
 ! A72   A(17,18,42)           118.4292         calculate D2E/DX2 analytically  !
 ! A73   A(5,19,20)            121.3554         calculate D2E/DX2 analytically  !
 ! A74   A(5,19,43)            121.1098         calculate D2E/DX2 analytically  !
 ! A75   A(20,19,43)           117.5348         calculate D2E/DX2 analytically  !
 ! A76   A(2,20,19)            120.6417         calculate D2E/DX2 analytically  !
 ! A77   A(2,20,44)            120.2862         calculate D2E/DX2 analytically  !
 ! A78   A(19,20,44)           119.0682         calculate D2E/DX2 analytically  !
 ! D1    D(21,1,2,3)            91.4127         calculate D2E/DX2 analytically  !
 ! D2    D(21,1,2,20)          -86.5886         calculate D2E/DX2 analytically  !
 ! D3    D(22,1,2,3)           -29.0546         calculate D2E/DX2 analytically  !
 ! D4    D(22,1,2,20)          152.9442         calculate D2E/DX2 analytically  !
 ! D5    D(23,1,2,3)          -148.0875         calculate D2E/DX2 analytically  !
 ! D6    D(23,1,2,20)           33.9113         calculate D2E/DX2 analytically  !
 ! D7    D(1,2,3,4)           -178.609          calculate D2E/DX2 analytically  !
 ! D8    D(1,2,3,24)             2.0611         calculate D2E/DX2 analytically  !
 ! D9    D(20,2,3,4)            -0.5688         calculate D2E/DX2 analytically  !
 ! D10   D(20,2,3,24)         -179.8987         calculate D2E/DX2 analytically  !
 ! D11   D(1,2,20,19)          178.6007         calculate D2E/DX2 analytically  !
 ! D12   D(1,2,20,44)           -2.1271         calculate D2E/DX2 analytically  !
 ! D13   D(3,2,20,19)            0.5571         calculate D2E/DX2 analytically  !
 ! D14   D(3,2,20,44)          179.8294         calculate D2E/DX2 analytically  !
 ! D15   D(2,3,4,5)              1.8567         calculate D2E/DX2 analytically  !
 ! D16   D(2,3,4,25)          -178.3067         calculate D2E/DX2 analytically  !
 ! D17   D(24,3,4,5)          -178.8048         calculate D2E/DX2 analytically  !
 ! D18   D(24,3,4,25)            1.0319         calculate D2E/DX2 analytically  !
 ! D19   D(3,4,5,6)           -177.1571         calculate D2E/DX2 analytically  !
 ! D20   D(3,4,5,19)            -3.0032         calculate D2E/DX2 analytically  !
 ! D21   D(25,4,5,6)             3.0087         calculate D2E/DX2 analytically  !
 ! D22   D(25,4,5,19)          177.1626         calculate D2E/DX2 analytically  !
 ! D23   D(4,5,6,7)           -164.2517         calculate D2E/DX2 analytically  !
 ! D24   D(4,5,6,26)           -24.9687         calculate D2E/DX2 analytically  !
 ! D25   D(19,5,6,7)            22.0121         calculate D2E/DX2 analytically  !
 ! D26   D(19,5,6,26)          161.2952         calculate D2E/DX2 analytically  !
 ! D27   D(4,5,19,20)            2.9807         calculate D2E/DX2 analytically  !
 ! D28   D(4,5,19,43)         -176.9215         calculate D2E/DX2 analytically  !
 ! D29   D(6,5,19,20)          176.7818         calculate D2E/DX2 analytically  !
 ! D30   D(6,5,19,43)           -3.1205         calculate D2E/DX2 analytically  !
 ! D31   D(5,6,7,8)             74.0485         calculate D2E/DX2 analytically  !
 ! D32   D(5,6,7,27)           -51.8243         calculate D2E/DX2 analytically  !
 ! D33   D(5,6,7,28)          -167.0639         calculate D2E/DX2 analytically  !
 ! D34   D(26,6,7,8)           -64.9928         calculate D2E/DX2 analytically  !
 ! D35   D(26,6,7,27)          169.1344         calculate D2E/DX2 analytically  !
 ! D36   D(26,6,7,28)           53.8948         calculate D2E/DX2 analytically  !
 ! D37   D(6,7,8,9)            176.0033         calculate D2E/DX2 analytically  !
 ! D38   D(6,7,8,29)           -60.804          calculate D2E/DX2 analytically  !
 ! D39   D(6,7,8,30)            55.577          calculate D2E/DX2 analytically  !
 ! D40   D(27,7,8,9)           -58.7953         calculate D2E/DX2 analytically  !
 ! D41   D(27,7,8,29)           64.3973         calculate D2E/DX2 analytically  !
 ! D42   D(27,7,8,30)         -179.2216         calculate D2E/DX2 analytically  !
 ! D43   D(28,7,8,9)            57.9609         calculate D2E/DX2 analytically  !
 ! D44   D(28,7,8,29)         -178.8464         calculate D2E/DX2 analytically  !
 ! D45   D(28,7,8,30)          -62.4654         calculate D2E/DX2 analytically  !
 ! D46   D(7,8,9,10)            69.6407         calculate D2E/DX2 analytically  !
 ! D47   D(7,8,9,31)           -54.203          calculate D2E/DX2 analytically  !
 ! D48   D(7,8,9,32)          -169.6512         calculate D2E/DX2 analytically  !
 ! D49   D(29,8,9,10)          -54.2416         calculate D2E/DX2 analytically  !
 ! D50   D(29,8,9,31)         -178.0853         calculate D2E/DX2 analytically  !
 ! D51   D(29,8,9,32)           66.4665         calculate D2E/DX2 analytically  !
 ! D52   D(30,8,9,10)         -169.6721         calculate D2E/DX2 analytically  !
 ! D53   D(30,8,9,31)           66.4842         calculate D2E/DX2 analytically  !
 ! D54   D(30,8,9,32)          -48.9639         calculate D2E/DX2 analytically  !
 ! D55   D(8,9,10,11)          175.5155         calculate D2E/DX2 analytically  !
 ! D56   D(8,9,10,33)          -59.2752         calculate D2E/DX2 analytically  !
 ! D57   D(8,9,10,34)           57.4687         calculate D2E/DX2 analytically  !
 ! D58   D(31,9,10,11)         -61.3061         calculate D2E/DX2 analytically  !
 ! D59   D(31,9,10,33)          63.9031         calculate D2E/DX2 analytically  !
 ! D60   D(31,9,10,34)        -179.353          calculate D2E/DX2 analytically  !
 ! D61   D(32,9,10,11)          55.0925         calculate D2E/DX2 analytically  !
 ! D62   D(32,9,10,33)        -179.6982         calculate D2E/DX2 analytically  !
 ! D63   D(32,9,10,34)         -62.9544         calculate D2E/DX2 analytically  !
 ! D64   D(9,10,11,12)          73.7845         calculate D2E/DX2 analytically  !
 ! D65   D(9,10,11,35)         -65.0626         calculate D2E/DX2 analytically  !
 ! D66   D(33,10,11,12)        -52.0814         calculate D2E/DX2 analytically  !
 ! D67   D(33,10,11,35)        169.0716         calculate D2E/DX2 analytically  !
 ! D68   D(34,10,11,12)       -167.3155         calculate D2E/DX2 analytically  !
 ! D69   D(34,10,11,35)         53.8374         calculate D2E/DX2 analytically  !
 ! D70   D(10,11,12,13)         22.0686         calculate D2E/DX2 analytically  !
 ! D71   D(10,11,12,18)       -164.163          calculate D2E/DX2 analytically  !
 ! D72   D(35,11,12,13)        161.1613         calculate D2E/DX2 analytically  !
 ! D73   D(35,11,12,18)        -25.0702         calculate D2E/DX2 analytically  !
 ! D74   D(11,12,13,14)        176.8581         calculate D2E/DX2 analytically  !
 ! D75   D(11,12,13,36)         -3.0799         calculate D2E/DX2 analytically  !
 ! D76   D(18,12,13,14)          3.0241         calculate D2E/DX2 analytically  !
 ! D77   D(18,12,13,36)       -176.9139         calculate D2E/DX2 analytically  !
 ! D78   D(11,12,18,17)       -177.195          calculate D2E/DX2 analytically  !
 ! D79   D(11,12,18,42)          2.9209         calculate D2E/DX2 analytically  !
 ! D80   D(13,12,18,17)         -3.0127         calculate D2E/DX2 analytically  !
 ! D81   D(13,12,18,42)        177.1032         calculate D2E/DX2 analytically  !
 ! D82   D(12,13,14,15)         -1.8977         calculate D2E/DX2 analytically  !
 ! D83   D(12,13,14,37)        178.8519         calculate D2E/DX2 analytically  !
 ! D84   D(36,13,14,15)        178.0424         calculate D2E/DX2 analytically  !
 ! D85   D(36,13,14,37)         -1.208          calculate D2E/DX2 analytically  !
 ! D86   D(13,14,15,16)        178.6796         calculate D2E/DX2 analytically  !
 ! D87   D(13,14,15,17)          0.6142         calculate D2E/DX2 analytically  !
 ! D88   D(37,14,15,16)         -2.0796         calculate D2E/DX2 analytically  !
 ! D89   D(37,14,15,17)        179.855          calculate D2E/DX2 analytically  !
 ! D90   D(14,15,16,38)         29.6088         calculate D2E/DX2 analytically  !
 ! D91   D(14,15,16,39)        -90.829          calculate D2E/DX2 analytically  !
 ! D92   D(14,15,16,40)        148.6007         calculate D2E/DX2 analytically  !
 ! D93   D(17,15,16,38)       -152.3647         calculate D2E/DX2 analytically  !
 ! D94   D(17,15,16,39)         87.1975         calculate D2E/DX2 analytically  !
 ! D95   D(17,15,16,40)        -33.3728         calculate D2E/DX2 analytically  !
 ! D96   D(14,15,17,18)         -0.593          calculate D2E/DX2 analytically  !
 ! D97   D(14,15,17,41)       -179.9497         calculate D2E/DX2 analytically  !
 ! D98   D(16,15,17,18)       -178.6608         calculate D2E/DX2 analytically  !
 ! D99   D(16,15,17,41)          1.9825         calculate D2E/DX2 analytically  !
 ! D100  D(15,17,18,12)          1.8572         calculate D2E/DX2 analytically  !
 ! D101  D(15,17,18,42)       -178.257          calculate D2E/DX2 analytically  !
 ! D102  D(41,17,18,12)       -178.778          calculate D2E/DX2 analytically  !
 ! D103  D(41,17,18,42)          1.1079         calculate D2E/DX2 analytically  !
 ! D104  D(5,19,20,2)           -1.8295         calculate D2E/DX2 analytically  !
 ! D105  D(5,19,20,44)         178.8895         calculate D2E/DX2 analytically  !
 ! D106  D(43,19,20,2)         178.0762         calculate D2E/DX2 analytically  !
 ! D107  D(43,19,20,44)         -1.2049         calculate D2E/DX2 analytically  !
 --------------------------------------------------------------------------------
 Trust Radius=3.00D-01 FncErr=1.00D-07 GrdErr=1.00D-06 EigMax=2.50D+02 EigMin=1.00D-04
 Number of steps in this run=    240 maximum allowed number of steps=    264.
 GradGradGradGradGradGradGradGradGradGradGradGradGradGradGradGradGradGrad

                          Input orientation:                          
 ---------------------------------------------------------------------
 Center     Atomic      Atomic             Coordinates (Angstroms)
 Number     Number       Type             X           Y           Z
 ---------------------------------------------------------------------
      1          6           0        7.181259    0.562215    1.204046
      2          6           0        5.881253   -0.086273    0.834967
      3          6           0        5.852596   -1.201584   -0.003490
      4          6           0        4.632159   -1.782941   -0.366103
      5          6           0        3.407906   -1.250497    0.062129
      6          7           0        2.234051   -1.917782   -0.288740
      7          6           0        0.924962   -1.283944   -0.189225
      8          6           0        0.723955   -0.257641   -1.306600
      9          6           0       -0.674075    0.364036   -1.301106
     10          6           0       -0.909724    1.291553   -0.106860
     11          7           0       -2.211258    1.942260   -0.196793
     12          6           0       -3.400711    1.255251    0.048421
     13          6           0       -3.482747    0.081354    0.803677
     14          6           0       -4.715192   -0.529289    1.070643
     15          6           0       -5.905803    0.043890    0.619296
     16          6           0       -7.223244   -0.622518    0.878134
     17          6           0       -5.840894    1.229793   -0.113735
     18          6           0       -4.605612    1.832769   -0.376207
     19          6           0        3.452945   -0.148899    0.922173
     20          6           0        4.670197    0.439290    1.290423
     21          1           0        7.417812    1.358572    0.491542
     22          1           0        7.998361   -0.166993    1.202243
     23          1           0        7.131103    0.990148    2.210946
     24          1           0        6.777496   -1.636381   -0.374416
     25          1           0        4.648087   -2.667475   -0.998033
     26          1           0        2.343072   -2.476970   -1.131124
     27          1           0        0.769665   -0.853068    0.804124
     28          1           0        0.169778   -2.072456   -0.293184
     29          1           0        1.477540    0.536461   -1.244399
     30          1           0        0.879255   -0.752078   -2.274329
     31          1           0       -1.428214   -0.431247   -1.328791
     32          1           0       -0.800723    0.938933   -2.227580
     33          1           0       -0.791913    0.775058    0.850074
     34          1           0       -0.147405    2.080039   -0.115396
     35          1           0       -2.286124    2.573673   -0.990455
     36          1           0       -2.591957   -0.389425    1.205516
     37          1           0       -4.733606   -1.451882    1.646271
     38          1           0       -7.192919   -1.202833    1.806504
     39          1           0       -7.472398   -1.294103    0.050519
     40          1           0       -8.021014    0.120660    0.986178
     41          1           0       -6.749469    1.702114   -0.478929
     42          1           0       -4.593911    2.771129   -0.925490
     43          1           0        2.544579    0.280925    1.330353
     44          1           0        4.660881    1.306157    1.947168
 ---------------------------------------------------------------------
                    Distance matrix (angstroms):
                    1          2          3          4          5
     1  C    0.000000
     2  C    1.498924   0.000000
     3  C    2.516838   1.395618   0.000000
     4  C    3.803030   2.425177   1.399618   0.000000
     5  C    4.339135   2.840799   2.446060   1.402026   0.000000
     6  N    5.731811   4.233110   3.699753   2.403142   1.395103
     7  C    6.670139   5.200788   4.931821   3.744809   2.495858
     8  C    6.976553   5.586895   5.375136   4.299434   3.172188
     9  C    8.247505   6.909263   6.836111   5.799988   4.596487
    10  C    8.228877   6.993054   7.208009   6.342885   5.013233
    11  N    9.596158   8.406438   8.657186   7.793468   6.468055
    12  C   10.667421   9.411334   9.574050   8.598224   7.255083
    13  C   10.682348   9.365552   9.457594   8.408073   7.057253
    14  C   11.947164  10.608320  10.643491   9.539857   8.217175
    15  C   13.110369  11.789747  11.840566  10.740436   9.419715
    16  C   14.456816  13.115535  13.118314  11.976865  10.680897
    17  C   13.105673  11.833883  11.944097  10.900693   9.577216
    18  C   11.960010  10.729585  10.895886   9.920175   8.597391
    19  C    3.805977   2.430680   2.779087   2.391714   1.398292
    20  C    2.515553   1.396536   2.400988   2.771973   2.440791
    21  H    1.094442   2.136945   3.041275   4.285384   4.803226
    22  H    1.095172   2.150245   2.669921   4.049977   4.852434
    23  H    1.095212   2.148052   3.367788   4.536069   4.847690
    24  H    2.736492   2.160715   1.087233   2.150354   3.419593
    25  H    4.658005   3.397526   2.142147   1.087193   2.160977
    26  H    6.172335   4.701028   3.900631   2.511345   2.015430
    27  H    6.578108   5.168874   5.158478   4.141613   2.769264
    28  H    7.638328   6.151308   5.756454   4.472357   3.359663
    29  H    6.207089   4.909607   4.868446   4.012811   2.937098
    30  H    7.317220   5.927141   5.485698   4.334547   3.478726
    31  H    9.029134   7.630804   7.440433   6.283468   5.098420
    32  H    8.696552   7.421526   7.334511   6.355306   5.267725
    33  H    7.983863   6.728541   6.984640   6.119069   4.728870
    34  H    7.599607   6.476172   6.839706   6.150585   4.874856
    35  H    9.924371   8.781431   9.025820   8.199545   6.939322
    36  H    9.819438   8.486724   8.569234   7.523279   6.168236
    37  H   12.091988  10.733049  10.716905   9.585239   8.296643
    38  H   14.494666  13.157681  13.170480  12.036994  10.743491
    39  H   14.815742  13.431091  13.325425  12.121586  10.880397
    40  H   15.210245  13.904630  13.971573  12.866824  11.547907
    41  H   14.078244  12.824187  12.941002  11.903772  10.591643
    42  H   12.168354  10.999682  11.214368  10.304021   9.009880
    43  H    4.646922   3.393175   3.862635   3.390501   2.167712
    44  H    2.730931   2.159899   3.393232   3.859350   3.414645
                    6          7          8          9         10
     6  N    0.000000
     7  C    1.457864   0.000000
     8  C    2.464244   1.530434   0.000000
     9  C    3.832594   2.551281   1.530033   0.000000
    10  C    4.496246   3.163233   2.551134   1.530373   0.000000
    11  N    5.888051   4.499370   3.832325   2.464392   1.457909
    12  C    6.475520   5.021498   4.597586   3.170178   2.496087
    13  C    6.153999   4.719936   4.718531   3.521172   2.985651
    14  C    7.215803   5.828217   5.942171   4.770099   4.379905
    15  C    8.421990   7.005441   6.910404   5.582240   5.200459
    16  C    9.616638   8.244392   8.250101   6.972373   6.670414
    17  C    8.668483   7.218129   6.836127   5.371722   4.931562
    18  C    7.800979   6.351072   5.799977   4.297626   3.745004
    19  C    2.465959   2.985670   3.525144   4.715757   4.708151
    20  C    3.739565   4.380145   4.775255   5.939943   5.815003
    21  H    6.181804   7.042970   7.117105   8.347534   8.349277
    22  H    6.206090   7.294980   7.695420   9.042118   9.121133
    23  H    6.219775   7.031962   7.414961   8.581802   8.373647
    24  H    4.552957   5.866060   6.278157   7.770865   8.230294
    25  H    2.625397   4.053392   4.615336   6.132481   6.881668
    26  H    1.016950   2.078826   2.752772   4.147696   5.082476
    27  H    2.114804   1.093853   2.193577   2.828024   2.872219
    28  H    2.070064   1.096750   2.151204   2.768481   3.537881
    29  H    2.740237   2.175456   1.096521   2.159258   2.750125
    30  H    2.671498   2.152354   1.097763   2.146092   3.474881
    31  H    4.087013   2.750117   2.159274   1.096342   2.174854
    32  H    4.596714   3.474776   2.145842   1.097680   2.152598
    33  H    4.207700   2.875291   2.831178   2.193262   1.093787
    34  H    4.656603   3.531544   2.764595   2.151269   1.096774
    35  H    6.410737   5.082741   4.144498   2.752763   2.078232
    36  H    5.278165   3.887697   4.162135   3.244861   2.716234
    37  H    7.246349   5.951189   6.319069   5.335202   5.022150
    38  H    9.683438   8.359995   8.559305   7.389698   7.025772
    39  H    9.732380   8.400788   8.372349   7.126956   7.055429
    40  H   10.533140   9.131538   9.048449   7.698598   7.289457
    41  H    9.687283   8.239986   7.770311   6.275096   5.865971
    42  H    8.307370   6.887936   6.131753   4.615224   4.053706
    43  H    2.748126   2.716816   3.249345   4.158271   3.875456
    44  H    4.613304   5.022937   5.341523   6.316695   5.937245
                   11         12         13         14         15
    11  N    0.000000
    12  C    1.395318   0.000000
    13  C    2.465887   1.398276   0.000000
    14  C    3.739604   2.440774   1.401098   0.000000
    15  C    4.233140   2.840559   2.430349   1.396353   0.000000
    16  C    5.731802   4.338916   3.806875   2.517156   1.498916
    17  C    3.699833   2.445697   2.778743   2.400901   1.395677
    18  C    2.403562   1.402006   2.391737   2.772129   2.425203
    19  C    6.140702   7.050367   6.940524   8.178337   9.365632
    20  C    7.198969   8.206578   8.175300   9.437795  10.604646
    21  H    9.671271  10.828087  10.979567  12.292647  13.388929
    22  H   10.518677  11.545255  11.490708  12.719395  13.917976
    23  H    9.694505  10.754808  10.745237  11.997653  13.167750
    24  H    9.676566  10.589440  10.469532  11.635968  12.832648
    25  H    8.303147   9.014766   8.769988   9.824575  11.015982
    26  H    6.414397   6.950672   6.650462   7.645936   8.801287
    27  H    4.207326   4.733723   4.353866   5.500866   6.737994
    28  H    4.668680   4.892721   4.379834   5.301351   6.498017
    29  H    4.084236   5.097586   5.385739   6.696654   7.630841
    30  H    4.596399   5.267129   5.403313   6.521987   7.419140
    31  H    2.743740   2.937981   3.005209   4.070764   4.906078
    32  H    2.668402   3.469896   4.137295   5.325131   5.913344
    33  H    2.114907   2.771112   2.779202   4.140301   5.171047
    34  H    2.070048   3.360226   3.995491   5.392584   6.151815
    35  H    1.016950   2.014896   3.295827   4.447120   4.700338
    36  H    2.747391   2.167467   1.084719   2.132108   3.393080
    37  H    4.612952   3.414426   2.150680   1.087596   2.160106
    38  H    6.222681   4.849111   4.052182   2.671008   2.149523
    39  H    6.181812   4.803940   4.286775   3.037725   2.137278
    40  H    6.202493   4.849112   4.542105   3.370167   2.148166
    41  H    4.553309   3.419351   3.865671   3.393908   2.160458
    42  H    2.625844   2.161045   3.385202   3.859017   3.397831
    43  H    5.264047   6.159475   6.053584   7.309458   8.483557
    44  H    7.226859   8.282337   8.314228   9.594160  10.724335
                   16         17         18         19         20
    16  C    0.000000
    17  C    2.515105   0.000000
    18  C    3.801816   1.399426   0.000000
    19  C   10.686780   9.452478   8.399591   0.000000
    20  C   11.947860  10.633888   9.526808   1.401170   0.000000
    21  H   14.779536  13.273139  12.064020   4.263576   3.005442
    22  H   15.231868  13.971677  12.858875   4.554072   3.384085
    23  H   14.506011  13.180829  12.047981   4.060445   2.684561
    24  H   14.093173  12.942437  11.900007   3.866056   3.394232
    25  H   12.191405  11.224500  10.308725   3.385082   3.858692
    26  H    9.949398   9.041707   8.211453   3.296628   4.447917
    27  H    7.996576   6.991442   6.123766   2.776649   4.137731
    28  H    7.624374   6.860410   6.169443   3.994539   5.391701
    29  H    9.030616   7.437647   6.280041   3.010976   4.077722
    30  H    8.695130   7.331874   6.353587   4.147931   5.338357
    31  H    6.203988   4.869000   4.016098   5.382590   6.693932
    32  H    7.302901   5.473231   4.324778   5.403519   6.523569
    33  H    6.581491   5.160224   4.143286   4.344849   5.490108
    34  H    7.639268   5.756626   4.472670   4.359728   5.279931
    35  H    6.171096   3.900134   2.511228   6.633812   7.625509
    36  H    4.648692   3.862368   3.390399   6.056316   7.309778
    37  H    2.734260   3.393389   3.859499   8.321160   9.598681
    38  H    1.095242   3.381266   4.546787  10.734395  11.987345
    39  H    1.094555   3.009790   4.263553  11.019727  12.328204
    40  H    1.095639   2.681961   4.056154  11.477304  12.698855
    41  H    2.733130   1.087181   2.150289  10.463201  11.624719
    42  H    4.656532   2.142342   1.087368   8.757414   9.806703
    43  H    9.819932   8.561652   7.513042   1.084660   2.131883
    44  H   12.086978  10.702356   9.567826   2.151027   1.087594
                   21         22         23         24         25
    21  H    0.000000
    22  H    1.780304   0.000000
    23  H    1.781653   1.763120   0.000000
    24  H    3.182708   2.476987   3.702403   0.000000
    25  H    5.108743   4.724189   5.462702   2.446719   0.000000
    26  H    6.564861   6.539333   6.790845   4.576387   2.316700
    27  H    7.013338   7.272086   6.770855   6.172242   4.645644
    28  H    8.057403   8.194742   8.006888   6.622590   4.572320
    29  H    6.243091   7.000143   6.641386   5.793759   4.514230
    30  H    7.406592   7.944215   7.889147   6.259466   4.416081
    31  H    9.207021   9.764030   9.370806   8.348465   6.483175
    32  H    8.666836   9.508451   9.089390   8.215587   6.648872
    33  H    8.238241   8.847621   8.041916   8.038058   6.697771
    34  H    7.623738   8.552123   7.718575   7.863404   6.805489
    35  H    9.891367  10.866913  10.071776  10.012655   8.692121
    36  H   10.186301  10.592653   9.871778   9.583201   7.903378
    37  H   12.525535  12.804338  12.126570  11.688571   9.822738
    38  H   14.891722  15.238539  14.496563  14.146268  12.256429
    39  H   15.131078  15.554460  14.938121  14.260337  12.243030
    40  H   15.496272  16.023414  15.226382  14.964436  13.123145
    41  H   14.204635  14.960560  14.156715  13.933243  12.217490
    42  H   12.177224  13.104393  12.267235  12.208142  10.723722
    43  H    5.060961   5.473644   4.723838   4.949736   4.305716
    44  H    3.118054   3.723420   2.504283   4.304456   4.946123
                   26         27         28         29         30
    26  H    0.000000
    27  H    2.976215   0.000000
    28  H    2.364103   1.746671   0.000000
    29  H    3.137314   2.574554   3.069446   0.000000
    30  H    2.534744   3.082058   2.484288   1.754718   0.000000
    31  H    4.294957   3.091591   2.513887   3.063819   2.514237
    32  H    4.770121   3.855985   3.708399   2.513785   2.384121
    33  H    4.932440   2.256420   3.215622   3.097445   3.858347
    34  H    5.291550   3.207749   4.168384   2.509527   3.706199
    35  H    6.852608   4.929596   5.301336   4.287177   4.767450
    36  H    5.845703   3.417101   3.564530   4.839438   4.928504
    37  H    7.670991   5.599445   5.309405   7.133570   6.882226
    38  H   10.059235   8.033047   7.705469   9.354679   9.056289
    39  H    9.956852   8.288186   7.689397   9.226547   8.686128
    40  H   10.892426   8.846318   8.575291   9.765803   9.518791
    41  H   10.028180   8.044411   7.884025   8.344361   8.212426
    42  H    8.700952   6.700322   6.822966   6.477497   6.647398
    43  H    3.702088   2.170985   3.716712   2.798788   4.102941
    44  H    5.400016   4.594602   6.050141   4.572985   6.029765
                   31         32         33         34         35
    31  H    0.000000
    32  H    1.754697   0.000000
    33  H    2.570506   3.082027   0.000000
    34  H    3.069097   2.488025   1.746568   0.000000
    35  H    3.143251   2.531654   2.975774   2.362948   0.000000
    36  H    2.789043   4.093801   2.173135   3.717378   3.700780
    37  H    4.562708   6.015837   4.596753   6.050718   5.398851
    38  H    6.607363   7.856282   6.767547   8.006886   6.794235
    39  H    6.259327   7.395095   7.039147   8.066467   6.552920
    40  H    7.009187   7.945465   7.259936   8.188185   6.543189
    41  H    5.795623   6.247223   6.173990   6.622857   4.576322
    42  H    4.521007   4.409156   4.646731   4.572229   2.317130
    43  H    4.833355   4.927769   3.406907   3.545952   5.829111
    44  H    7.129345   6.884221   5.587365   5.288920   7.648340
                   36         37         38         39         40
    36  H    0.000000
    37  H    2.430996   0.000000
    38  H    4.710804   2.477079   0.000000
    39  H    5.096192   3.173688   1.780427   0.000000
    40  H    5.457377   3.703466   1.763607   1.782693   0.000000
    41  H    4.949424   4.304401   3.722710   3.127341   2.502872
    42  H    4.305591   4.946443   5.478231   5.075864   4.735452
    43  H    5.181597   7.488284   9.861396  10.220495  10.572412
    44  H    7.485232   9.795597  12.117236  12.552892  12.773385
                   41         42         43         44
    41  H    0.000000
    42  H    2.447170   0.000000
    43  H    9.574581   7.889739   0.000000
    44  H   11.672138   9.800483   2.431110   0.000000
 Stoichiometry    C18H24N2
 Framework group  C1[X(C18H24N2)]
 Deg. of freedom   126
 Full point group                 C1      NOp   1
 Largest Abelian subgroup         C1      NOp   1
 Largest concise Abelian subgroup C1      NOp   1
                         Standard orientation:                         
 ---------------------------------------------------------------------
 Center     Atomic      Atomic             Coordinates (Angstroms)
 Number     Number       Type             X           Y           Z
 ---------------------------------------------------------------------
      1          6           0        7.109727   -1.292090   -0.879288
      2          6           0        5.872020   -0.505261   -0.569848
      3          6           0        5.937387    0.651333    0.208462
      4          6           0        4.772599    1.363593    0.516495
      5          6           0        3.509582    0.926380    0.093048
      6          7           0        2.399489    1.719047    0.385766
      7          6           0        1.037688    1.206722    0.294182
      8          6           0        0.724134    0.265555    1.459564
      9          6           0       -0.726391   -0.221251    1.459495
     10          6           0       -1.031908   -1.185460    0.311016
     11          7           0       -2.390507   -1.705062    0.409613
     12          6           0       -3.505708   -0.923423    0.105841
     13          6           0       -3.465065    0.210597   -0.711179
     14          6           0       -4.630000    0.919192   -1.033510
     15          6           0       -5.876006    0.485692   -0.575965
     16          6           0       -7.120365    1.258157   -0.894740
     17          6           0       -5.934519   -0.659849    0.219161
     18          6           0       -4.765968   -1.361331    0.536659
     19          6           0        3.462133   -0.219285   -0.707216
     20          6           0        4.623182   -0.938342   -1.020581
     21          1           0        7.259350   -2.067632   -0.121691
     22          1           0        7.992272   -0.643941   -0.899775
     23          1           0        7.033599   -1.767015   -1.863230
     24          1           0        6.893983    1.016546    0.573999
     25          1           0        4.863390    2.275452    1.101524
     26          1           0        2.549031    2.310056    1.199728
     27          1           0        0.856432    0.739492   -0.678113
     28          1           0        0.359382    2.067223    0.342146
     29          1           0        1.399719   -0.598104    1.453554
     30          1           0        0.911796    0.794592    2.402955
     31          1           0       -1.401920    0.641774    1.430970
     32          1           0       -0.920327   -0.730949    2.412122
     33          1           0       -0.851878   -0.734629   -0.669142
     34          1           0       -0.348110   -2.040547    0.375509
     35          1           0       -2.536363   -2.282967    1.233590
     36          1           0       -2.527926    0.573168   -1.119748
     37          1           0       -4.552467    1.807079   -1.656816
     38          1           0       -7.021766    1.782199   -1.851408
     39          1           0       -7.316457    1.993796   -0.108335
     40          1           0       -7.983472    0.588580   -0.979226
     41          1           0       -6.888981   -1.024254    0.590878
     42          1           0       -4.851302   -2.265679    1.134355
     43          1           0        2.523000   -0.583117   -1.109888
     44          1           0        4.541006   -1.834597   -1.631182
 ---------------------------------------------------------------------
 Rotational constants (GHZ):           1.0375765           0.0926615           0.0902235
 Standard basis: 6-31G(d,p) (6D, 7F)
 There are   420 symmetry adapted cartesian basis functions of A   symmetry.
 There are   420 symmetry adapted basis functions of A   symmetry.
   420 basis functions,   728 primitive gaussians,   420 cartesian basis functions
    73 alpha electrons       73 beta electrons
       nuclear repulsion energy      1389.8506135091 Hartrees.
 NAtoms=   44 NActive=   44 NUniq=   44 SFac= 1.00D+00 NAtFMM=   60 NAOKFM=F Big=F
 Integral buffers will be    131072 words long.
 Raffenetti 2 integral format.
 Two-electron integral symmetry is turned on.
 Force inversion solution in PCM.
 ------------------------------------------------------------------------------
 Polarizable Continuum Model (PCM)
 =================================
 Model                : PCM.
 Atomic radii         : UFF (Universal Force Field).
 Polarization charges : Total charges.
 Charge compensation  : None.
 Solution method      : Matrix inversion.
 Cavity type          : Scaled VdW (van der Waals Surface) (Alpha=1.100).
 Cavity algorithm     : GePol (No added spheres)
                        Default sphere list used, NSphG=   44.
                        Lebedev-Laikov grids with approx.  5.0 points / Ang**2.
                        Smoothing algorithm: York/Karplus (Gamma=1.0000).
                        Polarization charges: spherical gaussians, with
                                              point-specific exponents (IZeta= 3).
                        Self-potential: point-specific (ISelfS= 7).
                        Self-field    : sphere-specific E.n sum rule (ISelfD= 2).
 1st derivatives      : Analytical E(r).r(x)/FMM algorithm (CHGder, D1EAlg=3).
                        Cavity 1st derivative terms included.
 2nd derivatives      : Analytical E(r).r(xy)/FMM algorithm (CHGder, D2EAlg=3).
                        Cavity 2nd derivative terms included.
 Solvent              : Water, Eps=  78.355300 Eps(inf)=   1.777849
 ------------------------------------------------------------------------------
 One-electron integrals computed using PRISM.
 NBasis=   420 RedAO= T EigKep=  4.15D-04  NBF=   420
 NBsUse=   420 1.00D-06 EigRej= -1.00D+00 NBFU=   420
 ExpMin= 1.61D-01 ExpMax= 4.17D+03 ExpMxC= 6.27D+02 IAcc=3 IRadAn=         5 AccDes= 0.00D+00
 Harris functional with IExCor=  402 and IRadAn=       5 diagonalized for initial guess.
 HarFok:  IExCor=  402 AccDes= 0.00D+00 IRadAn=         5 IDoV= 1 UseB2=F ITyADJ=14
 ICtDFT=  3500011 ScaDFX=  1.000000  1.000000  1.000000  1.000000
 FoFCou: FMM=F IPFlag=           0 FMFlag=      100000 FMFlg1=           0
         NFxFlg=           0 DoJE=T BraDBF=F KetDBF=T FulRan=T
         wScrn=  0.000000 ICntrl=       500 IOpCl=  0 I1Cent=   200000004 NGrid=           0
         NMat0=    1 NMatS0=      1 NMatT0=    0 NMatD0=    1 NMtDS0=    0 NMtDT0=    0
 Petite list used in FoFCou.
 Requested convergence on RMS density matrix=1.00D-08 within  32 cycles.
 Requested convergence on MAX density matrix=1.00D-06.
 Requested convergence on             energy=1.00D-06.
 No special actions if energy rises.
 Inv3:  Mode=1 IEnd=    27633675.
 Iteration    1 A*A^-1 deviation from unit magnitude is 3.11D-15 for   2124.
 Iteration    1 A*A^-1 deviation from orthogonality  is 2.00D-15 for   2755    128.
 Iteration    1 A^-1*A deviation from unit magnitude is 3.66D-15 for   2654.
 Iteration    1 A^-1*A deviation from orthogonality  is 2.78D-15 for   2659    466.
 Error on total polarization charges =  0.01372
 SCF Done:  E(RB3LYP) =  -809.923766843     A.U. after   12 cycles
            NFock= 12  Conv=0.34D-08     -V/T= 2.0097
 QCSCF skips out because SCF is already converged.
 DoSCS=F DFT=T ScalE2(SS,OS)=  1.000000  1.000000
 Range of M.O.s used for correlation:     1   420
 NBasis=   420 NAE=    73 NBE=    73 NFC=     0 NFV=     0
 NROrb=    420 NOA=    73 NOB=    73 NVA=   347 NVB=   347
 Symmetrizing basis deriv contribution to polar:
 IMax=3 JMax=2 DiffMx= 0.00D+00
 G2DrvN: will do    45 centers at a time, making    1 passes.
 Calling FoFCou, ICntrl=  3107 FMM=F I1Cent=   0 AccDes= 0.00D+00.
 NEqPCM:  Using equilibrium solvation (IEInf=0, Eps=  78.3553, EpsInf=   1.7778)
 G2PCM: DoFxE=T DoFxN=T DoGrad=T DoDP/DQ/DG/TGxP=FFFF NFrqRd=   0 IEInf=0 SqF1=F DoCFld=F IF1Alg=4.
 End of G2Drv F.D. properties file   721 does not exist.
 End of G2Drv F.D. properties file   722 does not exist.
 End of G2Drv F.D. properties file   788 does not exist.
          IDoAtm=11111111111111111111111111111111111111111111
 NEqPCM:  Using equilibrium solvation (IEInf=0, Eps=  78.3553, EpsInf=   1.7778)
          Differentiating once with respect to nuclear coordinates.
 CalDSu exits because no D1Ps are significant.
          There are   135 degrees of freedom in the 1st order CPHF.  IDoFFX=6 NUNeed=     0.
    129 vectors produced by pass  0 Test12= 2.53D-14 1.00D-09 XBig12= 1.19D-01 6.93D-02.
 AX will form   129 AO Fock derivatives at one time.
    129 vectors produced by pass  1 Test12= 2.53D-14 1.00D-09 XBig12= 2.00D-02 3.02D-02.
    129 vectors produced by pass  2 Test12= 2.53D-14 1.00D-09 XBig12= 1.51D-04 1.61D-03.
    129 vectors produced by pass  3 Test12= 2.53D-14 1.00D-09 XBig12= 3.70D-07 6.28D-05.
    129 vectors produced by pass  4 Test12= 2.53D-14 1.00D-09 XBig12= 3.62D-10 1.41D-06.
     65 vectors produced by pass  5 Test12= 2.53D-14 1.00D-09 XBig12= 3.29D-13 4.77D-08.
      6 vectors produced by pass  6 Test12= 2.53D-14 1.00D-09 XBig12= 3.63D-16 1.71D-09.
 InvSVY:  IOpt=1 It=  1 EMax= 7.22D-16
 Solved reduced A of dimension   716 with   135 vectors.
 End of Minotr F.D. properties file   721 does not exist.
 End of Minotr F.D. properties file   722 does not exist.
 End of Minotr F.D. properties file   788 does not exist.

 **********************************************************************

            Population analysis using the SCF density.

 **********************************************************************

 Orbital symmetries:
       Occupied  (A) (A) (A) (A) (A) (A) (A) (A) (A) (A) (A) (A)
                 (A) (A) (A) (A) (A) (A) (A) (A) (A) (A) (A) (A)
                 (A) (A) (A) (A) (A) (A) (A) (A) (A) (A) (A) (A)
                 (A) (A) (A) (A) (A) (A) (A) (A) (A) (A) (A) (A)
                 (A) (A) (A) (A) (A) (A) (A) (A) (A) (A) (A) (A)
                 (A) (A) (A) (A) (A) (A) (A) (A) (A) (A) (A) (A)
                 (A)
       Virtual   (A) (A) (A) (A) (A) (A) (A) (A) (A) (A) (A) (A)
                 (A) (A) (A) (A) (A) (A) (A) (A) (A) (A) (A) (A)
                 (A) (A) (A) (A) (A) (A) (A) (A) (A) (A) (A) (A)
                 (A) (A) (A) (A) (A) (A) (A) (A) (A) (A) (A) (A)
                 (A) (A) (A) (A) (A) (A) (A) (A) (A) (A) (A) (A)
                 (A) (A) (A) (A) (A) (A) (A) (A) (A) (A) (A) (A)
                 (A) (A) (A) (A) (A) (A) (A) (A) (A) (A) (A) (A)
                 (A) (A) (A) (A) (A) (A) (A) (A) (A) (A) (A) (A)
                 (A) (A) (A) (A) (A) (A) (A) (A) (A) (A) (A) (A)
                 (A) (A) (A) (A) (A) (A) (A) (A) (A) (A) (A) (A)
                 (A) (A) (A) (A) (A) (A) (A) (A) (A) (A) (A) (A)
                 (A) (A) (A) (A) (A) (A) (A) (A) (A) (A) (A) (A)
                 (A) (A) (A) (A) (A) (A) (A) (A) (A) (A) (A) (A)
                 (A) (A) (A) (A) (A) (A) (A) (A) (A) (A) (A) (A)
                 (A) (A) (A) (A) (A) (A) (A) (A) (A) (A) (A) (A)
                 (A) (A) (A) (A) (A) (A) (A) (A) (A) (A) (A) (A)
                 (A) (A) (A) (A) (A) (A) (A) (A) (A) (A) (A) (A)
                 (A) (A) (A) (A) (A) (A) (A) (A) (A) (A) (A) (A)
                 (A) (A) (A) (A) (A) (A) (A) (A) (A) (A) (A) (A)
                 (A) (A) (A) (A) (A) (A) (A) (A) (A) (A) (A) (A)
                 (A) (A) (A) (A) (A) (A) (A) (A) (A) (A) (A) (A)
                 (A) (A) (A) (A) (A) (A) (A) (A) (A) (A) (A) (A)
                 (A) (A) (A) (A) (A) (A) (A) (A) (A) (A) (A) (A)
                 (A) (A) (A) (A) (A) (A) (A) (A) (A) (A) (A) (A)
                 (A) (A) (A) (A) (A) (A) (A) (A) (A) (A) (A) (A)
                 (A) (A) (A) (A) (A) (A) (A) (A) (A) (A) (A) (A)
                 (A) (A) (A) (A) (A) (A) (A) (A) (A) (A) (A) (A)
                 (A) (A) (A) (A) (A) (A) (A) (A) (A) (A) (A) (A)
                 (A) (A) (A) (A) (A) (A) (A) (A) (A) (A) (A)
 The electronic state is 1-A.
 Alpha  occ. eigenvalues --  -14.33644 -14.33644 -10.22064 -10.22063 -10.21266
 Alpha  occ. eigenvalues --  -10.21265 -10.18132 -10.18131 -10.18117 -10.18116
 Alpha  occ. eigenvalues --  -10.17988 -10.17987 -10.17792 -10.17776 -10.17762
 Alpha  occ. eigenvalues --  -10.17758 -10.17751 -10.17735 -10.17420 -10.17413
 Alpha  occ. eigenvalues --   -0.92782  -0.92622  -0.84116  -0.83961  -0.79121
 Alpha  occ. eigenvalues --   -0.76224  -0.74949  -0.73694  -0.73582  -0.70573
 Alpha  occ. eigenvalues --   -0.67643  -0.65734  -0.63761  -0.60549  -0.60022
 Alpha  occ. eigenvalues --   -0.58297  -0.57045  -0.56689  -0.52325  -0.52228
 Alpha  occ. eigenvalues --   -0.48728  -0.48361  -0.45463  -0.45368  -0.44872
 Alpha  occ. eigenvalues --   -0.44129  -0.43240  -0.42946  -0.42092  -0.41570
 Alpha  occ. eigenvalues --   -0.41473  -0.41456  -0.40968  -0.40830  -0.38917
 Alpha  occ. eigenvalues --   -0.38878  -0.37686  -0.37055  -0.36831  -0.35452
 Alpha  occ. eigenvalues --   -0.35051  -0.34091  -0.34081  -0.33298  -0.33289
 Alpha  occ. eigenvalues --   -0.32876  -0.32818  -0.28247  -0.27947  -0.24408
 Alpha  occ. eigenvalues --   -0.24393  -0.19035  -0.18662
 Alpha virt. eigenvalues --    0.00098   0.00128   0.02244   0.02299   0.08086
 Alpha virt. eigenvalues --    0.09279   0.09339   0.10676   0.11126   0.12254
 Alpha virt. eigenvalues --    0.12517   0.13508   0.13781   0.13803   0.14952
 Alpha virt. eigenvalues --    0.15184   0.15387   0.16806   0.17259   0.17914
 Alpha virt. eigenvalues --    0.18110   0.18428   0.18561   0.19033   0.19131
 Alpha virt. eigenvalues --    0.20124   0.20861   0.20902   0.21863   0.23731
 Alpha virt. eigenvalues --    0.24098   0.24335   0.24417   0.25546   0.25612
 Alpha virt. eigenvalues --    0.26301   0.27784   0.29439   0.29589   0.33532
 Alpha virt. eigenvalues --    0.33803   0.34225   0.35014   0.35118   0.35560
 Alpha virt. eigenvalues --    0.37605   0.38473   0.46756   0.47082   0.48365
 Alpha virt. eigenvalues --    0.51039   0.51601   0.52076   0.52375   0.52792
 Alpha virt. eigenvalues --    0.53333   0.53522   0.53549   0.54938   0.55766
 Alpha virt. eigenvalues --    0.56341   0.56783   0.57415   0.57789   0.58310
 Alpha virt. eigenvalues --    0.58990   0.59156   0.60290   0.60356   0.60729
 Alpha virt. eigenvalues --    0.61141   0.61960   0.62648   0.62666   0.64295
 Alpha virt. eigenvalues --    0.64659   0.65309   0.65486   0.66376   0.67330
 Alpha virt. eigenvalues --    0.67725   0.68229   0.69453   0.71064   0.71264
 Alpha virt. eigenvalues --    0.72004   0.72175   0.74477   0.75593   0.75971
 Alpha virt. eigenvalues --    0.76694   0.78415   0.79178   0.79424   0.80521
 Alpha virt. eigenvalues --    0.80935   0.81336   0.82230   0.82757   0.83298
 Alpha virt. eigenvalues --    0.84861   0.85068   0.85625   0.86137   0.87121
 Alpha virt. eigenvalues --    0.87815   0.88254   0.89161   0.89214   0.89371
 Alpha virt. eigenvalues --    0.89829   0.89916   0.90786   0.93056   0.93761
 Alpha virt. eigenvalues --    0.94213   0.94233   0.94784   0.96174   0.96764
 Alpha virt. eigenvalues --    0.97154   0.99284   0.99890   1.00520   1.01011
 Alpha virt. eigenvalues --    1.01464   1.02953   1.04394   1.08436   1.09494
 Alpha virt. eigenvalues --    1.11659   1.12286   1.14257   1.15039   1.17615
 Alpha virt. eigenvalues --    1.18134   1.18459   1.19125   1.20421   1.20611
 Alpha virt. eigenvalues --    1.22577   1.25440   1.27067   1.27823   1.29016
 Alpha virt. eigenvalues --    1.30819   1.30891   1.31988   1.36518   1.37011
 Alpha virt. eigenvalues --    1.39757   1.39900   1.39983   1.41190   1.41464
 Alpha virt. eigenvalues --    1.42297   1.43226   1.43859   1.45110   1.45337
 Alpha virt. eigenvalues --    1.46028   1.49680   1.51730   1.56203   1.60464
 Alpha virt. eigenvalues --    1.61558   1.64567   1.65693   1.70088   1.72709
 Alpha virt. eigenvalues --    1.74111   1.74297   1.74954   1.76867   1.77110
 Alpha virt. eigenvalues --    1.77825   1.78708   1.78939   1.80246   1.80734
 Alpha virt. eigenvalues --    1.82293   1.83510   1.85000   1.85132   1.85682
 Alpha virt. eigenvalues --    1.85793   1.87200   1.87892   1.88612   1.91738
 Alpha virt. eigenvalues --    1.92223   1.93544   1.93752   1.94285   1.94635
 Alpha virt. eigenvalues --    1.97264   1.97306   1.97339   1.97815   1.99869
 Alpha virt. eigenvalues --    2.00975   2.01273   2.03851   2.04020   2.05326
 Alpha virt. eigenvalues --    2.05338   2.07359   2.07747   2.08264   2.08443
 Alpha virt. eigenvalues --    2.10507   2.10542   2.12071   2.12262   2.14088
 Alpha virt. eigenvalues --    2.14467   2.14831   2.16135   2.17975   2.18684
 Alpha virt. eigenvalues --    2.19683   2.20869   2.21432   2.22823   2.24316
 Alpha virt. eigenvalues --    2.24703   2.27045   2.27894   2.28463   2.28989
 Alpha virt. eigenvalues --    2.31235   2.31720   2.32080   2.32743   2.33594
 Alpha virt. eigenvalues --    2.35768   2.36275   2.37577   2.39253   2.39306
 Alpha virt. eigenvalues --    2.40266   2.41944   2.41981   2.42948   2.43626
 Alpha virt. eigenvalues --    2.43669   2.45577   2.45777   2.47312   2.49509
 Alpha virt. eigenvalues --    2.50745   2.52044   2.53221   2.53393   2.55806
 Alpha virt. eigenvalues --    2.56264   2.57050   2.57409   2.59722   2.59822
 Alpha virt. eigenvalues --    2.59942   2.61719   2.62615   2.63502   2.63613
 Alpha virt. eigenvalues --    2.65254   2.65355   2.66657   2.69480   2.70584
 Alpha virt. eigenvalues --    2.72196   2.72407   2.73197   2.73970   2.74120
 Alpha virt. eigenvalues --    2.74672   2.74896   2.78413   2.79410   2.80344
 Alpha virt. eigenvalues --    2.81015   2.82490   2.83928   2.86058   2.88205
 Alpha virt. eigenvalues --    2.88757   2.88854   2.89372   2.90050   2.91135
 Alpha virt. eigenvalues --    2.92278   2.92890   2.94124   2.99327   3.01474
 Alpha virt. eigenvalues --    3.06512   3.06748   3.07837   3.08701   3.19421
 Alpha virt. eigenvalues --    3.19496   3.20551   3.20879   3.25323   3.25886
 Alpha virt. eigenvalues --    3.26247   3.28217   3.30072   3.32336   3.32422
 Alpha virt. eigenvalues --    3.35394   3.37439   3.38385   3.42679   3.42781
 Alpha virt. eigenvalues --    3.44131   3.44144   3.46839   3.47710   3.49988
 Alpha virt. eigenvalues --    3.51202   3.52450   3.54482   3.56197   3.58784
 Alpha virt. eigenvalues --    3.83785   3.83821   4.13957   4.14214   4.14457
 Alpha virt. eigenvalues --    4.16376   4.16610   4.18516   4.19695   4.25252
 Alpha virt. eigenvalues --    4.35536   4.38562   4.39325   4.44544   4.44574
 Alpha virt. eigenvalues --    4.47424   4.54424   4.55759   4.64581   4.73897
 Alpha virt. eigenvalues --    4.84889   4.85141
          Condensed to atoms (all electrons):
               1          2          3          4          5          6
     1  C    5.034820   0.356804  -0.063436   0.007566   0.000433   0.000001
     2  C    0.356804   4.709806   0.550947  -0.034765  -0.029475   0.000464
     3  C   -0.063436   0.550947   4.897420   0.506372  -0.022329   0.004780
     4  C    0.007566  -0.034765   0.506372   5.005884   0.524165  -0.067769
     5  C    0.000433  -0.029475  -0.022329   0.524165   4.571919   0.287591
     6  N    0.000001   0.000464   0.004780  -0.067769   0.287591   6.938734
     7  C   -0.000000  -0.000015  -0.000135   0.005420  -0.037444   0.297327
     8  C    0.000000   0.000005   0.000004   0.000182   0.000464  -0.070152
     9  C    0.000000   0.000000  -0.000000  -0.000008  -0.000160   0.005140
    10  C   -0.000000   0.000000  -0.000000   0.000000  -0.000009   0.000057
    11  N   -0.000000  -0.000000  -0.000000   0.000000   0.000000  -0.000000
    12  C    0.000000   0.000000  -0.000000  -0.000000  -0.000000   0.000000
    13  C   -0.000000  -0.000000   0.000000   0.000000  -0.000000   0.000000
    14  C    0.000000   0.000000  -0.000000  -0.000000   0.000000   0.000000
    15  C    0.000000   0.000000  -0.000000  -0.000000   0.000000  -0.000000
    16  C    0.000000   0.000000   0.000000  -0.000000   0.000000  -0.000000
    17  C    0.000000  -0.000000   0.000000   0.000000  -0.000000  -0.000000
    18  C   -0.000000  -0.000000   0.000000  -0.000000  -0.000000   0.000000
    19  C    0.007488  -0.034040  -0.050274  -0.048676   0.530775  -0.071354
    20  C   -0.064654   0.553078  -0.024929  -0.050800  -0.023196   0.004989
    21  H    0.374451  -0.031253  -0.001926  -0.000115   0.000013  -0.000000
    22  H    0.373775  -0.029209  -0.003913   0.000130   0.000023  -0.000000
    23  H    0.373877  -0.029189   0.003085  -0.000254   0.000029   0.000000
    24  H   -0.009735  -0.043916   0.367821  -0.040007   0.003901  -0.000106
    25  H   -0.000199   0.004106  -0.033731   0.361075  -0.045828  -0.008485
    26  H   -0.000000  -0.000010   0.000037  -0.011145  -0.029320   0.349809
    27  H    0.000000  -0.000005   0.000005  -0.000134  -0.009867  -0.028578
    28  H   -0.000000   0.000000   0.000002  -0.000215   0.004355  -0.033963
    29  H   -0.000000   0.000003  -0.000030  -0.000009   0.006477  -0.005456
    30  H   -0.000000  -0.000000  -0.000000  -0.000091  -0.000607  -0.001582
    31  H    0.000000   0.000000  -0.000000  -0.000000   0.000009   0.000105
    32  H    0.000000  -0.000000   0.000000   0.000000   0.000007  -0.000162
    33  H   -0.000000   0.000000  -0.000000   0.000000   0.000024  -0.000071
    34  H   -0.000000   0.000000  -0.000000   0.000000  -0.000004  -0.000010
    35  H   -0.000000   0.000000  -0.000000   0.000000   0.000000  -0.000000
    36  H    0.000000  -0.000000   0.000000  -0.000000  -0.000000  -0.000000
    37  H   -0.000000   0.000000  -0.000000   0.000000   0.000000   0.000000
    38  H    0.000000   0.000000   0.000000   0.000000   0.000000  -0.000000
    39  H    0.000000   0.000000   0.000000  -0.000000  -0.000000  -0.000000
    40  H    0.000000   0.000000   0.000000   0.000000   0.000000   0.000000
    41  H    0.000000   0.000000   0.000000   0.000000  -0.000000   0.000000
    42  H    0.000000   0.000000  -0.000000  -0.000000  -0.000000   0.000000
    43  H   -0.000202   0.004029   0.000754   0.005285  -0.041929  -0.008926
    44  H   -0.009362  -0.044718   0.005694   0.000620   0.003817  -0.000110
               7          8          9         10         11         12
     1  C   -0.000000   0.000000   0.000000  -0.000000  -0.000000   0.000000
     2  C   -0.000015   0.000005   0.000000   0.000000  -0.000000   0.000000
     3  C   -0.000135   0.000004  -0.000000  -0.000000  -0.000000  -0.000000
     4  C    0.005420   0.000182  -0.000008   0.000000   0.000000  -0.000000
     5  C   -0.037444   0.000464  -0.000160  -0.000009   0.000000  -0.000000
     6  N    0.297327  -0.070152   0.005140   0.000057  -0.000000   0.000000
     7  C    4.814827   0.372327  -0.039459  -0.004647   0.000059  -0.000009
     8  C    0.372327   5.004964   0.318641  -0.039468   0.005124  -0.000158
     9  C   -0.039459   0.318641   5.005132   0.372247  -0.070144   0.000489
    10  C   -0.004647  -0.039468   0.372247   4.814855   0.297405  -0.037463
    11  N    0.000059   0.005124  -0.070144   0.297405   6.938697   0.287445
    12  C   -0.000009  -0.000158   0.000489  -0.037463   0.287445   4.572441
    13  C   -0.000021   0.000010  -0.002832  -0.004061  -0.071464   0.531489
    14  C   -0.000000   0.000004  -0.000106   0.000019   0.005000  -0.023210
    15  C    0.000000   0.000000   0.000006  -0.000015   0.000465  -0.029484
    16  C   -0.000000   0.000000   0.000000  -0.000000   0.000001   0.000435
    17  C   -0.000000  -0.000000   0.000004  -0.000135   0.004780  -0.022340
    18  C    0.000000  -0.000008   0.000185   0.005411  -0.067642   0.523621
    19  C   -0.004096  -0.002797   0.000009  -0.000022   0.000000  -0.000000
    20  C    0.000023  -0.000105   0.000004  -0.000000   0.000000   0.000000
    21  H    0.000000  -0.000000  -0.000000   0.000000  -0.000000  -0.000000
    22  H    0.000000  -0.000000   0.000000   0.000000   0.000000  -0.000000
    23  H   -0.000000   0.000000   0.000000  -0.000000  -0.000000   0.000000
    24  H    0.000002  -0.000000   0.000000   0.000000   0.000000  -0.000000
    25  H    0.000091   0.000004  -0.000000  -0.000000   0.000000  -0.000000
    26  H   -0.039927  -0.001952  -0.000019   0.000004  -0.000000   0.000000
    27  H    0.385714  -0.048445  -0.000353   0.002008  -0.000071   0.000024
    28  H    0.385303  -0.048473  -0.001401  -0.000505  -0.000010  -0.000004
    29  H   -0.038228   0.384796  -0.038984  -0.007393   0.000106   0.000009
    30  H   -0.037837   0.374920  -0.025563   0.004343  -0.000162   0.000007
    31  H   -0.007359  -0.038948   0.384676  -0.038142  -0.005404   0.006459
    32  H    0.004340  -0.025534   0.375016  -0.037961  -0.001615  -0.000607
    33  H    0.001986  -0.000333  -0.048339   0.385594  -0.028569  -0.009859
    34  H   -0.000511  -0.001454  -0.048579   0.385434  -0.033958   0.004363
    35  H    0.000004  -0.000019  -0.001969  -0.039961   0.349758  -0.029357
    36  H    0.000241  -0.000195  -0.000252   0.003544  -0.008962  -0.042017
    37  H   -0.000000   0.000000  -0.000002   0.000006  -0.000110   0.003801
    38  H   -0.000000   0.000000   0.000000  -0.000000   0.000000   0.000025
    39  H    0.000000  -0.000000  -0.000000   0.000000  -0.000000   0.000013
    40  H    0.000000   0.000000  -0.000000   0.000000  -0.000000   0.000027
    41  H    0.000000   0.000000  -0.000000   0.000002  -0.000106   0.003915
    42  H   -0.000000  -0.000000   0.000004   0.000090  -0.008460  -0.045758
    43  H    0.003489  -0.000230  -0.000198   0.000249  -0.000000  -0.000000
    44  H    0.000006  -0.000002   0.000000  -0.000000   0.000000   0.000000
              13         14         15         16         17         18
     1  C   -0.000000   0.000000   0.000000   0.000000   0.000000  -0.000000
     2  C   -0.000000   0.000000   0.000000   0.000000  -0.000000  -0.000000
     3  C    0.000000  -0.000000  -0.000000   0.000000   0.000000   0.000000
     4  C    0.000000  -0.000000  -0.000000  -0.000000   0.000000  -0.000000
     5  C   -0.000000   0.000000   0.000000   0.000000  -0.000000  -0.000000
     6  N    0.000000   0.000000  -0.000000  -0.000000  -0.000000   0.000000
     7  C   -0.000021  -0.000000   0.000000  -0.000000  -0.000000   0.000000
     8  C    0.000010   0.000004   0.000000   0.000000  -0.000000  -0.000008
     9  C   -0.002832  -0.000106   0.000006   0.000000   0.000004   0.000185
    10  C   -0.004061   0.000019  -0.000015  -0.000000  -0.000135   0.005411
    11  N   -0.071464   0.005000   0.000465   0.000001   0.004780  -0.067642
    12  C    0.531489  -0.023210  -0.029484   0.000435  -0.022340   0.523621
    13  C    4.976768   0.498973  -0.034678   0.007625  -0.050506  -0.048652
    14  C    0.498973   4.912435   0.555171  -0.062954  -0.024884  -0.050633
    15  C   -0.034678   0.555171   4.709751   0.356816   0.548904  -0.034129
    16  C    0.007625  -0.062954   0.356816   5.034915  -0.065144   0.007430
    17  C   -0.050506  -0.024884   0.548904  -0.065144   4.899500   0.506956
    18  C   -0.048652  -0.050633  -0.034129   0.007430   0.506956   5.004645
    19  C    0.000000  -0.000000  -0.000000  -0.000000   0.000000   0.000000
    20  C   -0.000000  -0.000000   0.000000   0.000000  -0.000000  -0.000000
    21  H    0.000000   0.000000   0.000000   0.000000   0.000000  -0.000000
    22  H   -0.000000   0.000000   0.000000   0.000000   0.000000   0.000000
    23  H   -0.000000   0.000000   0.000000   0.000000   0.000000   0.000000
    24  H    0.000000  -0.000000   0.000000   0.000000   0.000000   0.000000
    25  H   -0.000000   0.000000   0.000000   0.000000  -0.000000  -0.000000
    26  H   -0.000000  -0.000000   0.000000  -0.000000  -0.000000   0.000000
    27  H   -0.000075  -0.000001   0.000000  -0.000000  -0.000000   0.000000
    28  H   -0.000055   0.000000   0.000000  -0.000000  -0.000000   0.000000
    29  H   -0.000005  -0.000000   0.000000   0.000000  -0.000000  -0.000000
    30  H    0.000001  -0.000000  -0.000000   0.000000   0.000000   0.000000
    31  H    0.002889  -0.000205   0.000003  -0.000000  -0.000031  -0.000008
    32  H    0.000135   0.000007  -0.000000  -0.000000  -0.000000  -0.000094
    33  H    0.004570   0.000190  -0.000005   0.000000   0.000005  -0.000137
    34  H    0.000139  -0.000006   0.000000  -0.000000   0.000002  -0.000214
    35  H    0.006349  -0.000088  -0.000010  -0.000000   0.000037  -0.011168
    36  H    0.360641  -0.034882   0.004060  -0.000203   0.000760   0.005281
    37  H   -0.039347   0.367372  -0.043861  -0.009620   0.005737   0.000617
    38  H    0.000080  -0.004143  -0.029059   0.373857   0.003301  -0.000250
    39  H   -0.000081  -0.001981  -0.031239   0.374393  -0.002235  -0.000092
    40  H   -0.000258   0.003045  -0.029432   0.373734  -0.003835   0.000117
    41  H    0.000494   0.005807  -0.044782  -0.009483   0.368256  -0.039768
    42  H    0.005423   0.000736   0.004073  -0.000197  -0.033792   0.361123
    43  H    0.000000   0.000000  -0.000000   0.000000   0.000000  -0.000000
    44  H    0.000000  -0.000000   0.000000  -0.000000  -0.000000   0.000000
              19         20         21         22         23         24
     1  C    0.007488  -0.064654   0.374451   0.373775   0.373877  -0.009735
     2  C   -0.034040   0.553078  -0.031253  -0.029209  -0.029189  -0.043916
     3  C   -0.050274  -0.024929  -0.001926  -0.003913   0.003085   0.367821
     4  C   -0.048676  -0.050800  -0.000115   0.000130  -0.000254  -0.040007
     5  C    0.530775  -0.023196   0.000013   0.000023   0.000029   0.003901
     6  N   -0.071354   0.004989  -0.000000  -0.000000   0.000000  -0.000106
     7  C   -0.004096   0.000023   0.000000   0.000000  -0.000000   0.000002
     8  C   -0.002797  -0.000105  -0.000000  -0.000000   0.000000  -0.000000
     9  C    0.000009   0.000004  -0.000000   0.000000   0.000000   0.000000
    10  C   -0.000022  -0.000000   0.000000   0.000000  -0.000000   0.000000
    11  N    0.000000   0.000000  -0.000000   0.000000  -0.000000   0.000000
    12  C   -0.000000   0.000000  -0.000000  -0.000000   0.000000  -0.000000
    13  C    0.000000  -0.000000   0.000000  -0.000000  -0.000000   0.000000
    14  C   -0.000000  -0.000000   0.000000   0.000000   0.000000  -0.000000
    15  C   -0.000000   0.000000   0.000000   0.000000   0.000000   0.000000
    16  C   -0.000000   0.000000   0.000000   0.000000   0.000000   0.000000
    17  C    0.000000  -0.000000   0.000000   0.000000   0.000000   0.000000
    18  C    0.000000  -0.000000  -0.000000   0.000000   0.000000   0.000000
    19  C    4.975970   0.499625  -0.000057  -0.000251   0.000064   0.000487
    20  C    0.499625   4.914499  -0.002304   0.003268  -0.004072   0.005853
    21  H   -0.000057  -0.002304   0.597585  -0.030315  -0.030552   0.000533
    22  H   -0.000251   0.003268  -0.030315   0.598504  -0.029225   0.005019
    23  H    0.000064  -0.004072  -0.030552  -0.029225   0.598348   0.000055
    24  H    0.000487   0.005853   0.000533   0.005019   0.000055   0.628542
    25  H    0.005414   0.000741   0.000004  -0.000008   0.000003  -0.006305
    26  H    0.006334  -0.000087  -0.000000   0.000000   0.000000  -0.000011
    27  H    0.004577   0.000191  -0.000000   0.000000   0.000000   0.000000
    28  H    0.000142  -0.000006  -0.000000   0.000000  -0.000000  -0.000000
    29  H    0.002874  -0.000203   0.000000  -0.000000  -0.000000  -0.000000
    30  H    0.000131   0.000007  -0.000000   0.000000   0.000000   0.000000
    31  H   -0.000005  -0.000000  -0.000000   0.000000   0.000000  -0.000000
    32  H    0.000001  -0.000000   0.000000  -0.000000  -0.000000  -0.000000
    33  H   -0.000078  -0.000001   0.000000  -0.000000  -0.000000  -0.000000
    34  H   -0.000055   0.000000  -0.000000   0.000000   0.000000  -0.000000
    35  H   -0.000000  -0.000000   0.000000  -0.000000  -0.000000  -0.000000
    36  H    0.000000   0.000000  -0.000000   0.000000   0.000000  -0.000000
    37  H    0.000000  -0.000000   0.000000   0.000000  -0.000000   0.000000
    38  H   -0.000000   0.000000   0.000000   0.000000   0.000000   0.000000
    39  H    0.000000   0.000000   0.000000   0.000000   0.000000   0.000000
    40  H   -0.000000   0.000000   0.000000   0.000000   0.000000   0.000000
    41  H    0.000000  -0.000000   0.000000   0.000000   0.000000   0.000000
    42  H   -0.000000   0.000000  -0.000000   0.000000   0.000000  -0.000000
    43  H    0.360712  -0.034952   0.000003   0.000003  -0.000008   0.000017
    44  H   -0.039116   0.367806   0.000675   0.000048   0.004608  -0.000184
              25         26         27         28         29         30
     1  C   -0.000199  -0.000000   0.000000  -0.000000  -0.000000  -0.000000
     2  C    0.004106  -0.000010  -0.000005   0.000000   0.000003  -0.000000
     3  C   -0.033731   0.000037   0.000005   0.000002  -0.000030  -0.000000
     4  C    0.361075  -0.011145  -0.000134  -0.000215  -0.000009  -0.000091
     5  C   -0.045828  -0.029320  -0.009867   0.004355   0.006477  -0.000607
     6  N   -0.008485   0.349809  -0.028578  -0.033963  -0.005456  -0.001582
     7  C    0.000091  -0.039927   0.385714   0.385303  -0.038228  -0.037837
     8  C    0.000004  -0.001952  -0.048445  -0.048473   0.384796   0.374920
     9  C   -0.000000  -0.000019  -0.000353  -0.001401  -0.038984  -0.025563
    10  C   -0.000000   0.000004   0.002008  -0.000505  -0.007393   0.004343
    11  N    0.000000  -0.000000  -0.000071  -0.000010   0.000106  -0.000162
    12  C   -0.000000   0.000000   0.000024  -0.000004   0.000009   0.000007
    13  C   -0.000000  -0.000000  -0.000075  -0.000055  -0.000005   0.000001
    14  C    0.000000  -0.000000  -0.000001   0.000000  -0.000000  -0.000000
    15  C    0.000000   0.000000   0.000000   0.000000   0.000000  -0.000000
    16  C    0.000000  -0.000000  -0.000000  -0.000000   0.000000   0.000000
    17  C   -0.000000  -0.000000  -0.000000  -0.000000  -0.000000   0.000000
    18  C   -0.000000   0.000000   0.000000   0.000000  -0.000000   0.000000
    19  C    0.005414   0.006334   0.004577   0.000142   0.002874   0.000131
    20  C    0.000741  -0.000087   0.000191  -0.000006  -0.000203   0.000007
    21  H    0.000004  -0.000000  -0.000000  -0.000000   0.000000  -0.000000
    22  H   -0.000008   0.000000   0.000000   0.000000  -0.000000   0.000000
    23  H    0.000003   0.000000   0.000000  -0.000000  -0.000000   0.000000
    24  H   -0.006305  -0.000011   0.000000  -0.000000  -0.000000   0.000000
    25  H    0.630151   0.006061  -0.000001  -0.000013   0.000004  -0.000010
    26  H    0.006061   0.448640   0.005199  -0.004391  -0.000550   0.004591
    27  H   -0.000001   0.005199   0.602029  -0.034409  -0.005958   0.005554
    28  H   -0.000013  -0.004391  -0.034409   0.615200   0.005661  -0.006243
    29  H    0.000004  -0.000550  -0.005958   0.005661   0.623271  -0.038097
    30  H   -0.000010   0.004591   0.005554  -0.006243  -0.038097   0.631694
    31  H    0.000000   0.000005  -0.000084   0.005739   0.005548  -0.002623
    32  H    0.000000  -0.000004  -0.000156  -0.000076  -0.002624  -0.006016
    33  H    0.000000  -0.000003   0.000293   0.000053  -0.000079  -0.000159
    34  H   -0.000000   0.000000   0.000047   0.000051   0.005791  -0.000073
    35  H    0.000000  -0.000000  -0.000003   0.000000   0.000005  -0.000004
    36  H   -0.000000   0.000000   0.000248   0.000237   0.000003   0.000002
    37  H   -0.000000  -0.000000  -0.000000  -0.000000  -0.000000  -0.000000
    38  H    0.000000  -0.000000  -0.000000   0.000000   0.000000  -0.000000
[...]
   184    C   13  S      Ryd( 4S)     0.00004
   185    C   13  px     Val( 2p)     1.17653
   186    C   13  px     Ryd( 3p)     0.00362
   187    C   13  py     Val( 2p)     1.08460
   188    C   13  py     Ryd( 3p)     0.00458
   189    C   13  pz     Val( 2p)     1.11047
   190    C   13  pz     Ryd( 3p)     0.00450
   191    C   13  dxy    Ryd( 3d)     0.00050
   192    C   13  dxz    Ryd( 3d)     0.00047
   193    C   13  dyz    Ryd( 3d)     0.00045
   194    C   13  dx2y2  Ryd( 3d)     0.00065
   195    C   13  dz2    Ryd( 3d)     0.00042

   196    C   14  S      Cor( 1S)     1.99906
   197    C   14  S      Val( 2S)     0.94650
   198    C   14  S      Ryd( 3S)     0.00064
   199    C   14  S      Ryd( 4S)     0.00004
   200    C   14  px     Val( 2p)     1.05949
   201    C   14  px     Ryd( 3p)     0.00428
   202    C   14  py     Val( 2p)     1.16021
   203    C   14  py     Ryd( 3p)     0.00446
   204    C   14  pz     Val( 2p)     1.10250
   205    C   14  pz     Ryd( 3p)     0.00385
   206    C   14  dxy    Ryd( 3d)     0.00061
   207    C   14  dxz    Ryd( 3d)     0.00061
   208    C   14  dyz    Ryd( 3d)     0.00048
   209    C   14  dx2y2  Ryd( 3d)     0.00061
   210    C   14  dz2    Ryd( 3d)     0.00032

   211    C   15  S      Cor( 1S)     1.99903
   212    C   15  S      Val( 2S)     0.88732
   213    C   15  S      Ryd( 3S)     0.00043
   214    C   15  S      Ryd( 4S)     0.00005
   215    C   15  px     Val( 2p)     1.06799
   216    C   15  px     Ryd( 3p)     0.00452
   217    C   15  py     Val( 2p)     1.04773
   218    C   15  py     Ryd( 3p)     0.00380
   219    C   15  pz     Val( 2p)     0.99819
   220    C   15  pz     Ryd( 3p)     0.00261
   221    C   15  dxy    Ryd( 3d)     0.00070
   222    C   15  dxz    Ryd( 3d)     0.00066
   223    C   15  dyz    Ryd( 3d)     0.00050
   224    C   15  dx2y2  Ryd( 3d)     0.00075
   225    C   15  dz2    Ryd( 3d)     0.00059

   226    C   16  S      Cor( 1S)     1.99939
   227    C   16  S      Val( 2S)     1.09941
   228    C   16  S      Ryd( 3S)     0.00020
   229    C   16  S      Ryd( 4S)     0.00001
   230    C   16  px     Val( 2p)     1.14692
   231    C   16  px     Ryd( 3p)     0.00141
   232    C   16  py     Val( 2p)     1.20924
   233    C   16  py     Ryd( 3p)     0.00167
   234    C   16  pz     Val( 2p)     1.24232
   235    C   16  pz     Ryd( 3p)     0.00090
   236    C   16  dxy    Ryd( 3d)     0.00071
   237    C   16  dxz    Ryd( 3d)     0.00069
   238    C   16  dyz    Ryd( 3d)     0.00071
   239    C   16  dx2y2  Ryd( 3d)     0.00039
   240    C   16  dz2    Ryd( 3d)     0.00033

   241    C   17  S      Cor( 1S)     1.99905
   242    C   17  S      Val( 2S)     0.94525
   243    C   17  S      Ryd( 3S)     0.00065
   244    C   17  S      Ryd( 4S)     0.00004
   245    C   17  px     Val( 2p)     1.16676
   246    C   17  px     Ryd( 3p)     0.00451
   247    C   17  py     Val( 2p)     1.08102
   248    C   17  py     Ryd( 3p)     0.00428
   249    C   17  pz     Val( 2p)     1.08686
   250    C   17  pz     Ryd( 3p)     0.00401
   251    C   17  dxy    Ryd( 3d)     0.00060
   252    C   17  dxz    Ryd( 3d)     0.00051
   253    C   17  dyz    Ryd( 3d)     0.00043
   254    C   17  dx2y2  Ryd( 3d)     0.00062
   255    C   17  dz2    Ryd( 3d)     0.00043

   256    C   18  S      Cor( 1S)     1.99907
   257    C   18  S      Val( 2S)     0.94770
   258    C   18  S      Ryd( 3S)     0.00070
   259    C   18  S      Ryd( 4S)     0.00004
   260    C   18  px     Val( 2p)     1.05250
   261    C   18  px     Ryd( 3p)     0.00451
   262    C   18  py     Val( 2p)     1.17208
   263    C   18  py     Ryd( 3p)     0.00429
   264    C   18  pz     Val( 2p)     1.12962
   265    C   18  pz     Ryd( 3p)     0.00441
   266    C   18  dxy    Ryd( 3d)     0.00054
   267    C   18  dxz    Ryd( 3d)     0.00058
   268    C   18  dyz    Ryd( 3d)     0.00048
   269    C   18  dx2y2  Ryd( 3d)     0.00061
   270    C   18  dz2    Ryd( 3d)     0.00033

   271    C   19  S      Cor( 1S)     1.99906
   272    C   19  S      Val( 2S)     0.94618
   273    C   19  S      Ryd( 3S)     0.00066
   274    C   19  S      Ryd( 4S)     0.00004
   275    C   19  px     Val( 2p)     1.17650
   276    C   19  px     Ryd( 3p)     0.00362
   277    C   19  py     Val( 2p)     1.08468
   278    C   19  py     Ryd( 3p)     0.00461
   279    C   19  pz     Val( 2p)     1.11094
   280    C   19  pz     Ryd( 3p)     0.00455
   281    C   19  dxy    Ryd( 3d)     0.00050
   282    C   19  dxz    Ryd( 3d)     0.00047
   283    C   19  dyz    Ryd( 3d)     0.00045
   284    C   19  dx2y2  Ryd( 3d)     0.00065
   285    C   19  dz2    Ryd( 3d)     0.00042

   286    C   20  S      Cor( 1S)     1.99906
   287    C   20  S      Val( 2S)     0.94642
   288    C   20  S      Ryd( 3S)     0.00064
   289    C   20  S      Ryd( 4S)     0.00004
   290    C   20  px     Val( 2p)     1.05942
   291    C   20  px     Ryd( 3p)     0.00429
   292    C   20  py     Val( 2p)     1.16048
   293    C   20  py     Ryd( 3p)     0.00447
   294    C   20  pz     Val( 2p)     1.10341
   295    C   20  pz     Ryd( 3p)     0.00389
   296    C   20  dxy    Ryd( 3d)     0.00061
   297    C   20  dxz    Ryd( 3d)     0.00061
   298    C   20  dyz    Ryd( 3d)     0.00048
   299    C   20  dx2y2  Ryd( 3d)     0.00061
   300    C   20  dz2    Ryd( 3d)     0.00032

   301    H   21  S      Val( 1S)     0.75032
   302    H   21  S      Ryd( 2S)     0.00122
   303    H   21  px     Ryd( 2p)     0.00014
   304    H   21  py     Ryd( 2p)     0.00013
   305    H   21  pz     Ryd( 2p)     0.00027

   306    H   22  S      Val( 1S)     0.75142
   307    H   22  S      Ryd( 2S)     0.00132
   308    H   22  px     Ryd( 2p)     0.00021
   309    H   22  py     Ryd( 2p)     0.00017
   310    H   22  pz     Ryd( 2p)     0.00016

   311    H   23  S      Val( 1S)     0.75695
   312    H   23  S      Ryd( 2S)     0.00084
   313    H   23  px     Ryd( 2p)     0.00008
   314    H   23  py     Ryd( 2p)     0.00025
   315    H   23  pz     Ryd( 2p)     0.00017

   316    H   24  S      Val( 1S)     0.76578
   317    H   24  S      Ryd( 2S)     0.00099
   318    H   24  px     Ryd( 2p)     0.00034
   319    H   24  py     Ryd( 2p)     0.00013
   320    H   24  pz     Ryd( 2p)     0.00017

   321    H   25  S      Val( 1S)     0.76509
   322    H   25  S      Ryd( 2S)     0.00109
   323    H   25  px     Ryd( 2p)     0.00006
   324    H   25  py     Ryd( 2p)     0.00034
   325    H   25  pz     Ryd( 2p)     0.00024

   326    H   26  S      Val( 1S)     0.56893
   327    H   26  S      Ryd( 2S)     0.00226
   328    H   26  px     Ryd( 2p)     0.00018
   329    H   26  py     Ryd( 2p)     0.00048
   330    H   26  pz     Ryd( 2p)     0.00056

   331    H   27  S      Val( 1S)     0.75765
   332    H   27  S      Ryd( 2S)     0.00147
   333    H   27  px     Ryd( 2p)     0.00009
   334    H   27  py     Ryd( 2p)     0.00013
   335    H   27  pz     Ryd( 2p)     0.00034

   336    H   28  S      Val( 1S)     0.74531
   337    H   28  S      Ryd( 2S)     0.00133
   338    H   28  px     Ryd( 2p)     0.00019
   339    H   28  py     Ryd( 2p)     0.00027
   340    H   28  pz     Ryd( 2p)     0.00009

   341    H   29  S      Val( 1S)     0.75498
   342    H   29  S      Ryd( 2S)     0.00241
   343    H   29  px     Ryd( 2p)     0.00021
   344    H   29  py     Ryd( 2p)     0.00025
   345    H   29  pz     Ryd( 2p)     0.00010

   346    H   30  S      Val( 1S)     0.74738
   347    H   30  S      Ryd( 2S)     0.00141
   348    H   30  px     Ryd( 2p)     0.00010
   349    H   30  py     Ryd( 2p)     0.00014
   350    H   30  pz     Ryd( 2p)     0.00031

   351    H   31  S      Val( 1S)     0.75502
   352    H   31  S      Ryd( 2S)     0.00240
   353    H   31  px     Ryd( 2p)     0.00021
   354    H   31  py     Ryd( 2p)     0.00025
   355    H   31  pz     Ryd( 2p)     0.00010

   356    H   32  S      Val( 1S)     0.74738
   357    H   32  S      Ryd( 2S)     0.00141
   358    H   32  px     Ryd( 2p)     0.00010
   359    H   32  py     Ryd( 2p)     0.00014
   360    H   32  pz     Ryd( 2p)     0.00031

   361    H   33  S      Val( 1S)     0.75782
   362    H   33  S      Ryd( 2S)     0.00147
   363    H   33  px     Ryd( 2p)     0.00009
   364    H   33  py     Ryd( 2p)     0.00013
   365    H   33  pz     Ryd( 2p)     0.00034

   366    H   34  S      Val( 1S)     0.74544
   367    H   34  S      Ryd( 2S)     0.00133
   368    H   34  px     Ryd( 2p)     0.00018
   369    H   34  py     Ryd( 2p)     0.00027
   370    H   34  pz     Ryd( 2p)     0.00009

   371    H   35  S      Val( 1S)     0.56912
   372    H   35  S      Ryd( 2S)     0.00225
   373    H   35  px     Ryd( 2p)     0.00018
   374    H   35  py     Ryd( 2p)     0.00048
   375    H   35  pz     Ryd( 2p)     0.00056

   376    H   36  S      Val( 1S)     0.76224
   377    H   36  S      Ryd( 2S)     0.00097
   378    H   36  px     Ryd( 2p)     0.00032
   379    H   36  py     Ryd( 2p)     0.00013
   380    H   36  pz     Ryd( 2p)     0.00019

   381    H   37  S      Val( 1S)     0.76520
   382    H   37  S      Ryd( 2S)     0.00101
   383    H   37  px     Ryd( 2p)     0.00006
   384    H   37  py     Ryd( 2p)     0.00034
   385    H   37  pz     Ryd( 2p)     0.00023

   386    H   38  S      Val( 1S)     0.75696
   387    H   38  S      Ryd( 2S)     0.00083
   388    H   38  px     Ryd( 2p)     0.00008
   389    H   38  py     Ryd( 2p)     0.00025
   390    H   38  pz     Ryd( 2p)     0.00017

   391    H   39  S      Val( 1S)     0.75042
   392    H   39  S      Ryd( 2S)     0.00121
   393    H   39  px     Ryd( 2p)     0.00014
   394    H   39  py     Ryd( 2p)     0.00013
   395    H   39  pz     Ryd( 2p)     0.00027

   396    H   40  S      Val( 1S)     0.75146
   397    H   40  S      Ryd( 2S)     0.00131
   398    H   40  px     Ryd( 2p)     0.00021
   399    H   40  py     Ryd( 2p)     0.00017
   400    H   40  pz     Ryd( 2p)     0.00016

   401    H   41  S      Val( 1S)     0.76562
   402    H   41  S      Ryd( 2S)     0.00099
   403    H   41  px     Ryd( 2p)     0.00034
   404    H   41  py     Ryd( 2p)     0.00013
   405    H   41  pz     Ryd( 2p)     0.00017

   406    H   42  S      Val( 1S)     0.76495
   407    H   42  S      Ryd( 2S)     0.00109
   408    H   42  px     Ryd( 2p)     0.00006
   409    H   42  py     Ryd( 2p)     0.00034
   410    H   42  pz     Ryd( 2p)     0.00024

   411    H   43  S      Val( 1S)     0.76235
   412    H   43  S      Ryd( 2S)     0.00097
   413    H   43  px     Ryd( 2p)     0.00032
   414    H   43  py     Ryd( 2p)     0.00013
   415    H   43  pz     Ryd( 2p)     0.00019

   416    H   44  S      Val( 1S)     0.76534
   417    H   44  S      Ryd( 2S)     0.00101
   418    H   44  px     Ryd( 2p)     0.00006
   419    H   44  py     Ryd( 2p)     0.00034
   420    H   44  pz     Ryd( 2p)     0.00023

 WARNING:  1 low occupancy (<1.9990e) core orbital  found on  C    5
           1 low occupancy (<1.9990e) core orbital  found on  C   12


 Summary of Natural Population Analysis:                  
                                                          
                                       Natural Population 
                Natural  -----------------------------------------------
    Atom  No    Charge         Core      Valence    Rydberg      Total
 -----------------------------------------------------------------------
      C    1   -0.70439      1.99939     4.69796    0.00703     6.70439
      C    2   -0.01368      1.99903     4.00004    0.01461     6.01368
      C    3   -0.29631      1.99906     4.28111    0.01614     6.29631
      C    4   -0.31810      1.99907     4.30247    0.01656     6.31810
      C    5    0.16402      1.99899     3.81824    0.01875     5.83598
      N    6   -0.54100      1.99941     5.52976    0.01183     7.54100
      C    7   -0.27689      1.99932     4.26132    0.01625     6.27689
      C    8   -0.48046      1.99932     4.47010    0.01104     6.48046
      C    9   -0.48052      1.99932     4.47016    0.01104     6.48052
      C   10   -0.27674      1.99932     4.26117    0.01625     6.27674
      N   11   -0.54292      1.99941     5.53167    0.01184     7.54292
      C   12    0.16400      1.99899     3.81827    0.01874     5.83600
      C   13   -0.33281      1.99906     4.31784    0.01591     6.33281
      C   14   -0.28367      1.99906     4.26870    0.01591     6.28367
      C   15   -0.01485      1.99903     4.00122    0.01460     6.01485
      C   16   -0.70430      1.99939     4.69788    0.00703     6.70430
      C   17   -0.29503      1.99905     4.27989    0.01608     6.29503
      C   18   -0.31746      1.99907     4.30190    0.01649     6.31746
      C   19   -0.33333      1.99906     4.31829    0.01598     6.33333
      C   20   -0.28475      1.99906     4.26973    0.01597     6.28475
      H   21    0.24792      0.00000     0.75032    0.00175     0.75208
      H   22    0.24672      0.00000     0.75142    0.00186     0.75328
      H   23    0.24172      0.00000     0.75695    0.00133     0.75828
      H   24    0.23260      0.00000     0.76578    0.00162     0.76740
      H   25    0.23319      0.00000     0.76509    0.00173     0.76681
      H   26    0.42759      0.00000     0.56893    0.00348     0.57241
      H   27    0.24033      0.00000     0.75765    0.00203     0.75967
      H   28    0.25282      0.00000     0.74531    0.00187     0.74718
      H   29    0.24206      0.00000     0.75498    0.00297     0.75794
      H   30    0.25066      0.00000     0.74738    0.00196     0.74934
      H   31    0.24203      0.00000     0.75502    0.00295     0.75797
      H   32    0.25065      0.00000     0.74738    0.00196     0.74935
      H   33    0.24015      0.00000     0.75782    0.00202     0.75985
      H   34    0.25269      0.00000     0.74544    0.00187     0.74731
      H   35    0.42741      0.00000     0.56912    0.00347     0.57259
      H   36    0.23614      0.00000     0.76224    0.00162     0.76386
      H   37    0.23316      0.00000     0.76520    0.00163     0.76684
      H   38    0.24171      0.00000     0.75696    0.00133     0.75829
      H   39    0.24783      0.00000     0.75042    0.00175     0.75217
      H   40    0.24669      0.00000     0.75146    0.00185     0.75331
      H   41    0.23275      0.00000     0.76562    0.00162     0.76725
      H   42    0.23332      0.00000     0.76495    0.00172     0.76668
      H   43    0.23603      0.00000     0.76235    0.00162     0.76397
      H   44    0.23303      0.00000     0.76534    0.00163     0.76697
 =======================================================================
   * Total *   -0.00000     39.98342   105.68087    0.33571   146.00000

                                 Natural Population      
 --------------------------------------------------------
   Core                      39.98342 ( 99.9585% of  40)
   Valence                  105.68087 ( 99.6989% of 106)
   Natural Minimal Basis    145.66429 ( 99.7701% of 146)
   Natural Rydberg Basis      0.33571 (  0.2299% of 146)
 --------------------------------------------------------

    Atom  No          Natural Electron Configuration
 ----------------------------------------------------------------------------
      C    1      [core]2S( 1.10)2p( 3.60)
      C    2      [core]2S( 0.89)2p( 3.11)3p( 0.01)
      C    3      [core]2S( 0.95)2p( 3.34)3p( 0.01)
      C    4      [core]2S( 0.95)2p( 3.35)3p( 0.01)
      C    5      [core]2S( 0.84)2p( 2.98)3p( 0.01)
      N    6      [core]2S( 1.27)2p( 4.26)3p( 0.01)
      C    7      [core]2S( 1.02)2p( 3.24)3p( 0.01)
      C    8      [core]2S( 1.05)2p( 3.42)3p( 0.01)
      C    9      [core]2S( 1.05)2p( 3.43)3p( 0.01)
      C   10      [core]2S( 1.02)2p( 3.24)3p( 0.01)
      N   11      [core]2S( 1.27)2p( 4.26)3p( 0.01)
      C   12      [core]2S( 0.84)2p( 2.98)3p( 0.01)
      C   13      [core]2S( 0.95)2p( 3.37)3p( 0.01)
      C   14      [core]2S( 0.95)2p( 3.32)3p( 0.01)
      C   15      [core]2S( 0.89)2p( 3.11)3p( 0.01)
      C   16      [core]2S( 1.10)2p( 3.60)
      C   17      [core]2S( 0.95)2p( 3.33)3p( 0.01)
      C   18      [core]2S( 0.95)2p( 3.35)3p( 0.01)
      C   19      [core]2S( 0.95)2p( 3.37)3p( 0.01)
      C   20      [core]2S( 0.95)2p( 3.32)3p( 0.01)
      H   21            1S( 0.75)
      H   22            1S( 0.75)
      H   23            1S( 0.76)
      H   24            1S( 0.77)
      H   25            1S( 0.77)
      H   26            1S( 0.57)
      H   27            1S( 0.76)
      H   28            1S( 0.75)
      H   29            1S( 0.75)
      H   30            1S( 0.75)
      H   31            1S( 0.76)
      H   32            1S( 0.75)
      H   33            1S( 0.76)
      H   34            1S( 0.75)
      H   35            1S( 0.57)
      H   36            1S( 0.76)
      H   37            1S( 0.77)
      H   38            1S( 0.76)
      H   39            1S( 0.75)
      H   40            1S( 0.75)
      H   41            1S( 0.77)
      H   42            1S( 0.76)
      H   43            1S( 0.76)
      H   44            1S( 0.77)


 NBO analysis skipped by request.
 1\1\GINC-DRG2-W001\SP\RB3LYP TD-FC\6-31G(d,p)\C18H24N2\QDUEZ\18-Jul-20
 24\0\\# TD(NStates=10, Root=1) B3LYP/6-31G** SCRF=(Solvent=water) volu
 me pop=NPA density=current Geom=AllCheck Guess=Read\\IXVDJDOFHBHDMT-UH
 FFFAOYSA-N_conf_0\\0,1\C,0,7.2326920407,0.5707842013,1.1973797981\C,0,
 5.9175886655,-0.0715649818,0.8210793711\C,0,5.8740107223,-1.2385248626
 ,0.04032014\C,0,4.670381898,-1.8327285119,-0.3190809429\C,0,3.43555925
 92,-1.2853675734,0.0919454771\N,0,2.2529990654,-1.9482903414,-0.232096
 8896\C,0,0.9483128849,-1.2964542123,-0.2087010312\C,0,0.7288092108,-0.
 2485876923,-1.3156757182\C,0,-0.674676462,0.3780475971,-1.313886581\C,
 0,-0.937219871,1.32297018,-0.1265403228\N,0,-2.2412113632,1.9764690215
 ,-0.1403037477\C,0,-3.4339529019,1.2891837289,0.0786150376\C,0,-3.4966
 615155,0.0526518732,0.7471521208\C,0,-4.7284836651,-0.5562028219,0.999
 9035345\C,0,-5.9394863697,0.0191399754,0.6027476938\C,0,-7.2666897574,
 -0.6519835293,0.8707698567\C,0,-5.8686792637,1.2512192958,-0.068259863
 5\C,0,-4.6534459068,1.8731971544,-0.3277134999\C,0,3.471130731,-0.1137
 569636,0.8703750118\C,0,4.6916065614,0.467947496,1.222549772\H,0,7.776
 3905805,0.9303569996,0.3150777709\H,0,7.8956626108,-0.1349575049,1.711
 5785954\H,0,7.0798346599,1.4265106145,1.8612539672\H,0,6.8038234213,-1
 .6919194314,-0.2966003289\H,0,4.6737011796,-2.7375683779,-0.9226124902
 \H,0,2.3588732517,-2.6072407641,-0.9929878904\H,0,0.7996257821,-0.8553
 976684,0.7822627921\H,0,0.1939132982,-2.0855920983,-0.3040702139\H,0,1
 .4879347008,0.5391435897,-1.2271150962\H,0,0.9013381038,-0.7365220311,
 -2.2830528821\H,0,-1.4352605352,-0.4131732563,-1.3246798624\H,0,-0.811
 6960128,0.9509175119,-2.2394731459\H,0,-0.8249863187,0.7947201219,0.82
 58267906\H,0,-0.1811078606,2.1162113821,-0.1225758268\H,0,-2.319644581
 5,2.7010588542,-0.8425843237\H,0,-2.5886494269,-0.4414113244,1.0749876
 878\H,0,-4.7387319077,-1.5117950922,1.5195019424\H,0,-7.1370764115,-1.
 5653650342,1.4583881398\H,0,-7.7777673368,-0.9277669043,-0.0598627862\
 H,0,-7.948537333,0.0051081886,1.4233471312\H,0,-6.7859888344,1.7344867
 481,-0.3978500061\H,0,-4.6356935839,2.8284105471,-0.8475681074\H,0,2.5
 506584298,0.3504812798,1.2069376532\H,0,4.6808001614,1.3731546168,1.82
 56482824\\Version=ES64L-G16RevA.03\State=1-A\HF=-809.9291455\RMSD=3.29
 0e-09\Dipole=0.0092549,0.0531665,-1.2542736\Quadrupole=-14.9327374,10.
 8124504,4.120287,2.2884379,-0.259362,0.3397712\PG=C01 [X(C18H24N2)]\\@


 Cherishing children is the mark of a civilized society.
 -- Joan Ganz Cooney
 Job cpu time:       0 days  1 hours 21 minutes 45.9 seconds.
 Elapsed time:       0 days  0 hours 27 minutes 20.5 seconds.
 File lengths (MBytes):  RWF=   1396 Int=      0 D2E=      0 Chk=     88 Scr=      1
 Normal termination of Gaussian 16 at Thu Jul 18 04:37:06 2024.
