 Entering Gaussian System, Link 0=g16
 Initial command:
 /opt/sw/arch/manual/gaussian/G16_A03/g16/l1.exe "/scratch/1380874/Gau-190713.inp" -scrdir="/scratch/1380874/"
 Entering Link 1 = /opt/sw/arch/manual/gaussian/G16_A03/g16/l1.exe PID=    190714.
  
 Copyright (c) 1988,1990,1992,1993,1995,1998,2003,2009,2016,
            Gaussian, Inc.  All Rights Reserved.
  
 This is part of the Gaussian(R) 16 program.  It is based on
 the Gaussian(R) 09 system (copyright 2009, Gaussian, Inc.),
 the Gaussian(R) 03 system (copyright 2003, Gaussian, Inc.),
 the Gaussian(R) 98 system (copyright 1998, Gaussian, Inc.),
 the Gaussian(R) 94 system (copyright 1995, Gaussian, Inc.),
 the Gaussian 92(TM) system (copyright 1992, Gaussian, Inc.),
 the Gaussian 90(TM) system (copyright 1990, Gaussian, Inc.),
 the Gaussian 88(TM) system (copyright 1988, Gaussian, Inc.),
 the Gaussian 86(TM) system (copyright 1986, Carnegie Mellon
 University), and the Gaussian 82(TM) system (copyright 1983,
 Carnegie Mellon University). Gaussian is a federally registered
 trademark of Gaussian, Inc.
  
 This software contains proprietary and confidential information,
 including trade secrets, belonging to Gaussian, Inc.
  
 This software is provided under written license and may be
 used, copied, transmitted, or stored only in accord with that
 written license.
  
 The following legend is applicable only to US Government
 contracts under FAR:
  
                    RESTRICTED RIGHTS LEGEND
  
 Use, reproduction and disclosure by the US Government is
 subject to restrictions as set forth in subparagraphs (a)
 and (c) of the Commercial Computer Software - Restricted
 Rights clause in FAR 52.227-19.
  
 Gaussian, Inc.
 340 Quinnipiac St., Bldg. 40, Wallingford CT 06492
  
  
 ---------------------------------------------------------------
 Warning -- This program may not be used in any manner that
 competes with the business of Gaussian, Inc. or will provide
 assistance to any competitor of Gaussian, Inc.  The licensee
 of this program is prohibited from giving any competitor of
 Gaussian, Inc. access to this program.  By using this program,
 the user acknowledges that Gaussian, Inc. is engaged in the
 business of creating and licensing software in the field of
 computational chemistry and represents and warrants to the
 licensee that it is not a competitor of Gaussian, Inc. and that
 it will not use this program in any manner prohibited above.
 ---------------------------------------------------------------
  

 Cite this work as:
 Gaussian 16, Revision A.03,
 M. J. Frisch, G. W. Trucks, H. B. Schlegel, G. E. Scuseria, 
 M. A. Robb, J. R. Cheeseman, G. Scalmani, V. Barone, 
 G. A. Petersson, H. Nakatsuji, X. Li, M. Caricato, A. V. Marenich, 
 J. Bloino, B. G. Janesko, R. Gomperts, B. Mennucci, H. P. Hratchian, 
 J. V. Ortiz, A. F. Izmaylov, J. L. Sonnenberg, D. Williams-Young, 
 F. Ding, F. Lipparini, F. Egidi, J. Goings, B. Peng, A. Petrone, 
 T. Henderson, D. Ranasinghe, V. G. Zakrzewski, J. Gao, N. Rega, 
 G. Zheng, W. Liang, M. Hada, M. Ehara, K. Toyota, R. Fukuda, 
 J. Hasegawa, M. Ishida, T. Nakajima, Y. Honda, O. Kitao, H. Nakai, 
 T. Vreven, K. Throssell, J. A. Montgomery, Jr., J. E. Peralta, 
 F. Ogliaro, M. J. Bearpark, J. J. Heyd, E. N. Brothers, K. N. Kudin, 
 V. N. Staroverov, T. A. Keith, R. Kobayashi, J. Normand, 
 K. Raghavachari, A. P. Rendell, J. C. Burant, S. S. Iyengar, 
 J. Tomasi, M. Cossi, J. M. Millam, M. Klene, C. Adamo, R. Cammi, 
 J. W. Ochterski, R. L. Martin, K. Morokuma, O. Farkas, 
 J. B. Foresman, and D. J. Fox, Gaussian, Inc., Wallingford CT, 2016.
 
 ******************************************
 Gaussian 16:  ES64L-G16RevA.03 25-Dec-2016
                18-Jul-2024 
 ******************************************
 %nprocshared=7
 Will use up to    7 processors via shared memory.
 %mem=14GB
 %Chk=IXVDJDOFHBHDMT-UHFFFAOYSA-N_conf_2_0.chk
 -------------------------------------------------------
 # opt=CalcFc B3LYP/6-31G** SCRF=(Solvent=water) scf=xqc
 -------------------------------------------------------
 1/10=4,18=20,19=15,26=3,38=1/1,3;
 2/9=110,12=2,17=6,18=5,40=1/2;
 3/5=1,6=6,7=101,11=2,25=1,30=1,70=2201,71=2,72=1,74=-5,140=1/1,2,3;
 4//1;
 5/5=2,8=3,13=1,38=5,53=1/2,8;
 8/6=4,10=90,11=11/1;
 11/6=1,8=1,9=11,15=111,16=1/1,2,10;
 10/6=1,13=1/2;
 6/7=2,8=2,9=2,10=2,28=1/1;
 7/10=1,18=20,25=1/1,2,3,16;
 1/10=4,18=20,19=15,26=3/3(2);
 2/9=110/2;
 99//99;
 2/9=110/2;
 3/5=1,6=6,7=101,11=2,25=1,30=1,70=2205,71=1,72=1,74=-5/1,2,3;
 4/5=5,16=3,69=1/1;
 5/5=2,8=3,13=1,38=5,53=1/2,8;
 7//1,2,3,16;
 1/18=20,19=15,26=3/3(-5);
 2/9=110/2;
 6/7=2,8=2,9=2,10=2,19=2,28=1/1;
 99/9=1/99;
 ----------------------------------
 IXVDJDOFHBHDMT-UHFFFAOYSA-N_conf_2
 ----------------------------------
 Symbolic Z-matrix:
 Charge =  0 Multiplicity = 1
 C                    -5.89088   2.46231  -2.36199 
 C                    -5.06985   1.29759  -1.89595 
 C                    -5.08667   0.90625  -0.55542 
 C                    -4.34438  -0.20189  -0.12532 
 C                    -3.55531  -0.93844  -1.01434 
 N                    -2.84336  -2.08398  -0.65594 
 C                    -2.44037  -2.34504   0.72129 
 C                    -1.3315   -1.40288   1.19727 
 C                    -0.00945  -1.61808   0.45575 
 C                     1.07569  -0.67212   0.97411 
 N                     2.32559  -0.93907   0.27004 
 C                     3.48099  -0.23356   0.63053 
 C                     4.72301  -0.72756   0.20692 
 C                     5.91372  -0.0438    0.47734 
 C                     5.88756   1.18185   1.14535 
 C                     7.15771   1.91189   1.46226 
 C                     4.65412   1.69855   1.54915 
 C                     3.46671   1.00673   1.27694 
 C                    -3.59166  -0.567    -2.36603 
 C                    -4.3296    0.5387   -2.80404 
 H                    -6.89707   2.12709  -2.63247 
 H                    -5.4315    2.9409   -3.23304 
 H                    -5.96864   3.22324  -1.57743 
 H                    -5.68469   1.45372   0.16879 
 H                    -4.40798  -0.474     0.92315 
 H                    -2.1266   -2.32218  -1.33682 
 H                    -2.08151  -3.38014   0.77657 
 H                    -3.30003  -2.29513   1.39859 
 H                    -1.64489  -0.35745   1.0948 
 H                    -1.1684   -1.57877   2.26806 
 H                    -0.14364  -1.45356  -0.61982 
 H                     0.31536  -2.65883   0.57855 
 H                     1.21161  -0.82246   2.05182 
 H                     0.75205   0.3607    0.80135 
 H                     2.52366  -1.93169   0.16995 
 H                     4.77661  -1.66252  -0.34541 
 H                     6.85741  -0.47292   0.14892 
 H                     7.96324   1.61668   0.78127 
 H                     7.01969   2.99293   1.35353 
 H                     7.46949   1.69313   2.48794 
 H                     4.60259   2.65253   2.06935 
 H                     2.53265   1.46777   1.58145 
 H                    -3.03757  -1.14407  -3.10284 
 H                    -4.32389   0.79458  -3.86094 
 

 GradGradGradGradGradGradGradGradGradGradGradGradGradGradGradGradGradGrad
 Berny optimization.
 Initialization pass.
                           ----------------------------
                           !    Initial Parameters    !
                           ! (Angstroms and Degrees)  !
 --------------------------                            --------------------------
 ! Name  Definition              Value          Derivative Info.                !
 --------------------------------------------------------------------------------
 ! R1    R(1,2)                  1.4993         calculate D2E/DX2 analytically  !
 ! R2    R(1,21)                 1.0945         calculate D2E/DX2 analytically  !
 ! R3    R(1,22)                 1.0949         calculate D2E/DX2 analytically  !
 ! R4    R(1,23)                 1.0957         calculate D2E/DX2 analytically  !
 ! R5    R(2,3)                  1.3966         calculate D2E/DX2 analytically  !
 ! R6    R(2,20)                 1.3959         calculate D2E/DX2 analytically  !
 ! R7    R(3,4)                  1.4014         calculate D2E/DX2 analytically  !
 ! R8    R(3,24)                 1.0871         calculate D2E/DX2 analytically  !
 ! R9    R(4,5)                  1.3984         calculate D2E/DX2 analytically  !
 ! R10   R(4,25)                 1.0851         calculate D2E/DX2 analytically  !
 ! R11   R(5,6)                  1.3956         calculate D2E/DX2 analytically  !
 ! R12   R(5,19)                 1.4023         calculate D2E/DX2 analytically  !
 ! R13   R(6,7)                  1.4585         calculate D2E/DX2 analytically  !
 ! R14   R(6,26)                 1.0169         calculate D2E/DX2 analytically  !
 ! R15   R(7,8)                  1.5309         calculate D2E/DX2 analytically  !
 ! R16   R(7,27)                 1.0969         calculate D2E/DX2 analytically  !
 ! R17   R(7,28)                 1.0956         calculate D2E/DX2 analytically  !
 ! R18   R(8,9)                  1.531          calculate D2E/DX2 analytically  !
 ! R19   R(8,29)                 1.0962         calculate D2E/DX2 analytically  !
 ! R20   R(8,30)                 1.0973         calculate D2E/DX2 analytically  !
 ! R21   R(9,10)                 1.5301         calculate D2E/DX2 analytically  !
 ! R22   R(9,31)                 1.0963         calculate D2E/DX2 analytically  !
 ! R23   R(9,32)                 1.0972         calculate D2E/DX2 analytically  !
 ! R24   R(10,11)                1.4592         calculate D2E/DX2 analytically  !
 ! R25   R(10,33)                1.0966         calculate D2E/DX2 analytically  !
 ! R26   R(10,34)                1.096          calculate D2E/DX2 analytically  !
 ! R27   R(11,12)                1.4009         calculate D2E/DX2 analytically  !
 ! R28   R(11,35)                1.0171         calculate D2E/DX2 analytically  !
 ! R29   R(12,13)                1.4022         calculate D2E/DX2 analytically  !
 ! R30   R(12,18)                1.3987         calculate D2E/DX2 analytically  !
 ! R31   R(13,14)                1.3994         calculate D2E/DX2 analytically  !
 ! R32   R(13,36)                1.0872         calculate D2E/DX2 analytically  !
 ! R33   R(14,15)                1.3961         calculate D2E/DX2 analytically  !
 ! R34   R(14,37)                1.0875         calculate D2E/DX2 analytically  !
 ! R35   R(15,16)                1.4989         calculate D2E/DX2 analytically  !
 ! R36   R(15,17)                1.3969         calculate D2E/DX2 analytically  !
 ! R37   R(16,38)                1.0953         calculate D2E/DX2 analytically  !
 ! R38   R(16,39)                1.0952         calculate D2E/DX2 analytically  !
 ! R39   R(16,40)                1.0941         calculate D2E/DX2 analytically  !
 ! R40   R(17,18)                1.4009         calculate D2E/DX2 analytically  !
 ! R41   R(17,41)                1.0878         calculate D2E/DX2 analytically  !
 ! R42   R(18,42)                1.0852         calculate D2E/DX2 analytically  !
 ! R43   R(19,20)                1.3996         calculate D2E/DX2 analytically  !
 ! R44   R(19,43)                1.0876         calculate D2E/DX2 analytically  !
 ! R45   R(20,44)                1.0874         calculate D2E/DX2 analytically  !
 ! A1    A(2,1,21)             110.0177         calculate D2E/DX2 analytically  !
 ! A2    A(2,1,22)             110.9227         calculate D2E/DX2 analytically  !
 ! A3    A(2,1,23)             110.8421         calculate D2E/DX2 analytically  !
 ! A4    A(21,1,22)            108.8431         calculate D2E/DX2 analytically  !
 ! A5    A(21,1,23)            108.9288         calculate D2E/DX2 analytically  !
 ! A6    A(22,1,23)            107.2086         calculate D2E/DX2 analytically  !
 ! A7    A(1,2,3)              120.6275         calculate D2E/DX2 analytically  !
 ! A8    A(1,2,20)             120.6994         calculate D2E/DX2 analytically  !
 ! A9    A(3,2,20)             118.5858         calculate D2E/DX2 analytically  !
 ! A10   A(2,3,4)              120.6493         calculate D2E/DX2 analytically  !
 ! A11   A(2,3,24)             120.3269         calculate D2E/DX2 analytically  !
 ! A12   A(4,3,24)             119.0216         calculate D2E/DX2 analytically  !
 ! A13   A(3,4,5)              121.3495         calculate D2E/DX2 analytically  !
 ! A14   A(3,4,25)             117.6324         calculate D2E/DX2 analytically  !
 ! A15   A(5,4,25)             121.0169         calculate D2E/DX2 analytically  !
 ! A16   A(4,5,6)              123.8448         calculate D2E/DX2 analytically  !
 ! A17   A(4,5,19)             117.3012         calculate D2E/DX2 analytically  !
 ! A18   A(6,5,19)             118.5686         calculate D2E/DX2 analytically  !
 ! A19   A(5,6,7)              122.0313         calculate D2E/DX2 analytically  !
 ! A20   A(5,6,26)             112.3274         calculate D2E/DX2 analytically  !
 ! A21   A(7,6,26)             113.3016         calculate D2E/DX2 analytically  !
 ! A22   A(6,7,8)              112.5531         calculate D2E/DX2 analytically  !
 ! A23   A(6,7,27)             107.8709         calculate D2E/DX2 analytically  !
 ! A24   A(6,7,28)             111.0264         calculate D2E/DX2 analytically  !
 ! A25   A(8,7,27)             109.1535         calculate D2E/DX2 analytically  !
 ! A26   A(8,7,28)             110.371          calculate D2E/DX2 analytically  !
 ! A27   A(27,7,28)            105.5781         calculate D2E/DX2 analytically  !
 ! A28   A(7,8,9)              112.8527         calculate D2E/DX2 analytically  !
 ! A29   A(7,8,29)             110.5351         calculate D2E/DX2 analytically  !
 ! A30   A(7,8,30)             108.204          calculate D2E/DX2 analytically  !
 ! A31   A(9,8,29)             109.6115         calculate D2E/DX2 analytically  !
 ! A32   A(9,8,30)             108.7681         calculate D2E/DX2 analytically  !
 ! A33   A(29,8,30)            106.6533         calculate D2E/DX2 analytically  !
 ! A34   A(8,9,10)             111.1885         calculate D2E/DX2 analytically  !
 ! A35   A(8,9,31)             110.3887         calculate D2E/DX2 analytically  !
 ! A36   A(8,9,32)             109.5582         calculate D2E/DX2 analytically  !
 ! A37   A(10,9,31)            109.0503         calculate D2E/DX2 analytically  !
 ! A38   A(10,9,32)            109.7907         calculate D2E/DX2 analytically  !
 ! A39   A(31,9,32)            106.7618         calculate D2E/DX2 analytically  !
 ! A40   A(9,10,11)            109.325          calculate D2E/DX2 analytically  !
 ! A41   A(9,10,33)            109.6386         calculate D2E/DX2 analytically  !
 ! A42   A(9,10,34)            108.6489         calculate D2E/DX2 analytically  !
 ! A43   A(11,10,33)           110.0564         calculate D2E/DX2 analytically  !
 ! A44   A(11,10,34)           110.4431         calculate D2E/DX2 analytically  !
 ! A45   A(33,10,34)           108.7048         calculate D2E/DX2 analytically  !
 ! A46   A(10,11,12)           119.3504         calculate D2E/DX2 analytically  !
 ! A47   A(10,11,35)           113.1303         calculate D2E/DX2 analytically  !
 ! A48   A(12,11,35)           110.8663         calculate D2E/DX2 analytically  !
 ! A49   A(11,12,13)           118.3831         calculate D2E/DX2 analytically  !
 ! A50   A(11,12,18)           123.8528         calculate D2E/DX2 analytically  !
 ! A51   A(13,12,18)           117.4564         calculate D2E/DX2 analytically  !
 ! A52   A(12,13,14)           121.5438         calculate D2E/DX2 analytically  !
 ! A53   A(12,13,36)           120.0073         calculate D2E/DX2 analytically  !
 ! A54   A(14,13,36)           118.4489         calculate D2E/DX2 analytically  !
 ! A55   A(13,14,15)           120.361          calculate D2E/DX2 analytically  !
 ! A56   A(13,14,37)           119.1568         calculate D2E/DX2 analytically  !
 ! A57   A(15,14,37)           120.4772         calculate D2E/DX2 analytically  !
 ! A58   A(14,15,16)           120.855          calculate D2E/DX2 analytically  !
 ! A59   A(14,15,17)           118.6575         calculate D2E/DX2 analytically  !
 ! A60   A(16,15,17)           120.4613         calculate D2E/DX2 analytically  !
 ! A61   A(15,16,38)           111.1289         calculate D2E/DX2 analytically  !
 ! A62   A(15,16,39)           110.6686         calculate D2E/DX2 analytically  !
 ! A63   A(15,16,40)           110.0172         calculate D2E/DX2 analytically  !
 ! A64   A(38,16,39)           107.2758         calculate D2E/DX2 analytically  !
 ! A65   A(38,16,40)           108.6254         calculate D2E/DX2 analytically  !
 ! A66   A(39,16,40)           109.0465         calculate D2E/DX2 analytically  !
 ! A67   A(15,17,18)           120.6345         calculate D2E/DX2 analytically  !
 ! A68   A(15,17,41)           120.2933         calculate D2E/DX2 analytically  !
 ! A69   A(18,17,41)           119.0675         calculate D2E/DX2 analytically  !
 ! A70   A(12,18,17)           121.2678         calculate D2E/DX2 analytically  !
 ! A71   A(12,18,42)           121.0095         calculate D2E/DX2 analytically  !
 ! A72   A(17,18,42)           117.7223         calculate D2E/DX2 analytically  !
 ! A73   A(5,19,20)            121.6402         calculate D2E/DX2 analytically  !
 ! A74   A(5,19,43)            119.9516         calculate D2E/DX2 analytically  !
 ! A75   A(20,19,43)           118.4082         calculate D2E/DX2 analytically  !
 ! A76   A(2,20,19)            120.3647         calculate D2E/DX2 analytically  !
 ! A77   A(2,20,44)            120.4727         calculate D2E/DX2 analytically  !
 ! A78   A(19,20,44)           119.1614         calculate D2E/DX2 analytically  !
 ! D1    D(21,1,2,3)           -87.5843         calculate D2E/DX2 analytically  !
 ! D2    D(21,1,2,20)           88.9704         calculate D2E/DX2 analytically  !
 ! D3    D(22,1,2,3)           151.9318         calculate D2E/DX2 analytically  !
 ! D4    D(22,1,2,20)          -31.5135         calculate D2E/DX2 analytically  !
 ! D5    D(23,1,2,3)            32.9545         calculate D2E/DX2 analytically  !
 ! D6    D(23,1,2,20)         -150.4908         calculate D2E/DX2 analytically  !
 ! D7    D(1,2,3,4)            178.4672         calculate D2E/DX2 analytically  !
 ! D8    D(1,2,3,24)            -0.9852         calculate D2E/DX2 analytically  !
 ! D9    D(20,2,3,4)             1.8408         calculate D2E/DX2 analytically  !
 ! D10   D(20,2,3,24)         -177.6116         calculate D2E/DX2 analytically  !
 ! D11   D(1,2,20,19)         -178.4282         calculate D2E/DX2 analytically  !
 ! D12   D(1,2,20,44)            1.1683         calculate D2E/DX2 analytically  !
 ! D13   D(3,2,20,19)           -1.8043         calculate D2E/DX2 analytically  !
 ! D14   D(3,2,20,44)          177.7922         calculate D2E/DX2 analytically  !
 ! D15   D(2,3,4,5)              0.7489         calculate D2E/DX2 analytically  !
 ! D16   D(2,3,4,25)          -178.8527         calculate D2E/DX2 analytically  !
 ! D17   D(24,3,4,5)          -179.7916         calculate D2E/DX2 analytically  !
 ! D18   D(24,3,4,25)            0.6067         calculate D2E/DX2 analytically  !
 ! D19   D(3,4,5,6)           -177.0347         calculate D2E/DX2 analytically  !
 ! D20   D(3,4,5,19)            -3.2726         calculate D2E/DX2 analytically  !
 ! D21   D(25,4,5,6)             2.5536         calculate D2E/DX2 analytically  !
 ! D22   D(25,4,5,19)          176.3157         calculate D2E/DX2 analytically  !
 ! D23   D(4,5,6,7)            -23.5385         calculate D2E/DX2 analytically  !
 ! D24   D(4,5,6,26)          -163.1233         calculate D2E/DX2 analytically  !
 ! D25   D(19,5,6,7)           162.7733         calculate D2E/DX2 analytically  !
 ! D26   D(19,5,6,26)           23.1885         calculate D2E/DX2 analytically  !
 ! D27   D(4,5,19,20)            3.3143         calculate D2E/DX2 analytically  !
 ! D28   D(4,5,19,43)         -176.6579         calculate D2E/DX2 analytically  !
 ! D29   D(6,5,19,20)          177.4164         calculate D2E/DX2 analytically  !
 ! D30   D(6,5,19,43)           -2.5558         calculate D2E/DX2 analytically  !
 ! D31   D(5,6,7,8)            -70.6646         calculate D2E/DX2 analytically  !
 ! D32   D(5,6,7,27)           168.8589         calculate D2E/DX2 analytically  !
 ! D33   D(5,6,7,28)            53.6301         calculate D2E/DX2 analytically  !
 ! D34   D(26,6,7,8)            68.5691         calculate D2E/DX2 analytically  !
 ! D35   D(26,6,7,27)          -51.9074         calculate D2E/DX2 analytically  !
 ! D36   D(26,6,7,28)         -167.1363         calculate D2E/DX2 analytically  !
 ! D37   D(6,7,8,9)            -66.2651         calculate D2E/DX2 analytically  !
 ! D38   D(6,7,8,29)            56.8834         calculate D2E/DX2 analytically  !
 ! D39   D(6,7,8,30)           173.3281         calculate D2E/DX2 analytically  !
 ! D40   D(27,7,8,9)            53.4707         calculate D2E/DX2 analytically  !
 ! D41   D(27,7,8,29)          176.6192         calculate D2E/DX2 analytically  !
 ! D42   D(27,7,8,30)          -66.9361         calculate D2E/DX2 analytically  !
 ! D43   D(28,7,8,9)           169.0795         calculate D2E/DX2 analytically  !
 ! D44   D(28,7,8,29)          -67.772          calculate D2E/DX2 analytically  !
 ! D45   D(28,7,8,30)           48.6728         calculate D2E/DX2 analytically  !
 ! D46   D(7,8,9,10)          -179.1957         calculate D2E/DX2 analytically  !
 ! D47   D(7,8,9,31)            59.6371         calculate D2E/DX2 analytically  !
 ! D48   D(7,8,9,32)           -57.6563         calculate D2E/DX2 analytically  !
 ! D49   D(29,8,9,10)           57.144          calculate D2E/DX2 analytically  !
 ! D50   D(29,8,9,31)          -64.0232         calculate D2E/DX2 analytically  !
 ! D51   D(29,8,9,32)          178.6834         calculate D2E/DX2 analytically  !
 ! D52   D(30,8,9,10)          -59.1124         calculate D2E/DX2 analytically  !
 ! D53   D(30,8,9,31)          179.7204         calculate D2E/DX2 analytically  !
 ! D54   D(30,8,9,32)           62.4269         calculate D2E/DX2 analytically  !
 ! D55   D(8,9,10,11)          178.2823         calculate D2E/DX2 analytically  !
 ! D56   D(8,9,10,33)           57.5514         calculate D2E/DX2 analytically  !
 ! D57   D(8,9,10,34)          -61.1209         calculate D2E/DX2 analytically  !
 ! D58   D(31,9,10,11)         -59.7694         calculate D2E/DX2 analytically  !
 ! D59   D(31,9,10,33)         179.4997         calculate D2E/DX2 analytically  !
 ! D60   D(31,9,10,34)          60.8274         calculate D2E/DX2 analytically  !
 ! D61   D(32,9,10,11)          56.8787         calculate D2E/DX2 analytically  !
 ! D62   D(32,9,10,33)         -63.8522         calculate D2E/DX2 analytically  !
 ! D63   D(32,9,10,34)         177.4756         calculate D2E/DX2 analytically  !
 ! D64   D(9,10,11,12)        -176.7876         calculate D2E/DX2 analytically  !
 ! D65   D(9,10,11,35)         -43.5858         calculate D2E/DX2 analytically  !
 ! D66   D(33,10,11,12)        -56.3116         calculate D2E/DX2 analytically  !
 ! D67   D(33,10,11,35)         76.8902         calculate D2E/DX2 analytically  !
 ! D68   D(34,10,11,12)         63.7168         calculate D2E/DX2 analytically  !
 ! D69   D(34,10,11,35)       -163.0814         calculate D2E/DX2 analytically  !
 ! D70   D(10,11,12,13)        163.6808         calculate D2E/DX2 analytically  !
 ! D71   D(10,11,12,18)        -22.862          calculate D2E/DX2 analytically  !
 ! D72   D(35,11,12,13)         29.5211         calculate D2E/DX2 analytically  !
 ! D73   D(35,11,12,18)       -157.0217         calculate D2E/DX2 analytically  !
 ! D74   D(11,12,13,14)        177.0612         calculate D2E/DX2 analytically  !
 ! D75   D(11,12,13,36)         -2.9407         calculate D2E/DX2 analytically  !
 ! D76   D(18,12,13,14)          3.1828         calculate D2E/DX2 analytically  !
 ! D77   D(18,12,13,36)       -176.8191         calculate D2E/DX2 analytically  !
 ! D78   D(11,12,18,17)       -176.5635         calculate D2E/DX2 analytically  !
 ! D79   D(11,12,18,42)          3.1965         calculate D2E/DX2 analytically  !
 ! D80   D(13,12,18,17)         -3.0502         calculate D2E/DX2 analytically  !
 ! D81   D(13,12,18,42)        176.7098         calculate D2E/DX2 analytically  !
 ! D82   D(12,13,14,15)         -2.0977         calculate D2E/DX2 analytically  !
 ! D83   D(12,13,14,37)        178.7092         calculate D2E/DX2 analytically  !
 ! D84   D(36,13,14,15)        177.9041         calculate D2E/DX2 analytically  !
 ! D85   D(36,13,14,37)         -1.289          calculate D2E/DX2 analytically  !
 ! D86   D(13,14,15,16)        178.9039         calculate D2E/DX2 analytically  !
 ! D87   D(13,14,15,17)          0.7579         calculate D2E/DX2 analytically  !
 ! D88   D(37,14,15,16)         -1.9138         calculate D2E/DX2 analytically  !
 ! D89   D(37,14,15,17)        179.9402         calculate D2E/DX2 analytically  !
 ! D90   D(14,15,16,38)         23.7865         calculate D2E/DX2 analytically  !
 ! D91   D(14,15,16,39)        142.8685         calculate D2E/DX2 analytically  !
 ! D92   D(14,15,16,40)        -96.5581         calculate D2E/DX2 analytically  !
 ! D93   D(17,15,16,38)       -158.1009         calculate D2E/DX2 analytically  !
 ! D94   D(17,15,16,39)        -39.0189         calculate D2E/DX2 analytically  !
 ! D95   D(17,15,16,40)         81.5544         calculate D2E/DX2 analytically  !
 ! D96   D(14,15,17,18)         -0.638          calculate D2E/DX2 analytically  !
 ! D97   D(14,15,17,41)       -179.8475         calculate D2E/DX2 analytically  !
 ! D98   D(16,15,17,18)       -178.7915         calculate D2E/DX2 analytically  !
 ! D99   D(16,15,17,41)          1.999          calculate D2E/DX2 analytically  !
 ! D100  D(15,17,18,12)          1.8488         calculate D2E/DX2 analytically  !
 ! D101  D(15,17,18,42)       -177.9189         calculate D2E/DX2 analytically  !
 ! D102  D(41,17,18,12)       -178.9322         calculate D2E/DX2 analytically  !
 ! D103  D(41,17,18,42)          1.3002         calculate D2E/DX2 analytically  !
 ! D104  D(5,19,20,2)           -0.8154         calculate D2E/DX2 analytically  !
 ! D105  D(5,19,20,44)         179.5829         calculate D2E/DX2 analytically  !
 ! D106  D(43,19,20,2)         179.1572         calculate D2E/DX2 analytically  !
 ! D107  D(43,19,20,44)         -0.4445         calculate D2E/DX2 analytically  !
 --------------------------------------------------------------------------------
 Trust Radius=3.00D-01 FncErr=1.00D-07 GrdErr=1.00D-06 EigMax=2.50D+02 EigMin=1.00D-04
 Number of steps in this run=    240 maximum allowed number of steps=    264.
 GradGradGradGradGradGradGradGradGradGradGradGradGradGradGradGradGradGrad

                          Input orientation:                          
 ---------------------------------------------------------------------
 Center     Atomic      Atomic             Coordinates (Angstroms)
 Number     Number       Type             X           Y           Z
 ---------------------------------------------------------------------
      1          6           0       -5.890875    2.462306   -2.361988
      2          6           0       -5.069853    1.297592   -1.895955
      3          6           0       -5.086666    0.906246   -0.555417
      4          6           0       -4.344379   -0.201888   -0.125323
      5          6           0       -3.555312   -0.938442   -1.014344
      6          7           0       -2.843356   -2.083977   -0.655938
      7          6           0       -2.440368   -2.345044    0.721294
      8          6           0       -1.331503   -1.402883    1.197269
      9          6           0       -0.009454   -1.618076    0.455748
     10          6           0        1.075692   -0.672117    0.974108
     11          7           0        2.325594   -0.939072    0.270041
     12          6           0        3.480990   -0.233560    0.630532
     13          6           0        4.723005   -0.727557    0.206915
     14          6           0        5.913719   -0.043802    0.477336
     15          6           0        5.887556    1.181854    1.145347
     16          6           0        7.157712    1.911889    1.462260
     17          6           0        4.654115    1.698545    1.549151
     18          6           0        3.466708    1.006727    1.276935
     19          6           0       -3.591665   -0.567004   -2.366028
     20          6           0       -4.329602    0.538703   -2.804038
     21          1           0       -6.897070    2.127086   -2.632467
     22          1           0       -5.431504    2.940903   -3.233039
     23          1           0       -5.968644    3.223244   -1.577426
     24          1           0       -5.684686    1.453722    0.168785
     25          1           0       -4.407985   -0.473997    0.923146
     26          1           0       -2.126597   -2.322175   -1.336823
     27          1           0       -2.081511   -3.380138    0.776568
     28          1           0       -3.300030   -2.295125    1.398588
     29          1           0       -1.644892   -0.357447    1.094795
     30          1           0       -1.168395   -1.578771    2.268059
     31          1           0       -0.143637   -1.453558   -0.619820
     32          1           0        0.315359   -2.658834    0.578551
     33          1           0        1.211607   -0.822462    2.051817
     34          1           0        0.752048    0.360702    0.801353
     35          1           0        2.523660   -1.931694    0.169946
     36          1           0        4.776607   -1.662518   -0.345411
     37          1           0        6.857405   -0.472925    0.148920
     38          1           0        7.963235    1.616684    0.781267
     39          1           0        7.019692    2.992927    1.353526
     40          1           0        7.469495    1.693129    2.487939
     41          1           0        4.602589    2.652528    2.069353
     42          1           0        2.532653    1.467768    1.581451
     43          1           0       -3.037566   -1.144069   -3.102838
     44          1           0       -4.323889    0.794583   -3.860937
 ---------------------------------------------------------------------
                    Distance matrix (angstroms):
                    1          2          3          4          5
     1  C    0.000000
     2  C    1.499275   0.000000
     3  C    2.516302   1.396594   0.000000
     4  C    3.806869   2.431026   1.401404   0.000000
     5  C    4.340056   2.840936   2.441011   1.398391   0.000000
     6  N    5.732946   4.234376   3.739516   2.465134   1.395560
     7  C    6.672574   5.199325   4.382211   2.989170   2.496812
     8  C    6.956714   5.553004   4.743968   3.502722   3.170530
     9  C    7.692871   6.295972   5.759578   4.597261   3.898228
    10  C    8.335898   7.062912   6.542579   5.550409   5.046887
    11  N    9.274013   8.024141   7.682980   6.722225   6.019527
    12  C   10.200721   9.046793   8.724125   7.861852   7.260304
    13  C   11.376684  10.218775   9.973972   9.088684   8.370572
    14  C   12.397208  11.316832  11.089528  10.277002   9.627462
    15  C   12.356067  11.372235  11.108651  10.402973   9.916032
    16  C   13.608580  12.695208  12.450186  11.801973  11.358998
    17  C   11.272850  10.324005   9.996988   9.348177   8.995549
    18  C   10.145187   9.111789   8.748018   8.027463   7.638220
    19  C    3.803039   2.425433   2.771968   2.391787   1.402261
    20  C    2.516592   1.395887   2.400944   2.779246   2.446321
    21  H    1.094514   2.137577   3.013661   4.269206   4.814886
    22  H    1.094901   2.149200   3.380593   4.551580   4.846857
    23  H    1.095724   2.148819   2.681579   4.059356   4.843642
    24  H    2.732136   2.159988   1.087118   2.150341   3.414159
    25  H    4.648972   3.394690   2.133501   1.085069   2.167170
    26  H    6.173493   4.698734   4.449192   3.298774   2.014929
    27  H    7.648264   6.160659   5.401688   4.004404   3.367690
    28  H    6.594510   5.185933   4.154393   2.791883   2.779928
    29  H    6.158630   4.838811   4.020688   2.966499   2.904433
    30  H    7.750448   6.390136   5.431406   4.208439   4.108717
    31  H    7.169372   5.784890   5.477806   4.411059   3.472826
    32  H    8.566807   7.125798   6.570963   5.314620   4.525390
    33  H    8.984243   7.715975   7.032378   5.999503   5.669066
    34  H    7.651921   6.484424   6.019055   5.210452   4.851585
    35  H    9.824578   8.506331   8.154577   7.088680   6.272399
    36  H   11.613610  10.398039  10.194450   9.239820   8.390032
    37  H   13.320619  12.230116  12.044046  11.208419  10.487830
    38  H   14.231356  13.309047  13.137404  12.474233  11.934396
    39  H   13.445049  12.632909  12.432305  11.896889  11.527931
    40  H   14.234216  13.289477  12.943662  12.246953  11.863284
    41  H   11.392355  10.541141  10.189239   9.644301   9.431628
    42  H    9.353910   8.361782   7.933192   7.279725   7.042110
    43  H    4.657915   3.398303   3.859010   3.385419   2.161516
    44  H    2.735616   2.161165   3.394224   3.866288   3.420114
                    6          7          8          9         10
     6  N    0.000000
     7  C    1.458535   0.000000
     8  C    2.486758   1.530948   0.000000
     9  C    3.079595   2.551144   1.531005   0.000000
    10  C    4.473180   3.901958   2.525551   1.530058   0.000000
    11  N    5.374597   4.989467   3.801215   2.438850   1.459188
    12  C    6.713896   6.287215   4.984836   3.759073   2.468974
    13  C    7.735258   7.361709   6.172029   4.821941   3.727540
    14  C    9.062725   8.668679   7.406662   6.128849   4.903883
    15  C    9.494162   9.053903   7.668010   6.564289   5.159513
    16  C   10.976113  10.525856   9.117275   8.052453   6.626186
    17  C    8.682279   8.207780   6.750578   5.826182   4.330800
    18  C    7.287342   6.814444   5.369860   4.432566   2.937206
    19  C    2.405323   3.744124   4.301640   4.679680   5.740363
    20  C    3.701582   4.930838   5.363656   5.825940   6.705048
    21  H    6.170277   7.149116   7.622538   8.426302   9.187375
    22  H    6.212036   7.247406   7.436808   7.986869   8.549714
    23  H    6.227613   6.981309   7.113582   7.942551   8.444337
    24  H    4.611794   5.026081   5.307370   6.459609   7.132352
    25  H    2.744742   2.722697   3.225323   4.568856   5.487491
    26  H    1.016900   2.082024   2.810497   2.862055   4.279924
    27  H    2.076660   1.096929   2.156163   2.738833   4.164172
    28  H    2.115234   1.095553   2.170650   3.489302   4.686286
    29  H    2.735378   2.173207   1.096198   2.161533   2.741379
    30  H    3.407416   2.144194   1.097329   2.151548   2.744496
    31  H    2.772582   2.805050   2.171499   1.096320   2.153606
    32  H    3.439753   2.777206   2.161569   1.097160   2.163704
    33  H    5.036475   4.174382   2.744913   2.161349   1.096601
    34  H    4.585529   4.185569   2.758290   2.148230   1.096040
    35  H    5.432323   5.011628   4.024589   2.568406   2.080822
    36  H    7.637925   7.327239   6.305259   4.852857   4.052012
    37  H    9.866512   9.501633   8.307953   6.968449   5.843699
    38  H   11.512726  11.132558   9.781769   8.610076   7.260444
    39  H   11.273536  10.880551   9.438751   8.454363   6.993400
    40  H   11.423895  10.845887   9.418529   8.427844   6.983322
    41  H    9.236005   8.740494   7.240189   6.489432   4.969087
    42  H    6.820724   6.325214   4.829072   4.153546   2.659080
    43  H    2.628396   4.052527   4.633417   4.696560   5.810604
    44  H    4.555228   5.865301   6.274446   6.562701   7.394886
                   11         12         13         14         15
    11  N    0.000000
    12  C    1.400942   0.000000
    13  C    2.407551   1.402172   0.000000
    14  C    3.703932   2.444923   1.399445   0.000000
    15  C    4.236987   2.839013   2.425424   1.396122   0.000000
    16  C    5.735741   4.337397   3.803993   2.518397   1.498893
    17  C    3.743682   2.439901   2.773502   2.402325   1.396927
    18  C    2.470244   1.398697   2.393943   2.780438   2.430739
    19  C    6.488547   7.688497   8.705145   9.935329  10.258844
    20  C    7.478330   8.567263   9.623874  10.771831  10.972767
    21  H   10.143146  11.132113  12.297855  13.360387  13.364581
    22  H    9.354056  10.219440  11.331591  12.304041  12.263183
    23  H    9.462156  10.301464  11.537073  12.493446  12.334920
    24  H    8.360641   9.331117  10.633883  11.698751  11.616557
    25  H    6.781145   7.898060   9.162546  10.340280  10.430215
    26  H    4.931226   6.299033   7.200207   8.551539   9.092086
    27  H    5.063393   6.392471   7.325444   8.668585   9.189875
    28  H    5.895773   7.128968   8.261140   9.529445   9.826762
    29  H    4.096739   5.148354   6.440142   7.590272   7.688289
    30  H    4.075445   5.109586   6.299324   7.464527   7.659503
    31  H    2.674632   4.023642   4.989467   6.315277   6.814434
    32  H    2.663420   3.988216   4.826519   6.179827   6.791283
    33  H    2.104588   2.741707   3.967693   5.019478   5.167541
    34  H    2.108969   2.798115   4.160068   5.187625   5.212108
    35  H    1.017127   2.003067   2.507674   3.892444   4.686298
    36  H    2.628616   2.161715   1.087240   2.142470   3.398090
    37  H    4.557332   3.418981   2.150318   1.087450   2.161427
    38  H    6.210977   4.851459   4.040351   2.655204   2.151761
    39  H    6.218449   4.843073   4.520120   3.348523   2.145939
    40  H    6.189286   4.803152   4.313467   3.078944   2.136933
    41  H    4.617555   3.414337   3.861107   3.394668   2.160511
    42  H    2.748735   2.167512   3.392115   3.864650   3.395190
    43  H    6.338914   7.566944   8.447154   9.703285  10.154546
    44  H    8.017866   9.063471  10.035469  11.150431  11.379213
                   16         17         18         19         20
    16  C    0.000000
    17  C    2.514172   0.000000
    18  C    3.804888   1.400946   0.000000
    19  C   11.676891   9.405011   8.097433   0.000000
    20  C   12.330666  10.050008   8.812255   1.399640   0.000000
    21  H   14.640696  12.292252  11.133127   4.272566   3.023953
    22  H   13.475647  11.230873  10.161647   4.054890   2.677461
    23  H   13.537376  11.177800  10.103771   4.542896   3.376062
    24  H   12.915502  10.433416   9.229074   3.858672   3.392814
    25  H   11.821524   9.339887   8.020505   3.390235   3.863108
    26  H   10.581141   8.394826   7.014155   2.507252   3.897509
    27  H   10.669534   8.471043   7.090676   4.479977   5.764717
    28  H   11.272417   8.901713   7.530323   4.152564   5.172298
    29  H    9.097843   6.641614   5.293637   3.976321   4.817847
    30  H    9.064109   6.720064   5.399195   5.326412   6.340590
    31  H    8.304878   6.136662   4.762906   3.965364   5.124667
    32  H    8.275883   6.225241   4.884166   5.320820   6.575850
    33  H    6.571181   4.296396   3.005305   6.531005   7.492469
    34  H    6.623859   4.192274   2.830708   5.455344   6.233273
    35  H    6.157730   4.429411   3.278579   6.759492   7.868585
    36  H    4.659798   3.860197   3.387139   8.678192   9.685725
    37  H    2.739048   3.395647   3.867637  10.747878  11.614322
    38  H    1.095338   3.398032   4.564701  12.173318  12.850303
    39  H    1.095223   2.703636   4.071186  11.794451  12.333492
    40  H    1.094112   2.967779   4.237922  12.288956  12.982927
    41  H    2.728691   1.087817   2.151003   9.858183  10.392412
    42  H    4.647862   2.134222   1.085241   7.565061   8.196719
    43  H   11.581135   9.427801   8.131046   1.087620   2.142512
    44  H   12.704801  10.520968   9.334674   2.150541   1.087448
                   21         22         23         24         25
    21  H    0.000000
    22  H    1.780694   0.000000
    23  H    1.782316   1.763318   0.000000
    24  H    3.125749   3.721319   2.502218   0.000000
    25  H    5.059996   5.475674   4.728436   2.432103   0.000000
    26  H    6.650717   6.497541   6.750622   5.402246   3.705126
    27  H    8.070976   8.200913   8.015968   6.059578   3.725537
    28  H    6.981694   7.308293   6.813998   4.610082   2.184060
    29  H    6.902953   6.629306   6.217471   4.523026   2.770872
    30  H    8.400372   8.298411   7.803172   5.830939   3.677534
    31  H    7.904468   7.355389   7.531281   6.306933   4.639498
    32  H    9.232269   8.883227   8.873318   7.285710   5.215576
    33  H    9.817993   9.285664   9.005284   7.502378   5.742398
    34  H    8.568561   7.821130   7.682476   6.559450   5.228527
    35  H   10.633784   9.930113  10.086918   8.879076   7.123194
    36  H   12.484649  11.564403  11.867981  10.927672   9.347650
    37  H   14.271712  13.195043  13.459178  12.689225  11.291964
    38  H   15.255909  14.045898  14.221172  13.662630  12.547437
    39  H   14.502210  13.269197  13.316922  12.852004  11.949753
    40  H   15.257951  14.167650  14.122748  13.359202  12.174545
    41  H   12.434845  11.352601  11.197129  10.529831   9.606216
    42  H   10.349467   9.422167   9.237545   8.337894   7.237145
    43  H    5.081089   4.736548   5.476451   4.945632   4.305298
    44  H    3.147374   2.495548   3.717262   4.304055   4.950132
                   26         27         28         29         30
    26  H    0.000000
    27  H    2.363840   0.000000
    28  H    2.976601   1.746124   0.000000
    29  H    3.163063   3.070597   2.566392   0.000000
    30  H    3.803416   2.510627   2.411018   1.759326   0.000000
    31  H    2.280508   3.068707   3.839924   2.528860   3.066863
    32  H    3.121721   2.510871   3.725021   3.066835   2.494494
    33  H    4.987547   4.360343   4.790648   3.048231   2.506626
    34  H    4.478417   4.692925   4.881541   2.519358   3.098529
    35  H    4.903847   4.865550   5.962970   4.550871   4.261209
    36  H    7.005160   7.158410   8.286965   6.709177   6.494636
    37  H    9.291902   9.420725  10.394978   8.555529   8.374194
    38  H   11.036559  11.218965  11.939199   9.813847   9.788164
    39  H   10.915259  11.125679  11.595783   9.293383   9.422397
    40  H   11.083160  10.949362  11.535836   9.445515   9.239417
    41  H    9.035023   9.096238   9.347758   7.002909   7.158746
    42  H    6.677469   6.740959   6.943557   4.584770   4.842580
    43  H    2.310110   4.578628   4.653671   4.492042   5.703446
    44  H    4.573120   6.630460   6.185239   5.750085   7.290716
                   31         32         33         34         35
    31  H    0.000000
    32  H    1.760528   0.000000
    33  H    3.061473   2.519134   0.000000
    34  H    2.472554   3.059074   1.781778   0.000000
    35  H    2.822555   2.360569   2.548199   2.965192   0.000000
    36  H    4.932319   4.663591   4.377400   4.648179   2.326761
    37  H    7.111062   6.910944   5.968102   6.196450   4.572723
    38  H    8.781276   8.764197   7.290283   7.319776   6.523318
    39  H    8.659019   8.802901   6.984172   6.820328   6.772522
    40  H    8.804521   8.588772   6.758666   7.052945   6.555434
    41  H    6.827757   6.986658   4.855371   4.656926   5.380035
    42  H    4.532358   4.790724   2.685435   2.237119   3.680865
    43  H    3.825701   5.204733   6.688002   5.645194   6.500670
    44  H    5.747476   7.290937   8.259371   6.905819   8.400567
                   36         37         38         39         40
    36  H    0.000000
    37  H    2.447287   0.000000
    38  H    4.709264   2.447282   0.000000
    39  H    5.439759   3.672811   1.764029   0.000000
    40  H    5.151687   3.246144   1.778300   1.782887   0.000000
    41  H    4.947826   4.305893   3.745141   2.543750   3.052017
    42  H    4.306602   4.951961   5.491238   4.744638   5.024432
    43  H    8.302620  10.437185  11.988564  11.752547  12.235392
    44  H   10.060582  11.945998  13.160522  12.676758  13.423841
                   41         42         43         44
    41  H    0.000000
    42  H    2.434408   0.000000
    43  H    9.976857   7.732502   0.000000
    44  H   10.876687   8.779802   2.446980   0.000000
 Stoichiometry    C18H24N2
 Framework group  C1[X(C18H24N2)]
 Deg. of freedom   126
 Full point group                 C1      NOp   1
 Largest Abelian subgroup         C1      NOp   1
 Largest concise Abelian subgroup C1      NOp   1
                         Standard orientation:                         
 ---------------------------------------------------------------------
 Center     Atomic      Atomic             Coordinates (Angstroms)
 Number     Number       Type             X           Y           Z
 ---------------------------------------------------------------------
      1          6           0        6.170908    2.882886   -0.038112
      2          6           0        5.309728    1.661313    0.080009
      3          6           0        5.020254    0.883522   -1.043255
      4          6           0        4.241784   -0.276056   -0.927951
      5          6           0        3.719379   -0.682088    0.304010
      6          7           0        2.989032   -1.856739    0.489419
      7          6           0        2.278309   -2.506788   -0.605859
      8          6           0        1.050576   -1.713889   -1.061691
      9          6           0       -0.045212   -1.649024    0.005556
     10          6           0       -1.260260   -0.866121   -0.496239
     11          7           0       -2.292965   -0.864393    0.534658
     12          6           0       -3.528585   -0.260512    0.267810
     13          6           0       -4.611757   -0.559972    1.106350
     14          6           0       -5.859152    0.051582    0.937665
     15          6           0       -6.043448    1.016969   -0.053909
     16          6           0       -7.380917    1.661375   -0.260301
     17          6           0       -4.964756    1.344329   -0.878933
     18          6           0       -3.719812    0.725749   -0.705368
     19          6           0        4.063898    0.078238    1.430752
     20          6           0        4.840147    1.238043    1.324531
     21          1           0        7.225284    2.609882    0.070151
     22          1           0        5.914979    3.617681    0.732202
     23          1           0        6.027453    3.368537   -1.009799
     24          1           0        5.404512    1.165798   -2.020236
     25          1           0        4.062948   -0.853782   -1.828854
     26          1           0        2.466737   -1.853252    1.361934
     27          1           0        1.958717   -3.497131   -0.258966
     28          1           0        2.947670   -2.693579   -1.452796
     29          1           0        1.336970   -0.697865   -1.357197
     30          1           0        0.642601   -2.198741   -1.957574
     31          1           0        0.336311   -1.172553    0.916234
     32          1           0       -0.347753   -2.666322    0.283645
     33          1           0       -1.644548   -1.329674   -1.412741
     34          1           0       -0.946551    0.158721   -0.725564
     35          1           0       -2.421038   -1.773031    0.973431
     36          1           0       -4.493551   -1.282322    1.910295
     37          1           0       -6.678408   -0.225216    1.597021
     38          1           0       -7.986986    1.613683    0.650837
     39          1           0       -7.264560    2.719341   -0.518529
     40          1           0       -7.920551    1.154482   -1.065866
     41          1           0       -5.078037    2.094564   -1.658459
     42          1           0       -2.905452    1.040504   -1.349957
     43          1           0        3.726461   -0.229963    2.417699
     44          1           0        5.077813    1.800824    2.224160
 ---------------------------------------------------------------------
 Rotational constants (GHZ):           0.6817216           0.0947830           0.0886876
 Standard basis: 6-31G(d,p) (6D, 7F)
 There are   420 symmetry adapted cartesian basis functions of A   symmetry.
 There are   420 symmetry adapted basis functions of A   symmetry.
   420 basis functions,   728 primitive gaussians,   420 cartesian basis functions
    73 alpha electrons       73 beta electrons
       nuclear repulsion energy      1374.7029867505 Hartrees.
 NAtoms=   44 NActive=   44 NUniq=   44 SFac= 1.00D+00 NAtFMM=   60 NAOKFM=F Big=F
 Integral buffers will be    131072 words long.
 Raffenetti 2 integral format.
 Two-electron integral symmetry is turned on.
 Force inversion solution in PCM.
 ------------------------------------------------------------------------------
 Polarizable Continuum Model (PCM)
 =================================
 Model                : PCM.
 Atomic radii         : UFF (Universal Force Field).
 Polarization charges : Total charges.
 Charge compensation  : None.
 Solution method      : Matrix inversion.
 Cavity type          : Scaled VdW (van der Waals Surface) (Alpha=1.100).
 Cavity algorithm     : GePol (No added spheres)
                        Default sphere list used, NSphG=   44.
                        Lebedev-Laikov grids with approx.  5.0 points / Ang**2.
                        Smoothing algorithm: York/Karplus (Gamma=1.0000).
                        Polarization charges: spherical gaussians, with
                                              point-specific exponents (IZeta= 3).
                        Self-potential: point-specific (ISelfS= 7).
                        Self-field    : sphere-specific E.n sum rule (ISelfD= 2).
 1st derivatives      : Analytical E(r).r(x)/FMM algorithm (CHGder, D1EAlg=3).
                        Cavity 1st derivative terms included.
 2nd derivatives      : Analytical E(r).r(xy)/FMM algorithm (CHGder, D2EAlg=3).
                        Cavity 2nd derivative terms included.
 Solvent              : Water, Eps=  78.355300 Eps(inf)=   1.777849
 ------------------------------------------------------------------------------
 One-electron integrals computed using PRISM.
 NBasis=   420 RedAO= T EigKep=  4.13D-04  NBF=   420
 NBsUse=   420 1.00D-06 EigRej= -1.00D+00 NBFU=   420
 ExpMin= 1.61D-01 ExpMax= 4.17D+03 ExpMxC= 6.27D+02 IAcc=3 IRadAn=         5 AccDes= 0.00D+00
 Harris functional with IExCor=  402 and IRadAn=       5 diagonalized for initial guess.
 HarFok:  IExCor=  402 AccDes= 0.00D+00 IRadAn=         5 IDoV= 1 UseB2=F ITyADJ=14
 ICtDFT=  3500011 ScaDFX=  1.000000  1.000000  1.000000  1.000000
 FoFCou: FMM=F IPFlag=           0 FMFlag=      100000 FMFlg1=           0
         NFxFlg=           0 DoJE=T BraDBF=F KetDBF=T FulRan=T
         wScrn=  0.000000 ICntrl=       500 IOpCl=  0 I1Cent=   200000004 NGrid=           0
         NMat0=    1 NMatS0=      1 NMatT0=    0 NMatD0=    1 NMtDS0=    0 NMtDT0=    0
 Petite list used in FoFCou.
 Requested convergence on RMS density matrix=1.00D-08 within  32 cycles.
 Requested convergence on MAX density matrix=1.00D-06.
 Requested convergence on             energy=1.00D-06.
 No special actions if energy rises.
 Inv3:  Mode=1 IEnd=    27925803.
 Iteration    1 A*A^-1 deviation from unit magnitude is 3.11D-15 for    937.
 Iteration    1 A*A^-1 deviation from orthogonality  is 2.00D-15 for   1666     93.
 Iteration    1 A^-1*A deviation from unit magnitude is 3.00D-15 for   2264.
 Iteration    1 A^-1*A deviation from orthogonality  is 1.80D-12 for   2092   2048.
 Error on total polarization charges =  0.01388
 SCF Done:  E(RB3LYP) =  -809.925930056     A.U. after   12 cycles
            NFock= 12  Conv=0.48D-08     -V/T= 2.0097
 QCSCF skips out because SCF is already converged.
 DoSCS=F DFT=T ScalE2(SS,OS)=  1.000000  1.000000
 Range of M.O.s used for correlation:     1   420
 NBasis=   420 NAE=    73 NBE=    73 NFC=     0 NFV=     0
 NROrb=    420 NOA=    73 NOB=    73 NVA=   347 NVB=   347
 Symmetrizing basis deriv contribution to polar:
 IMax=3 JMax=2 DiffMx= 0.00D+00
 G2DrvN: will do    45 centers at a time, making    1 passes.
 Calling FoFCou, ICntrl=  3107 FMM=F I1Cent=   0 AccDes= 0.00D+00.
 NEqPCM:  Using equilibrium solvation (IEInf=0, Eps=  78.3553, EpsInf=   1.7778)
 G2PCM: DoFxE=T DoFxN=T DoGrad=T DoDP/DQ/DG/TGxP=FFFF NFrqRd=   0 IEInf=0 SqF1=F DoCFld=F IF1Alg=4.
 End of G2Drv F.D. properties file   721 does not exist.
 End of G2Drv F.D. properties file   722 does not exist.
 End of G2Drv F.D. properties file   788 does not exist.
          IDoAtm=11111111111111111111111111111111111111111111
 NEqPCM:  Using equilibrium solvation (IEInf=0, Eps=  78.3553, EpsInf=   1.7778)
          Differentiating once with respect to nuclear coordinates.
 CalDSu exits because no D1Ps are significant.
          There are   135 degrees of freedom in the 1st order CPHF.  IDoFFX=6 NUNeed=     0.
    129 vectors produced by pass  0 Test12= 2.53D-14 1.00D-09 XBig12= 1.55D-01 1.56D-01.
 AX will form   129 AO Fock derivatives at one time.
    129 vectors produced by pass  1 Test12= 2.53D-14 1.00D-09 XBig12= 1.48D-02 3.47D-02.
    129 vectors produced by pass  2 Test12= 2.53D-14 1.00D-09 XBig12= 1.00D-04 1.71D-03.
    129 vectors produced by pass  3 Test12= 2.53D-14 1.00D-09 XBig12= 2.43D-07 5.45D-05.
    129 vectors produced by pass  4 Test12= 2.53D-14 1.00D-09 XBig12= 2.56D-10 1.35D-06.
     70 vectors produced by pass  5 Test12= 2.53D-14 1.00D-09 XBig12= 2.40D-13 3.94D-08.
      4 vectors produced by pass  6 Test12= 2.53D-14 1.00D-09 XBig12= 2.33D-16 1.28D-09.
 InvSVY:  IOpt=1 It=  1 EMax= 6.66D-16
 Solved reduced A of dimension   719 with   135 vectors.
 End of Minotr F.D. properties file   721 does not exist.
 End of Minotr F.D. properties file   722 does not exist.
 End of Minotr F.D. properties file   788 does not exist.

 **********************************************************************

            Population analysis using the SCF density.

 **********************************************************************

 Orbital symmetries:
       Occupied  (A) (A) (A) (A) (A) (A) (A) (A) (A) (A) (A) (A)
                 (A) (A) (A) (A) (A) (A) (A) (A) (A) (A) (A) (A)
                 (A) (A) (A) (A) (A) (A) (A) (A) (A) (A) (A) (A)
                 (A) (A) (A) (A) (A) (A) (A) (A) (A) (A) (A) (A)
                 (A) (A) (A) (A) (A) (A) (A) (A) (A) (A) (A) (A)
                 (A) (A) (A) (A) (A) (A) (A) (A) (A) (A) (A) (A)
                 (A)
       Virtual   (A) (A) (A) (A) (A) (A) (A) (A) (A) (A) (A) (A)
                 (A) (A) (A) (A) (A) (A) (A) (A) (A) (A) (A) (A)
                 (A) (A) (A) (A) (A) (A) (A) (A) (A) (A) (A) (A)
                 (A) (A) (A) (A) (A) (A) (A) (A) (A) (A) (A) (A)
                 (A) (A) (A) (A) (A) (A) (A) (A) (A) (A) (A) (A)
                 (A) (A) (A) (A) (A) (A) (A) (A) (A) (A) (A) (A)
                 (A) (A) (A) (A) (A) (A) (A) (A) (A) (A) (A) (A)
                 (A) (A) (A) (A) (A) (A) (A) (A) (A) (A) (A) (A)
                 (A) (A) (A) (A) (A) (A) (A) (A) (A) (A) (A) (A)
                 (A) (A) (A) (A) (A) (A) (A) (A) (A) (A) (A) (A)
                 (A) (A) (A) (A) (A) (A) (A) (A) (A) (A) (A) (A)
                 (A) (A) (A) (A) (A) (A) (A) (A) (A) (A) (A) (A)
                 (A) (A) (A) (A) (A) (A) (A) (A) (A) (A) (A) (A)
                 (A) (A) (A) (A) (A) (A) (A) (A) (A) (A) (A) (A)
                 (A) (A) (A) (A) (A) (A) (A) (A) (A) (A) (A) (A)
                 (A) (A) (A) (A) (A) (A) (A) (A) (A) (A) (A) (A)
                 (A) (A) (A) (A) (A) (A) (A) (A) (A) (A) (A) (A)
                 (A) (A) (A) (A) (A) (A) (A) (A) (A) (A) (A) (A)
                 (A) (A) (A) (A) (A) (A) (A) (A) (A) (A) (A) (A)
                 (A) (A) (A) (A) (A) (A) (A) (A) (A) (A) (A) (A)
                 (A) (A) (A) (A) (A) (A) (A) (A) (A) (A) (A) (A)
                 (A) (A) (A) (A) (A) (A) (A) (A) (A) (A) (A) (A)
                 (A) (A) (A) (A) (A) (A) (A) (A) (A) (A) (A) (A)
                 (A) (A) (A) (A) (A) (A) (A) (A) (A) (A) (A) (A)
                 (A) (A) (A) (A) (A) (A) (A) (A) (A) (A) (A) (A)
                 (A) (A) (A) (A) (A) (A) (A) (A) (A) (A) (A) (A)
                 (A) (A) (A) (A) (A) (A) (A) (A) (A) (A) (A) (A)
                 (A) (A) (A) (A) (A) (A) (A) (A) (A) (A) (A) (A)
                 (A) (A) (A) (A) (A) (A) (A) (A) (A) (A) (A)
 The electronic state is 1-A.
 Alpha  occ. eigenvalues --  -14.33755 -14.33579 -10.22116 -10.21924 -10.21352
 Alpha  occ. eigenvalues --  -10.21163 -10.18307 -10.18197 -10.18165 -10.18164
 Alpha  occ. eigenvalues --  -10.18151 -10.18119 -10.18040 -10.17938 -10.17875
 Alpha  occ. eigenvalues --  -10.17862 -10.17850 -10.17807 -10.17454 -10.17434
 Alpha  occ. eigenvalues --   -0.92817  -0.92607  -0.84178  -0.83996  -0.79242
 Alpha  occ. eigenvalues --   -0.76296  -0.74847  -0.73745  -0.73644  -0.71019
 Alpha  occ. eigenvalues --   -0.67360  -0.65960  -0.63430  -0.60763  -0.59784
 Alpha  occ. eigenvalues --   -0.58544  -0.57088  -0.56506  -0.52217  -0.51205
 Alpha  occ. eigenvalues --   -0.48904  -0.48507  -0.46699  -0.45300  -0.45213
 Alpha  occ. eigenvalues --   -0.44000  -0.43364  -0.42883  -0.42545  -0.41589
 Alpha  occ. eigenvalues --   -0.41546  -0.41242  -0.41018  -0.40784  -0.40020
 Alpha  occ. eigenvalues --   -0.38463  -0.37234  -0.37065  -0.36296  -0.35685
 Alpha  occ. eigenvalues --   -0.34469  -0.34325  -0.34057  -0.33572  -0.33260
 Alpha  occ. eigenvalues --   -0.32835  -0.32605  -0.28266  -0.28227  -0.24459
 Alpha  occ. eigenvalues --   -0.24426  -0.19300  -0.18976
 Alpha virt. eigenvalues --    0.00059   0.00086   0.02093   0.02174   0.08627
 Alpha virt. eigenvalues --    0.09823   0.09988   0.10358   0.10761   0.11417
 Alpha virt. eigenvalues --    0.12772   0.13332   0.13819   0.14462   0.15075
 Alpha virt. eigenvalues --    0.15201   0.15471   0.16129   0.16958   0.17413
 Alpha virt. eigenvalues --    0.17871   0.18143   0.18691   0.18888   0.19567
 Alpha virt. eigenvalues --    0.20538   0.20784   0.21208   0.21457   0.22417
 Alpha virt. eigenvalues --    0.23459   0.23634   0.24100   0.24615   0.25149
 Alpha virt. eigenvalues --    0.26666   0.28399   0.29309   0.30293   0.33183
 Alpha virt. eigenvalues --    0.34224   0.34407   0.34908   0.35134   0.35469
 Alpha virt. eigenvalues --    0.37515   0.38986   0.47145   0.47762   0.49219
 Alpha virt. eigenvalues --    0.50803   0.51339   0.51846   0.52241   0.52521
 Alpha virt. eigenvalues --    0.53249   0.54160   0.54269   0.55103   0.55511
 Alpha virt. eigenvalues --    0.55804   0.56736   0.57675   0.58353   0.58602
 Alpha virt. eigenvalues --    0.59104   0.59428   0.60274   0.60293   0.60396
 Alpha virt. eigenvalues --    0.61138   0.62295   0.62691   0.63007   0.63422
 Alpha virt. eigenvalues --    0.63890   0.65056   0.65743   0.66019   0.66848
 Alpha virt. eigenvalues --    0.68419   0.69248   0.69954   0.70736   0.71449
 Alpha virt. eigenvalues --    0.71735   0.72381   0.74677   0.75228   0.75651
 Alpha virt. eigenvalues --    0.76779   0.77141   0.78647   0.79688   0.80341
 Alpha virt. eigenvalues --    0.81554   0.82008   0.82528   0.83030   0.83927
 Alpha virt. eigenvalues --    0.84585   0.85352   0.85557   0.85841   0.86618
 Alpha virt. eigenvalues --    0.87019   0.87797   0.88474   0.89043   0.89380
 Alpha virt. eigenvalues --    0.89819   0.90510   0.90861   0.92117   0.93462
 Alpha virt. eigenvalues --    0.93851   0.94111   0.94855   0.95205   0.95569
 Alpha virt. eigenvalues --    0.96528   0.97880   0.99098   1.00442   1.01376
 Alpha virt. eigenvalues --    1.01758   1.04183   1.04494   1.06077   1.08044
 Alpha virt. eigenvalues --    1.09394   1.12004   1.13363   1.15184   1.17066
 Alpha virt. eigenvalues --    1.17495   1.18022   1.18190   1.18751   1.21486
 Alpha virt. eigenvalues --    1.23002   1.24580   1.27342   1.27393   1.28460
 Alpha virt. eigenvalues --    1.31028   1.31696   1.32799   1.34654   1.37964
 Alpha virt. eigenvalues --    1.39586   1.40176   1.41332   1.41632   1.42338
 Alpha virt. eigenvalues --    1.42564   1.43340   1.44172   1.45111   1.47119
 Alpha virt. eigenvalues --    1.47880   1.48812   1.53197   1.55034   1.59414
 Alpha virt. eigenvalues --    1.62000   1.63226   1.67584   1.69777   1.73106
 Alpha virt. eigenvalues --    1.74085   1.74446   1.74981   1.76458   1.77097
 Alpha virt. eigenvalues --    1.77769   1.78589   1.78836   1.81309   1.81515
 Alpha virt. eigenvalues --    1.82671   1.83342   1.84445   1.84882   1.85610
 Alpha virt. eigenvalues --    1.85736   1.86523   1.88516   1.90480   1.90978
 Alpha virt. eigenvalues --    1.91866   1.93213   1.93582   1.94295   1.95057
 Alpha virt. eigenvalues --    1.96808   1.97366   1.97539   1.98047   2.00296
 Alpha virt. eigenvalues --    2.01415   2.01901   2.02774   2.03417   2.05154
 Alpha virt. eigenvalues --    2.05321   2.06350   2.07309   2.07559   2.07909
 Alpha virt. eigenvalues --    2.08994   2.10034   2.10426   2.10877   2.13289
 Alpha virt. eigenvalues --    2.14448   2.14892   2.15022   2.15615   2.17634
 Alpha virt. eigenvalues --    2.18979   2.21526   2.21589   2.23498   2.24274
 Alpha virt. eigenvalues --    2.25622   2.26880   2.28564   2.29925   2.30686
 Alpha virt. eigenvalues --    2.30750   2.31435   2.32645   2.33100   2.33278
 Alpha virt. eigenvalues --    2.35867   2.38098   2.39313   2.39808   2.40825
 Alpha virt. eigenvalues --    2.41521   2.41948   2.42196   2.42621   2.43537
 Alpha virt. eigenvalues --    2.44509   2.45116   2.48458   2.48828   2.49435
 Alpha virt. eigenvalues --    2.49774   2.51043   2.52447   2.53154   2.53958
 Alpha virt. eigenvalues --    2.55805   2.57460   2.57769   2.58618   2.59394
 Alpha virt. eigenvalues --    2.59750   2.59912   2.61368   2.62390   2.63873
 Alpha virt. eigenvalues --    2.65802   2.65962   2.67758   2.69559   2.70434
 Alpha virt. eigenvalues --    2.70740   2.71572   2.73172   2.73552   2.75861
 Alpha virt. eigenvalues --    2.76514   2.77749   2.78289   2.80406   2.80949
 Alpha virt. eigenvalues --    2.82015   2.83176   2.85518   2.86170   2.87168
 Alpha virt. eigenvalues --    2.88204   2.88963   2.89226   2.89488   2.91089
 Alpha virt. eigenvalues --    2.91737   2.92365   2.93613   2.99385   3.01469
 Alpha virt. eigenvalues --    3.06568   3.06872   3.08060   3.09342   3.19403
 Alpha virt. eigenvalues --    3.19473   3.20120   3.20832   3.24641   3.25824
 Alpha virt. eigenvalues --    3.25837   3.28063   3.30101   3.31167   3.33359
 Alpha virt. eigenvalues --    3.34965   3.37129   3.37878   3.39739   3.42380
 Alpha virt. eigenvalues --    3.43980   3.44121   3.46850   3.47574   3.49841
 Alpha virt. eigenvalues --    3.51064   3.51992   3.53756   3.55861   3.58699
 Alpha virt. eigenvalues --    3.83481   3.83744   4.13936   4.14071   4.15555
 Alpha virt. eigenvalues --    4.15867   4.16379   4.16988   4.19680   4.21995
 Alpha virt. eigenvalues --    4.34560   4.38576   4.38942   4.44220   4.44578
 Alpha virt. eigenvalues --    4.50333   4.53478   4.55470   4.61476   4.73947
 Alpha virt. eigenvalues --    4.84803   4.85303
          Condensed to atoms (all electrons):
               1          2          3          4          5          6
     1  C    5.034516   0.356510  -0.063988   0.007516   0.000421   0.000001
     2  C    0.356510   4.710342   0.553920  -0.034625  -0.028806   0.000440
     3  C   -0.063988   0.553920   4.912788   0.499772  -0.023631   0.004966
     4  C    0.007516  -0.034625   0.499772   4.972180   0.532116  -0.071869
     5  C    0.000421  -0.028806  -0.023631   0.532116   4.571650   0.285879
     6  N    0.000001   0.000440   0.004966  -0.071869   0.285879   6.931281
     7  C   -0.000000  -0.000010   0.000037  -0.004119  -0.038261   0.308751
     8  C    0.000000   0.000004  -0.000113  -0.002836  -0.000384  -0.073757
     9  C   -0.000000  -0.000000   0.000003   0.000188  -0.000492  -0.006521
    10  C   -0.000000   0.000000  -0.000000  -0.000007  -0.000020   0.000237
    11  N   -0.000000   0.000000   0.000000  -0.000000  -0.000000   0.000001
    12  C    0.000000   0.000000  -0.000000  -0.000000   0.000000   0.000000
    13  C    0.000000   0.000000   0.000000  -0.000000  -0.000000   0.000000
    14  C    0.000000  -0.000000  -0.000000   0.000000  -0.000000  -0.000000
    15  C   -0.000000  -0.000000   0.000000   0.000000   0.000000  -0.000000
    16  C    0.000000   0.000000   0.000000  -0.000000   0.000000  -0.000000
    17  C    0.000000   0.000000   0.000000  -0.000000  -0.000000   0.000000
    18  C    0.000000   0.000000   0.000000  -0.000000  -0.000000   0.000000
    19  C    0.007492  -0.034747  -0.050716  -0.048654   0.525040  -0.067292
    20  C   -0.064241   0.550492  -0.025091  -0.050019  -0.022629   0.004834
    21  H    0.374027  -0.030805  -0.002191  -0.000225   0.000064   0.000000
    22  H    0.374218  -0.029234   0.003160  -0.000215   0.000001  -0.000000
    23  H    0.374227  -0.029223  -0.004000   0.000196   0.000008  -0.000000
    24  H   -0.009293  -0.044716   0.368062  -0.039170   0.003805  -0.000110
    25  H   -0.000200   0.004051  -0.034869   0.361814  -0.042190  -0.008607
    26  H   -0.000000  -0.000012  -0.000085   0.006248  -0.030332   0.351826
    27  H   -0.000000   0.000000  -0.000005   0.000104   0.004396  -0.035894
    28  H   -0.000000  -0.000006   0.000206   0.003976  -0.009920  -0.031556
    29  H   -0.000000  -0.000004  -0.000177   0.003843   0.006924  -0.009301
    30  H   -0.000000   0.000000   0.000005  -0.000066  -0.000154   0.005652
    31  H   -0.000000   0.000001   0.000001  -0.000021   0.000886   0.006159
    32  H    0.000000   0.000000  -0.000000  -0.000004   0.000012  -0.000155
    33  H    0.000000  -0.000000   0.000000   0.000000   0.000000  -0.000005
    34  H    0.000000   0.000000  -0.000000  -0.000005  -0.000006   0.000016
    35  H    0.000000   0.000000   0.000000   0.000000  -0.000000   0.000000
    36  H    0.000000   0.000000   0.000000  -0.000000   0.000000  -0.000000
    37  H    0.000000   0.000000   0.000000  -0.000000   0.000000   0.000000
    38  H    0.000000   0.000000   0.000000  -0.000000   0.000000   0.000000
    39  H    0.000000   0.000000   0.000000   0.000000   0.000000   0.000000
    40  H    0.000000   0.000000   0.000000  -0.000000  -0.000000  -0.000000
    41  H    0.000000   0.000000   0.000000  -0.000000  -0.000000   0.000000
    42  H   -0.000000   0.000000   0.000000   0.000000  -0.000000   0.000000
    43  H   -0.000198   0.004080   0.000759   0.005360  -0.045644  -0.008574
    44  H   -0.009437  -0.044475   0.005762   0.000502   0.003882  -0.000105
               7          8          9         10         11         12
     1  C   -0.000000   0.000000  -0.000000  -0.000000  -0.000000   0.000000
     2  C   -0.000010   0.000004  -0.000000   0.000000   0.000000   0.000000
     3  C    0.000037  -0.000113   0.000003  -0.000000   0.000000  -0.000000
     4  C   -0.004119  -0.002836   0.000188  -0.000007  -0.000000  -0.000000
     5  C   -0.038261  -0.000384  -0.000492  -0.000020  -0.000000   0.000000
     6  N    0.308751  -0.073757  -0.006521   0.000237   0.000001   0.000000
     7  C    4.818545   0.355927  -0.037863   0.003486  -0.000077   0.000001
     8  C    0.355927   4.995598   0.362999  -0.035658   0.003061  -0.000113
     9  C   -0.037863   0.362999   4.960110   0.369261  -0.041751   0.003750
    10  C    0.003486  -0.035658   0.369261   4.791659   0.278053  -0.033824
    11  N   -0.000077   0.003061  -0.041751   0.278053   6.990194   0.281694
    12  C    0.000001  -0.000113   0.003750  -0.033824   0.281694   4.583287
    13  C   -0.000000   0.000003  -0.000219   0.004435  -0.066105   0.519523
    14  C    0.000000  -0.000000   0.000003  -0.000155   0.004818  -0.021631
    15  C    0.000000  -0.000000  -0.000000   0.000005   0.000440  -0.029695
    16  C    0.000000  -0.000000  -0.000000  -0.000000   0.000001   0.000421
    17  C   -0.000000  -0.000000  -0.000005   0.000014   0.004908  -0.023112
    18  C    0.000000   0.000005   0.000382  -0.006629  -0.069718   0.531260
    19  C    0.005189   0.000337  -0.000034  -0.000003   0.000000  -0.000000
    20  C   -0.000137   0.000007  -0.000001   0.000000   0.000000   0.000000
    21  H   -0.000000  -0.000000  -0.000000   0.000000   0.000000   0.000000
    22  H    0.000000  -0.000000   0.000000  -0.000000  -0.000000  -0.000000
    23  H    0.000000  -0.000000   0.000000  -0.000000  -0.000000  -0.000000
    24  H    0.000007  -0.000002   0.000000   0.000000   0.000000  -0.000000
    25  H    0.003085  -0.000322   0.000015  -0.000000  -0.000000   0.000000
    26  H   -0.040104  -0.002649   0.003261  -0.000114  -0.000000  -0.000000
    27  H    0.387253  -0.048175  -0.008069   0.000109  -0.000000   0.000000
    28  H    0.384223  -0.043808   0.004327  -0.000116   0.000001  -0.000000
    29  H   -0.033923   0.384198  -0.039741  -0.004381   0.000039   0.000001
    30  H   -0.029493   0.364818  -0.038406  -0.004378   0.000045   0.000004
    31  H   -0.005571  -0.037017   0.372381  -0.035237   0.003959   0.000388
    32  H   -0.003158  -0.038853   0.383755  -0.036689  -0.004249  -0.000042
    33  H   -0.000000  -0.000704  -0.043129   0.381897  -0.058230   0.002659
    34  H   -0.000013  -0.004588  -0.029909   0.383928  -0.038429  -0.008109
    35  H   -0.000003  -0.000081  -0.004619  -0.040531   0.344327  -0.028095
    36  H    0.000000   0.000000  -0.000021   0.000072  -0.008318  -0.046166
    37  H   -0.000000   0.000000  -0.000000   0.000002  -0.000108   0.003838
    38  H   -0.000000  -0.000000   0.000000   0.000000  -0.000000   0.000019
    39  H   -0.000000  -0.000000  -0.000000  -0.000000   0.000000   0.000033
    40  H    0.000000   0.000000   0.000000  -0.000000  -0.000000   0.000014
    41  H   -0.000000   0.000000  -0.000000   0.000002  -0.000107   0.003861
    42  H   -0.000000   0.000009  -0.000094   0.004597  -0.009015  -0.043021
    43  H    0.000078   0.000014  -0.000017   0.000000   0.000000  -0.000000
    44  H    0.000002  -0.000000   0.000000  -0.000000  -0.000000  -0.000000
              13         14         15         16         17         18
     1  C    0.000000   0.000000  -0.000000   0.000000   0.000000   0.000000
     2  C    0.000000  -0.000000  -0.000000   0.000000   0.000000   0.000000
     3  C    0.000000  -0.000000   0.000000   0.000000   0.000000   0.000000
     4  C   -0.000000   0.000000   0.000000  -0.000000  -0.000000  -0.000000
     5  C   -0.000000  -0.000000   0.000000   0.000000  -0.000000  -0.000000
     6  N    0.000000  -0.000000  -0.000000  -0.000000   0.000000   0.000000
     7  C   -0.000000   0.000000   0.000000   0.000000  -0.000000   0.000000
     8  C    0.000003  -0.000000  -0.000000  -0.000000  -0.000000   0.000005
     9  C   -0.000219   0.000003  -0.000000  -0.000000  -0.000005   0.000382
    10  C    0.004435  -0.000155   0.000005  -0.000000   0.000014  -0.006629
    11  N   -0.066105   0.004818   0.000440   0.000001   0.004908  -0.069718
    12  C    0.519523  -0.021631  -0.029695   0.000421  -0.023112   0.531260
    13  C    5.006160   0.503996  -0.034979   0.007760  -0.050233  -0.048710
    14  C    0.503996   4.897680   0.552630  -0.061413  -0.025396  -0.049885
    15  C   -0.034979   0.552630   4.706869   0.356739   0.551477  -0.032532
    16  C    0.007760  -0.061413   0.356739   5.034428  -0.066551   0.007271
    17  C   -0.050233  -0.025396   0.551477  -0.066551   4.918054   0.497788
    18  C   -0.048710  -0.049885  -0.032532   0.007271   0.497788   4.973047
    19  C   -0.000000   0.000000   0.000000  -0.000000  -0.000000  -0.000000
    20  C   -0.000000   0.000000   0.000000  -0.000000   0.000000  -0.000000
    21  H    0.000000   0.000000   0.000000   0.000000   0.000000   0.000000
    22  H   -0.000000   0.000000   0.000000   0.000000  -0.000000  -0.000000
    23  H   -0.000000   0.000000   0.000000   0.000000  -0.000000  -0.000000
    24  H   -0.000000   0.000000  -0.000000   0.000000   0.000000   0.000000
    25  H   -0.000000  -0.000000   0.000000  -0.000000   0.000000  -0.000000
    26  H    0.000000  -0.000000  -0.000000   0.000000   0.000000   0.000000
    27  H    0.000000   0.000000   0.000000   0.000000   0.000000  -0.000000
    28  H    0.000000  -0.000000  -0.000000   0.000000   0.000000   0.000000
    29  H   -0.000000  -0.000000  -0.000000   0.000000   0.000000  -0.000001
    30  H    0.000000  -0.000000   0.000000   0.000000  -0.000000  -0.000001
    31  H    0.000005  -0.000000   0.000000   0.000000  -0.000000  -0.000036
    32  H   -0.000037  -0.000000  -0.000000   0.000000   0.000000   0.000020
    33  H    0.000764   0.000000  -0.000013  -0.000000  -0.000195   0.002759
    34  H   -0.000223   0.000003  -0.000003   0.000000   0.000263   0.004002
    35  H   -0.011563  -0.000035  -0.000004  -0.000000  -0.000096   0.006557
    36  H    0.361592  -0.033705   0.004132  -0.000200   0.000748   0.005310
    37  H   -0.040129   0.367420  -0.042894  -0.010018   0.005856   0.000492
    38  H    0.000142  -0.004033  -0.029082   0.373886   0.003494  -0.000243
    39  H   -0.000257   0.002800  -0.029230   0.373944  -0.004029   0.000034
    40  H   -0.000151  -0.001535  -0.030918   0.374651  -0.002631  -0.000024
    41  H    0.000606   0.005617  -0.045683  -0.009027   0.368728  -0.039102
    42  H    0.005221   0.000766   0.003948  -0.000197  -0.035211   0.362573
    43  H   -0.000000   0.000000   0.000000  -0.000000  -0.000000  -0.000000
    44  H   -0.000000   0.000000  -0.000000   0.000000   0.000000   0.000000
              19         20         21         22         23         24
     1  C    0.007492  -0.064241   0.374027   0.374218   0.374227  -0.009293
     2  C   -0.034747   0.550492  -0.030805  -0.029234  -0.029223  -0.044716
     3  C   -0.050716  -0.025091  -0.002191   0.003160  -0.004000   0.368062
     4  C   -0.048654  -0.050019  -0.000225  -0.000215   0.000196  -0.039170
     5  C    0.525040  -0.022629   0.000064   0.000001   0.000008   0.003805
     6  N   -0.067292   0.004834   0.000000  -0.000000  -0.000000  -0.000110
     7  C    0.005189  -0.000137  -0.000000   0.000000   0.000000   0.000007
     8  C    0.000337   0.000007  -0.000000  -0.000000  -0.000000  -0.000002
     9  C   -0.000034  -0.000001  -0.000000   0.000000   0.000000   0.000000
    10  C   -0.000003   0.000000   0.000000  -0.000000  -0.000000   0.000000
    11  N    0.000000   0.000000   0.000000  -0.000000  -0.000000   0.000000
    12  C   -0.000000   0.000000   0.000000  -0.000000  -0.000000  -0.000000
    13  C   -0.000000  -0.000000   0.000000  -0.000000  -0.000000  -0.000000
    14  C    0.000000   0.000000   0.000000   0.000000   0.000000   0.000000
    15  C    0.000000   0.000000   0.000000   0.000000   0.000000  -0.000000
    16  C   -0.000000  -0.000000   0.000000   0.000000   0.000000   0.000000
    17  C   -0.000000   0.000000   0.000000  -0.000000  -0.000000   0.000000
    18  C   -0.000000  -0.000000   0.000000  -0.000000  -0.000000   0.000000
    19  C    5.004015   0.506682  -0.000202   0.000193  -0.000226   0.000627
    20  C    0.506682   4.897152  -0.001704  -0.004056   0.003069   0.005664
    21  H   -0.000202  -0.001704   0.596207  -0.030306  -0.030110   0.000683
    22  H    0.000193  -0.004056  -0.030306   0.597995  -0.029271   0.000050
    23  H   -0.000226   0.003069  -0.030110  -0.029271   0.597556   0.004563
    24  H    0.000627   0.005664   0.000683   0.000050   0.004563   0.627566
    25  H    0.005237   0.000761   0.000002   0.000003  -0.000005  -0.006321
    26  H   -0.010517   0.000060   0.000000   0.000000  -0.000000   0.000003
    27  H   -0.000218   0.000002   0.000000  -0.000000  -0.000000  -0.000000
    28  H   -0.000094   0.000006   0.000000  -0.000000  -0.000000   0.000004
    29  H   -0.000029  -0.000031  -0.000000   0.000000   0.000000  -0.000003
    30  H   -0.000008  -0.000000   0.000000  -0.000000  -0.000000  -0.000000
    31  H   -0.000140  -0.000005   0.000000  -0.000000  -0.000000  -0.000000
    32  H   -0.000002   0.000000   0.000000  -0.000000  -0.000000  -0.000000
    33  H    0.000000  -0.000000  -0.000000   0.000000   0.000000  -0.000000
    34  H   -0.000001   0.000000   0.000000  -0.000000  -0.000000   0.000000
    35  H   -0.000000  -0.000000   0.000000  -0.000000  -0.000000  -0.000000
    36  H   -0.000000  -0.000000   0.000000  -0.000000  -0.000000  -0.000000
    37  H   -0.000000  -0.000000   0.000000   0.000000   0.000000   0.000000
    38  H   -0.000000   0.000000   0.000000   0.000000   0.000000   0.000000
    39  H   -0.000000  -0.000000   0.000000   0.000000   0.000000   0.000000
    40  H    0.000000   0.000000   0.000000   0.000000   0.000000   0.000000
    41  H   -0.000000   0.000000   0.000000  -0.000000  -0.000000   0.000000
    42  H   -0.000000  -0.000000   0.000000  -0.000000  -0.000000  -0.000000
    43  H    0.360944  -0.033519   0.000001  -0.000005   0.000003   0.000017
    44  H   -0.039683   0.368279   0.000633   0.004689   0.000052  -0.000184
              25         26         27         28         29         30
     1  C   -0.000200  -0.000000  -0.000000  -0.000000  -0.000000  -0.000000
     2  C    0.004051  -0.000012   0.000000  -0.000006  -0.000004   0.000000
     3  C   -0.034869  -0.000085  -0.000005   0.000206  -0.000177   0.000005
     4  C    0.361814   0.006248   0.000104   0.003976   0.003843  -0.000066
     5  C   -0.042190  -0.030332   0.004396  -0.009920   0.006924  -0.000154
     6  N   -0.008607   0.351826  -0.035894  -0.031556  -0.009301   0.005652
     7  C    0.003085  -0.040104   0.387253   0.384223  -0.033923  -0.029493
     8  C   -0.000322  -0.002649  -0.048175  -0.043808   0.384198   0.364818
     9  C    0.000015   0.003261  -0.008069   0.004327  -0.039741  -0.038406
    10  C   -0.000000  -0.000114   0.000109  -0.000116  -0.004381  -0.004378
    11  N   -0.000000  -0.000000  -0.000000   0.000001   0.000039   0.000045
    12  C    0.000000  -0.000000   0.000000  -0.000000   0.000001   0.000004
    13  C   -0.000000   0.000000   0.000000   0.000000  -0.000000   0.000000
    14  C   -0.000000  -0.000000   0.000000  -0.000000  -0.000000  -0.000000
    15  C    0.000000  -0.000000   0.000000  -0.000000  -0.000000   0.000000
    16  C   -0.000000   0.000000   0.000000   0.000000   0.000000   0.000000
    17  C    0.000000   0.000000   0.000000   0.000000   0.000000  -0.000000
    18  C   -0.000000   0.000000  -0.000000   0.000000  -0.000001  -0.000001
    19  C    0.005237  -0.010517  -0.000218  -0.000094  -0.000029  -0.000008
    20  C    0.000761   0.000060   0.000002   0.000006  -0.000031  -0.000000
    21  H    0.000002   0.000000   0.000000   0.000000  -0.000000   0.000000
    22  H    0.000003   0.000000  -0.000000  -0.000000   0.000000  -0.000000
    23  H   -0.000005  -0.000000  -0.000000  -0.000000   0.000000  -0.000000
    24  H   -0.006321   0.000003  -0.000000   0.000004  -0.000003  -0.000000
    25  H    0.625473  -0.000095  -0.000105   0.001846   0.000496   0.000023
    26  H   -0.000095   0.445085  -0.004462   0.005014  -0.000221  -0.000032
    27  H   -0.000105  -0.004462   0.614502  -0.032608   0.005373  -0.000657
    28  H    0.001846   0.005014  -0.032608   0.606004  -0.003673  -0.001582
    29  H    0.000496  -0.000221   0.005373  -0.003673   0.616187  -0.035910
    30  H    0.000023  -0.000032  -0.000657  -0.001582  -0.035910   0.635859
    31  H   -0.000001   0.003049   0.000126   0.000091  -0.005410   0.006243
    32  H   -0.000000   0.000259   0.005313   0.000045   0.005594  -0.005466
    33  H   -0.000000   0.000000   0.000009  -0.000001  -0.000565   0.005066
    34  H   -0.000000   0.000012   0.000006   0.000005   0.004750  -0.000507
    35  H    0.000000   0.000002  -0.000002   0.000000   0.000016   0.000007
    36  H   -0.000000   0.000000   0.000000   0.000000  -0.000000   0.000000
    37  H    0.000000   0.000000  -0.000000   0.000000  -0.000000   0.000000
    38  H   -0.000000   0.000000  -0.000000   0.000000  -0.000000   0.000000
[...]
   182    C   13  S      Val( 2S)     0.95206
   183    C   13  S      Ryd( 3S)     0.00068
   184    C   13  S      Ryd( 4S)     0.00004
   185    C   13  px     Val( 2p)     1.06685
   186    C   13  px     Ryd( 3p)     0.00374
   187    C   13  py     Val( 2p)     1.10317
   188    C   13  py     Ryd( 3p)     0.00205
   189    C   13  pz     Val( 2p)     1.14800
   190    C   13  pz     Ryd( 3p)     0.00374
   191    C   13  dxy    Ryd( 3d)     0.00048
   192    C   13  dxz    Ryd( 3d)     0.00061
   193    C   13  dyz    Ryd( 3d)     0.00049
   194    C   13  dx2y2  Ryd( 3d)     0.00044
   195    C   13  dz2    Ryd( 3d)     0.00045

   196    C   14  S      Cor( 1S)     1.99905
   197    C   14  S      Val( 2S)     0.95119
   198    C   14  S      Ryd( 3S)     0.00062
   199    C   14  S      Ryd( 4S)     0.00005
   200    C   14  px     Val( 2p)     1.12616
   201    C   14  px     Ryd( 3p)     0.00397
   202    C   14  py     Val( 2p)     1.02224
   203    C   14  py     Ryd( 3p)     0.00153
   204    C   14  pz     Val( 2p)     1.11666
   205    C   14  pz     Ryd( 3p)     0.00384
   206    C   14  dxy    Ryd( 3d)     0.00045
   207    C   14  dxz    Ryd( 3d)     0.00075
   208    C   14  dyz    Ryd( 3d)     0.00039
   209    C   14  dx2y2  Ryd( 3d)     0.00057
   210    C   14  dz2    Ryd( 3d)     0.00051

   211    C   15  S      Cor( 1S)     1.99902
   212    C   15  S      Val( 2S)     0.88136
   213    C   15  S      Ryd( 3S)     0.00040
   214    C   15  S      Ryd( 4S)     0.00005
   215    C   15  px     Val( 2p)     1.06322
   216    C   15  px     Ryd( 3p)     0.00438
   217    C   15  py     Val( 2p)     1.04621
   218    C   15  py     Ryd( 3p)     0.00271
   219    C   15  pz     Val( 2p)     1.07285
   220    C   15  pz     Ryd( 3p)     0.00376
   221    C   15  dxy    Ryd( 3d)     0.00058
   222    C   15  dxz    Ryd( 3d)     0.00067
   223    C   15  dyz    Ryd( 3d)     0.00049
   224    C   15  dx2y2  Ryd( 3d)     0.00054
   225    C   15  dz2    Ryd( 3d)     0.00055

   226    C   16  S      Cor( 1S)     1.99940
   227    C   16  S      Val( 2S)     1.09719
   228    C   16  S      Ryd( 3S)     0.00019
   229    C   16  S      Ryd( 4S)     0.00001
   230    C   16  px     Val( 2p)     1.12299
   231    C   16  px     Ryd( 3p)     0.00098
   232    C   16  py     Val( 2p)     1.22162
   233    C   16  py     Ryd( 3p)     0.00071
   234    C   16  pz     Val( 2p)     1.25177
   235    C   16  pz     Ryd( 3p)     0.00213
   236    C   16  dxy    Ryd( 3d)     0.00084
   237    C   16  dxz    Ryd( 3d)     0.00023
   238    C   16  dyz    Ryd( 3d)     0.00076
   239    C   16  dx2y2  Ryd( 3d)     0.00041
   240    C   16  dz2    Ryd( 3d)     0.00061

   241    C   17  S      Cor( 1S)     1.99905
   242    C   17  S      Val( 2S)     0.95081
   243    C   17  S      Ryd( 3S)     0.00061
   244    C   17  S      Ryd( 4S)     0.00004
   245    C   17  px     Val( 2p)     1.06068
   246    C   17  px     Ryd( 3p)     0.00344
   247    C   17  py     Val( 2p)     1.05788
   248    C   17  py     Ryd( 3p)     0.00181
   249    C   17  pz     Val( 2p)     1.14600
   250    C   17  pz     Ryd( 3p)     0.00421
   251    C   17  dxy    Ryd( 3d)     0.00057
   252    C   17  dxz    Ryd( 3d)     0.00056
   253    C   17  dyz    Ryd( 3d)     0.00053
   254    C   17  dx2y2  Ryd( 3d)     0.00048
   255    C   17  dz2    Ryd( 3d)     0.00053

   256    C   18  S      Cor( 1S)     1.99906
   257    C   18  S      Val( 2S)     0.94995
   258    C   18  S      Ryd( 3S)     0.00064
   259    C   18  S      Ryd( 4S)     0.00004
   260    C   18  px     Val( 2p)     1.13911
   261    C   18  px     Ryd( 3p)     0.00324
   262    C   18  py     Val( 2p)     1.07818
   263    C   18  py     Ryd( 3p)     0.00201
   264    C   18  pz     Val( 2p)     1.12767
   265    C   18  pz     Ryd( 3p)     0.00369
   266    C   18  dxy    Ryd( 3d)     0.00039
   267    C   18  dxz    Ryd( 3d)     0.00065
   268    C   18  dyz    Ryd( 3d)     0.00041
   269    C   18  dx2y2  Ryd( 3d)     0.00049
   270    C   18  dz2    Ryd( 3d)     0.00047

   271    C   19  S      Cor( 1S)     1.99908
   272    C   19  S      Val( 2S)     0.94375
   273    C   19  S      Ryd( 3S)     0.00072
   274    C   19  S      Ryd( 4S)     0.00004
   275    C   19  px     Val( 2p)     1.13936
   276    C   19  px     Ryd( 3p)     0.00683
   277    C   19  py     Val( 2p)     1.10142
   278    C   19  py     Ryd( 3p)     0.00542
   279    C   19  pz     Val( 2p)     1.14734
   280    C   19  pz     Ryd( 3p)     0.00438
   281    C   19  dxy    Ryd( 3d)     0.00045
   282    C   19  dxz    Ryd( 3d)     0.00043
   283    C   19  dyz    Ryd( 3d)     0.00060
   284    C   19  dx2y2  Ryd( 3d)     0.00062
   285    C   19  dz2    Ryd( 3d)     0.00052

   286    C   20  S      Cor( 1S)     1.99906
   287    C   20  S      Val( 2S)     0.93948
   288    C   20  S      Ryd( 3S)     0.00068
   289    C   20  S      Ryd( 4S)     0.00004
   290    C   20  px     Val( 2p)     1.13882
   291    C   20  px     Ryd( 3p)     0.00607
   292    C   20  py     Val( 2p)     1.12399
   293    C   20  py     Ryd( 3p)     0.00509
   294    C   20  pz     Val( 2p)     1.14253
   295    C   20  pz     Ryd( 3p)     0.00484
   296    C   20  dxy    Ryd( 3d)     0.00043
   297    C   20  dxz    Ryd( 3d)     0.00040
   298    C   20  dyz    Ryd( 3d)     0.00058
   299    C   20  dx2y2  Ryd( 3d)     0.00051
   300    C   20  dz2    Ryd( 3d)     0.00059

   301    H   21  S      Val( 1S)     0.74788
   302    H   21  S      Ryd( 2S)     0.00168
   303    H   21  px     Ryd( 2p)     0.00028
   304    H   21  py     Ryd( 2p)     0.00009
   305    H   21  pz     Ryd( 2p)     0.00016

   306    H   22  S      Val( 1S)     0.74580
   307    H   22  S      Ryd( 2S)     0.00145
   308    H   22  px     Ryd( 2p)     0.00016
   309    H   22  py     Ryd( 2p)     0.00026
   310    H   22  pz     Ryd( 2p)     0.00012

   311    H   23  S      Val( 1S)     0.75635
   312    H   23  S      Ryd( 2S)     0.00087
   313    H   23  px     Ryd( 2p)     0.00010
   314    H   23  py     Ryd( 2p)     0.00008
   315    H   23  pz     Ryd( 2p)     0.00032

   316    H   24  S      Val( 1S)     0.77181
   317    H   24  S      Ryd( 2S)     0.00101
   318    H   24  px     Ryd( 2p)     0.00019
   319    H   24  py     Ryd( 2p)     0.00013
   320    H   24  pz     Ryd( 2p)     0.00034

   321    H   25  S      Val( 1S)     0.76730
   322    H   25  S      Ryd( 2S)     0.00105
   323    H   25  px     Ryd( 2p)     0.00021
   324    H   25  py     Ryd( 2p)     0.00018
   325    H   25  pz     Ryd( 2p)     0.00029

   326    H   26  S      Val( 1S)     0.55786
   327    H   26  S      Ryd( 2S)     0.00218
   328    H   26  px     Ryd( 2p)     0.00036
   329    H   26  py     Ryd( 2p)     0.00028
   330    H   26  pz     Ryd( 2p)     0.00055

   331    H   27  S      Val( 1S)     0.73804
   332    H   27  S      Ryd( 2S)     0.00125
   333    H   27  px     Ryd( 2p)     0.00010
   334    H   27  py     Ryd( 2p)     0.00035
   335    H   27  pz     Ryd( 2p)     0.00009

   336    H   28  S      Val( 1S)     0.73676
   337    H   28  S      Ryd( 2S)     0.00149
   338    H   28  px     Ryd( 2p)     0.00018
   339    H   28  py     Ryd( 2p)     0.00011
   340    H   28  pz     Ryd( 2p)     0.00026

   341    H   29  S      Val( 1S)     0.75069
   342    H   29  S      Ryd( 2S)     0.00325
   343    H   29  px     Ryd( 2p)     0.00012
   344    H   29  py     Ryd( 2p)     0.00031
   345    H   29  pz     Ryd( 2p)     0.00012

   346    H   30  S      Val( 1S)     0.74290
   347    H   30  S      Ryd( 2S)     0.00149
   348    H   30  px     Ryd( 2p)     0.00013
   349    H   30  py     Ryd( 2p)     0.00016
   350    H   30  pz     Ryd( 2p)     0.00026

   351    H   31  S      Val( 1S)     0.75713
   352    H   31  S      Ryd( 2S)     0.00229
   353    H   31  px     Ryd( 2p)     0.00012
   354    H   31  py     Ryd( 2p)     0.00017
   355    H   31  pz     Ryd( 2p)     0.00026

   356    H   32  S      Val( 1S)     0.75922
   357    H   32  S      Ryd( 2S)     0.00171
   358    H   32  px     Ryd( 2p)     0.00011
   359    H   32  py     Ryd( 2p)     0.00032
   360    H   32  pz     Ryd( 2p)     0.00012

   361    H   33  S      Val( 1S)     0.77911
   362    H   33  S      Ryd( 2S)     0.00267
   363    H   33  px     Ryd( 2p)     0.00015
   364    H   33  py     Ryd( 2p)     0.00017
   365    H   33  pz     Ryd( 2p)     0.00024

   366    H   34  S      Val( 1S)     0.76423
   367    H   34  S      Ryd( 2S)     0.00175
   368    H   34  px     Ryd( 2p)     0.00012
   369    H   34  py     Ryd( 2p)     0.00034
   370    H   34  pz     Ryd( 2p)     0.00010

   371    H   35  S      Val( 1S)     0.58177
   372    H   35  S      Ryd( 2S)     0.00202
   373    H   35  px     Ryd( 2p)     0.00024
   374    H   35  py     Ryd( 2p)     0.00057
   375    H   35  pz     Ryd( 2p)     0.00045

   376    H   36  S      Val( 1S)     0.75761
   377    H   36  S      Ryd( 2S)     0.00097
   378    H   36  px     Ryd( 2p)     0.00007
   379    H   36  py     Ryd( 2p)     0.00020
   380    H   36  pz     Ryd( 2p)     0.00032

   381    H   37  S      Val( 1S)     0.75767
   382    H   37  S      Ryd( 2S)     0.00096
   383    H   37  px     Ryd( 2p)     0.00025
   384    H   37  py     Ryd( 2p)     0.00011
   385    H   37  pz     Ryd( 2p)     0.00025

   386    H   38  S      Val( 1S)     0.75458
   387    H   38  S      Ryd( 2S)     0.00097
   388    H   38  px     Ryd( 2p)     0.00010
   389    H   38  py     Ryd( 2p)     0.00021
   390    H   38  pz     Ryd( 2p)     0.00022

   391    H   39  S      Val( 1S)     0.75746
   392    H   39  S      Ryd( 2S)     0.00079
   393    H   39  px     Ryd( 2p)     0.00008
   394    H   39  py     Ryd( 2p)     0.00014
   395    H   39  pz     Ryd( 2p)     0.00028

   396    H   40  S      Val( 1S)     0.75482
   397    H   40  S      Ryd( 2S)     0.00095
   398    H   40  px     Ryd( 2p)     0.00023
   399    H   40  py     Ryd( 2p)     0.00021
   400    H   40  pz     Ryd( 2p)     0.00009

   401    H   41  S      Val( 1S)     0.75876
   402    H   41  S      Ryd( 2S)     0.00097
   403    H   41  px     Ryd( 2p)     0.00008
   404    H   41  py     Ryd( 2p)     0.00020
   405    H   41  pz     Ryd( 2p)     0.00032

   406    H   42  S      Val( 1S)     0.75487
   407    H   42  S      Ryd( 2S)     0.00081
   408    H   42  px     Ryd( 2p)     0.00023
   409    H   42  py     Ryd( 2p)     0.00013
   410    H   42  pz     Ryd( 2p)     0.00025

   411    H   43  S      Val( 1S)     0.77175
   412    H   43  S      Ryd( 2S)     0.00119
   413    H   43  px     Ryd( 2p)     0.00020
   414    H   43  py     Ryd( 2p)     0.00013
   415    H   43  pz     Ryd( 2p)     0.00034

   416    H   44  S      Val( 1S)     0.77360
   417    H   44  S      Ryd( 2S)     0.00096
   418    H   44  px     Ryd( 2p)     0.00020
   419    H   44  py     Ryd( 2p)     0.00020
   420    H   44  pz     Ryd( 2p)     0.00027

 WARNING:  1 low occupancy (<1.9990e) core orbital  found on  C    5


 Summary of Natural Population Analysis:                  
                                                          
                                       Natural Population 
                Natural  -----------------------------------------------
    Atom  No    Charge         Core      Valence    Rydberg      Total
 -----------------------------------------------------------------------
      C    1   -0.70916      1.99939     4.70257    0.00720     6.70916
      C    2    0.05003      1.99903     3.93588    0.01506     5.94997
      C    3   -0.34049      1.99906     4.32262    0.01880     6.34049
      C    4   -0.35916      1.99907     4.34061    0.01948     6.35916
      C    5    0.16459      1.99898     3.81675    0.01968     5.83541
      N    6   -0.44194      1.99940     5.43186    0.01069     7.44194
      C    7   -0.28633      1.99931     4.26977    0.01725     6.28633
      C    8   -0.47225      1.99931     4.46262    0.01032     6.47225
      C    9   -0.47974      1.99933     4.46879    0.01162     6.47974
      C   10   -0.26085      1.99934     4.24734    0.01417     6.26085
      N   11   -0.64872      1.99941     5.63716    0.01215     7.64872
      C   12    0.16558      1.99902     3.81769    0.01771     5.83442
      C   13   -0.28187      1.99906     4.27009    0.01272     6.28187
      C   14   -0.22796      1.99905     4.21624    0.01267     6.22796
      C   15   -0.07678      1.99902     4.06364    0.01412     6.07678
      C   16   -0.69983      1.99940     4.69357    0.00686     6.69983
      C   17   -0.22721      1.99905     4.21537    0.01279     6.22721
      C   18   -0.30600      1.99906     4.29492    0.01203     6.30600
      C   19   -0.35096      1.99908     4.33187    0.02001     6.35096
      C   20   -0.36312      1.99906     4.34482    0.01923     6.36312
      H   21    0.24990      0.00000     0.74788    0.00222     0.75010
      H   22    0.25221      0.00000     0.74580    0.00199     0.74779
      H   23    0.24228      0.00000     0.75635    0.00137     0.75772
      H   24    0.22653      0.00000     0.77181    0.00166     0.77347
      H   25    0.23097      0.00000     0.76730    0.00173     0.76903
      H   26    0.43877      0.00000     0.55786    0.00337     0.56123
      H   27    0.26017      0.00000     0.73804    0.00179     0.73983
      H   28    0.26121      0.00000     0.73676    0.00203     0.73879
      H   29    0.24550      0.00000     0.75069    0.00380     0.75450
      H   30    0.25507      0.00000     0.74290    0.00204     0.74493
      H   31    0.24003      0.00000     0.75713    0.00284     0.75997
      H   32    0.23851      0.00000     0.75922    0.00227     0.76149
      H   33    0.21766      0.00000     0.77911    0.00324     0.78234
      H   34    0.23345      0.00000     0.76423    0.00232     0.76655
      H   35    0.41495      0.00000     0.58177    0.00328     0.58505
      H   36    0.24083      0.00000     0.75761    0.00157     0.75917
      H   37    0.24077      0.00000     0.75767    0.00156     0.75923
      H   38    0.24392      0.00000     0.75458    0.00150     0.75608
      H   39    0.24125      0.00000     0.75746    0.00129     0.75875
      H   40    0.24370      0.00000     0.75482    0.00149     0.75630
      H   41    0.23968      0.00000     0.75876    0.00157     0.76032
      H   42    0.24371      0.00000     0.75487    0.00142     0.75629
      H   43    0.22638      0.00000     0.77175    0.00186     0.77362
      H   44    0.22477      0.00000     0.77360    0.00163     0.77523
 =======================================================================
   * Total *   -0.00000     39.98344   105.68217    0.33439   146.00000

                                 Natural Population      
 --------------------------------------------------------
   Core                      39.98344 ( 99.9586% of  40)
   Valence                  105.68217 ( 99.7002% of 106)
   Natural Minimal Basis    145.66561 ( 99.7710% of 146)
   Natural Rydberg Basis      0.33439 (  0.2290% of 146)
 --------------------------------------------------------

    Atom  No          Natural Electron Configuration
 ----------------------------------------------------------------------------
      C    1      [core]2S( 1.10)2p( 3.60)
      C    2      [core]2S( 0.89)2p( 3.04)3p( 0.01)
      C    3      [core]2S( 0.94)2p( 3.38)3p( 0.02)
      C    4      [core]2S( 0.94)2p( 3.40)3p( 0.02)
      C    5      [core]2S( 0.85)2p( 2.97)3p( 0.01)3d( 0.01)
      N    6      [core]2S( 1.28)2p( 4.15)3p( 0.01)
      C    7      [core]2S( 1.02)2p( 3.25)3p( 0.01)
      C    8      [core]2S( 1.04)2p( 3.42)3p( 0.01)
      C    9      [core]2S( 1.04)2p( 3.43)3p( 0.01)
      C   10      [core]2S( 1.01)2p( 3.23)3p( 0.01)
      N   11      [core]2S( 1.27)2p( 4.37)3p( 0.01)
      C   12      [core]2S( 0.84)2p( 2.98)3p( 0.01)
      C   13      [core]2S( 0.95)2p( 3.32)3p( 0.01)
      C   14      [core]2S( 0.95)2p( 3.27)3p( 0.01)
      C   15      [core]2S( 0.88)2p( 3.18)3p( 0.01)
      C   16      [core]2S( 1.10)2p( 3.60)
      C   17      [core]2S( 0.95)2p( 3.26)3p( 0.01)
      C   18      [core]2S( 0.95)2p( 3.34)3p( 0.01)
      C   19      [core]2S( 0.94)2p( 3.39)3p( 0.02)
      C   20      [core]2S( 0.94)2p( 3.41)3p( 0.02)
      H   21            1S( 0.75)
      H   22            1S( 0.75)
      H   23            1S( 0.76)
      H   24            1S( 0.77)
      H   25            1S( 0.77)
      H   26            1S( 0.56)
      H   27            1S( 0.74)
      H   28            1S( 0.74)
      H   29            1S( 0.75)
      H   30            1S( 0.74)
      H   31            1S( 0.76)
      H   32            1S( 0.76)
      H   33            1S( 0.78)
      H   34            1S( 0.76)
      H   35            1S( 0.58)
      H   36            1S( 0.76)
      H   37            1S( 0.76)
      H   38            1S( 0.75)
      H   39            1S( 0.76)
      H   40            1S( 0.75)
      H   41            1S( 0.76)
      H   42            1S( 0.75)
      H   43            1S( 0.77)
      H   44            1S( 0.77)


 NBO analysis skipped by request.
 1\1\GINC-DRG2-W004\SP\RB3LYP TD-FC\6-31G(d,p)\C18H24N2\QDUEZ\18-Jul-20
 24\0\\# TD(NStates=10, Root=1) B3LYP/6-31G** SCRF=(Solvent=water) volu
 me pop=NPA density=current Geom=AllCheck Guess=Read\\IXVDJDOFHBHDMT-UH
 FFFAOYSA-N_conf_2\\0,1\C,0,-5.7765650468,2.4728792054,-2.5004985733\C,
 0,-5.025251686,1.2709626673,-1.9764936314\C,0,-4.9716148842,0.97227135
 21,-0.6114676554\C,0,-4.2708723285,-0.1309708895,-0.1179505747\C,0,-3.
 5888223335,-0.9952214687,-0.9944747699\N,0,-2.9301030454,-2.1446190928
 ,-0.5652804944\C,0,-2.4926923602,-2.3453848757,0.8116549784\C,0,-1.363
 8053472,-1.4189227312,1.3004030558\C,0,-0.0495764145,-1.5964140624,0.5
 32720371\C,0,1.0609286366,-0.6811283448,1.0498809806\N,0,2.2765424499,
 -0.8497025268,0.2626249619\C,0,3.4532428551,-0.1806627362,0.592755393\
 C,0,4.6772717383,-0.6056235494,0.0318441123\C,0,5.8606455248,0.0691284
 414,0.3032379014\C,0,5.8922733165,1.1977525469,1.1404547576\C,0,7.1861
 856865,1.9256005501,1.422855204\C,0,4.6777856015,1.6110872203,1.695186
 0518\C,0,3.4772597627,0.9423419926,1.438846089\C,0,-3.6368681663,-0.69
 68970408,-2.3737286808\C,0,-4.3389001506,0.4058534291,-2.8447806443\H,
 0,-6.5200953999,2.1886137017,-3.2544100475\H,0,-5.1037056619,3.1966539
 376,-2.9766597585\H,0,-6.302826775,2.9930085947,-1.6949702248\H,0,-5.4
 87780413,1.6184262089,0.0951341976\H,0,-4.2625970258,-0.3146550248,0.9
 507767354\H,0,-2.3131520741,-2.5442092908,-1.2593217836\H,0,-2.1679070
 327,-3.388717958,0.8911575564\H,0,-3.3593271873,-2.2452833444,1.474117
 5333\H,0,-1.6943491407,-0.3754364979,1.2282654425\H,0,-1.198765816,-1.
 6215444057,2.3668301048\H,0,-0.2051535715,-1.3907745294,-0.5333100385\
 H,0,0.2789124292,-2.6430188783,0.6086076312\H,0,1.2374134399,-0.875801
 2911,2.1218632543\H,0,0.730792959,0.3625159557,0.9723309216\H,0,2.4294
 134228,-1.8039196502,-0.0401574332\H,0,4.6870325241,-1.4737900904,-0.6
 232326152\H,0,6.7845142885,-0.2899507395,-0.1451992587\H,0,7.622681282
 4,2.346168686,0.5087360513\H,0,7.0317440025,2.7503713188,2.1244364161\
 H,0,7.9406438765,1.2578286281,1.8554562801\H,0,4.6609530422,2.47675479
 34,2.3536401607\H,0,2.5639185298,1.2998235436,1.9010796832\H,0,-3.1176
 768103,-1.3465606571,-3.0747817576\H,0,-4.3517466975,0.6011669024,-3.9
 149673548\\Version=ES64L-G16RevA.03\State=1-A\HF=-809.9308586\RMSD=4.7
 42e-09\Dipole=0.82566,-1.9176857,0.9885119\Quadrupole=-14.8927846,12.9
 850559,1.9077287,0.4460267,-7.8922573,0.939031\PG=C01 [X(C18H24N2)]\\@


 IF IT'S NOT TRUE, IT'S WELL INVENTED -- DANTE
 Job cpu time:       0 days  1 hours 42 minutes 31.7 seconds.
 Elapsed time:       0 days  0 hours 34 minutes 15.6 seconds.
 File lengths (MBytes):  RWF=   1397 Int=      0 D2E=      0 Chk=     88 Scr=      1
 Normal termination of Gaussian 16 at Thu Jul 18 06:09:28 2024.
