 Entering Gaussian System, Link 0=g16
 Initial command:
 /opt/sw/arch/manual/gaussian/G16_A03/g16/l1.exe "/scratch/1380915/Gau-118934.inp" -scrdir="/scratch/1380915/"
 Entering Link 1 = /opt/sw/arch/manual/gaussian/G16_A03/g16/l1.exe PID=    118935.
  
 Copyright (c) 1988,1990,1992,1993,1995,1998,2003,2009,2016,
            Gaussian, Inc.  All Rights Reserved.
  
 This is part of the Gaussian(R) 16 program.  It is based on
 the Gaussian(R) 09 system (copyright 2009, Gaussian, Inc.),
 the Gaussian(R) 03 system (copyright 2003, Gaussian, Inc.),
 the Gaussian(R) 98 system (copyright 1998, Gaussian, Inc.),
 the Gaussian(R) 94 system (copyright 1995, Gaussian, Inc.),
 the Gaussian 92(TM) system (copyright 1992, Gaussian, Inc.),
 the Gaussian 90(TM) system (copyright 1990, Gaussian, Inc.),
 the Gaussian 88(TM) system (copyright 1988, Gaussian, Inc.),
 the Gaussian 86(TM) system (copyright 1986, Carnegie Mellon
 University), and the Gaussian 82(TM) system (copyright 1983,
 Carnegie Mellon University). Gaussian is a federally registered
 trademark of Gaussian, Inc.
  
 This software contains proprietary and confidential information,
 including trade secrets, belonging to Gaussian, Inc.
  
 This software is provided under written license and may be
 used, copied, transmitted, or stored only in accord with that
 written license.
  
 The following legend is applicable only to US Government
 contracts under FAR:
  
                    RESTRICTED RIGHTS LEGEND
  
 Use, reproduction and disclosure by the US Government is
 subject to restrictions as set forth in subparagraphs (a)
 and (c) of the Commercial Computer Software - Restricted
 Rights clause in FAR 52.227-19.
  
 Gaussian, Inc.
 340 Quinnipiac St., Bldg. 40, Wallingford CT 06492
  
  
 ---------------------------------------------------------------
 Warning -- This program may not be used in any manner that
 competes with the business of Gaussian, Inc. or will provide
 assistance to any competitor of Gaussian, Inc.  The licensee
 of this program is prohibited from giving any competitor of
 Gaussian, Inc. access to this program.  By using this program,
 the user acknowledges that Gaussian, Inc. is engaged in the
 business of creating and licensing software in the field of
 computational chemistry and represents and warrants to the
 licensee that it is not a competitor of Gaussian, Inc. and that
 it will not use this program in any manner prohibited above.
 ---------------------------------------------------------------
  

 Cite this work as:
 Gaussian 16, Revision A.03,
 M. J. Frisch, G. W. Trucks, H. B. Schlegel, G. E. Scuseria, 
 M. A. Robb, J. R. Cheeseman, G. Scalmani, V. Barone, 
 G. A. Petersson, H. Nakatsuji, X. Li, M. Caricato, A. V. Marenich, 
 J. Bloino, B. G. Janesko, R. Gomperts, B. Mennucci, H. P. Hratchian, 
 J. V. Ortiz, A. F. Izmaylov, J. L. Sonnenberg, D. Williams-Young, 
 F. Ding, F. Lipparini, F. Egidi, J. Goings, B. Peng, A. Petrone, 
 T. Henderson, D. Ranasinghe, V. G. Zakrzewski, J. Gao, N. Rega, 
 G. Zheng, W. Liang, M. Hada, M. Ehara, K. Toyota, R. Fukuda, 
 J. Hasegawa, M. Ishida, T. Nakajima, Y. Honda, O. Kitao, H. Nakai, 
 T. Vreven, K. Throssell, J. A. Montgomery, Jr., J. E. Peralta, 
 F. Ogliaro, M. J. Bearpark, J. J. Heyd, E. N. Brothers, K. N. Kudin, 
 V. N. Staroverov, T. A. Keith, R. Kobayashi, J. Normand, 
 K. Raghavachari, A. P. Rendell, J. C. Burant, S. S. Iyengar, 
 J. Tomasi, M. Cossi, J. M. Millam, M. Klene, C. Adamo, R. Cammi, 
 J. W. Ochterski, R. L. Martin, K. Morokuma, O. Farkas, 
 J. B. Foresman, and D. J. Fox, Gaussian, Inc., Wallingford CT, 2016.
 
 ******************************************
 Gaussian 16:  ES64L-G16RevA.03 25-Dec-2016
                18-Jul-2024 
 ******************************************
 %nprocshared=4
 Will use up to    4 processors via shared memory.
 %mem=8GB
 %Chk=KQIKKETXZQDHGE-FOCLMDBBSA-N_conf_2_0.chk
 -------------------------------------------------------
 # opt=CalcFc B3LYP/6-31G** SCRF=(Solvent=water) scf=xqc
 -------------------------------------------------------
 1/10=4,18=20,19=15,26=3,38=1/1,3;
 2/9=110,12=2,17=6,18=5,40=1/2;
 3/5=1,6=6,7=101,11=2,25=1,30=1,70=2201,71=2,72=1,74=-5,140=1/1,2,3;
 4//1;
 5/5=2,8=3,13=1,38=5,53=1/2,8;
 8/6=4,10=90,11=11/1;
 11/6=1,8=1,9=11,15=111,16=1/1,2,10;
 10/6=1,13=1/2;
 6/7=2,8=2,9=2,10=2,28=1/1;
 7/10=1,18=20,25=1/1,2,3,16;
 1/10=4,18=20,19=15,26=3/3(2);
 2/9=110/2;
 99//99;
 2/9=110/2;
 3/5=1,6=6,7=101,11=2,25=1,30=1,70=2205,71=1,72=1,74=-5/1,2,3;
 4/5=5,16=3,69=1/1;
 5/5=2,8=3,13=1,38=5,53=1/2,8;
 7//1,2,3,16;
 1/18=20,19=15,26=3/3(-5);
 2/9=110/2;
 6/7=2,8=2,9=2,10=2,19=2,28=1/1;
 99/9=1/99;
 ----------------------------------
 KQIKKETXZQDHGE-FOCLMDBBSA-N_conf_2
 ----------------------------------
 Symbolic Z-matrix:
 Charge =  0 Multiplicity = 1
 N                     5.8435    0.66199  -0.42055 
 C                     4.45165   0.56455  -0.31981 
 C                     3.67829   1.71056  -0.12237 
 C                     2.28088   1.64028  -0.13849 
 C                     1.63156   0.42853  -0.38539 
 N                     0.22573   0.3977   -0.42639 
 N                    -0.22425  -0.41488   0.41161 
 C                    -1.63065  -0.43616   0.3796 
 C                    -2.34274  -0.80019  -0.76893 
 C                    -3.74126  -0.83973  -0.75763 
 C                    -4.45175  -0.56808   0.41351 
 N                    -5.84813  -0.49253   0.38976 
 C                    -3.74376  -0.15971   1.54595 
 C                    -2.34513  -0.11905   1.53725 
 C                     2.40785  -0.70418  -0.65557 
 C                     3.80496  -0.63137  -0.6386 
 H                     6.24108   1.43105   0.10966 
 H                     6.32986  -0.21309  -0.25223 
 H                     4.15559   2.67224   0.04523 
 H                     1.6937    2.53869   0.03193 
 H                    -1.80527  -1.03982  -1.68245 
 H                    -4.26877  -1.0879   -1.67458 
 H                    -6.28281  -0.60242   1.30047 
 H                    -6.2808   -1.07809  -0.31764 
 H                    -4.27377   0.12951   2.44936 
 H                    -1.80865   0.17839   2.43422 
 H                     1.92111  -1.64614  -0.89331 
 H                     4.38198  -1.52015  -0.87892 
 

 GradGradGradGradGradGradGradGradGradGradGradGradGradGradGradGradGradGrad
 Berny optimization.
 Initialization pass.
                           ----------------------------
                           !    Initial Parameters    !
                           ! (Angstroms and Degrees)  !
 --------------------------                            --------------------------
 ! Name  Definition              Value          Derivative Info.                !
 --------------------------------------------------------------------------------
 ! R1    R(1,2)                  1.3989         calculate D2E/DX2 analytically  !
 ! R2    R(1,17)                 1.0152         calculate D2E/DX2 analytically  !
 ! R3    R(1,18)                 1.0152         calculate D2E/DX2 analytically  !
 ! R4    R(2,3)                  1.3966         calculate D2E/DX2 analytically  !
 ! R5    R(2,16)                 1.3964         calculate D2E/DX2 analytically  !
 ! R6    R(3,4)                  1.3993         calculate D2E/DX2 analytically  !
 ! R7    R(3,19)                 1.0866         calculate D2E/DX2 analytically  !
 ! R8    R(4,5)                  1.3968         calculate D2E/DX2 analytically  !
 ! R9    R(4,20)                 1.0867         calculate D2E/DX2 analytically  !
 ! R10   R(5,6)                  1.4068         calculate D2E/DX2 analytically  !
 ! R11   R(5,15)                 1.3995         calculate D2E/DX2 analytically  !
 ! R12   R(6,7)                  1.251          calculate D2E/DX2 analytically  !
 ! R13   R(7,8)                  1.4069         calculate D2E/DX2 analytically  !
 ! R14   R(8,9)                  1.3995         calculate D2E/DX2 analytically  !
 ! R15   R(8,14)                 1.3969         calculate D2E/DX2 analytically  !
 ! R16   R(9,10)                 1.3991         calculate D2E/DX2 analytically  !
 ! R17   R(9,21)                 1.0867         calculate D2E/DX2 analytically  !
 ! R18   R(10,11)                1.3965         calculate D2E/DX2 analytically  !
 ! R19   R(10,22)                1.0866         calculate D2E/DX2 analytically  !
 ! R20   R(11,12)                1.3986         calculate D2E/DX2 analytically  !
 ! R21   R(11,13)                1.3966         calculate D2E/DX2 analytically  !
 ! R22   R(12,23)                1.0151         calculate D2E/DX2 analytically  !
 ! R23   R(12,24)                1.0151         calculate D2E/DX2 analytically  !
 ! R24   R(13,14)                1.3992         calculate D2E/DX2 analytically  !
 ! R25   R(13,25)                1.0866         calculate D2E/DX2 analytically  !
 ! R26   R(14,26)                1.0867         calculate D2E/DX2 analytically  !
 ! R27   R(15,16)                1.3991         calculate D2E/DX2 analytically  !
 ! R28   R(15,27)                1.0866         calculate D2E/DX2 analytically  !
 ! R29   R(16,28)                1.0866         calculate D2E/DX2 analytically  !
 ! A1    A(2,1,17)             113.8791         calculate D2E/DX2 analytically  !
 ! A2    A(2,1,18)             113.8708         calculate D2E/DX2 analytically  !
 ! A3    A(17,1,18)            112.2576         calculate D2E/DX2 analytically  !
 ! A4    A(1,2,3)              120.2643         calculate D2E/DX2 analytically  !
 ! A5    A(1,2,16)             120.2637         calculate D2E/DX2 analytically  !
 ! A6    A(3,2,16)             118.5932         calculate D2E/DX2 analytically  !
 ! A7    A(2,3,4)              120.6757         calculate D2E/DX2 analytically  !
 ! A8    A(2,3,19)             120.3187         calculate D2E/DX2 analytically  !
 ! A9    A(4,3,19)             119.0055         calculate D2E/DX2 analytically  !
 ! A10   A(3,4,5)              120.6552         calculate D2E/DX2 analytically  !
 ! A11   A(3,4,20)             119.7541         calculate D2E/DX2 analytically  !
 ! A12   A(5,4,20)             119.5873         calculate D2E/DX2 analytically  !
 ! A13   A(4,5,6)              119.2576         calculate D2E/DX2 analytically  !
 ! A14   A(4,5,15)             118.5825         calculate D2E/DX2 analytically  !
 ! A15   A(6,5,15)             122.0693         calculate D2E/DX2 analytically  !
 ! A16   A(5,6,7)              110.7424         calculate D2E/DX2 analytically  !
 ! A17   A(6,7,8)              110.7405         calculate D2E/DX2 analytically  !
 ! A18   A(7,8,9)              122.088          calculate D2E/DX2 analytically  !
 ! A19   A(7,8,14)             119.2755         calculate D2E/DX2 analytically  !
 ! A20   A(9,8,14)             118.6148         calculate D2E/DX2 analytically  !
 ! A21   A(8,9,10)             120.6177         calculate D2E/DX2 analytically  !
 ! A22   A(8,9,21)             119.7091         calculate D2E/DX2 analytically  !
 ! A23   A(10,9,21)            119.6667         calculate D2E/DX2 analytically  !
 ! A24   A(9,10,11)            120.6525         calculate D2E/DX2 analytically  !
 ! A25   A(9,10,22)            119.0063         calculate D2E/DX2 analytically  !
 ! A26   A(11,10,22)           120.3411         calculate D2E/DX2 analytically  !
 ! A27   A(10,11,12)           120.2799         calculate D2E/DX2 analytically  !
 ! A28   A(10,11,13)           118.6189         calculate D2E/DX2 analytically  !
 ! A29   A(12,11,13)           120.2721         calculate D2E/DX2 analytically  !
 ! A30   A(11,12,23)           113.9818         calculate D2E/DX2 analytically  !
 ! A31   A(11,12,24)           113.9672         calculate D2E/DX2 analytically  !
 ! A32   A(23,12,24)           112.3479         calculate D2E/DX2 analytically  !
 ! A33   A(11,13,14)           120.6754         calculate D2E/DX2 analytically  !
 ! A34   A(11,13,25)           120.3124         calculate D2E/DX2 analytically  !
 ! A35   A(14,13,25)           119.012          calculate D2E/DX2 analytically  !
 ! A36   A(8,14,13)            120.6522         calculate D2E/DX2 analytically  !
 ! A37   A(8,14,26)            119.5842         calculate D2E/DX2 analytically  !
 ! A38   A(13,14,26)           119.7553         calculate D2E/DX2 analytically  !
 ! A39   A(5,15,16)            120.6258         calculate D2E/DX2 analytically  !
 ! A40   A(5,15,27)            119.6954         calculate D2E/DX2 analytically  !
 ! A41   A(16,15,27)           119.6741         calculate D2E/DX2 analytically  !
 ! A42   A(2,16,15)            120.6484         calculate D2E/DX2 analytically  !
 ! A43   A(2,16,28)            120.3364         calculate D2E/DX2 analytically  !
 ! A44   A(15,16,28)           119.0151         calculate D2E/DX2 analytically  !
 ! D1    D(17,1,2,3)            30.1953         calculate D2E/DX2 analytically  !
 ! D2    D(17,1,2,16)         -160.6851         calculate D2E/DX2 analytically  !
 ! D3    D(18,1,2,3)           160.6529         calculate D2E/DX2 analytically  !
 ! D4    D(18,1,2,16)          -30.2275         calculate D2E/DX2 analytically  !
 ! D5    D(1,2,3,4)            174.3104         calculate D2E/DX2 analytically  !
 ! D6    D(1,2,3,19)            -5.6168         calculate D2E/DX2 analytically  !
 ! D7    D(16,2,3,4)             5.0112         calculate D2E/DX2 analytically  !
 ! D8    D(16,2,3,19)         -174.916          calculate D2E/DX2 analytically  !
 ! D9    D(1,2,16,15)         -174.2959         calculate D2E/DX2 analytically  !
 ! D10   D(1,2,16,28)            5.6156         calculate D2E/DX2 analytically  !
 ! D11   D(3,2,16,15)           -4.9966         calculate D2E/DX2 analytically  !
 ! D12   D(3,2,16,28)          174.9149         calculate D2E/DX2 analytically  !
 ! D13   D(2,3,4,5)             -1.6002         calculate D2E/DX2 analytically  !
 ! D14   D(2,3,4,20)           179.0674         calculate D2E/DX2 analytically  !
 ! D15   D(19,3,4,5)           178.3279         calculate D2E/DX2 analytically  !
 ! D16   D(19,3,4,20)           -1.0045         calculate D2E/DX2 analytically  !
 ! D17   D(3,4,5,6)           -178.4961         calculate D2E/DX2 analytically  !
 ! D18   D(3,4,5,15)            -1.8833         calculate D2E/DX2 analytically  !
 ! D19   D(20,4,5,6)             0.8375         calculate D2E/DX2 analytically  !
 ! D20   D(20,4,5,15)          177.4503         calculate D2E/DX2 analytically  !
 ! D21   D(4,5,6,7)           -122.5703         calculate D2E/DX2 analytically  !
 ! D22   D(15,5,6,7)            60.9398         calculate D2E/DX2 analytically  !
 ! D23   D(4,5,15,16)            1.8958         calculate D2E/DX2 analytically  !
 ! D24   D(4,5,15,27)         -177.3138         calculate D2E/DX2 analytically  !
 ! D25   D(6,5,15,16)          178.4085         calculate D2E/DX2 analytically  !
 ! D26   D(6,5,15,27)           -0.8012         calculate D2E/DX2 analytically  !
 ! D27   D(5,6,7,8)            179.4283         calculate D2E/DX2 analytically  !
 ! D28   D(6,7,8,9)             60.8548         calculate D2E/DX2 analytically  !
 ! D29   D(6,7,8,14)          -120.8655         calculate D2E/DX2 analytically  !
 ! D30   D(7,8,9,10)           178.5537         calculate D2E/DX2 analytically  !
 ! D31   D(7,8,9,21)            -2.3804         calculate D2E/DX2 analytically  !
 ! D32   D(14,8,9,10)            0.2631         calculate D2E/DX2 analytically  !
 ! D33   D(14,8,9,21)          179.329          calculate D2E/DX2 analytically  !
 ! D34   D(7,8,14,13)         -178.5867         calculate D2E/DX2 analytically  !
 ! D35   D(7,8,14,26)            2.4633         calculate D2E/DX2 analytically  !
 ! D36   D(9,8,14,13)           -0.247          calculate D2E/DX2 analytically  !
 ! D37   D(9,8,14,26)         -179.197          calculate D2E/DX2 analytically  !
 ! D38   D(8,9,10,11)           -2.5354         calculate D2E/DX2 analytically  !
 ! D39   D(8,9,10,22)          177.6192         calculate D2E/DX2 analytically  !
 ! D40   D(21,9,10,11)         178.3983         calculate D2E/DX2 analytically  !
 ! D41   D(21,9,10,22)          -1.447          calculate D2E/DX2 analytically  !
 ! D42   D(9,10,11,12)         174.2964         calculate D2E/DX2 analytically  !
 ! D43   D(9,10,11,13)           4.6923         calculate D2E/DX2 analytically  !
 ! D44   D(22,10,11,12)         -5.8603         calculate D2E/DX2 analytically  !
 ! D45   D(22,10,11,13)       -175.4644         calculate D2E/DX2 analytically  !
 ! D46   D(10,11,12,23)        160.608          calculate D2E/DX2 analytically  !
 ! D47   D(10,11,12,24)         29.8265         calculate D2E/DX2 analytically  !
 ! D48   D(13,11,12,23)        -29.9606         calculate D2E/DX2 analytically  !
 ! D49   D(13,11,12,24)       -160.7421         calculate D2E/DX2 analytically  !
 ! D50   D(10,11,13,14)         -4.6772         calculate D2E/DX2 analytically  !
 ! D51   D(10,11,13,25)        175.4613         calculate D2E/DX2 analytically  !
 ! D52   D(12,11,13,14)       -174.2821         calculate D2E/DX2 analytically  !
 ! D53   D(12,11,13,25)          5.8564         calculate D2E/DX2 analytically  !
 ! D54   D(11,13,14,8)           2.5033         calculate D2E/DX2 analytically  !
 ! D55   D(11,13,14,26)       -178.5485         calculate D2E/DX2 analytically  !
 ! D56   D(25,13,14,8)        -177.6335         calculate D2E/DX2 analytically  !
 ! D57   D(25,13,14,26)          1.3148         calculate D2E/DX2 analytically  !
 ! D58   D(5,15,16,2)            1.5754         calculate D2E/DX2 analytically  !
 ! D59   D(5,15,16,28)        -178.3373         calculate D2E/DX2 analytically  !
 ! D60   D(27,15,16,2)        -179.2148         calculate D2E/DX2 analytically  !
 ! D61   D(27,15,16,28)          0.8725         calculate D2E/DX2 analytically  !
 --------------------------------------------------------------------------------
 Trust Radius=3.00D-01 FncErr=1.00D-07 GrdErr=1.00D-06 EigMax=2.50D+02 EigMin=1.00D-04
 Number of steps in this run=    144 maximum allowed number of steps=    168.
 GradGradGradGradGradGradGradGradGradGradGradGradGradGradGradGradGradGrad

                          Input orientation:                          
 ---------------------------------------------------------------------
 Center     Atomic      Atomic             Coordinates (Angstroms)
 Number     Number       Type             X           Y           Z
 ---------------------------------------------------------------------
      1          7           0        5.843501    0.661993   -0.420551
      2          6           0        4.451652    0.564549   -0.319805
      3          6           0        3.678292    1.710560   -0.122369
      4          6           0        2.280884    1.640284   -0.138494
      5          6           0        1.631561    0.428532   -0.385394
      6          7           0        0.225726    0.397696   -0.426390
      7          7           0       -0.224248   -0.414882    0.411612
      8          6           0       -1.630651   -0.436159    0.379597
      9          6           0       -2.342740   -0.800193   -0.768929
     10          6           0       -3.741260   -0.839730   -0.757632
     11          6           0       -4.451754   -0.568077    0.413506
     12          7           0       -5.848131   -0.492529    0.389757
     13          6           0       -3.743760   -0.159710    1.545954
     14          6           0       -2.345130   -0.119048    1.537248
     15          6           0        2.407847   -0.704183   -0.655565
     16          6           0        3.804962   -0.631375   -0.638600
     17          1           0        6.241079    1.431048    0.109664
     18          1           0        6.329860   -0.213094   -0.252232
     19          1           0        4.155591    2.672245    0.045233
     20          1           0        1.693701    2.538693    0.031926
     21          1           0       -1.805269   -1.039816   -1.682454
     22          1           0       -4.268769   -1.087900   -1.674585
     23          1           0       -6.282810   -0.602422    1.300468
     24          1           0       -6.280803   -1.078090   -0.317639
     25          1           0       -4.273773    0.129514    2.449362
     26          1           0       -1.808646    0.178388    2.434223
     27          1           0        1.921108   -1.646143   -0.893309
     28          1           0        4.381979   -1.520150   -0.878920
 ---------------------------------------------------------------------
                    Distance matrix (angstroms):
                    1          2          3          4          5
     1  N    0.000000
     2  C    1.398889   0.000000
     3  C    2.424157   1.396571   0.000000
     4  C    3.705247   2.429468   1.399267   0.000000
     5  C    4.218552   2.824130   2.429380   1.396754   0.000000
     6  N    5.623992   4.230561   3.706245   2.418798   1.406771
     7  N    6.218499   4.833042   4.475763   3.286641   2.188743
     8  C    7.596653   6.203627   5.748500   4.458715   3.460482
     9  C    8.323094   6.944638   6.555513   5.266049   4.177551
    10  C    9.707546   8.323911   7.871296   6.542172   5.533016
    11  C   10.401971   9.005067   8.460319   7.107037   6.215963
    12  N   11.776408  10.378170   9.791251   8.420737   7.575949
    13  C    9.821299   8.436254   7.833777   6.509506   5.741969
    14  C    8.455571   7.078996   6.510254   5.225262   4.450895
    15  C    3.704780   2.428900   2.780165   2.404165   1.399519
    16  C    2.424044   1.396449   2.401500   2.780891   2.431293
    17  H    1.015205   2.034038   2.588405   3.973475   4.743181
    18  H    1.015211   2.033952   3.278433   4.454453   4.743777
    19  H    2.665916   2.159465   1.086619   2.147842   3.404469
    20  H    4.576853   3.409877   2.155972   1.086722   2.151929
    21  H    7.936765   6.601504   6.329919   5.124782   3.956035
    22  H   10.338894   8.978404   8.567177   7.259511   6.226995
    23  H   12.312923  10.918598  10.324626   8.968678   8.157345
    24  H   12.248969  10.857433  10.343997   8.984661   8.054813
    25  H   10.529918   9.164638   8.505812   7.207146   6.557304
    26  H    8.181623   6.850191   6.244213   5.047798   4.455091
    27  H    4.575605   3.408770   3.866458   3.391133   2.155479
    28  H    2.666064   2.159498   3.391908   3.866676   3.406718
                    6          7          8          9         10
     6  N    0.000000
     7  N    1.251003   0.000000
     8  C    2.188851   1.406929   0.000000
     9  C    2.854696   2.455637   1.399537   0.000000
    10  C    4.168684   3.730550   2.431220   1.399125   0.000000
    11  C    4.849429   4.230282   2.824389   2.428986   1.396482
    12  N    6.192765   5.624461   4.217868   3.704723   2.424036
    13  C    4.467400   3.706590   2.429412   2.780604   2.401862
    14  C    3.276004   2.419238   1.396852   2.404666   2.781193
    15  C    2.455262   2.854905   4.177662   4.752909   6.151448
    16  C    3.730275   4.169454   5.533600   6.151400   7.550037
    17  H    6.126960   6.730459   8.094656   8.912480  10.274031
    18  H    6.137088   6.590731   7.988661   8.707792  10.103245
    19  H    4.565067   5.370993   6.576820   7.412758   8.679793
    20  H    2.636071   3.542075   4.474588   5.299281   6.447941
    21  H    2.787307   2.697273   2.155678   1.086656   2.154854
    22  H    4.895454   4.600361   3.406478   2.147690   1.086580
    23  H    6.807593   6.126289   4.745338   4.454848   3.278958
    24  H    6.672683   6.136246   4.745748   3.973567   2.588375
    25  H    5.346715   4.565901   3.404410   3.866606   3.392316
    26  H    3.517083   2.636900   2.151938   3.391616   3.867751
    27  H    2.696222   2.796671   3.962240   4.348735   5.721112
    28  H    4.599713   4.909625   6.237838   6.764043   8.152589
                   11         12         13         14         15
    11  C    0.000000
    12  N    1.398620   0.000000
    13  C    1.396588   2.424033   0.000000
    14  C    2.429463   3.705029   1.399248   0.000000
    15  C    6.943743   8.324581   6.556325   5.267029   0.000000
    16  C    8.323719   9.708707   7.872607   6.543731   1.399114
    17  H   10.882347  12.244492  10.212269   8.841027   4.454038
    18  H   10.807979  12.198102  10.232992   8.858133   3.973164
    19  H    9.204439  10.498044   8.524779   7.230269   3.866005
    20  H    6.896683   8.136066   6.256168   5.063767   3.391002
    21  H    3.408735   4.575840   3.867163   3.392012   4.349424
    22  H    2.159589   2.666526   3.392498   3.867161   6.764823
    23  H    2.034858   1.015095   2.589022   3.974298   8.908644
    24  H    2.034725   1.015134   3.279175   4.455322   8.703254
    25  H    2.159402   2.665991   1.086605   2.147883   7.414827
    26  H    3.409769   4.576834   2.155921   1.086668   5.301370
    27  H    6.594192   7.958527   6.344305   5.142024   1.086611
    28  H    8.978399  10.359570   8.588274   7.283883   2.147764
                   16         17         18         19         20
    16  C    0.000000
    17  H    3.278437   0.000000
    18  H    2.588310   1.685839   0.000000
    19  H    3.391824   2.427752   3.625067   0.000000
    20  H    3.867346   4.680979   5.398801   2.465546   0.000000
    21  H    5.721114   8.605845   8.301164   7.231607   5.290332
    22  H    8.152718  10.953790  10.729366   9.384364   7.184385
    23  H   10.272486  12.743657  12.713846  11.011778   8.666056
    24  H   10.100754  12.777945  12.640463  11.095720   8.763334
    25  H    8.682190  10.850359  10.947740   9.126855   6.874510
    26  H    6.450623   8.471764   8.579368   6.891930   4.858858
    27  H    2.154887   5.397889   4.679925   4.951994   4.291926
    28  H    1.086566   3.625344   2.428039   4.299010   4.952847
                   21         22         23         24         25
    21  H    0.000000
    22  H    2.463982   0.000000
    23  H    5.397918   3.625327   0.000000
    24  H    4.679166   2.426867   1.686575   0.000000
    25  H    4.953054   4.299890   2.427327   3.625295   0.000000
    26  H    4.293141   4.953583   4.681155   5.399229   2.465659
    27  H    3.856976   6.263912   8.556067   8.241688   7.259680
    28  H    6.257669   8.698009  10.923813  10.686692   9.419177
                   26         27         28
    26  H    0.000000
    27  H    5.320943   0.000000
    28  H    7.223973   2.464137   0.000000
 Stoichiometry    C12H12N4
 Framework group  C1[X(C12H12N4)]
 Deg. of freedom    78
 Full point group                 C1      NOp   1
 Largest Abelian subgroup         C1      NOp   1
 Largest concise Abelian subgroup C1      NOp   1
                         Standard orientation:                         
 ---------------------------------------------------------------------
 Center     Atomic      Atomic             Coordinates (Angstroms)
 Number     Number       Type             X           Y           Z
 ---------------------------------------------------------------------
      1          7           0        5.892758    0.005128   -0.173336
      2          6           0        4.496839   -0.037075   -0.092600
      3          6           0        3.864837   -1.033079    0.655037
      4          6           0        2.477901   -1.015485    0.839559
      5          6           0        1.701729    0.016757    0.307623
      6          7           0        0.313954    0.022277    0.537957
      7          7           0       -0.314662    0.028744   -0.543620
      8          6           0       -1.702589    0.021136   -0.313291
      9          6           0       -2.345688    1.048303    0.386748
     10          6           0       -3.732267    1.024699    0.572200
     11          6           0       -4.507458    0.004002    0.017748
     12          7           0       -5.873607   -0.079598    0.305476
     13          6           0       -3.861104   -1.044674   -0.640250
     14          6           0       -2.474512   -1.023657   -0.826844
     15          6           0        2.345152    1.052815   -0.378851
     16          6           0        3.732051    1.032790   -0.562237
     17          1           0        6.336131   -0.905513   -0.104090
     18          1           0        6.242716    0.544458   -0.959024
     19          1           0        4.445950   -1.834160    1.103722
     20          1           0        1.999826   -1.806366    1.411326
     21          1           0       -1.761157    1.864179    0.803271
     22          1           0       -4.199679    1.815080    1.153131
     23          1           0       -6.402094   -0.635162   -0.359707
     24          1           0       -6.311085    0.816977    0.493255
     25          1           0       -4.430848   -1.889605   -1.017336
     26          1           0       -1.989936   -1.836067   -1.361655
     27          1           0        1.763853    1.887092   -0.761992
     28          1           0        4.207883    1.864044   -1.075292
 ---------------------------------------------------------------------
 Rotational constants (GHZ):           2.6028689           0.1797197           0.1752837
 Standard basis: 6-31G(d,p) (6D, 7F)
 There are   300 symmetry adapted cartesian basis functions of A   symmetry.
 There are   300 symmetry adapted basis functions of A   symmetry.
   300 basis functions,   532 primitive gaussians,   300 cartesian basis functions
    56 alpha electrons       56 beta electrons
       nuclear repulsion energy       947.5554822542 Hartrees.
 NAtoms=   28 NActive=   28 NUniq=   28 SFac= 1.00D+00 NAtFMM=   60 NAOKFM=F Big=F
 Integral buffers will be    131072 words long.
 Raffenetti 2 integral format.
 Two-electron integral symmetry is turned on.
 Force inversion solution in PCM.
 ------------------------------------------------------------------------------
 Polarizable Continuum Model (PCM)
 =================================
 Model                : PCM.
 Atomic radii         : UFF (Universal Force Field).
 Polarization charges : Total charges.
 Charge compensation  : None.
 Solution method      : Matrix inversion.
 Cavity type          : Scaled VdW (van der Waals Surface) (Alpha=1.100).
 Cavity algorithm     : GePol (No added spheres)
                        Default sphere list used, NSphG=   28.
                        Lebedev-Laikov grids with approx.  5.0 points / Ang**2.
                        Smoothing algorithm: York/Karplus (Gamma=1.0000).
                        Polarization charges: spherical gaussians, with
                                              point-specific exponents (IZeta= 3).
                        Self-potential: point-specific (ISelfS= 7).
                        Self-field    : sphere-specific E.n sum rule (ISelfD= 2).
 1st derivatives      : Analytical E(r).r(x)/FMM algorithm (CHGder, D1EAlg=3).
                        Cavity 1st derivative terms included.
 2nd derivatives      : Analytical E(r).r(xy)/FMM algorithm (CHGder, D2EAlg=3).
                        Cavity 2nd derivative terms included.
 Solvent              : Water, Eps=  78.355300 Eps(inf)=   1.777849
 ------------------------------------------------------------------------------
 One-electron integrals computed using PRISM.
 NBasis=   300 RedAO= T EigKep=  4.18D-04  NBF=   300
 NBsUse=   300 1.00D-06 EigRej= -1.00D+00 NBFU=   300
 ExpMin= 1.61D-01 ExpMax= 4.17D+03 ExpMxC= 6.27D+02 IAcc=3 IRadAn=         5 AccDes= 0.00D+00
 Harris functional with IExCor=  402 and IRadAn=       5 diagonalized for initial guess.
 HarFok:  IExCor=  402 AccDes= 0.00D+00 IRadAn=         5 IDoV= 1 UseB2=F ITyADJ=14
 ICtDFT=  3500011 ScaDFX=  1.000000  1.000000  1.000000  1.000000
 FoFCou: FMM=F IPFlag=           0 FMFlag=      100000 FMFlg1=           0
         NFxFlg=           0 DoJE=T BraDBF=F KetDBF=T FulRan=T
         wScrn=  0.000000 ICntrl=       500 IOpCl=  0 I1Cent=   200000004 NGrid=           0
         NMat0=    1 NMatS0=      1 NMatT0=    0 NMatD0=    1 NMtDS0=    0 NMtDT0=    0
 Petite list used in FoFCou.
 Keep R1 ints in memory in canonical form, NReq=1032920980.
 Requested convergence on RMS density matrix=1.00D-08 within  32 cycles.
 Requested convergence on MAX density matrix=1.00D-06.
 Requested convergence on             energy=1.00D-06.
 No special actions if energy rises.
 Inv3:  Mode=1 IEnd=    15773547.
 Iteration    1 A*A^-1 deviation from unit magnitude is 2.89D-15 for    367.
 Iteration    1 A*A^-1 deviation from orthogonality  is 2.29D-15 for   1223     55.
 Iteration    1 A^-1*A deviation from unit magnitude is 3.11D-15 for    376.
 Iteration    1 A^-1*A deviation from orthogonality  is 1.86D-15 for   1116    259.
 Error on total polarization charges =  0.00950
 SCF Done:  E(RB3LYP) =  -683.491718229     A.U. after   13 cycles
            NFock= 13  Conv=0.23D-08     -V/T= 2.0094
 QCSCF skips out because SCF is already converged.
 DoSCS=F DFT=T ScalE2(SS,OS)=  1.000000  1.000000
 Range of M.O.s used for correlation:     1   300
 NBasis=   300 NAE=    56 NBE=    56 NFC=     0 NFV=     0
 NROrb=    300 NOA=    56 NOB=    56 NVA=   244 NVB=   244
 Symmetrizing basis deriv contribution to polar:
 IMax=3 JMax=2 DiffMx= 0.00D+00
 G2DrvN: will do    29 centers at a time, making    1 passes.
 Calling FoFCou, ICntrl=  3107 FMM=F I1Cent=   0 AccDes= 0.00D+00.
 NEqPCM:  Using equilibrium solvation (IEInf=0, Eps=  78.3553, EpsInf=   1.7778)
 G2PCM: DoFxE=T DoFxN=T DoGrad=T DoDP/DQ/DG/TGxP=FFFF NFrqRd=   0 IEInf=0 SqF1=F DoCFld=F IF1Alg=4.
 End of G2Drv F.D. properties file   721 does not exist.
 End of G2Drv F.D. properties file   722 does not exist.
 End of G2Drv F.D. properties file   788 does not exist.
          IDoAtm=1111111111111111111111111111
 NEqPCM:  Using equilibrium solvation (IEInf=0, Eps=  78.3553, EpsInf=   1.7778)
          Differentiating once with respect to nuclear coordinates.
 Keep R1 ints in memory in canonical form, NReq=1032932655.
          There are    87 degrees of freedom in the 1st order CPHF.  IDoFFX=6 NUNeed=     0.
     81 vectors produced by pass  0 Test12= 1.57D-14 1.15D-09 XBig12= 1.61D-01 1.78D-01.
 AX will form    81 AO Fock derivatives at one time.
     81 vectors produced by pass  1 Test12= 1.57D-14 1.15D-09 XBig12= 5.44D-02 6.02D-02.
     81 vectors produced by pass  2 Test12= 1.57D-14 1.15D-09 XBig12= 1.01D-03 3.66D-03.
     81 vectors produced by pass  3 Test12= 1.57D-14 1.15D-09 XBig12= 5.48D-06 1.96D-04.
     81 vectors produced by pass  4 Test12= 1.57D-14 1.15D-09 XBig12= 8.25D-09 6.49D-06.
     63 vectors produced by pass  5 Test12= 1.57D-14 1.15D-09 XBig12= 8.27D-12 1.98D-07.
     16 vectors produced by pass  6 Test12= 1.57D-14 1.15D-09 XBig12= 7.19D-15 5.90D-09.
 InvSVY:  IOpt=1 It=  1 EMax= 6.66D-16
 Solved reduced A of dimension   484 with    87 vectors.
 End of Minotr F.D. properties file   721 does not exist.
 End of Minotr F.D. properties file   722 does not exist.
 End of Minotr F.D. properties file   788 does not exist.

 **********************************************************************

            Population analysis using the SCF density.

 **********************************************************************

 Orbital symmetries:
       Occupied  (A) (A) (A) (A) (A) (A) (A) (A) (A) (A) (A) (A)
                 (A) (A) (A) (A) (A) (A) (A) (A) (A) (A) (A) (A)
                 (A) (A) (A) (A) (A) (A) (A) (A) (A) (A) (A) (A)
                 (A) (A) (A) (A) (A) (A) (A) (A) (A) (A) (A) (A)
                 (A) (A) (A) (A) (A) (A) (A) (A)
       Virtual   (A) (A) (A) (A) (A) (A) (A) (A) (A) (A) (A) (A)
                 (A) (A) (A) (A) (A) (A) (A) (A) (A) (A) (A) (A)
                 (A) (A) (A) (A) (A) (A) (A) (A) (A) (A) (A) (A)
                 (A) (A) (A) (A) (A) (A) (A) (A) (A) (A) (A) (A)
                 (A) (A) (A) (A) (A) (A) (A) (A) (A) (A) (A) (A)
                 (A) (A) (A) (A) (A) (A) (A) (A) (A) (A) (A) (A)
                 (A) (A) (A) (A) (A) (A) (A) (A) (A) (A) (A) (A)
                 (A) (A) (A) (A) (A) (A) (A) (A) (A) (A) (A) (A)
                 (A) (A) (A) (A) (A) (A) (A) (A) (A) (A) (A) (A)
                 (A) (A) (A) (A) (A) (A) (A) (A) (A) (A) (A) (A)
                 (A) (A) (A) (A) (A) (A) (A) (A) (A) (A) (A) (A)
                 (A) (A) (A) (A) (A) (A) (A) (A) (A) (A) (A) (A)
                 (A) (A) (A) (A) (A) (A) (A) (A) (A) (A) (A) (A)
                 (A) (A) (A) (A) (A) (A) (A) (A) (A) (A) (A) (A)
                 (A) (A) (A) (A) (A) (A) (A) (A) (A) (A) (A) (A)
                 (A) (A) (A) (A) (A) (A) (A) (A) (A) (A) (A) (A)
                 (A) (A) (A) (A) (A) (A) (A) (A) (A) (A) (A) (A)
                 (A) (A) (A) (A) (A) (A) (A) (A) (A) (A) (A) (A)
                 (A) (A) (A) (A) (A) (A) (A) (A) (A) (A) (A) (A)
                 (A) (A) (A) (A) (A) (A) (A) (A) (A) (A) (A) (A)
                 (A) (A) (A) (A)
 The electronic state is 1-A.
 Alpha  occ. eigenvalues --  -14.38668 -14.38613 -14.33943 -14.33929 -10.23057
 Alpha  occ. eigenvalues --  -10.23027 -10.21065 -10.21053 -10.19539 -10.19530
 Alpha  occ. eigenvalues --  -10.19515 -10.19486 -10.18851 -10.18831 -10.18782
 Alpha  occ. eigenvalues --  -10.18767  -1.04827  -0.91781  -0.91720  -0.86211
 Alpha  occ. eigenvalues --   -0.83533  -0.78172  -0.74811  -0.74759  -0.72280
 Alpha  occ. eigenvalues --   -0.66651  -0.62271  -0.61957  -0.59738  -0.56649
 Alpha  occ. eigenvalues --   -0.52914  -0.51383  -0.51277  -0.50856  -0.49437
 Alpha  occ. eigenvalues --   -0.46257  -0.44730  -0.44195  -0.44095  -0.42955
 Alpha  occ. eigenvalues --   -0.42046  -0.41689  -0.39838  -0.39410  -0.38113
 Alpha  occ. eigenvalues --   -0.37607  -0.37227  -0.34857  -0.33862  -0.30738
 Alpha  occ. eigenvalues --   -0.30514  -0.25641  -0.25419  -0.24467  -0.21014
 Alpha  occ. eigenvalues --   -0.19957
 Alpha virt. eigenvalues --   -0.06169  -0.00746  -0.00691   0.01889   0.02579
 Alpha virt. eigenvalues --    0.09192   0.09279   0.10901   0.10942   0.12927
 Alpha virt. eigenvalues --    0.13191   0.15892   0.16247   0.16825   0.17306
 Alpha virt. eigenvalues --    0.17565   0.18061   0.19852   0.20380   0.24457
 Alpha virt. eigenvalues --    0.24721   0.25444   0.27082   0.31851   0.33222
 Alpha virt. eigenvalues --    0.33363   0.33510   0.33938   0.34427   0.35556
 Alpha virt. eigenvalues --    0.36148   0.37995   0.48773   0.50423   0.51483
 Alpha virt. eigenvalues --    0.51575   0.51769   0.52756   0.52948   0.53674
 Alpha virt. eigenvalues --    0.53931   0.55321   0.58179   0.58388   0.58576
 Alpha virt. eigenvalues --    0.58830   0.59270   0.59344   0.59538   0.59644
 Alpha virt. eigenvalues --    0.61937   0.62057   0.62917   0.63115   0.63639
 Alpha virt. eigenvalues --    0.64121   0.65294   0.67078   0.68030   0.68131
 Alpha virt. eigenvalues --    0.69756   0.70007   0.73893   0.75425   0.76482
 Alpha virt. eigenvalues --    0.77356   0.77872   0.79218   0.81135   0.81539
 Alpha virt. eigenvalues --    0.81770   0.82007   0.83226   0.84080   0.84702
 Alpha virt. eigenvalues --    0.84996   0.85771   0.86134   0.87424   0.88130
 Alpha virt. eigenvalues --    0.88965   0.89011   0.91279   0.92741   0.95496
 Alpha virt. eigenvalues --    0.98466   0.98849   0.99138   0.99732   1.01515
 Alpha virt. eigenvalues --    1.02524   1.04660   1.06013   1.07735   1.09957
 Alpha virt. eigenvalues --    1.13918   1.15764   1.16539   1.17306   1.18795
 Alpha virt. eigenvalues --    1.19664   1.21054   1.22656   1.25107   1.27440
 Alpha virt. eigenvalues --    1.29902   1.31629   1.32716   1.37829   1.39048
 Alpha virt. eigenvalues --    1.39754   1.40185   1.40363   1.40999   1.44227
 Alpha virt. eigenvalues --    1.45033   1.46258   1.47936   1.49683   1.49705
 Alpha virt. eigenvalues --    1.55788   1.58924   1.64885   1.74801   1.75273
 Alpha virt. eigenvalues --    1.75577   1.77210   1.78200   1.79029   1.80318
 Alpha virt. eigenvalues --    1.81053   1.81453   1.82343   1.86108   1.87243
 Alpha virt. eigenvalues --    1.87398   1.90484   1.91585   1.92519   1.92578
 Alpha virt. eigenvalues --    1.94117   1.94944   1.95808   1.96228   1.97032
 Alpha virt. eigenvalues --    1.97242   1.98309   2.00371   2.00864   2.04565
 Alpha virt. eigenvalues --    2.08177   2.08316   2.08944   2.14777   2.16219
 Alpha virt. eigenvalues --    2.17092   2.19373   2.21255   2.23404   2.24916
 Alpha virt. eigenvalues --    2.26014   2.26759   2.28842   2.30534   2.31674
 Alpha virt. eigenvalues --    2.33224   2.33405   2.34845   2.35368   2.37880
 Alpha virt. eigenvalues --    2.39330   2.41098   2.41235   2.42263   2.44626
 Alpha virt. eigenvalues --    2.44961   2.45050   2.45796   2.46413   2.46643
 Alpha virt. eigenvalues --    2.47216   2.48440   2.50274   2.53190   2.55182
 Alpha virt. eigenvalues --    2.55464   2.57170   2.57736   2.59119   2.59433
 Alpha virt. eigenvalues --    2.60647   2.62638   2.66748   2.67795   2.69972
 Alpha virt. eigenvalues --    2.70968   2.75233   2.76500   2.76725   2.77600
 Alpha virt. eigenvalues --    2.81608   2.82584   2.86045   2.86490   2.97054
 Alpha virt. eigenvalues --    2.98289   2.99452   3.02870   3.05371   3.06496
 Alpha virt. eigenvalues --    3.11237   3.12311   3.18641   3.19211   3.24548
 Alpha virt. eigenvalues --    3.24784   3.28085   3.28279   3.30690   3.32556
 Alpha virt. eigenvalues --    3.37111   3.37181   3.48666   3.48750   3.53504
 Alpha virt. eigenvalues --    3.53587   3.81789   3.82185   3.88189   3.97292
 Alpha virt. eigenvalues --    4.04221   4.04835   4.12999   4.13085   4.15422
 Alpha virt. eigenvalues --    4.15468   4.20190   4.20751   4.43174   4.43347
 Alpha virt. eigenvalues --    4.45212   4.47896   4.81452   4.84157
          Condensed to atoms (all electrons):
               1          2          3          4          5          6
     1  N    6.822839   0.302189  -0.069605   0.004390   0.000523   0.000000
     2  C    0.302189   4.574414   0.531203  -0.024079  -0.033545   0.000059
     3  C   -0.069605   0.531203   4.945079   0.515363  -0.020586   0.005385
     4  C    0.004390  -0.024079   0.515363   4.903359   0.516138  -0.065895
     5  C    0.000523  -0.033545  -0.020586   0.516138   4.766948   0.254553
     6  N    0.000000   0.000059   0.005385  -0.065895   0.254553   7.000648
     7  N   -0.000000   0.000067  -0.000223   0.001398  -0.081506   0.241857
     8  C    0.000000   0.000001   0.000004  -0.000403   0.006133  -0.081056
     9  C    0.000000   0.000000  -0.000000  -0.000015   0.000991   0.002819
    10  C    0.000000  -0.000000   0.000000   0.000000   0.000001  -0.000424
    11  C   -0.000000   0.000000   0.000000  -0.000000  -0.000001   0.000106
    12  N    0.000000  -0.000000   0.000000  -0.000000  -0.000000   0.000000
    13  C   -0.000000   0.000000   0.000000  -0.000000   0.000008  -0.000317
    14  C   -0.000000  -0.000000  -0.000000   0.000057  -0.000403   0.001893
    15  C    0.004478  -0.021782  -0.049156  -0.031295   0.478274  -0.070592
    16  C   -0.070297   0.531791  -0.045392  -0.047437  -0.017467   0.006082
    17  H    0.343928  -0.024670  -0.009301  -0.000027  -0.000014  -0.000000
    18  H    0.343858  -0.024748   0.005391  -0.000178  -0.000012  -0.000000
    19  H   -0.007049  -0.042230   0.365429  -0.031512   0.003446  -0.000109
    20  H   -0.000102   0.004347  -0.037720   0.362775  -0.045426  -0.003638
    21  H   -0.000000   0.000000  -0.000000   0.000011  -0.000343   0.009505
    22  H   -0.000000  -0.000000  -0.000000  -0.000000  -0.000000  -0.000007
    23  H    0.000000  -0.000000   0.000000  -0.000000  -0.000000   0.000000
    24  H    0.000000  -0.000000   0.000000   0.000000  -0.000000   0.000000
    25  H    0.000000  -0.000000  -0.000000   0.000000  -0.000000  -0.000001
    26  H   -0.000000   0.000000  -0.000000  -0.000006   0.000003   0.000688
    27  H   -0.000103   0.004303   0.000307   0.006626  -0.049988  -0.010262
    28  H   -0.007054  -0.042184   0.004890   0.000797   0.003343  -0.000111
               7          8          9         10         11         12
     1  N   -0.000000   0.000000   0.000000   0.000000  -0.000000   0.000000
     2  C    0.000067   0.000001   0.000000  -0.000000   0.000000  -0.000000
     3  C   -0.000223   0.000004  -0.000000   0.000000   0.000000   0.000000
     4  C    0.001398  -0.000403  -0.000015   0.000000  -0.000000  -0.000000
     5  C   -0.081506   0.006133   0.000991   0.000001  -0.000001  -0.000000
     6  N    0.241857  -0.081056   0.002819  -0.000424   0.000106   0.000000
     7  N    7.005922   0.252014  -0.070415   0.006157   0.000083   0.000001
     8  C    0.252014   4.766396   0.481761  -0.017482  -0.032818   0.000596
     9  C   -0.070415   0.481761   4.936766   0.497230  -0.022164   0.004407
    10  C    0.006157  -0.017482   0.497230   4.962491   0.531031  -0.070013
    11  C    0.000083  -0.032818  -0.022164   0.531031   4.575048   0.301512
    12  N    0.000001   0.000596   0.004407  -0.070013   0.301512   6.823571
    13  C    0.005502  -0.021111  -0.048729  -0.044748   0.530399  -0.069889
    14  C   -0.066419   0.515310  -0.030679  -0.048448  -0.022946   0.004433
    15  C    0.003036   0.001057   0.000114  -0.000001   0.000000   0.000000
    16  C   -0.000289  -0.000005  -0.000001   0.000000  -0.000000  -0.000000
    17  H   -0.000000   0.000000   0.000000   0.000000   0.000000   0.000000
    18  H    0.000000   0.000000   0.000000   0.000000   0.000000   0.000000
    19  H    0.000000  -0.000000   0.000000   0.000000  -0.000000  -0.000000
    20  H    0.000545   0.000013   0.000013  -0.000000   0.000000  -0.000000
    21  H   -0.010521  -0.049560   0.368517  -0.038168   0.004198  -0.000108
    22  H   -0.000113   0.003217  -0.030368   0.363765  -0.041928  -0.007116
    23  H   -0.000000   0.000004  -0.000187   0.005474  -0.024739   0.343795
    24  H   -0.000000  -0.000004  -0.000027  -0.009176  -0.024750   0.344036
    25  H   -0.000108   0.003442   0.000767   0.005005  -0.041963  -0.007121
    26  H   -0.004183  -0.045497   0.007529   0.000197   0.004226  -0.000106
    27  H    0.009090  -0.000329   0.000082   0.000000   0.000000  -0.000000
    28  H   -0.000006  -0.000000   0.000000  -0.000000   0.000000   0.000000
              13         14         15         16         17         18
     1  N   -0.000000  -0.000000   0.004478  -0.070297   0.343928   0.343858
     2  C    0.000000  -0.000000  -0.021782   0.531791  -0.024670  -0.024748
     3  C    0.000000  -0.000000  -0.049156  -0.045392  -0.009301   0.005391
     4  C   -0.000000   0.000057  -0.031295  -0.047437  -0.000027  -0.000178
     5  C    0.000008  -0.000403   0.478274  -0.017467  -0.000014  -0.000012
     6  N   -0.000317   0.001893  -0.070592   0.006082  -0.000000  -0.000000
     7  N    0.005502  -0.066419   0.003036  -0.000289  -0.000000   0.000000
     8  C   -0.021111   0.515310   0.001057  -0.000005   0.000000   0.000000
     9  C   -0.048729  -0.030679   0.000114  -0.000001   0.000000   0.000000
    10  C   -0.044748  -0.048448  -0.000001   0.000000   0.000000   0.000000
    11  C    0.530399  -0.022946   0.000000  -0.000000   0.000000   0.000000
    12  N   -0.069889   0.004433   0.000000  -0.000000   0.000000   0.000000
    13  C    4.947779   0.513095  -0.000000   0.000000  -0.000000  -0.000000
    14  C    0.513095   4.905385  -0.000014   0.000000  -0.000000  -0.000000
    15  C   -0.000000  -0.000014   4.938404   0.498355  -0.000160  -0.000014
    16  C    0.000000   0.000000   0.498355   4.960732   0.005372  -0.009233
    17  H   -0.000000  -0.000000  -0.000160   0.005372   0.428567  -0.028061
    18  H   -0.000000  -0.000000  -0.000014  -0.009233  -0.028061   0.428595
    19  H   -0.000000   0.000000   0.000736   0.004996   0.004366  -0.000059
    20  H   -0.000000  -0.000005   0.007530   0.000191  -0.000004   0.000003
    21  H    0.000342   0.006626   0.000087  -0.000000   0.000000   0.000000
    22  H    0.004938   0.000795   0.000000  -0.000000  -0.000000  -0.000000
    23  H   -0.009137  -0.000036  -0.000000  -0.000000   0.000000   0.000000
    24  H    0.005422  -0.000168   0.000000  -0.000000   0.000000  -0.000000
    25  H    0.365445  -0.031864   0.000000   0.000000   0.000000   0.000000
    26  H   -0.037906   0.363289   0.000014  -0.000000   0.000000   0.000000
    27  H   -0.000000   0.000012   0.369045  -0.038295   0.000003  -0.000004
    28  H   -0.000000  -0.000000  -0.030061   0.363921  -0.000049   0.004479
              19         20         21         22         23         24
     1  N   -0.007049  -0.000102  -0.000000  -0.000000   0.000000   0.000000
     2  C   -0.042230   0.004347   0.000000  -0.000000  -0.000000  -0.000000
     3  C    0.365429  -0.037720  -0.000000  -0.000000   0.000000   0.000000
     4  C   -0.031512   0.362775   0.000011  -0.000000  -0.000000   0.000000
     5  C    0.003446  -0.045426  -0.000343  -0.000000  -0.000000  -0.000000
     6  N   -0.000109  -0.003638   0.009505  -0.000007   0.000000   0.000000
     7  N    0.000000   0.000545  -0.010521  -0.000113  -0.000000  -0.000000
     8  C   -0.000000   0.000013  -0.049560   0.003217   0.000004  -0.000004
     9  C    0.000000   0.000013   0.368517  -0.030368  -0.000187  -0.000027
    10  C    0.000000  -0.000000  -0.038168   0.363765   0.005474  -0.009176
    11  C   -0.000000   0.000000   0.004198  -0.041928  -0.024739  -0.024750
    12  N   -0.000000  -0.000000  -0.000108  -0.007116   0.343795   0.344036
    13  C   -0.000000  -0.000000   0.000342   0.004938  -0.009137   0.005422
    14  C    0.000000  -0.000005   0.006626   0.000795  -0.000036  -0.000168
    15  C    0.000736   0.007530   0.000087   0.000000  -0.000000   0.000000
    16  C    0.004996   0.000191  -0.000000  -0.000000  -0.000000  -0.000000
    17  H    0.004366  -0.000004   0.000000  -0.000000   0.000000   0.000000
    18  H   -0.000059   0.000003   0.000000  -0.000000   0.000000  -0.000000
    19  H    0.605151  -0.006043   0.000000  -0.000000   0.000000   0.000000
    20  H   -0.006043   0.615197   0.000003   0.000000   0.000000   0.000000
    21  H    0.000000   0.000003   0.614214  -0.005807   0.000003  -0.000006
    22  H   -0.000000   0.000000  -0.005807   0.606009  -0.000058   0.004424
    23  H    0.000000   0.000000   0.000003  -0.000058   0.428658  -0.028093
    24  H    0.000000   0.000000  -0.000006   0.004424  -0.028093   0.428444
    25  H    0.000000  -0.000000   0.000016  -0.000184   0.004496  -0.000052
    26  H   -0.000000   0.000012  -0.000135   0.000016  -0.000007   0.000003
    27  H    0.000015  -0.000135   0.000246  -0.000000   0.000000   0.000000
    28  H   -0.000184   0.000016  -0.000000   0.000000   0.000000   0.000000
              25         26         27         28
     1  N    0.000000  -0.000000  -0.000103  -0.007054
     2  C   -0.000000   0.000000   0.004303  -0.042184
     3  C   -0.000000  -0.000000   0.000307   0.004890
     4  C    0.000000  -0.000006   0.006626   0.000797
     5  C   -0.000000   0.000003  -0.049988   0.003343
     6  N   -0.000001   0.000688  -0.010262  -0.000111
     7  N   -0.000108  -0.004183   0.009090  -0.000006
     8  C    0.003442  -0.045497  -0.000329  -0.000000
     9  C    0.000767   0.007529   0.000082   0.000000
    10  C    0.005005   0.000197   0.000000  -0.000000
    11  C   -0.041963   0.004226   0.000000   0.000000
    12  N   -0.007121  -0.000106  -0.000000   0.000000
    13  C    0.365445  -0.037906  -0.000000  -0.000000
    14  C   -0.031864   0.363289   0.000012  -0.000000
    15  C    0.000000   0.000014   0.369045  -0.030061
    16  C    0.000000  -0.000000  -0.038295   0.363921
    17  H    0.000000   0.000000   0.000003  -0.000049
    18  H    0.000000   0.000000  -0.000004   0.004479
    19  H    0.000000  -0.000000   0.000015  -0.000184
    20  H   -0.000000   0.000012  -0.000135   0.000016
    21  H    0.000016  -0.000135   0.000246  -0.000000
    22  H   -0.000184   0.000016  -0.000000   0.000000
    23  H    0.004496  -0.000007   0.000000   0.000000
    24  H   -0.000052   0.000003   0.000000   0.000000
    25  H    0.605253  -0.005974   0.000000  -0.000000
    26  H   -0.005974   0.616036   0.000002   0.000000
    27  H    0.000000   0.000002   0.614454  -0.005896
    28  H   -0.000000   0.000000  -0.005896   0.605389
 Mulliken charges:
               1
     1  N   -0.667996
     2  C    0.264864
     3  C   -0.141068
     4  C   -0.110064
     5  C    0.218930
     6  N   -0.291182
     7  N   -0.291888
     8  C    0.218315
     9  C   -0.098412
    10  C   -0.142889
    11  C    0.264706
    12  N   -0.667998
    13  C   -0.141090
    14  C   -0.109912
    15  C   -0.098054
    16  C   -0.143022
    17  H    0.280050
    18  H    0.279984
    19  H    0.103047
    20  H    0.102429
    21  H    0.100881
    22  H    0.102415
    23  H    0.279830
    24  H    0.279946
    25  H    0.102843
    26  H    0.101800
    27  H    0.100826
    28  H    0.102711
 Sum of Mulliken charges =  -0.00000
 Mulliken charges with hydrogens summed into heavy atoms:
               1
     1  N   -0.107963
     2  C    0.264864
     3  C   -0.038021
     4  C   -0.007636
     5  C    0.218930
     6  N   -0.291182
     7  N   -0.291888
     8  C    0.218315
     9  C    0.002469
    10  C   -0.040474
    11  C    0.264706
    12  N   -0.108222
    13  C   -0.038247
    14  C   -0.008112
    15  C    0.002773
    16  C   -0.040312
 APT charges:
               1
     1  N   -1.433912
     2  C    0.315940
     3  C   -0.366522
     4  C   -0.580221
     5  C   -0.526709
     6  N   -0.234405
     7  N   -0.231024
     8  C   -0.512075
     9  C   -0.588609
    10  C   -0.364634
    11  C    0.339711
    12  N   -1.578746
    13  C   -0.356859
    14  C   -0.591380
    15  C   -0.579500
    16  C   -0.376366
    17  H    0.919520
    18  H    0.848874
    19  H    0.754459
    20  H    0.317277
    21  H    0.251025
    22  H    0.679672
    23  H    0.981805
    24  H    0.912099
    25  H    0.746362
    26  H    0.311782
    27  H    0.254751
    28  H    0.687686
 Sum of APT charges =  -0.00000
 APT charges with hydrogens summed into heavy atoms:
               1
     1  N    0.334482
     2  C    0.315940
     3  C    0.387937
     4  C   -0.262943
     5  C   -0.526709
     6  N   -0.234405
     7  N   -0.231024
     8  C   -0.512075
     9  C   -0.337584
    10  C    0.315037
    11  C    0.339711
    12  N    0.315157
    13  C    0.389503
    14  C   -0.279598
    15  C   -0.324749
    16  C    0.311319
 Electronic spatial extent (au):  <R**2>=           5932.7721
 Charge=             -0.0000 electrons
 Dipole moment (field-independent basis, Debye):
    X=             -0.2643    Y=             -0.0442    Z=             -2.0444  Tot=              2.0619
 Quadrupole moment (field-independent basis, Debye-Ang):
   XX=            -39.7132   YY=            -82.9524   ZZ=            -95.7385
   XY=             -8.0094   XZ=             -3.2056   YZ=              0.5041
 Traceless Quadrupole moment (field-independent basis, Debye-Ang):
   XX=             33.0882   YY=            -10.1510   ZZ=            -22.9371
   XY=             -8.0094   XZ=             -3.2056   YZ=              0.5041
 Octapole moment (field-independent basis, Debye-Ang**2):
  XXX=            -37.0489  YYY=             -0.2488  ZZZ=             -2.1680  XYY=              0.6034
  XXY=            -11.9522  XXZ=            -85.1713  XZZ=              8.3311  YZZ=             -0.6611
  YYZ=             -0.6022  XYZ=            -35.0424
 Hexadecapole moment (field-independent basis, Debye-Ang**3):
 XXXX=          -4634.8228 YYYY=           -452.8384 ZZZZ=           -280.4734 XXXY=           -329.9753
 XXXZ=           -165.9508 YYYX=             -9.5687 YYYZ=              0.9363 ZZZX=            -14.4295
 ZZZY=             -0.3711 XXYY=          -1112.0519 XXZZ=          -1253.8193 YYZZ=           -110.4602
 XXYZ=             19.6707 YYXZ=             -4.9085 ZZXY=             -1.6687
 N-N= 9.475554822542D+02 E-N=-3.483133474571D+03  KE= 6.771488096165D+02
  Exact polarizability:   0.000   0.000   0.000   0.000   0.000   0.000
 Approx polarizability: 412.007   0.293 214.748  -9.523  -0.153 146.148
 D2PCM: PCM CHGder 2nd derivatives, FixD1E=F FixD2E=F DoIter=F DoCFld=F I1PDM=0
 Calling FoFJK, ICntrl=    100147 FMM=F ISym2X=0 I1Cent= 0 IOpClX= 0 NMat=1 NMatS=1 NMatT=0.
 ***** Axes restored to original set *****
 -------------------------------------------------------------------
 Center     Atomic                   Forces (Hartrees/Bohr)
 Number     Number              X              Y              Z
 -------------------------------------------------------------------
      1        7          -0.001550409   -0.000909865    0.004721773
      2        6           0.012529184    0.003185777   -0.013951016
      3        6          -0.014666887    0.006712231    0.006700579
      4        6           0.006946036    0.005553178   -0.004768538
      5        6           0.020341903    0.000687450   -0.008337806
      6        7           0.005099132    0.006444238    0.001068229
      7        7          -0.004966388    0.000460114    0.005732529
      8        6          -0.020387067   -0.009154746    0.000240217
      9        6          -0.006806493    0.003043289   -0.003689537
     10        6           0.013675489   -0.006411639   -0.006343475
     11        6          -0.012599968    0.013962500   -0.004659365
     12        7           0.001445048   -0.004701569    0.001339528
     13        6           0.014194485   -0.000212250    0.008916794
     14        6          -0.006913951   -0.003886525    0.005304049
     15        6           0.007071789   -0.003328271    0.002980685
     16        6          -0.013433339   -0.009407181    0.001544561
     17        1           0.001093872   -0.003499000   -0.000813243
     18        1           0.000764135    0.003564468    0.000627009
     19        1           0.000919967   -0.000843607    0.001436038
     20        1          -0.000058687   -0.000599860   -0.000287185
     21        1           0.000407620    0.000361020    0.001098606
     22        1          -0.000929318   -0.001343017    0.000911644
     23        1          -0.000977507   -0.001062145   -0.003401750
     24        1          -0.000924841    0.000939745    0.003570432
     25        1          -0.000863945   -0.000728962   -0.000430432
     26        1           0.000077221   -0.000320642   -0.000523391
     27        1          -0.000454079    0.001050337    0.000302303
     28        1           0.000966995    0.000444931    0.000710762
 -------------------------------------------------------------------
 Cartesian Forces:  Max     0.020387067 RMS     0.006386477
 FormGI is forming the generalized inverse of G from B-inverse, IUseBI=4.

 GradGradGradGradGradGradGradGradGradGradGradGradGradGradGradGradGradGrad
 Berny optimization.
 Internal  Forces:  Max     0.023183785 RMS     0.005002165
 Search for a local minimum.
 Step number   1 out of a maximum of  144
 All quantities printed in internal units (Hartrees-Bohrs-Radians)
 Mixed Optimization -- RFO/linear search
 Second derivative matrix not updated -- analytic derivatives used.
 ITU=  0
     Eigenvalues ---   -0.00481  -0.00383   0.00561   0.00567   0.01584
     Eigenvalues ---    0.01605   0.01729   0.01732   0.01792   0.01812
     Eigenvalues ---    0.01854   0.01883   0.02156   0.02159   0.02263
     Eigenvalues ---    0.02266   0.02375   0.02389   0.02686   0.02719
     Eigenvalues ---    0.02723   0.02736   0.02902   0.02904   0.09567
     Eigenvalues ---    0.11061   0.11109   0.11321   0.11336   0.11732
     Eigenvalues ---    0.11762   0.12587   0.12595   0.13474   0.13535
     Eigenvalues ---    0.15256   0.15420   0.17146   0.17643   0.18373
     Eigenvalues ---    0.18962   0.18972   0.19458   0.19515   0.19540
     Eigenvalues ---    0.21662   0.21919   0.27697   0.28938   0.31506
     Eigenvalues ---    0.31742   0.35632   0.35633   0.35858   0.35867
     Eigenvalues ---    0.35968   0.35976   0.36009   0.36032   0.37847
     Eigenvalues ---    0.37976   0.40912   0.40972   0.41987   0.43819
     Eigenvalues ---    0.45471   0.45526   0.45933   0.45971   0.45998
     Eigenvalues ---    0.46115   0.47001   0.47108   0.47699   0.47776
     Eigenvalues ---    0.51604   0.51685   0.79776
 RFO step:  Lambda=-2.08926380D-02 EMin=-4.81254464D-03
 Linear search not attempted -- first point.
 Iteration  1 RMS(Cart)=  0.19928119 RMS(Int)=  0.06512635
 Iteration  2 RMS(Cart)=  0.22358724 RMS(Int)=  0.03515301
 Iteration  3 RMS(Cart)=  0.19116893 RMS(Int)=  0.01057856
 Iteration  4 RMS(Cart)=  0.02594023 RMS(Int)=  0.00027893
 Iteration  5 RMS(Cart)=  0.00033312 RMS(Int)=  0.00024812
 Iteration  6 RMS(Cart)=  0.00000005 RMS(Int)=  0.00024812
 Variable       Old X    -DE/DX   Delta X   Delta X   Delta X     New X
                                 (Linear)    (Quad)   (Total)
    R1        2.64352  -0.00008   0.00000  -0.02388  -0.02388   2.61963
    R2        1.91846  -0.00265   0.00000  -0.00644  -0.00644   1.91202
    R3        1.91847  -0.00260   0.00000  -0.00674  -0.00674   1.91173
    R4        2.63914   0.00990   0.00000   0.02728   0.02726   2.66640
    R5        2.63891   0.00958   0.00000   0.02763   0.02767   2.66658
    R6        2.64423  -0.00694   0.00000  -0.02484  -0.02489   2.61934
    R7        2.05341  -0.00012   0.00000  -0.00053  -0.00053   2.05288
    R8        2.63948   0.00325   0.00000   0.01622   0.01618   2.65566
    R9        2.05361  -0.00051   0.00000  -0.00139  -0.00139   2.05222
   R10        2.65841   0.02025   0.00000  -0.00544  -0.00544   2.65298
   R11        2.64471   0.00165   0.00000   0.01452   0.01453   2.65924
   R12        2.36405   0.02048   0.00000   0.03857   0.03857   2.40262
   R13        2.65871   0.02069   0.00000   0.00423   0.00423   2.66294
   R14        2.64474   0.00141   0.00000   0.01165   0.01157   2.65631
   R15        2.63967   0.00317   0.00000   0.01423   0.01418   2.65385
   R16        2.64396  -0.00626   0.00000  -0.02111  -0.02114   2.62282
   R17        2.05348  -0.00080   0.00000  -0.00305  -0.00305   2.05044
   R18        2.63897   0.00929   0.00000   0.02509   0.02515   2.66412
   R19        2.05334  -0.00001   0.00000   0.00049   0.00049   2.05383
   R20        2.64301   0.00017   0.00000  -0.01873  -0.01873   2.62428
   R21        2.63917   0.00976   0.00000   0.02513   0.02521   2.66438
   R22        1.91825  -0.00252   0.00000  -0.00600  -0.00600   1.91225
   R23        1.91832  -0.00264   0.00000  -0.00613  -0.00613   1.91220
   R24        2.64420  -0.00676   0.00000  -0.02184  -0.02181   2.62239
   R25        2.05339  -0.00013   0.00000   0.00014   0.00014   2.05352
   R26        2.05350  -0.00048   0.00000  -0.00116  -0.00116   2.05235
   R27        2.64394  -0.00645   0.00000  -0.02353  -0.02348   2.62046
   R28        2.05340  -0.00077   0.00000  -0.00340  -0.00340   2.05000
   R29        2.05331  -0.00001   0.00000   0.00036   0.00036   2.05367
    A1        1.98756   0.00208   0.00000   0.03031   0.02958   2.01715
    A2        1.98742   0.00217   0.00000   0.02787   0.02714   2.01456
    A3        1.95927  -0.00313   0.00000  -0.00570  -0.00674   1.95253
    A4        2.09901   0.00106   0.00000   0.00589   0.00530   2.10431
    A5        2.09900   0.00156   0.00000   0.00492   0.00434   2.10334
    A6        2.06984  -0.00206   0.00000  -0.00019  -0.00086   2.06898
    A7        2.10619  -0.00009   0.00000  -0.00336  -0.00351   2.10268
    A8        2.09996  -0.00107   0.00000  -0.01255  -0.01250   2.08745
    A9        2.07704   0.00116   0.00000   0.01590   0.01594   2.09298
   A10        2.10583  -0.00023   0.00000   0.00462   0.00438   2.11021
   A11        2.09010   0.00052   0.00000   0.01056   0.01055   2.10065
   A12        2.08719  -0.00028   0.00000  -0.01493  -0.01494   2.07225
   A13        2.08144  -0.00233   0.00000  -0.03775  -0.03773   2.04371
   A14        2.06966   0.00264   0.00000   0.00180   0.00167   2.07132
   A15        2.13051  -0.00029   0.00000   0.03669   0.03672   2.16723
   A16        1.93282   0.02316   0.00000   0.06472   0.06472   1.99754
   A17        1.93279   0.02318   0.00000   0.05600   0.05600   1.98878
   A18        2.13084  -0.00050   0.00000   0.02686   0.02693   2.15777
   A19        2.08175  -0.00200   0.00000  -0.02872  -0.02863   2.05312
   A20        2.07022   0.00249   0.00000   0.00171   0.00153   2.07175
   A21        2.10518   0.00006   0.00000   0.00163   0.00143   2.10660
   A22        2.08932  -0.00097   0.00000  -0.01365  -0.01364   2.07568
   A23        2.08858   0.00092   0.00000   0.01231   0.01232   2.10089
   A24        2.10578   0.00002   0.00000   0.00009   0.00009   2.10587
   A25        2.07705   0.00114   0.00000   0.01444   0.01443   2.09148
   A26        2.10035  -0.00116   0.00000  -0.01454  -0.01454   2.08581
   A27        2.09928   0.00144   0.00000   0.00773   0.00672   2.10600
   A28        2.07029  -0.00220   0.00000  -0.00098  -0.00184   2.06845
   A29        2.09914   0.00135   0.00000   0.00613   0.00512   2.10427
   A30        1.98936   0.00208   0.00000   0.02203   0.02169   2.01105
   A31        1.98910   0.00204   0.00000   0.02345   0.02310   2.01220
   A32        1.96084  -0.00320   0.00000  -0.01131  -0.01180   1.94904
   A33        2.10618   0.00000   0.00000  -0.00244  -0.00236   2.10383
   A34        2.09985  -0.00111   0.00000  -0.01351  -0.01357   2.08628
   A35        2.07715   0.00111   0.00000   0.01593   0.01587   2.09303
   A36        2.10578  -0.00023   0.00000   0.00313   0.00307   2.10885
   A37        2.08714  -0.00024   0.00000  -0.01217  -0.01214   2.07500
   A38        2.09012   0.00047   0.00000   0.00894   0.00896   2.09908
   A39        2.10532  -0.00008   0.00000   0.00036   0.00034   2.10566
   A40        2.08908  -0.00088   0.00000  -0.01513  -0.01513   2.07395
   A41        2.08871   0.00095   0.00000   0.01467   0.01466   2.10337
   A42        2.10571  -0.00004   0.00000   0.00008   0.00009   2.10580
   A43        2.10027  -0.00116   0.00000  -0.01691  -0.01692   2.08335
   A44        2.07721   0.00119   0.00000   0.01682   0.01681   2.09401
    D1        0.52701  -0.00131   0.00000  -0.05277  -0.05319   0.47381
    D2       -2.80448   0.00190   0.00000   0.01233   0.01209  -2.79240
    D3        2.80392  -0.00178   0.00000  -0.00524  -0.00500   2.79892
    D4       -0.52757   0.00142   0.00000   0.05985   0.06028  -0.46729
    D5        3.04229   0.00113   0.00000   0.00901   0.00901   3.05130
    D6       -0.09803   0.00135   0.00000   0.02093   0.02080  -0.07723
    D7        0.08746  -0.00240   0.00000  -0.05555  -0.05555   0.03192
    D8       -3.05286  -0.00218   0.00000  -0.04363  -0.04376  -3.09662
    D9       -3.04204  -0.00185   0.00000  -0.03249  -0.03253  -3.07456
   D10        0.09801  -0.00160   0.00000  -0.03826  -0.03823   0.05978
   D11       -0.08721   0.00163   0.00000   0.03217   0.03210  -0.05510
   D12        3.05284   0.00188   0.00000   0.02640   0.02640   3.07924
   D13       -0.02793   0.00168   0.00000   0.04691   0.04693   0.01900
   D14        3.12532   0.00071   0.00000   0.02208   0.02193  -3.13593
   D15        3.11241   0.00146   0.00000   0.03513   0.03508  -3.13569
   D16       -0.01753   0.00050   0.00000   0.01030   0.01009  -0.00744
   D17       -3.11534  -0.00065   0.00000  -0.02895  -0.02877   3.13907
   D18       -0.03287  -0.00037   0.00000  -0.01384  -0.01399  -0.04686
   D19        0.01462   0.00032   0.00000  -0.00399  -0.00400   0.01061
   D20        3.09709   0.00060   0.00000   0.01112   0.01077   3.10786
   D21       -2.13926  -0.00702   0.00000  -0.60415  -0.60419  -2.74345
   D22        1.06360  -0.00741   0.00000  -0.61847  -0.61843   0.44517
   D23        0.03309  -0.00039   0.00000  -0.00938  -0.00954   0.02355
   D24       -3.09471  -0.00040   0.00000  -0.00122  -0.00142  -3.09613
   D25        3.11382  -0.00017   0.00000   0.00349   0.00361   3.11742
   D26       -0.01398  -0.00018   0.00000   0.01165   0.01173  -0.00225
   D27        3.13161   0.00585   0.00000   0.06531   0.06531  -3.08626
   D28        1.06212  -0.00656   0.00000  -0.48623  -0.48623   0.57589
   D29       -2.10950  -0.00736   0.00000  -0.49196  -0.49197  -2.60147
   D30        3.11635  -0.00057   0.00000  -0.00123  -0.00137   3.11498
   D31       -0.04155   0.00016   0.00000   0.01993   0.01969  -0.02186
   D32        0.00459   0.00029   0.00000   0.00497   0.00492   0.00952
   D33        3.12988   0.00102   0.00000   0.02613   0.02598  -3.12732
   D34       -3.11693  -0.00022   0.00000  -0.01952  -0.01972  -3.13665
   D35        0.04299  -0.00001   0.00000  -0.01379  -0.01398   0.02901
   D36       -0.00431  -0.00103   0.00000  -0.02459  -0.02469  -0.02901
   D37       -3.12758  -0.00082   0.00000  -0.01886  -0.01896   3.13665
   D38       -0.04425   0.00137   0.00000   0.03492   0.03489  -0.00936
   D39        3.10004   0.00128   0.00000   0.03920   0.03924   3.13928
   D40        3.11364   0.00066   0.00000   0.01401   0.01377   3.12741
   D41       -0.02526   0.00057   0.00000   0.01828   0.01813  -0.00713
   D42        3.04205   0.00140   0.00000   0.02628   0.02620   3.06825
   D43        0.08190  -0.00241   0.00000  -0.05432  -0.05434   0.02756
   D44       -0.10228   0.00150   0.00000   0.02199   0.02191  -0.08037
   D45       -3.06243  -0.00231   0.00000  -0.05861  -0.05863  -3.12106
   D46        2.80314  -0.00205   0.00000  -0.02935  -0.02932   2.77382
   D47        0.52057  -0.00137   0.00000  -0.05696  -0.05726   0.46331
   D48       -0.52291   0.00145   0.00000   0.05186   0.05216  -0.47076
   D49       -2.80548   0.00213   0.00000   0.02424   0.02422  -2.78126
   D50       -0.08163   0.00167   0.00000   0.03480   0.03473  -0.04690
   D51        3.06238   0.00203   0.00000   0.04357   0.04338   3.10575
   D52       -3.04180  -0.00216   0.00000  -0.04597  -0.04589  -3.08769
   D53        0.10221  -0.00179   0.00000  -0.03720  -0.03725   0.06496
   D54        0.04369   0.00012   0.00000   0.00470   0.00465   0.04834
   D55       -3.11626  -0.00010   0.00000  -0.00126  -0.00139  -3.11765
   D56       -3.10029  -0.00024   0.00000  -0.00399  -0.00407  -3.10436
   D57        0.02295  -0.00046   0.00000  -0.00995  -0.01011   0.01284
   D58        0.02750  -0.00014   0.00000   0.00003   0.00005   0.02754
   D59       -3.11257  -0.00038   0.00000   0.00575   0.00582  -3.10676
   D60       -3.12789  -0.00014   0.00000  -0.00837  -0.00845  -3.13634
   D61        0.01523  -0.00038   0.00000  -0.00265  -0.00268   0.01255
         Item               Value     Threshold  Converged?
 Maximum Force            0.023184     0.000450     NO 
 RMS     Force            0.005002     0.000300     NO 
 Maximum Displacement     2.284618     0.001800     NO 
 RMS     Displacement     0.616413     0.001200     NO 
 Predicted change in Energy=-2.355630D-02
 GradGradGradGradGradGradGradGradGradGradGradGradGradGradGradGradGradGrad

                          Input orientation:                          
 ---------------------------------------------------------------------
 Center     Atomic      Atomic             Coordinates (Angstroms)
 Number     Number       Type             X           Y           Z
 ---------------------------------------------------------------------
      1          7           0        5.875984    0.585406   -0.504996
      2          6           0        4.495721    0.557953   -0.379256
      3          6           0        3.718643    1.674316   -0.754490
      4          6           0        2.334377    1.607773   -0.729133
      5          6           0        1.675454    0.439683   -0.309257
      6          7           0        0.271727    0.461190   -0.312134
      7          7           0       -0.269138   -0.384138    0.468495
      8          6           0       -1.676772   -0.402186    0.405300
      9          6           0       -2.406763   -0.144658   -0.768014
     10          6           0       -3.793185   -0.209488   -0.768573
     11          6           0       -4.497565   -0.546088    0.405334
     12          7           0       -5.885946   -0.526617    0.428424
     13          6           0       -3.764078   -0.781793    1.586157
     14          6           0       -2.377102   -0.738015    1.575329
     15          6           0        2.448025   -0.685784    0.032354
     16          6           0        3.832858   -0.633994   -0.017247
     17          1           0        6.301182    1.502030   -0.452674
     18          1           0        6.376500   -0.094577    0.052260
     19          1           0        4.211409    2.587264   -1.076728
     20          1           0        1.738117    2.466426   -1.023344
     21          1           0       -1.868713    0.102012   -1.677396
     22          1           0       -4.343619   -0.005603   -1.683272
     23          1           0       -6.312887   -1.080140    1.160074
     24          1           0       -6.335332   -0.678346   -0.465417
     25          1           0       -4.292029   -1.009436    2.508282
     26          1           0       -1.815855   -0.942144    2.482440
     27          1           0        1.940877   -1.601951    0.315659
     28          1           0        4.418110   -1.519096    0.217507
 ---------------------------------------------------------------------
                    Distance matrix (angstroms):
                    1          2          3          4          5
     1  N    0.000000
     2  C    1.386250   0.000000
     3  C    2.429422   1.410999   0.000000
     4  C    3.693027   2.428156   1.386097   0.000000
     5  C    4.207613   2.823614   2.428410   1.405315   0.000000
     6  N    5.608950   4.225636   3.680841   2.396470   1.403894
     7  N    6.296842   4.930527   4.651378   3.490030   2.250558
     8  C    7.671252   6.295798   5.896396   4.627763   3.529412
     9  C    8.319019   6.949035   6.389793   5.054793   4.149266
    10  C    9.705368   8.333457   7.744449   6.391480   5.526157
    11  C   10.474707   9.094706   8.589614   7.252694   6.291943
    12  N   11.851196  10.469367   9.924289   8.571421   7.658503
    13  C    9.958562   8.595467   8.215974   6.947068   5.888387
    14  C    8.613514   7.261930   6.957407   5.745546   4.621887
    15  C    3.695345   2.430918   2.793504   2.419335   1.407210
    16  C    2.428828   1.411091   2.425875   2.788861   2.427436
    17  H    1.011795   2.038715   2.605816   3.977832   4.748316
    18  H    1.011647   2.036991   3.293028   4.455034   4.745099
    19  H    2.665543   2.164579   1.086337   2.145570   3.410599
    20  H    4.574808   3.414894   2.149932   1.085989   2.149775
    21  H    7.847836   6.511457   5.877282   4.564262   3.814046
    22  H   10.304266   8.952764   8.287631   6.936065   6.189946
    23  H   12.414309  11.039877  10.577532   9.250359   8.263315
    24  H   12.276599  10.901724  10.329618   8.969936   8.089936
    25  H   10.724358   9.381852   9.056439   7.825593   6.756428
    26  H    8.391816   7.090528   6.924901   5.834441   4.678916
    27  H    4.576360   3.416917   3.878092   3.398346   2.151567
    28  H    2.660139   2.162471   3.410559   3.874968   3.411225
                    6          7          8          9         10
     6  N    0.000000
     7  N    1.271414   0.000000
     8  C    2.248728   1.409168   0.000000
     9  C    2.783736   2.481078   1.405657   0.000000
    10  C    4.145076   3.738951   2.427821   1.387937   0.000000
    11  C    4.927019   4.231999   2.824461   2.430914   1.409790
    12  N    6.280217   5.618758   4.211076   3.698928   2.431670
    13  C    4.629929   3.690787   2.428039   2.791123   2.423455
    14  C    3.466540   2.407036   1.404354   2.417479   2.788998
    15  C    2.484048   2.768426   4.151321   4.949987   6.310392
    16  C    3.737384   4.138205   5.530669   6.303647   7.674714
    17  H    6.120247   6.897483   8.246811   8.867881  10.243306
    18  H    6.140840   6.664953   8.066874   8.821625  10.203405
    19  H    4.541573   5.593946   6.767857   7.166512   8.484710
    20  H    2.584006   3.792145   4.683099   4.905403   6.149855
    21  H    2.564066   2.720263   2.151437   1.085044   2.150950
    22  H    4.837286   4.623287   3.410496   2.146728   1.086839
    23  H    6.920999   6.122875   4.745826   4.455384   3.290381
    24  H    6.706361   6.144711   4.747273   3.976185   2.602738
    25  H    5.562855   4.553613   3.410404   3.877652   3.409771
    26  H    3.759919   2.599939   2.150677   3.398618   3.875010
    27  H    2.727038   2.527962   3.812461   4.711691   5.999499
    28  H    4.625423   4.829225   6.199220   7.031303   8.373338
                   11         12         13         14         15
    11  C    0.000000
    12  N    1.388709   0.000000
    13  C    1.409930   2.430593   0.000000
    14  C    2.429421   3.697575   1.387709   0.000000
    15  C    6.957000   8.344895   6.404198   5.066098   0.000000
    16  C    8.341597   9.729609   7.765706   6.411764   1.386688
    17  H   11.024694  12.386194  10.520558   9.189298   4.457420
    18  H   10.889160  12.275819  10.278932   8.908384   3.972762
    19  H    9.373400  10.673252   9.058140   7.842153   3.879746
    20  H    7.071074   8.318188   6.901780   5.827226   3.399249
    21  H    3.415943   4.579062   3.876120   3.397694   4.709363
    22  H    2.162891   2.666362   3.409912   3.875834   7.037929
    23  H    2.037213   1.011918   2.601342   3.972390   8.841993
    24  H    2.037913   1.011891   3.291049   4.453739   8.797454
    25  H    2.163174   2.664487   1.086677   2.147328   7.187719
    26  H    3.415083   4.577912   2.150490   1.086056   4.924360
    27  H    6.525061   7.901153   5.901978   4.580186   1.084814
    28  H    8.970578  10.353891   8.328566   6.973426   2.147073
                   16         17         18         19         20
    16  C    0.000000
    17  H    3.293147   0.000000
    18  H    2.601138   1.676241   0.000000
    19  H    3.412082   2.436047   3.626914   0.000000
    20  H    3.874632   4.698647   5.406502   2.476818   0.000000
    21  H    5.983787   8.378972   8.426975   6.595844   4.362047
    22  H    8.368111  10.821234  10.860062   8.959874   6.598025
    23  H   10.223564  12.976258  12.775724  11.367230   9.064441
    24  H   10.178159  12.823248  12.735755  11.057652   8.682249
    25  H    8.516633  11.282324  10.985742   9.904393   7.804912
    26  H    6.184767   8.970795   8.587132   7.839152   6.044798
    27  H    2.151129   5.407151   4.692154   4.964229   4.287858
    28  H    1.086754   3.622472   2.427314   4.310448   4.960489
                   21         22         23         24         25
    21  H    0.000000
    22  H    2.477251   0.000000
    23  H    5.403647   3.621776   0.000000
    24  H    4.693457   2.429543   1.674563   0.000000
    25  H    4.962628   4.310390   2.430335   3.623202   0.000000
    26  H    4.289207   4.961840   4.689455   5.402326   2.477223
    27  H    4.624796   6.785200   8.313239   8.364136   6.633837
    28  H    6.763342   9.092387  10.781252  10.807857   9.020749
                   26         27         28
    26  H    0.000000
    27  H    4.386722   0.000000
    28  H    6.657711   2.480560   0.000000
 Stoichiometry    C12H12N4
 Framework group  C1[X(C12H12N4)]
 Deg. of freedom    78
 Full point group                 C1      NOp   1
 Largest Abelian subgroup         C1      NOp   1
 Largest concise Abelian subgroup C1      NOp   1
                         Standard orientation:                         
 ---------------------------------------------------------------------
 Center     Atomic      Atomic             Coordinates (Angstroms)
 Number     Number       Type             X           Y           Z
 ---------------------------------------------------------------------
      1          7           0        5.924202    0.191021    0.103274
      2          6           0        4.546641    0.075383    0.000105
      3          6           0        3.964092   -1.073724   -0.575313
[...]

    16    C    2  S      Cor( 1S)     1.99902
    17    C    2  S      Val( 2S)     0.84205
    18    C    2  S      Ryd( 3S)     0.00121
    19    C    2  S      Ryd( 4S)     0.00009
    20    C    2  px     Val( 2p)     0.91177
    21    C    2  px     Ryd( 3p)     0.00607
    22    C    2  py     Val( 2p)     1.08851
    23    C    2  py     Ryd( 3p)     0.00454
    24    C    2  pz     Val( 2p)     0.98556
    25    C    2  pz     Ryd( 3p)     0.00121
    26    C    2  dxy    Ryd( 3d)     0.00088
    27    C    2  dxz    Ryd( 3d)     0.00177
    28    C    2  dyz    Ryd( 3d)     0.00057
    29    C    2  dx2y2  Ryd( 3d)     0.00111
    30    C    2  dz2    Ryd( 3d)     0.00039

    31    C    3  S      Cor( 1S)     1.99905
    32    C    3  S      Val( 2S)     0.95418
    33    C    3  S      Ryd( 3S)     0.00061
    34    C    3  S      Ryd( 4S)     0.00004
    35    C    3  px     Val( 2p)     1.11713
    36    C    3  px     Ryd( 3p)     0.00429
    37    C    3  py     Val( 2p)     1.14202
    38    C    3  py     Ryd( 3p)     0.00441
    39    C    3  pz     Val( 2p)     1.06645
    40    C    3  pz     Ryd( 3p)     0.00084
    41    C    3  dxy    Ryd( 3d)     0.00071
    42    C    3  dxz    Ryd( 3d)     0.00050
    43    C    3  dyz    Ryd( 3d)     0.00038
    44    C    3  dx2y2  Ryd( 3d)     0.00056
    45    C    3  dz2    Ryd( 3d)     0.00037

    46    C    4  S      Cor( 1S)     1.99907
    47    C    4  S      Val( 2S)     0.95368
    48    C    4  S      Ryd( 3S)     0.00068
    49    C    4  S      Ryd( 4S)     0.00004
    50    C    4  px     Val( 2p)     1.08790
    51    C    4  px     Ryd( 3p)     0.00464
    52    C    4  py     Val( 2p)     1.17246
    53    C    4  py     Ryd( 3p)     0.00486
    54    C    4  pz     Val( 2p)     1.00896
    55    C    4  pz     Ryd( 3p)     0.00083
    56    C    4  dxy    Ryd( 3d)     0.00073
    57    C    4  dxz    Ryd( 3d)     0.00066
    58    C    4  dyz    Ryd( 3d)     0.00032
    59    C    4  dx2y2  Ryd( 3d)     0.00054
    60    C    4  dz2    Ryd( 3d)     0.00038

    61    C    5  S      Cor( 1S)     1.99886
    62    C    5  S      Val( 2S)     0.85000
    63    C    5  S      Ryd( 3S)     0.00145
    64    C    5  S      Ryd( 4S)     0.00009
    65    C    5  px     Val( 2p)     0.89788
    66    C    5  px     Ryd( 3p)     0.00791
    67    C    5  py     Val( 2p)     1.09455
    68    C    5  py     Ryd( 3p)     0.00666
    69    C    5  pz     Val( 2p)     1.08313
    70    C    5  pz     Ryd( 3p)     0.00128
    71    C    5  dxy    Ryd( 3d)     0.00102
    72    C    5  dxz    Ryd( 3d)     0.00157
    73    C    5  dyz    Ryd( 3d)     0.00062
    74    C    5  dx2y2  Ryd( 3d)     0.00105
    75    C    5  dz2    Ryd( 3d)     0.00040

    76    N    6  S      Cor( 1S)     1.99937
    77    N    6  S      Val( 2S)     1.32472
    78    N    6  S      Ryd( 3S)     0.00280
    79    N    6  S      Ryd( 4S)     0.00002
    80    N    6  px     Val( 2p)     1.16996
    81    N    6  px     Ryd( 3p)     0.00396
    82    N    6  py     Val( 2p)     1.19229
    83    N    6  py     Ryd( 3p)     0.00551
    84    N    6  pz     Val( 2p)     1.41356
    85    N    6  pz     Ryd( 3p)     0.00291
    86    N    6  dxy    Ryd( 3d)     0.00125
    87    N    6  dxz    Ryd( 3d)     0.00144
    88    N    6  dyz    Ryd( 3d)     0.00195
    89    N    6  dx2y2  Ryd( 3d)     0.00161
    90    N    6  dz2    Ryd( 3d)     0.00042

    91    N    7  S      Cor( 1S)     1.99937
    92    N    7  S      Val( 2S)     1.32472
    93    N    7  S      Ryd( 3S)     0.00280
    94    N    7  S      Ryd( 4S)     0.00002
    95    N    7  px     Val( 2p)     1.16998
    96    N    7  px     Ryd( 3p)     0.00396
    97    N    7  py     Val( 2p)     1.19231
    98    N    7  py     Ryd( 3p)     0.00551
    99    N    7  pz     Val( 2p)     1.41355
   100    N    7  pz     Ryd( 3p)     0.00291
   101    N    7  dxy    Ryd( 3d)     0.00125
   102    N    7  dxz    Ryd( 3d)     0.00144
   103    N    7  dyz    Ryd( 3d)     0.00195
   104    N    7  dx2y2  Ryd( 3d)     0.00161
   105    N    7  dz2    Ryd( 3d)     0.00042

   106    C    8  S      Cor( 1S)     1.99886
   107    C    8  S      Val( 2S)     0.84999
   108    C    8  S      Ryd( 3S)     0.00145
   109    C    8  S      Ryd( 4S)     0.00009
   110    C    8  px     Val( 2p)     0.89788
   111    C    8  px     Ryd( 3p)     0.00791
   112    C    8  py     Val( 2p)     1.09455
   113    C    8  py     Ryd( 3p)     0.00666
   114    C    8  pz     Val( 2p)     1.08316
   115    C    8  pz     Ryd( 3p)     0.00128
   116    C    8  dxy    Ryd( 3d)     0.00102
   117    C    8  dxz    Ryd( 3d)     0.00157
   118    C    8  dyz    Ryd( 3d)     0.00062
   119    C    8  dx2y2  Ryd( 3d)     0.00105
   120    C    8  dz2    Ryd( 3d)     0.00040

   121    C    9  S      Cor( 1S)     1.99904
   122    C    9  S      Val( 2S)     0.95400
   123    C    9  S      Ryd( 3S)     0.00075
   124    C    9  S      Ryd( 4S)     0.00005
   125    C    9  px     Val( 2p)     1.12098
   126    C    9  px     Ryd( 3p)     0.00397
   127    C    9  py     Val( 2p)     1.13517
   128    C    9  py     Ryd( 3p)     0.00453
   129    C    9  pz     Val( 2p)     1.04420
   130    C    9  pz     Ryd( 3p)     0.00152
   131    C    9  dxy    Ryd( 3d)     0.00072
   132    C    9  dxz    Ryd( 3d)     0.00055
   133    C    9  dyz    Ryd( 3d)     0.00038
   134    C    9  dx2y2  Ryd( 3d)     0.00055
   135    C    9  dz2    Ryd( 3d)     0.00038

   136    C   10  S      Cor( 1S)     1.99905
   137    C   10  S      Val( 2S)     0.95446
   138    C   10  S      Ryd( 3S)     0.00069
   139    C   10  S      Ryd( 4S)     0.00004
   140    C   10  px     Val( 2p)     1.08592
   141    C   10  px     Ryd( 3p)     0.00427
   142    C   10  py     Val( 2p)     1.17011
   143    C   10  py     Ryd( 3p)     0.00447
   144    C   10  pz     Val( 2p)     1.05693
   145    C   10  pz     Ryd( 3p)     0.00074
   146    C   10  dxy    Ryd( 3d)     0.00070
   147    C   10  dxz    Ryd( 3d)     0.00057
   148    C   10  dyz    Ryd( 3d)     0.00033
   149    C   10  dx2y2  Ryd( 3d)     0.00056
   150    C   10  dz2    Ryd( 3d)     0.00038

   151    C   11  S      Cor( 1S)     1.99902
   152    C   11  S      Val( 2S)     0.84205
   153    C   11  S      Ryd( 3S)     0.00120
   154    C   11  S      Ryd( 4S)     0.00009
   155    C   11  px     Val( 2p)     0.91177
   156    C   11  px     Ryd( 3p)     0.00607
   157    C   11  py     Val( 2p)     1.08852
   158    C   11  py     Ryd( 3p)     0.00454
   159    C   11  pz     Val( 2p)     0.98558
   160    C   11  pz     Ryd( 3p)     0.00121
   161    C   11  dxy    Ryd( 3d)     0.00088
   162    C   11  dxz    Ryd( 3d)     0.00177
   163    C   11  dyz    Ryd( 3d)     0.00057
   164    C   11  dx2y2  Ryd( 3d)     0.00111
   165    C   11  dz2    Ryd( 3d)     0.00039

   166    N   12  S      Cor( 1S)     1.99949
   167    N   12  S      Val( 2S)     1.34295
   168    N   12  S      Ryd( 3S)     0.00011
   169    N   12  S      Ryd( 4S)     0.00001
   170    N   12  px     Val( 2p)     1.31734
   171    N   12  px     Ryd( 3p)     0.00247
   172    N   12  py     Val( 2p)     1.41723
   173    N   12  py     Ryd( 3p)     0.00189
   174    N   12  pz     Val( 2p)     1.76030
   175    N   12  pz     Ryd( 3p)     0.00398
   176    N   12  dxy    Ryd( 3d)     0.00038
   177    N   12  dxz    Ryd( 3d)     0.00078
   178    N   12  dyz    Ryd( 3d)     0.00065
   179    N   12  dx2y2  Ryd( 3d)     0.00044
   180    N   12  dz2    Ryd( 3d)     0.00072

   181    C   13  S      Cor( 1S)     1.99905
   182    C   13  S      Val( 2S)     0.95418
   183    C   13  S      Ryd( 3S)     0.00061
   184    C   13  S      Ryd( 4S)     0.00004
   185    C   13  px     Val( 2p)     1.11714
   186    C   13  px     Ryd( 3p)     0.00429
   187    C   13  py     Val( 2p)     1.14201
   188    C   13  py     Ryd( 3p)     0.00441
   189    C   13  pz     Val( 2p)     1.06644
   190    C   13  pz     Ryd( 3p)     0.00084
   191    C   13  dxy    Ryd( 3d)     0.00071
   192    C   13  dxz    Ryd( 3d)     0.00050
   193    C   13  dyz    Ryd( 3d)     0.00038
   194    C   13  dx2y2  Ryd( 3d)     0.00056
   195    C   13  dz2    Ryd( 3d)     0.00037

   196    C   14  S      Cor( 1S)     1.99907
   197    C   14  S      Val( 2S)     0.95368
   198    C   14  S      Ryd( 3S)     0.00068
   199    C   14  S      Ryd( 4S)     0.00004
   200    C   14  px     Val( 2p)     1.08789
   201    C   14  px     Ryd( 3p)     0.00464
   202    C   14  py     Val( 2p)     1.17247
   203    C   14  py     Ryd( 3p)     0.00486
   204    C   14  pz     Val( 2p)     1.00897
   205    C   14  pz     Ryd( 3p)     0.00083
   206    C   14  dxy    Ryd( 3d)     0.00073
   207    C   14  dxz    Ryd( 3d)     0.00066
   208    C   14  dyz    Ryd( 3d)     0.00032
   209    C   14  dx2y2  Ryd( 3d)     0.00054
   210    C   14  dz2    Ryd( 3d)     0.00038

   211    C   15  S      Cor( 1S)     1.99904
   212    C   15  S      Val( 2S)     0.95401
   213    C   15  S      Ryd( 3S)     0.00075
   214    C   15  S      Ryd( 4S)     0.00005
   215    C   15  px     Val( 2p)     1.12096
   216    C   15  px     Ryd( 3p)     0.00397
   217    C   15  py     Val( 2p)     1.13519
   218    C   15  py     Ryd( 3p)     0.00453
   219    C   15  pz     Val( 2p)     1.04419
   220    C   15  pz     Ryd( 3p)     0.00152
   221    C   15  dxy    Ryd( 3d)     0.00072
   222    C   15  dxz    Ryd( 3d)     0.00055
   223    C   15  dyz    Ryd( 3d)     0.00038
   224    C   15  dx2y2  Ryd( 3d)     0.00055
   225    C   15  dz2    Ryd( 3d)     0.00038

   226    C   16  S      Cor( 1S)     1.99905
   227    C   16  S      Val( 2S)     0.95447
   228    C   16  S      Ryd( 3S)     0.00069
   229    C   16  S      Ryd( 4S)     0.00004
   230    C   16  px     Val( 2p)     1.08591
   231    C   16  px     Ryd( 3p)     0.00427
   232    C   16  py     Val( 2p)     1.17011
   233    C   16  py     Ryd( 3p)     0.00447
   234    C   16  pz     Val( 2p)     1.05692
   235    C   16  pz     Ryd( 3p)     0.00074
   236    C   16  dxy    Ryd( 3d)     0.00070
   237    C   16  dxz    Ryd( 3d)     0.00057
   238    C   16  dyz    Ryd( 3d)     0.00033
   239    C   16  dx2y2  Ryd( 3d)     0.00056
   240    C   16  dz2    Ryd( 3d)     0.00038

   241    H   17  S      Val( 1S)     0.57934
   242    H   17  S      Ryd( 2S)     0.00110
   243    H   17  px     Ryd( 2p)     0.00032
   244    H   17  py     Ryd( 2p)     0.00040
   245    H   17  pz     Ryd( 2p)     0.00051

   246    H   18  S      Val( 1S)     0.57935
   247    H   18  S      Ryd( 2S)     0.00108
   248    H   18  px     Ryd( 2p)     0.00024
   249    H   18  py     Ryd( 2p)     0.00048
   250    H   18  pz     Ryd( 2p)     0.00051

   251    H   19  S      Val( 1S)     0.75217
   252    H   19  S      Ryd( 2S)     0.00089
   253    H   19  px     Ryd( 2p)     0.00017
   254    H   19  py     Ryd( 2p)     0.00029
   255    H   19  pz     Ryd( 2p)     0.00013

   256    H   20  S      Val( 1S)     0.74837
   257    H   20  S      Ryd( 2S)     0.00097
   258    H   20  px     Ryd( 2p)     0.00012
   259    H   20  py     Ryd( 2p)     0.00035
   260    H   20  pz     Ryd( 2p)     0.00012

   261    H   21  S      Val( 1S)     0.74546
   262    H   21  S      Ryd( 2S)     0.00098
   263    H   21  px     Ryd( 2p)     0.00020
   264    H   21  py     Ryd( 2p)     0.00028
   265    H   21  pz     Ryd( 2p)     0.00013

   266    H   22  S      Val( 1S)     0.74950
   267    H   22  S      Ryd( 2S)     0.00089
   268    H   22  px     Ryd( 2p)     0.00011
   269    H   22  py     Ryd( 2p)     0.00036
   270    H   22  pz     Ryd( 2p)     0.00013

   271    H   23  S      Val( 1S)     0.57935
   272    H   23  S      Ryd( 2S)     0.00110
   273    H   23  px     Ryd( 2p)     0.00032
   274    H   23  py     Ryd( 2p)     0.00040
   275    H   23  pz     Ryd( 2p)     0.00051

   276    H   24  S      Val( 1S)     0.57933
   277    H   24  S      Ryd( 2S)     0.00108
   278    H   24  px     Ryd( 2p)     0.00024
   279    H   24  py     Ryd( 2p)     0.00048
   280    H   24  pz     Ryd( 2p)     0.00051

   281    H   25  S      Val( 1S)     0.75217
   282    H   25  S      Ryd( 2S)     0.00089
   283    H   25  px     Ryd( 2p)     0.00017
   284    H   25  py     Ryd( 2p)     0.00029
   285    H   25  pz     Ryd( 2p)     0.00013

   286    H   26  S      Val( 1S)     0.74838
   287    H   26  S      Ryd( 2S)     0.00097
   288    H   26  px     Ryd( 2p)     0.00012
   289    H   26  py     Ryd( 2p)     0.00035
   290    H   26  pz     Ryd( 2p)     0.00012

   291    H   27  S      Val( 1S)     0.74545
   292    H   27  S      Ryd( 2S)     0.00097
   293    H   27  px     Ryd( 2p)     0.00020
   294    H   27  py     Ryd( 2p)     0.00028
   295    H   27  pz     Ryd( 2p)     0.00013

   296    H   28  S      Val( 1S)     0.74949
   297    H   28  S      Ryd( 2S)     0.00089
   298    H   28  px     Ryd( 2p)     0.00011
   299    H   28  py     Ryd( 2p)     0.00036
   300    H   28  pz     Ryd( 2p)     0.00013

 WARNING:  1 low occupancy (<1.9990e) core orbital  found on  C    5
           1 low occupancy (<1.9990e) core orbital  found on  C    8


 Summary of Natural Population Analysis:                  
                                                          
                                       Natural Population 
                Natural  -----------------------------------------------
    Atom  No    Charge         Core      Valence    Rydberg      Total
 -----------------------------------------------------------------------
      N    1   -0.84879      1.99949     5.83786    0.01143     7.84879
      C    2    0.15527      1.99902     3.82789    0.01782     5.84473
      C    3   -0.29153      1.99905     4.27977    0.01271     6.29153
      C    4   -0.23574      1.99907     4.22300    0.01367     6.23574
      C    5    0.05351      1.99886     3.92557    0.02206     5.94649
      N    6   -0.12178      1.99937     5.10054    0.02187     7.12178
      N    7   -0.12181      1.99937     5.10057    0.02187     7.12181
      C    8    0.05350      1.99886     3.92558    0.02206     5.94650
      C    9   -0.26679      1.99904     4.25435    0.01340     6.26679
      C   10   -0.27922      1.99905     4.26743    0.01274     6.27922
      C   11    0.15526      1.99902     3.82791    0.01781     5.84474
      N   12   -0.84875      1.99949     5.83782    0.01144     7.84875
      C   13   -0.29153      1.99905     4.27977    0.01271     6.29153
      C   14   -0.23575      1.99907     4.22301    0.01367     6.23575
      C   15   -0.26678      1.99904     4.25434    0.01340     6.26678
      C   16   -0.27921      1.99905     4.26742    0.01274     6.27921
      H   17    0.41834      0.00000     0.57934    0.00232     0.58166
      H   18    0.41834      0.00000     0.57935    0.00231     0.58166
      H   19    0.24635      0.00000     0.75217    0.00148     0.75365
      H   20    0.25006      0.00000     0.74837    0.00157     0.74994
      H   21    0.25295      0.00000     0.74546    0.00159     0.74705
      H   22    0.24901      0.00000     0.74950    0.00149     0.75099
      H   23    0.41832      0.00000     0.57935    0.00232     0.58168
      H   24    0.41836      0.00000     0.57933    0.00231     0.58164
      H   25    0.24634      0.00000     0.75217    0.00148     0.75366
      H   26    0.25005      0.00000     0.74838    0.00157     0.74995
      H   27    0.25296      0.00000     0.74545    0.00159     0.74704
      H   28    0.24903      0.00000     0.74949    0.00149     0.75097
 =======================================================================
   * Total *    0.00000     31.98590    79.74120    0.27290   112.00000

                                 Natural Population      
 --------------------------------------------------------
   Core                      31.98590 ( 99.9559% of  32)
   Valence                   79.74120 ( 99.6765% of  80)
   Natural Minimal Basis    111.72710 ( 99.7563% of 112)
   Natural Rydberg Basis      0.27290 (  0.2437% of 112)
 --------------------------------------------------------

    Atom  No          Natural Electron Configuration
 ----------------------------------------------------------------------------
      N    1      [core]2S( 1.34)2p( 4.49)3p( 0.01)
      C    2      [core]2S( 0.84)2p( 2.99)3p( 0.01)
      C    3      [core]2S( 0.95)2p( 3.33)3p( 0.01)
      C    4      [core]2S( 0.95)2p( 3.27)3p( 0.01)
      C    5      [core]2S( 0.85)2p( 3.08)3p( 0.02)
      N    6      [core]2S( 1.32)2p( 3.78)3p( 0.01)3d( 0.01)
      N    7      [core]2S( 1.32)2p( 3.78)3p( 0.01)3d( 0.01)
      C    8      [core]2S( 0.85)2p( 3.08)3p( 0.02)
      C    9      [core]2S( 0.95)2p( 3.30)3p( 0.01)
      C   10      [core]2S( 0.95)2p( 3.31)3p( 0.01)
      C   11      [core]2S( 0.84)2p( 2.99)3p( 0.01)
      N   12      [core]2S( 1.34)2p( 4.49)3p( 0.01)
      C   13      [core]2S( 0.95)2p( 3.33)3p( 0.01)
      C   14      [core]2S( 0.95)2p( 3.27)3p( 0.01)
      C   15      [core]2S( 0.95)2p( 3.30)3p( 0.01)
      C   16      [core]2S( 0.95)2p( 3.31)3p( 0.01)
      H   17            1S( 0.58)
      H   18            1S( 0.58)
      H   19            1S( 0.75)
      H   20            1S( 0.75)
      H   21            1S( 0.75)
      H   22            1S( 0.75)
      H   23            1S( 0.58)
      H   24            1S( 0.58)
      H   25            1S( 0.75)
      H   26            1S( 0.75)
      H   27            1S( 0.75)
      H   28            1S( 0.75)


 NBO analysis skipped by request.
 1\1\GINC-DRG2-W002\SP\RB3LYP TD-FC\6-31G(d,p)\C12H12N4\QDUEZ\18-Jul-20
 24\0\\# TD(NStates=10, Root=1) B3LYP/6-31G** SCRF=(Solvent=water) volu
 me pop=NPA density=current Geom=AllCheck Guess=Read\\KQIKKETXZQDHGE-FO
 CLMDBBSA-N_conf_2\\0,1\N,0,5.9021169354,0.5620332487,-0.4496920939\C,0
 ,4.5220419952,0.5366430255,-0.3869124482\C,0,3.7404448562,1.3259509254
 ,-1.25536121\C,0,2.3557390056,1.2457279047,-1.2194266412\C,0,1.6966791
 92,0.3845624823,-0.3253851991\N,0,0.2909501855,0.3921742348,-0.3805423
 581\N,0,-0.2909331386,-0.3928782229,0.4312449573\C,0,-1.6966519099,-0.
 3850080459,0.3762957981\C,0,-2.4778937619,0.4047557448,-0.4926684576\C
 ,0,-3.8592682587,0.3309983166,-0.4626346728\C,0,-4.5220379508,-0.53649
 97299,0.4381407709\N,0,-5.9021037457,-0.5615816162,0.5011932417\C,0,-3
 .7404731178,-1.3269558563,1.305577775\C,0,-2.3557573062,-1.2469768293,
 1.269533016\C,0,2.4779542257,-0.4040592922,0.5445762359\C,0,3.85931575
 61,-0.3300006086,0.5147039869\H,0,6.321461017,1.3828411362,-0.86441448
 52\H,0,6.3979225374,0.2381319162,0.3693705492\H,0,4.2303305489,1.99837
 54421,-1.9540526058\H,0,1.7521051145,1.8549189521,-1.8856279147\H,0,-1
 .9784268651,1.0698470157,-1.1880623912\H,0,-4.4508592273,0.9447392989,
 -1.1369918181\H,0,-6.3215646578,-1.3827383411,0.9151051211\H,0,-6.3979
 876382,-0.2366941934,-0.3174319296\H,0,-4.2303989699,-2.0000431925,2.0
 036010464\H,0,-1.7521507084,-1.8569994014,1.9349971112\H,0,1.978518018
 2,-1.0684543206,1.2406568994\H,0,4.4509278688,-0.9428099936,1.18989068
 57\\Version=ES64L-G16RevA.03\State=1-A\HF=-683.5147218\RMSD=8.861e-09\
 Dipole=-0.0003153,0.0029116,0.001971\Quadrupole=25.0629411,-11.6792879
 ,-13.3836532,10.8065225,5.6611484,-7.279227\PG=C01 [X(C12H12N4)]\\@


 KNIGHT- SIRE, I'VE JUST RETURNED FROM THE FRONT
 KING-   HOW GOES THE BATTLE                    
 KNIGHT- THE SITUATION IS QUITE FLUID           
 KING-   WHAT DOES *THAT* MEAN                  
 KNIGHT- WE'RE UP THE CREEK                     
                THE WIZARD OF ID                
 Job cpu time:       0 days  0 hours 37 minutes 56.1 seconds.
 Elapsed time:       0 days  0 hours 13 minutes 38.2 seconds.
 File lengths (MBytes):  RWF=    775 Int=      0 D2E=      0 Chk=     48 Scr=      1
 Normal termination of Gaussian 16 at Thu Jul 18 07:46:50 2024.
