 Entering Gaussian System, Link 0=g16
 Initial command:
 /opt/sw/arch/manual/gaussian/G16_A03/g16/l1.exe "/scratch/1380913/Gau-199300.inp" -scrdir="/scratch/1380913/"
 Entering Link 1 = /opt/sw/arch/manual/gaussian/G16_A03/g16/l1.exe PID=    199301.
  
 Copyright (c) 1988,1990,1992,1993,1995,1998,2003,2009,2016,
            Gaussian, Inc.  All Rights Reserved.
  
 This is part of the Gaussian(R) 16 program.  It is based on
 the Gaussian(R) 09 system (copyright 2009, Gaussian, Inc.),
 the Gaussian(R) 03 system (copyright 2003, Gaussian, Inc.),
 the Gaussian(R) 98 system (copyright 1998, Gaussian, Inc.),
 the Gaussian(R) 94 system (copyright 1995, Gaussian, Inc.),
 the Gaussian 92(TM) system (copyright 1992, Gaussian, Inc.),
 the Gaussian 90(TM) system (copyright 1990, Gaussian, Inc.),
 the Gaussian 88(TM) system (copyright 1988, Gaussian, Inc.),
 the Gaussian 86(TM) system (copyright 1986, Carnegie Mellon
 University), and the Gaussian 82(TM) system (copyright 1983,
 Carnegie Mellon University). Gaussian is a federally registered
 trademark of Gaussian, Inc.
  
 This software contains proprietary and confidential information,
 including trade secrets, belonging to Gaussian, Inc.
  
 This software is provided under written license and may be
 used, copied, transmitted, or stored only in accord with that
 written license.
  
 The following legend is applicable only to US Government
 contracts under FAR:
  
                    RESTRICTED RIGHTS LEGEND
  
 Use, reproduction and disclosure by the US Government is
 subject to restrictions as set forth in subparagraphs (a)
 and (c) of the Commercial Computer Software - Restricted
 Rights clause in FAR 52.227-19.
  
 Gaussian, Inc.
 340 Quinnipiac St., Bldg. 40, Wallingford CT 06492
  
  
 ---------------------------------------------------------------
 Warning -- This program may not be used in any manner that
 competes with the business of Gaussian, Inc. or will provide
 assistance to any competitor of Gaussian, Inc.  The licensee
 of this program is prohibited from giving any competitor of
 Gaussian, Inc. access to this program.  By using this program,
 the user acknowledges that Gaussian, Inc. is engaged in the
 business of creating and licensing software in the field of
 computational chemistry and represents and warrants to the
 licensee that it is not a competitor of Gaussian, Inc. and that
 it will not use this program in any manner prohibited above.
 ---------------------------------------------------------------
  

 Cite this work as:
 Gaussian 16, Revision A.03,
 M. J. Frisch, G. W. Trucks, H. B. Schlegel, G. E. Scuseria, 
 M. A. Robb, J. R. Cheeseman, G. Scalmani, V. Barone, 
 G. A. Petersson, H. Nakatsuji, X. Li, M. Caricato, A. V. Marenich, 
 J. Bloino, B. G. Janesko, R. Gomperts, B. Mennucci, H. P. Hratchian, 
 J. V. Ortiz, A. F. Izmaylov, J. L. Sonnenberg, D. Williams-Young, 
 F. Ding, F. Lipparini, F. Egidi, J. Goings, B. Peng, A. Petrone, 
 T. Henderson, D. Ranasinghe, V. G. Zakrzewski, J. Gao, N. Rega, 
 G. Zheng, W. Liang, M. Hada, M. Ehara, K. Toyota, R. Fukuda, 
 J. Hasegawa, M. Ishida, T. Nakajima, Y. Honda, O. Kitao, H. Nakai, 
 T. Vreven, K. Throssell, J. A. Montgomery, Jr., J. E. Peralta, 
 F. Ogliaro, M. J. Bearpark, J. J. Heyd, E. N. Brothers, K. N. Kudin, 
 V. N. Staroverov, T. A. Keith, R. Kobayashi, J. Normand, 
 K. Raghavachari, A. P. Rendell, J. C. Burant, S. S. Iyengar, 
 J. Tomasi, M. Cossi, J. M. Millam, M. Klene, C. Adamo, R. Cammi, 
 J. W. Ochterski, R. L. Martin, K. Morokuma, O. Farkas, 
 J. B. Foresman, and D. J. Fox, Gaussian, Inc., Wallingford CT, 2016.
 
 ******************************************
 Gaussian 16:  ES64L-G16RevA.03 25-Dec-2016
                18-Jul-2024 
 ******************************************
 %nprocshared=4
 Will use up to    4 processors via shared memory.
 %mem=8GB
 %Chk=KQIKKETXZQDHGE-FOCLMDBBSA-N_conf_0_0.chk
 -------------------------------------------------------
 # opt=CalcFc B3LYP/6-31G** SCRF=(Solvent=water) scf=xqc
 -------------------------------------------------------
 1/10=4,18=20,19=15,26=3,38=1/1,3;
 2/9=110,12=2,17=6,18=5,40=1/2;
 3/5=1,6=6,7=101,11=2,25=1,30=1,70=2201,71=2,72=1,74=-5,140=1/1,2,3;
 4//1;
 5/5=2,8=3,13=1,38=5,53=1/2,8;
 8/6=4,10=90,11=11/1;
 11/6=1,8=1,9=11,15=111,16=1/1,2,10;
 10/6=1,13=1/2;
 6/7=2,8=2,9=2,10=2,28=1/1;
 7/10=1,18=20,25=1/1,2,3,16;
 1/10=4,18=20,19=15,26=3/3(2);
 2/9=110/2;
 99//99;
 2/9=110/2;
 3/5=1,6=6,7=101,11=2,25=1,30=1,70=2205,71=1,72=1,74=-5/1,2,3;
 4/5=5,16=3,69=1/1;
 5/5=2,8=3,13=1,38=5,53=1/2,8;
 7//1,2,3,16;
 1/18=20,19=15,26=3/3(-5);
 2/9=110/2;
 6/7=2,8=2,9=2,10=2,19=2,28=1/1;
 99/9=1/99;
 ----------------------------------
 KQIKKETXZQDHGE-FOCLMDBBSA-N_conf_0
 ----------------------------------
 Symbolic Z-matrix:
 Charge =  0 Multiplicity = 1
 N                    -5.86991  -0.32636   0.4048 
 C                    -4.48159  -0.27721   0.24032 
 C                    -3.72644   0.68377   0.91584 
 C                    -2.35602   0.81767   0.66778 
 C                    -1.72217   0.01314  -0.28597 
 N                    -0.35341   0.14444  -0.58309 
 N                     0.34367  -0.08019   0.43113 
 C                     1.71304   0.0384    0.13078 
 C                     2.55349  -1.05951   0.32938 
 C                     3.92485  -0.9646    0.06814 
 C                     4.48922   0.24371  -0.34652 
 N                     5.83584   0.30152  -0.71989 
 C                     3.64371   1.32804  -0.59044 
 C                     2.27219   1.23591  -0.32967 
 C                    -2.49407  -0.89684  -1.01193 
 C                    -3.86454  -1.02866  -0.76216 
 H                    -6.18695  -0.01233   1.31668 
 H                    -6.28413  -1.2141    0.1384 
 H                    -4.19716   1.34046   1.64235 
 H                    -1.78109   1.56217   1.21174 
 H                     2.13401  -2.00085   0.67399 
 H                     4.54767  -1.84595   0.19472 
 H                     6.42598  -0.37155  -0.2412 
 H                     6.22796   1.23775  -0.7054 
 H                     4.04385   2.25837  -0.98417 
 H                     1.63309   2.09794  -0.50075 
 H                    -2.02637  -1.50004  -1.78548 
 H                    -4.44473  -1.72508  -1.36143 
 

 GradGradGradGradGradGradGradGradGradGradGradGradGradGradGradGradGradGrad
 Berny optimization.
 Initialization pass.
                           ----------------------------
                           !    Initial Parameters    !
                           ! (Angstroms and Degrees)  !
 --------------------------                            --------------------------
 ! Name  Definition              Value          Derivative Info.                !
 --------------------------------------------------------------------------------
 ! R1    R(1,2)                  1.3989         calculate D2E/DX2 analytically  !
 ! R2    R(1,17)                 1.0152         calculate D2E/DX2 analytically  !
 ! R3    R(1,18)                 1.0152         calculate D2E/DX2 analytically  !
 ! R4    R(2,3)                  1.3964         calculate D2E/DX2 analytically  !
 ! R5    R(2,16)                 1.3966         calculate D2E/DX2 analytically  !
 ! R6    R(3,4)                  1.3991         calculate D2E/DX2 analytically  !
 ! R7    R(3,19)                 1.0866         calculate D2E/DX2 analytically  !
 ! R8    R(4,5)                  1.3995         calculate D2E/DX2 analytically  !
 ! R9    R(4,20)                 1.0866         calculate D2E/DX2 analytically  !
 ! R10   R(5,6)                  1.4068         calculate D2E/DX2 analytically  !
 ! R11   R(5,15)                 1.3968         calculate D2E/DX2 analytically  !
 ! R12   R(6,7)                  1.251          calculate D2E/DX2 analytically  !
 ! R13   R(7,8)                  1.4069         calculate D2E/DX2 analytically  !
 ! R14   R(8,9)                  1.3969         calculate D2E/DX2 analytically  !
 ! R15   R(8,14)                 1.3995         calculate D2E/DX2 analytically  !
 ! R16   R(9,10)                 1.3992         calculate D2E/DX2 analytically  !
 ! R17   R(9,21)                 1.0867         calculate D2E/DX2 analytically  !
 ! R18   R(10,11)                1.3966         calculate D2E/DX2 analytically  !
 ! R19   R(10,22)                1.0866         calculate D2E/DX2 analytically  !
 ! R20   R(11,12)                1.3986         calculate D2E/DX2 analytically  !
 ! R21   R(11,13)                1.3965         calculate D2E/DX2 analytically  !
 ! R22   R(12,23)                1.0151         calculate D2E/DX2 analytically  !
 ! R23   R(12,24)                1.0151         calculate D2E/DX2 analytically  !
 ! R24   R(13,14)                1.3991         calculate D2E/DX2 analytically  !
 ! R25   R(13,25)                1.0866         calculate D2E/DX2 analytically  !
 ! R26   R(14,26)                1.0867         calculate D2E/DX2 analytically  !
 ! R27   R(15,16)                1.3993         calculate D2E/DX2 analytically  !
 ! R28   R(15,27)                1.0867         calculate D2E/DX2 analytically  !
 ! R29   R(16,28)                1.0866         calculate D2E/DX2 analytically  !
 ! A1    A(2,1,17)             113.8709         calculate D2E/DX2 analytically  !
 ! A2    A(2,1,18)             113.879          calculate D2E/DX2 analytically  !
 ! A3    A(17,1,18)            112.2577         calculate D2E/DX2 analytically  !
 ! A4    A(1,2,3)              120.2637         calculate D2E/DX2 analytically  !
 ! A5    A(1,2,16)             120.2643         calculate D2E/DX2 analytically  !
 ! A6    A(3,2,16)             118.5931         calculate D2E/DX2 analytically  !
 ! A7    A(2,3,4)              120.6485         calculate D2E/DX2 analytically  !
 ! A8    A(2,3,19)             120.3364         calculate D2E/DX2 analytically  !
 ! A9    A(4,3,19)             119.0151         calculate D2E/DX2 analytically  !
 ! A10   A(3,4,5)              120.6258         calculate D2E/DX2 analytically  !
 ! A11   A(3,4,20)             119.6741         calculate D2E/DX2 analytically  !
 ! A12   A(5,4,20)             119.6954         calculate D2E/DX2 analytically  !
 ! A13   A(4,5,6)              122.0694         calculate D2E/DX2 analytically  !
 ! A14   A(4,5,15)             118.5825         calculate D2E/DX2 analytically  !
 ! A15   A(6,5,15)             119.2576         calculate D2E/DX2 analytically  !
 ! A16   A(5,6,7)              110.7425         calculate D2E/DX2 analytically  !
 ! A17   A(6,7,8)              110.7405         calculate D2E/DX2 analytically  !
 ! A18   A(7,8,9)              119.2755         calculate D2E/DX2 analytically  !
 ! A19   A(7,8,14)             122.0879         calculate D2E/DX2 analytically  !
 ! A20   A(9,8,14)             118.6148         calculate D2E/DX2 analytically  !
 ! A21   A(8,9,10)             120.6522         calculate D2E/DX2 analytically  !
 ! A22   A(8,9,21)             119.5843         calculate D2E/DX2 analytically  !
 ! A23   A(10,9,21)            119.7553         calculate D2E/DX2 analytically  !
 ! A24   A(9,10,11)            120.6754         calculate D2E/DX2 analytically  !
 ! A25   A(9,10,22)            119.012          calculate D2E/DX2 analytically  !
 ! A26   A(11,10,22)           120.3124         calculate D2E/DX2 analytically  !
 ! A27   A(10,11,12)           120.2721         calculate D2E/DX2 analytically  !
 ! A28   A(10,11,13)           118.6189         calculate D2E/DX2 analytically  !
 ! A29   A(12,11,13)           120.2799         calculate D2E/DX2 analytically  !
 ! A30   A(11,12,23)           113.9819         calculate D2E/DX2 analytically  !
 ! A31   A(11,12,24)           113.9672         calculate D2E/DX2 analytically  !
 ! A32   A(23,12,24)           112.3479         calculate D2E/DX2 analytically  !
 ! A33   A(11,13,14)           120.6525         calculate D2E/DX2 analytically  !
 ! A34   A(11,13,25)           120.341          calculate D2E/DX2 analytically  !
 ! A35   A(14,13,25)           119.0063         calculate D2E/DX2 analytically  !
 ! A36   A(8,14,13)            120.6177         calculate D2E/DX2 analytically  !
 ! A37   A(8,14,26)            119.7091         calculate D2E/DX2 analytically  !
 ! A38   A(13,14,26)           119.6667         calculate D2E/DX2 analytically  !
 ! A39   A(5,15,16)            120.6552         calculate D2E/DX2 analytically  !
 ! A40   A(5,15,27)            119.5873         calculate D2E/DX2 analytically  !
 ! A41   A(16,15,27)           119.7541         calculate D2E/DX2 analytically  !
 ! A42   A(2,16,15)            120.6758         calculate D2E/DX2 analytically  !
 ! A43   A(2,16,28)            120.3187         calculate D2E/DX2 analytically  !
 ! A44   A(15,16,28)           119.0055         calculate D2E/DX2 analytically  !
 ! D1    D(17,1,2,3)           -30.2275         calculate D2E/DX2 analytically  !
 ! D2    D(17,1,2,16)          160.653          calculate D2E/DX2 analytically  !
 ! D3    D(18,1,2,3)          -160.6852         calculate D2E/DX2 analytically  !
 ! D4    D(18,1,2,16)           30.1953         calculate D2E/DX2 analytically  !
 ! D5    D(1,2,3,4)           -174.2958         calculate D2E/DX2 analytically  !
 ! D6    D(1,2,3,19)             5.6157         calculate D2E/DX2 analytically  !
 ! D7    D(16,2,3,4)            -4.9966         calculate D2E/DX2 analytically  !
 ! D8    D(16,2,3,19)          174.9149         calculate D2E/DX2 analytically  !
 ! D9    D(1,2,16,15)          174.3102         calculate D2E/DX2 analytically  !
 ! D10   D(1,2,16,28)           -5.6167         calculate D2E/DX2 analytically  !
 ! D11   D(3,2,16,15)            5.0111         calculate D2E/DX2 analytically  !
 ! D12   D(3,2,16,28)         -174.9159         calculate D2E/DX2 analytically  !
 ! D13   D(2,3,4,5)              1.5754         calculate D2E/DX2 analytically  !
 ! D14   D(2,3,4,20)          -179.2149         calculate D2E/DX2 analytically  !
 ! D15   D(19,3,4,5)          -178.3372         calculate D2E/DX2 analytically  !
 ! D16   D(19,3,4,20)            0.8724         calculate D2E/DX2 analytically  !
 ! D17   D(3,4,5,6)            178.4083         calculate D2E/DX2 analytically  !
 ! D18   D(3,4,5,15)             1.8958         calculate D2E/DX2 analytically  !
 ! D19   D(20,4,5,6)            -0.8012         calculate D2E/DX2 analytically  !
 ! D20   D(20,4,5,15)         -177.3137         calculate D2E/DX2 analytically  !
 ! D21   D(4,5,6,7)             60.9387         calculate D2E/DX2 analytically  !
 ! D22   D(15,5,6,7)          -122.5716         calculate D2E/DX2 analytically  !
 ! D23   D(4,5,15,16)           -1.8833         calculate D2E/DX2 analytically  !
 ! D24   D(4,5,15,27)          177.4502         calculate D2E/DX2 analytically  !
 ! D25   D(6,5,15,16)         -178.496          calculate D2E/DX2 analytically  !
 ! D26   D(6,5,15,27)            0.8375         calculate D2E/DX2 analytically  !
 ! D27   D(5,6,7,8)            179.4284         calculate D2E/DX2 analytically  !
 ! D28   D(6,7,8,9)           -120.8646         calculate D2E/DX2 analytically  !
 ! D29   D(6,7,8,14)            60.8556         calculate D2E/DX2 analytically  !
 ! D30   D(7,8,9,10)          -178.5869         calculate D2E/DX2 analytically  !
 ! D31   D(7,8,9,21)             2.4631         calculate D2E/DX2 analytically  !
 ! D32   D(14,8,9,10)           -0.2471         calculate D2E/DX2 analytically  !
 ! D33   D(14,8,9,21)         -179.1971         calculate D2E/DX2 analytically  !
 ! D34   D(7,8,14,13)          178.5539         calculate D2E/DX2 analytically  !
 ! D35   D(7,8,14,26)           -2.3802         calculate D2E/DX2 analytically  !
 ! D36   D(9,8,14,13)            0.2632         calculate D2E/DX2 analytically  !
 ! D37   D(9,8,14,26)          179.3291         calculate D2E/DX2 analytically  !
 ! D38   D(8,9,10,11)            2.5034         calculate D2E/DX2 analytically  !
 ! D39   D(8,9,10,22)         -177.6334         calculate D2E/DX2 analytically  !
 ! D40   D(21,9,10,11)        -178.5484         calculate D2E/DX2 analytically  !
 ! D41   D(21,9,10,22)           1.3147         calculate D2E/DX2 analytically  !
 ! D42   D(9,10,11,12)        -174.2822         calculate D2E/DX2 analytically  !
 ! D43   D(9,10,11,13)          -4.6773         calculate D2E/DX2 analytically  !
 ! D44   D(22,10,11,12)          5.8564         calculate D2E/DX2 analytically  !
 ! D45   D(22,10,11,13)        175.4613         calculate D2E/DX2 analytically  !
 ! D46   D(10,11,12,23)        -29.9606         calculate D2E/DX2 analytically  !
 ! D47   D(10,11,12,24)       -160.742          calculate D2E/DX2 analytically  !
 ! D48   D(13,11,12,23)        160.608          calculate D2E/DX2 analytically  !
 ! D49   D(13,11,12,24)         29.8266         calculate D2E/DX2 analytically  !
 ! D50   D(10,11,13,14)          4.6924         calculate D2E/DX2 analytically  !
 ! D51   D(10,11,13,25)       -175.4644         calculate D2E/DX2 analytically  !
 ! D52   D(12,11,13,14)        174.2965         calculate D2E/DX2 analytically  !
 ! D53   D(12,11,13,25)         -5.8603         calculate D2E/DX2 analytically  !
 ! D54   D(11,13,14,8)          -2.5354         calculate D2E/DX2 analytically  !
 ! D55   D(11,13,14,26)        178.3983         calculate D2E/DX2 analytically  !
 ! D56   D(25,13,14,8)         177.6193         calculate D2E/DX2 analytically  !
 ! D57   D(25,13,14,26)         -1.447          calculate D2E/DX2 analytically  !
 ! D58   D(5,15,16,2)           -1.6            calculate D2E/DX2 analytically  !
 ! D59   D(5,15,16,28)         178.3279         calculate D2E/DX2 analytically  !
 ! D60   D(27,15,16,2)         179.0675         calculate D2E/DX2 analytically  !
 ! D61   D(27,15,16,28)         -1.0045         calculate D2E/DX2 analytically  !
 --------------------------------------------------------------------------------
 Trust Radius=3.00D-01 FncErr=1.00D-07 GrdErr=1.00D-06 EigMax=2.50D+02 EigMin=1.00D-04
 Number of steps in this run=    144 maximum allowed number of steps=    168.
 GradGradGradGradGradGradGradGradGradGradGradGradGradGradGradGradGradGrad

                          Input orientation:                          
 ---------------------------------------------------------------------
 Center     Atomic      Atomic             Coordinates (Angstroms)
 Number     Number       Type             X           Y           Z
 ---------------------------------------------------------------------
      1          7           0       -5.869907   -0.326362    0.404802
      2          6           0       -4.481591   -0.277214    0.240324
      3          6           0       -3.726437    0.683767    0.915844
      4          6           0       -2.356016    0.817670    0.667777
      5          6           0       -1.722166    0.013143   -0.285966
      6          7           0       -0.353412    0.144441   -0.583086
      7          7           0        0.343667   -0.080195    0.431127
      8          6           0        1.713038    0.038395    0.130778
      9          6           0        2.553487   -1.059510    0.329380
     10          6           0        3.924851   -0.964598    0.068139
     11          6           0        4.489223    0.243707   -0.346521
     12          7           0        5.835844    0.301518   -0.719893
     13          6           0        3.643710    1.328035   -0.590445
     14          6           0        2.272192    1.235907   -0.329674
     15          6           0       -2.494069   -0.896836   -1.011931
     16          6           0       -3.864538   -1.028663   -0.762164
     17          1           0       -6.186953   -0.012328    1.316678
     18          1           0       -6.284133   -1.214103    0.138397
     19          1           0       -4.197156    1.340457    1.642347
     20          1           0       -1.781086    1.562171    1.211742
     21          1           0        2.134011   -2.000854    0.673993
     22          1           0        4.547674   -1.845949    0.194716
     23          1           0        6.425978   -0.371547   -0.241203
     24          1           0        6.227955    1.237752   -0.705398
     25          1           0        4.043852    2.258371   -0.984168
     26          1           0        1.633089    2.097941   -0.500748
     27          1           0       -2.026374   -1.500041   -1.785476
     28          1           0       -4.444733   -1.725077   -1.361432
 ---------------------------------------------------------------------
                    Distance matrix (angstroms):
                    1          2          3          4          5
     1  N    0.000000
     2  C    1.398889   0.000000
     3  C    2.424044   1.396449   0.000000
     4  C    3.704780   2.428900   1.399114   0.000000
     5  C    4.218552   2.824131   2.431293   1.399519   0.000000
     6  N    5.623992   4.230562   3.730276   2.455263   1.406771
     7  N    6.218504   4.833046   4.169452   2.854900   2.188744
     8  C    7.596656   6.203630   5.533599   4.177659   3.460482
     9  C    8.455576   7.079000   6.543729   5.267023   4.450892
    10  C    9.821302   8.436256   7.872606   6.556320   5.741966
    11  C   10.401973   9.005068   8.323718   6.943740   6.215961
    12  N   11.776408  10.378170   9.708706   8.324579   7.575947
    13  C    9.707546   8.323912   7.550036   6.151447   5.533016
    14  C    8.323095   6.944639   6.151400   4.752908   4.177553
    15  C    3.705247   2.429468   2.780891   2.404165   1.396754
    16  C    2.424158   1.396571   2.401499   2.780164   2.429379
    17  H    1.015211   2.033952   2.588311   3.973166   4.743779
    18  H    1.015204   2.034038   3.278436   4.454037   4.743181
    19  H    2.666064   2.159498   1.086566   2.147764   3.406719
    20  H    4.575605   3.408770   2.154887   1.086611   2.155479
    21  H    8.181631   6.850196   6.450622   5.301363   4.455087
    22  H   10.529923   9.164641   8.682189   7.414822   6.557299
    23  H   12.312926  10.918600  10.272486   8.908642   8.157342
    24  H   12.248970  10.857434  10.100754   8.703254   8.054813
    25  H   10.338892   8.978404   8.152718   6.764824   6.226997
    26  H    7.936763   6.601504   5.721114   4.349426   3.956039
    27  H    4.576853   3.409877   3.867345   3.391002   2.151929
    28  H    2.665916   2.159465   3.391823   3.866004   3.404469
                    6          7          8          9         10
     6  N    0.000000
     7  N    1.251003   0.000000
     8  C    2.188850   1.406929   0.000000
     9  C    3.275997   2.419238   1.396851   0.000000
    10  C    4.467393   3.706590   2.429411   1.399248   0.000000
    11  C    4.849426   4.230281   2.824389   2.429463   1.396588
    12  N    6.192761   5.624461   4.217868   3.705029   2.424033
    13  C    4.168685   3.730550   2.431220   2.781193   2.401862
    14  C    2.854700   2.455636   1.399537   2.404666   2.780604
    15  C    2.418797   3.286650   4.458721   5.225266   6.509507
    16  C    3.706244   4.475771   5.748505   6.510258   7.833779
    17  H    6.137090   6.590736   7.988666   8.858139  10.232998
    18  H    6.126959   6.730466   8.094662   8.841035  10.212275
    19  H    4.599714   4.909621   6.237836   7.283880   8.588272
    20  H    2.696223   2.796659   3.962231   5.142013   6.344298
    21  H    3.517074   2.636901   2.151938   1.086668   2.155922
    22  H    5.346707   4.565901   3.404410   2.147883   1.086605
    23  H    6.807588   6.126289   4.745338   3.974298   2.589022
    24  H    6.672682   6.136246   4.745748   4.455322   3.279175
    25  H    4.895457   4.600360   3.406478   3.867160   3.392497
    26  H    2.787316   2.697271   2.155677   3.392011   3.867163
    27  H    2.636069   3.542087   4.474596   5.063774   6.256171
    28  H    4.565065   5.371003   6.576828   7.230277   8.524784
                   11         12         13         14         15
    11  C    0.000000
    12  N    1.398620   0.000000
    13  C    1.396481   2.424036   0.000000
    14  C    2.428986   3.704723   1.399125   0.000000
    15  C    7.107037   8.420736   6.542173   5.266052   0.000000
    16  C    8.460320   9.791250   7.871296   6.555515   1.399267
    17  H   10.807984  12.198105  10.103248   8.707795   4.454454
    18  H   10.882351  12.244494  10.274033   8.912482   3.973475
    19  H    8.978399  10.359569   8.152588   6.764042   3.866675
    20  H    6.594188   7.958523   5.721111   4.348733   3.391133
    21  H    3.409769   4.576834   3.867751   3.391616   5.047803
    22  H    2.159402   2.665990   3.392316   3.866606   7.207147
    23  H    2.034858   1.015095   3.278958   4.454848   8.968678
    24  H    2.034725   1.015134   2.588376   3.973567   8.984661
    25  H    2.159588   2.666525   1.086580   2.147690   7.259512
    26  H    3.408734   4.575840   2.154854   1.086656   5.124786
    27  H    6.896684   8.136065   6.447943   5.299286   1.086722
    28  H    9.204440  10.498044   8.679794   7.412761   2.147841
                   16         17         18         19         20
    16  C    0.000000
    17  H    3.278434   0.000000
    18  H    2.588405   1.685839   0.000000
    19  H    3.391907   2.428040   3.625343   0.000000
    20  H    3.866458   4.679927   5.397888   2.464137   0.000000
    21  H    6.244220   8.579377   8.471776   7.223970   5.320930
    22  H    8.505815  10.947748  10.850367   9.419176   7.259672
    23  H   10.324627  12.713853  12.743662  10.923813   8.556063
    24  H   10.343997  12.640468  12.777947  10.686693   8.241688
    25  H    8.567176  10.729367  10.953789   8.698009   6.263914
    26  H    6.329920   8.301164   8.605844   6.257667   3.856976
    27  H    2.155971   5.398802   4.680979   4.952847   4.291925
    28  H    1.086619   3.625067   2.427751   4.299009   4.951993
                   21         22         23         24         25
    21  H    0.000000
    22  H    2.465659   0.000000
    23  H    4.681155   2.427326   0.000000
    24  H    5.399229   3.625295   1.686574   0.000000
    25  H    4.953583   4.299889   3.625326   2.426867   0.000000
    26  H    4.293141   4.953054   5.397918   4.679166   2.463982
    27  H    4.858868   6.874513   8.666056   8.763334   7.184385
    28  H    6.891943   9.126861  11.011780  11.095720   9.384362
                   26         27         28
    26  H    0.000000
    27  H    5.290337   0.000000
    28  H    7.231608   2.465545   0.000000
 Stoichiometry    C12H12N4
 Framework group  C1[X(C12H12N4)]
 Deg. of freedom    78
 Full point group                 C1      NOp   1
 Largest Abelian subgroup         C1      NOp   1
 Largest concise Abelian subgroup C1      NOp   1
                         Standard orientation:                         
 ---------------------------------------------------------------------
 Center     Atomic      Atomic             Coordinates (Angstroms)
 Number     Number       Type             X           Y           Z
 ---------------------------------------------------------------------
      1          7           0        5.892760    0.005136   -0.173324
      2          6           0        4.496840   -0.037073   -0.092596
      3          6           0        3.732050    1.032790   -0.562234
      4          6           0        2.345150    1.052809   -0.378854
      5          6           0        1.701728    0.016748    0.307616
      6          7           0        0.313953    0.022262    0.537948
      7          7           0       -0.314664    0.028753   -0.543628
      8          6           0       -1.702590    0.021142   -0.313297
      9          6           0       -2.474514   -1.023648   -0.826854
     10          6           0       -3.861104   -1.044669   -0.640254
     11          6           0       -4.507458    0.004002    0.017753
     12          7           0       -5.873605   -0.079602    0.305485
     13          6           0       -3.732266    1.024696    0.572210
     14          6           0       -2.345688    1.048304    0.386751
     15          6           0        2.477902   -1.015492    0.839553
     16          6           0        3.864838   -1.033080    0.655036
     17          1           0        6.242721    0.544470   -0.959008
     18          1           0        6.336136   -0.905502   -0.104076
     19          1           0        4.207882    1.864047   -1.075284
     20          1           0        1.763850    1.887085   -0.761995
     21          1           0       -1.989938   -1.836053   -1.361673
     22          1           0       -4.430849   -1.889598   -1.017342
     23          1           0       -6.402094   -0.635163   -0.359699
     24          1           0       -6.311085    0.816971    0.493271
     25          1           0       -4.199678    1.815072    1.153147
     26          1           0       -1.761156    1.864178    0.803276
     27          1           0        1.999828   -1.806374    1.411319
     28          1           0        4.445952   -1.834159    1.103723
 ---------------------------------------------------------------------
 Rotational constants (GHZ):           2.6028705           0.1797197           0.1752837
 Standard basis: 6-31G(d,p) (6D, 7F)
 There are   300 symmetry adapted cartesian basis functions of A   symmetry.
 There are   300 symmetry adapted basis functions of A   symmetry.
   300 basis functions,   532 primitive gaussians,   300 cartesian basis functions
    56 alpha electrons       56 beta electrons
       nuclear repulsion energy       947.5555023304 Hartrees.
 NAtoms=   28 NActive=   28 NUniq=   28 SFac= 1.00D+00 NAtFMM=   60 NAOKFM=F Big=F
 Integral buffers will be    131072 words long.
 Raffenetti 2 integral format.
 Two-electron integral symmetry is turned on.
 Force inversion solution in PCM.
 ------------------------------------------------------------------------------
 Polarizable Continuum Model (PCM)
 =================================
 Model                : PCM.
 Atomic radii         : UFF (Universal Force Field).
 Polarization charges : Total charges.
 Charge compensation  : None.
 Solution method      : Matrix inversion.
 Cavity type          : Scaled VdW (van der Waals Surface) (Alpha=1.100).
 Cavity algorithm     : GePol (No added spheres)
                        Default sphere list used, NSphG=   28.
                        Lebedev-Laikov grids with approx.  5.0 points / Ang**2.
                        Smoothing algorithm: York/Karplus (Gamma=1.0000).
                        Polarization charges: spherical gaussians, with
                                              point-specific exponents (IZeta= 3).
                        Self-potential: point-specific (ISelfS= 7).
                        Self-field    : sphere-specific E.n sum rule (ISelfD= 2).
 1st derivatives      : Analytical E(r).r(x)/FMM algorithm (CHGder, D1EAlg=3).
                        Cavity 1st derivative terms included.
 2nd derivatives      : Analytical E(r).r(xy)/FMM algorithm (CHGder, D2EAlg=3).
                        Cavity 2nd derivative terms included.
 Solvent              : Water, Eps=  78.355300 Eps(inf)=   1.777849
 ------------------------------------------------------------------------------
 One-electron integrals computed using PRISM.
 NBasis=   300 RedAO= T EigKep=  4.18D-04  NBF=   300
 NBsUse=   300 1.00D-06 EigRej= -1.00D+00 NBFU=   300
 ExpMin= 1.61D-01 ExpMax= 4.17D+03 ExpMxC= 6.27D+02 IAcc=3 IRadAn=         5 AccDes= 0.00D+00
 Harris functional with IExCor=  402 and IRadAn=       5 diagonalized for initial guess.
 HarFok:  IExCor=  402 AccDes= 0.00D+00 IRadAn=         5 IDoV= 1 UseB2=F ITyADJ=14
 ICtDFT=  3500011 ScaDFX=  1.000000  1.000000  1.000000  1.000000
 FoFCou: FMM=F IPFlag=           0 FMFlag=      100000 FMFlg1=           0
         NFxFlg=           0 DoJE=T BraDBF=F KetDBF=T FulRan=T
         wScrn=  0.000000 ICntrl=       500 IOpCl=  0 I1Cent=   200000004 NGrid=           0
         NMat0=    1 NMatS0=      1 NMatT0=    0 NMatD0=    1 NMtDS0=    0 NMtDT0=    0
 Petite list used in FoFCou.
 Keep R1 ints in memory in canonical form, NReq=1032920980.
 Requested convergence on RMS density matrix=1.00D-08 within  32 cycles.
 Requested convergence on MAX density matrix=1.00D-06.
 Requested convergence on             energy=1.00D-06.
 No special actions if energy rises.
 Inv3:  Mode=1 IEnd=    15773547.
 Iteration    1 A*A^-1 deviation from unit magnitude is 2.89D-15 for    216.
 Iteration    1 A*A^-1 deviation from orthogonality  is 2.98D-15 for   1159    236.
 Iteration    1 A^-1*A deviation from unit magnitude is 3.11D-15 for   1460.
 Iteration    1 A^-1*A deviation from orthogonality  is 1.85D-15 for   1448    965.
 Error on total polarization charges =  0.00950
 SCF Done:  E(RB3LYP) =  -683.491718365     A.U. after   13 cycles
            NFock= 13  Conv=0.23D-08     -V/T= 2.0094
 QCSCF skips out because SCF is already converged.
 DoSCS=F DFT=T ScalE2(SS,OS)=  1.000000  1.000000
 Range of M.O.s used for correlation:     1   300
 NBasis=   300 NAE=    56 NBE=    56 NFC=     0 NFV=     0
 NROrb=    300 NOA=    56 NOB=    56 NVA=   244 NVB=   244
 Symmetrizing basis deriv contribution to polar:
 IMax=3 JMax=2 DiffMx= 0.00D+00
 G2DrvN: will do    29 centers at a time, making    1 passes.
 Calling FoFCou, ICntrl=  3107 FMM=F I1Cent=   0 AccDes= 0.00D+00.
 NEqPCM:  Using equilibrium solvation (IEInf=0, Eps=  78.3553, EpsInf=   1.7778)
 G2PCM: DoFxE=T DoFxN=T DoGrad=T DoDP/DQ/DG/TGxP=FFFF NFrqRd=   0 IEInf=0 SqF1=F DoCFld=F IF1Alg=4.
 End of G2Drv F.D. properties file   721 does not exist.
 End of G2Drv F.D. properties file   722 does not exist.
 End of G2Drv F.D. properties file   788 does not exist.
          IDoAtm=1111111111111111111111111111
 NEqPCM:  Using equilibrium solvation (IEInf=0, Eps=  78.3553, EpsInf=   1.7778)
          Differentiating once with respect to nuclear coordinates.
 Keep R1 ints in memory in canonical form, NReq=1032932655.
          There are    87 degrees of freedom in the 1st order CPHF.  IDoFFX=6 NUNeed=     0.
     81 vectors produced by pass  0 Test12= 1.57D-14 1.15D-09 XBig12= 1.62D-01 1.77D-01.
 AX will form    81 AO Fock derivatives at one time.
     81 vectors produced by pass  1 Test12= 1.57D-14 1.15D-09 XBig12= 5.05D-02 4.97D-02.
     81 vectors produced by pass  2 Test12= 1.57D-14 1.15D-09 XBig12= 7.36D-04 3.15D-03.
     81 vectors produced by pass  3 Test12= 1.57D-14 1.15D-09 XBig12= 4.28D-06 1.99D-04.
     81 vectors produced by pass  4 Test12= 1.57D-14 1.15D-09 XBig12= 7.21D-09 6.20D-06.
     66 vectors produced by pass  5 Test12= 1.57D-14 1.15D-09 XBig12= 7.05D-12 1.90D-07.
     19 vectors produced by pass  6 Test12= 1.57D-14 1.15D-09 XBig12= 6.19D-15 6.66D-09.
 InvSVY:  IOpt=1 It=  1 EMax= 6.11D-16
 Solved reduced A of dimension   490 with    87 vectors.
 End of Minotr F.D. properties file   721 does not exist.
 End of Minotr F.D. properties file   722 does not exist.
 End of Minotr F.D. properties file   788 does not exist.

 **********************************************************************

            Population analysis using the SCF density.

 **********************************************************************

 Orbital symmetries:
       Occupied  (A) (A) (A) (A) (A) (A) (A) (A) (A) (A) (A) (A)
                 (A) (A) (A) (A) (A) (A) (A) (A) (A) (A) (A) (A)
                 (A) (A) (A) (A) (A) (A) (A) (A) (A) (A) (A) (A)
                 (A) (A) (A) (A) (A) (A) (A) (A) (A) (A) (A) (A)
                 (A) (A) (A) (A) (A) (A) (A) (A)
       Virtual   (A) (A) (A) (A) (A) (A) (A) (A) (A) (A) (A) (A)
                 (A) (A) (A) (A) (A) (A) (A) (A) (A) (A) (A) (A)
                 (A) (A) (A) (A) (A) (A) (A) (A) (A) (A) (A) (A)
                 (A) (A) (A) (A) (A) (A) (A) (A) (A) (A) (A) (A)
                 (A) (A) (A) (A) (A) (A) (A) (A) (A) (A) (A) (A)
                 (A) (A) (A) (A) (A) (A) (A) (A) (A) (A) (A) (A)
                 (A) (A) (A) (A) (A) (A) (A) (A) (A) (A) (A) (A)
                 (A) (A) (A) (A) (A) (A) (A) (A) (A) (A) (A) (A)
                 (A) (A) (A) (A) (A) (A) (A) (A) (A) (A) (A) (A)
                 (A) (A) (A) (A) (A) (A) (A) (A) (A) (A) (A) (A)
                 (A) (A) (A) (A) (A) (A) (A) (A) (A) (A) (A) (A)
                 (A) (A) (A) (A) (A) (A) (A) (A) (A) (A) (A) (A)
                 (A) (A) (A) (A) (A) (A) (A) (A) (A) (A) (A) (A)
                 (A) (A) (A) (A) (A) (A) (A) (A) (A) (A) (A) (A)
                 (A) (A) (A) (A) (A) (A) (A) (A) (A) (A) (A) (A)
                 (A) (A) (A) (A) (A) (A) (A) (A) (A) (A) (A) (A)
                 (A) (A) (A) (A) (A) (A) (A) (A) (A) (A) (A) (A)
                 (A) (A) (A) (A) (A) (A) (A) (A) (A) (A) (A) (A)
                 (A) (A) (A) (A) (A) (A) (A) (A) (A) (A) (A) (A)
                 (A) (A) (A) (A) (A) (A) (A) (A) (A) (A) (A) (A)
                 (A) (A) (A) (A)
 The electronic state is 1-A.
 Alpha  occ. eigenvalues --  -14.38668 -14.38613 -14.33943 -14.33929 -10.23057
 Alpha  occ. eigenvalues --  -10.23027 -10.21065 -10.21053 -10.19539 -10.19530
 Alpha  occ. eigenvalues --  -10.19515 -10.19486 -10.18851 -10.18831 -10.18782
 Alpha  occ. eigenvalues --  -10.18767  -1.04827  -0.91781  -0.91720  -0.86211
 Alpha  occ. eigenvalues --   -0.83533  -0.78172  -0.74811  -0.74759  -0.72280
 Alpha  occ. eigenvalues --   -0.66651  -0.62271  -0.61957  -0.59738  -0.56649
 Alpha  occ. eigenvalues --   -0.52914  -0.51383  -0.51277  -0.50856  -0.49437
 Alpha  occ. eigenvalues --   -0.46257  -0.44730  -0.44195  -0.44095  -0.42955
 Alpha  occ. eigenvalues --   -0.42046  -0.41689  -0.39838  -0.39410  -0.38113
 Alpha  occ. eigenvalues --   -0.37607  -0.37227  -0.34857  -0.33862  -0.30738
 Alpha  occ. eigenvalues --   -0.30514  -0.25641  -0.25419  -0.24467  -0.21014
 Alpha  occ. eigenvalues --   -0.19957
 Alpha virt. eigenvalues --   -0.06169  -0.00746  -0.00691   0.01889   0.02580
 Alpha virt. eigenvalues --    0.09192   0.09279   0.10901   0.10942   0.12927
 Alpha virt. eigenvalues --    0.13191   0.15892   0.16247   0.16825   0.17306
 Alpha virt. eigenvalues --    0.17565   0.18061   0.19852   0.20380   0.24457
 Alpha virt. eigenvalues --    0.24721   0.25444   0.27082   0.31851   0.33222
 Alpha virt. eigenvalues --    0.33363   0.33510   0.33938   0.34427   0.35556
 Alpha virt. eigenvalues --    0.36148   0.37995   0.48773   0.50423   0.51483
 Alpha virt. eigenvalues --    0.51575   0.51769   0.52756   0.52948   0.53674
 Alpha virt. eigenvalues --    0.53931   0.55321   0.58179   0.58388   0.58576
 Alpha virt. eigenvalues --    0.58830   0.59270   0.59344   0.59538   0.59644
 Alpha virt. eigenvalues --    0.61937   0.62057   0.62917   0.63115   0.63639
 Alpha virt. eigenvalues --    0.64121   0.65294   0.67078   0.68030   0.68131
 Alpha virt. eigenvalues --    0.69756   0.70007   0.73893   0.75425   0.76482
 Alpha virt. eigenvalues --    0.77356   0.77872   0.79218   0.81135   0.81539
 Alpha virt. eigenvalues --    0.81770   0.82007   0.83226   0.84080   0.84702
 Alpha virt. eigenvalues --    0.84996   0.85771   0.86134   0.87424   0.88130
 Alpha virt. eigenvalues --    0.88965   0.89011   0.91279   0.92741   0.95496
 Alpha virt. eigenvalues --    0.98467   0.98849   0.99138   0.99732   1.01515
 Alpha virt. eigenvalues --    1.02524   1.04660   1.06014   1.07735   1.09957
 Alpha virt. eigenvalues --    1.13918   1.15764   1.16539   1.17306   1.18795
 Alpha virt. eigenvalues --    1.19664   1.21054   1.22656   1.25107   1.27440
 Alpha virt. eigenvalues --    1.29902   1.31629   1.32716   1.37829   1.39048
 Alpha virt. eigenvalues --    1.39754   1.40185   1.40363   1.40999   1.44227
 Alpha virt. eigenvalues --    1.45033   1.46258   1.47936   1.49683   1.49705
 Alpha virt. eigenvalues --    1.55788   1.58924   1.64885   1.74801   1.75273
 Alpha virt. eigenvalues --    1.75577   1.77210   1.78200   1.79029   1.80318
 Alpha virt. eigenvalues --    1.81053   1.81453   1.82343   1.86108   1.87243
 Alpha virt. eigenvalues --    1.87398   1.90484   1.91585   1.92519   1.92578
 Alpha virt. eigenvalues --    1.94117   1.94944   1.95808   1.96228   1.97032
 Alpha virt. eigenvalues --    1.97242   1.98309   2.00371   2.00864   2.04565
 Alpha virt. eigenvalues --    2.08177   2.08316   2.08944   2.14777   2.16219
 Alpha virt. eigenvalues --    2.17092   2.19372   2.21255   2.23404   2.24916
 Alpha virt. eigenvalues --    2.26014   2.26759   2.28842   2.30534   2.31674
 Alpha virt. eigenvalues --    2.33224   2.33406   2.34845   2.35368   2.37880
 Alpha virt. eigenvalues --    2.39329   2.41098   2.41235   2.42263   2.44626
 Alpha virt. eigenvalues --    2.44961   2.45050   2.45796   2.46413   2.46643
 Alpha virt. eigenvalues --    2.47216   2.48440   2.50274   2.53190   2.55182
 Alpha virt. eigenvalues --    2.55464   2.57170   2.57736   2.59119   2.59433
 Alpha virt. eigenvalues --    2.60647   2.62638   2.66748   2.67795   2.69972
 Alpha virt. eigenvalues --    2.70968   2.75233   2.76500   2.76725   2.77600
 Alpha virt. eigenvalues --    2.81608   2.82584   2.86046   2.86490   2.97054
 Alpha virt. eigenvalues --    2.98289   2.99452   3.02870   3.05372   3.06496
 Alpha virt. eigenvalues --    3.11237   3.12311   3.18641   3.19211   3.24548
 Alpha virt. eigenvalues --    3.24784   3.28085   3.28279   3.30690   3.32556
 Alpha virt. eigenvalues --    3.37111   3.37181   3.48666   3.48750   3.53504
 Alpha virt. eigenvalues --    3.53588   3.81789   3.82185   3.88189   3.97292
 Alpha virt. eigenvalues --    4.04221   4.04835   4.12999   4.13085   4.15422
 Alpha virt. eigenvalues --    4.15468   4.20190   4.20751   4.43174   4.43347
 Alpha virt. eigenvalues --    4.45212   4.47896   4.81452   4.84157
          Condensed to atoms (all electrons):
               1          2          3          4          5          6
     1  N    6.822838   0.302190  -0.070297   0.004478   0.000523   0.000000
     2  C    0.302190   4.574414   0.531790  -0.021782  -0.033546   0.000059
     3  C   -0.070297   0.531790   4.960732   0.498355  -0.017467   0.006082
     4  C    0.004478  -0.021782   0.498355   4.938406   0.478272  -0.070593
     5  C    0.000523  -0.033546  -0.017467   0.478272   4.766948   0.254555
     6  N    0.000000   0.000059   0.006082  -0.070593   0.254555   7.000647
     7  N   -0.000000   0.000067  -0.000289   0.003036  -0.081506   0.241857
     8  C    0.000000   0.000001  -0.000005   0.001057   0.006133  -0.081056
     9  C   -0.000000  -0.000000   0.000000  -0.000014  -0.000403   0.001893
    10  C   -0.000000   0.000000   0.000000  -0.000000   0.000008  -0.000317
    11  C   -0.000000   0.000000  -0.000000   0.000000  -0.000001   0.000106
    12  N    0.000000  -0.000000  -0.000000   0.000000  -0.000000   0.000000
    13  C    0.000000  -0.000000   0.000000  -0.000001   0.000001  -0.000424
    14  C    0.000000   0.000000  -0.000001   0.000114   0.000991   0.002819
    15  C    0.004390  -0.024079  -0.047437  -0.031296   0.516137  -0.065895
    16  C   -0.069605   0.531203  -0.045392  -0.049156  -0.020586   0.005385
    17  H    0.343859  -0.024748  -0.009233  -0.000014  -0.000012  -0.000000
    18  H    0.343929  -0.024670   0.005372  -0.000160  -0.000014  -0.000000
    19  H   -0.007054  -0.042184   0.363921  -0.030061   0.003343  -0.000111
    20  H   -0.000103   0.004303  -0.038295   0.369045  -0.049988  -0.010262
    21  H   -0.000000   0.000000  -0.000000   0.000014   0.000003   0.000688
    22  H    0.000000  -0.000000   0.000000   0.000000  -0.000000  -0.000001
    23  H    0.000000  -0.000000  -0.000000  -0.000000  -0.000000   0.000000
    24  H    0.000000  -0.000000  -0.000000   0.000000  -0.000000   0.000000
    25  H   -0.000000  -0.000000  -0.000000   0.000000  -0.000000  -0.000007
    26  H   -0.000000   0.000000  -0.000000   0.000087  -0.000343   0.009504
    27  H   -0.000102   0.004347   0.000191   0.007530  -0.045426  -0.003638
    28  H   -0.007049  -0.042230   0.004996   0.000736   0.003446  -0.000109
               7          8          9         10         11         12
     1  N   -0.000000   0.000000  -0.000000  -0.000000  -0.000000   0.000000
     2  C    0.000067   0.000001  -0.000000   0.000000   0.000000  -0.000000
     3  C   -0.000289  -0.000005   0.000000   0.000000  -0.000000  -0.000000
     4  C    0.003036   0.001057  -0.000014  -0.000000   0.000000   0.000000
     5  C   -0.081506   0.006133  -0.000403   0.000008  -0.000001  -0.000000
     6  N    0.241857  -0.081056   0.001893  -0.000317   0.000106   0.000000
     7  N    7.005923   0.252013  -0.066419   0.005502   0.000083   0.000001
     8  C    0.252013   4.766396   0.515311  -0.021111  -0.032818   0.000596
     9  C   -0.066419   0.515311   4.905385   0.513094  -0.022946   0.004433
    10  C    0.005502  -0.021111   0.513094   4.947780   0.530399  -0.069889
    11  C    0.000083  -0.032818  -0.022946   0.530399   4.575047   0.301512
    12  N    0.000001   0.000596   0.004433  -0.069889   0.301512   6.823572
    13  C    0.006157  -0.017482  -0.048449  -0.044748   0.531031  -0.070014
    14  C   -0.070415   0.481763  -0.030679  -0.048729  -0.022164   0.004407
    15  C    0.001398  -0.000403   0.000057  -0.000000  -0.000000  -0.000000
    16  C   -0.000223   0.000004  -0.000000   0.000000   0.000000   0.000000
    17  H    0.000000   0.000000  -0.000000  -0.000000   0.000000   0.000000
    18  H   -0.000000   0.000000  -0.000000  -0.000000   0.000000   0.000000
    19  H   -0.000006  -0.000000  -0.000000  -0.000000   0.000000   0.000000
    20  H    0.009091  -0.000329   0.000012  -0.000000   0.000000  -0.000000
    21  H   -0.004183  -0.045497   0.363289  -0.037906   0.004226  -0.000106
    22  H   -0.000108   0.003442  -0.031864   0.365445  -0.041963  -0.007121
    23  H   -0.000000   0.000004  -0.000036  -0.009137  -0.024739   0.343795
    24  H   -0.000000  -0.000004  -0.000168   0.005422  -0.024750   0.344036
    25  H   -0.000113   0.003217   0.000795   0.004938  -0.041928  -0.007116
    26  H   -0.010521  -0.049560   0.006626   0.000342   0.004198  -0.000108
    27  H    0.000545   0.000013  -0.000005  -0.000000   0.000000  -0.000000
    28  H    0.000000  -0.000000   0.000000  -0.000000  -0.000000  -0.000000
              13         14         15         16         17         18
     1  N    0.000000   0.000000   0.004390  -0.069605   0.343859   0.343929
     2  C   -0.000000   0.000000  -0.024079   0.531203  -0.024748  -0.024670
     3  C    0.000000  -0.000001  -0.047437  -0.045392  -0.009233   0.005372
     4  C   -0.000001   0.000114  -0.031296  -0.049156  -0.000014  -0.000160
     5  C    0.000001   0.000991   0.516137  -0.020586  -0.000012  -0.000014
     6  N   -0.000424   0.002819  -0.065895   0.005385  -0.000000  -0.000000
     7  N    0.006157  -0.070415   0.001398  -0.000223   0.000000  -0.000000
     8  C   -0.017482   0.481763  -0.000403   0.000004   0.000000   0.000000
     9  C   -0.048449  -0.030679   0.000057  -0.000000  -0.000000  -0.000000
    10  C   -0.044748  -0.048729  -0.000000   0.000000  -0.000000  -0.000000
    11  C    0.531031  -0.022164  -0.000000   0.000000   0.000000   0.000000
    12  N   -0.070014   0.004407  -0.000000   0.000000   0.000000   0.000000
    13  C    4.962490   0.497230   0.000000   0.000000   0.000000   0.000000
    14  C    0.497230   4.936765  -0.000015  -0.000000   0.000000   0.000000
    15  C    0.000000  -0.000015   4.903359   0.515364  -0.000178  -0.000027
    16  C    0.000000  -0.000000   0.515364   4.945079   0.005391  -0.009301
    17  H    0.000000   0.000000  -0.000178   0.005391   0.428595  -0.028061
    18  H    0.000000   0.000000  -0.000027  -0.009301  -0.028061   0.428566
    19  H   -0.000000   0.000000   0.000797   0.004890   0.004479  -0.000049
    20  H    0.000000   0.000082   0.006626   0.000307  -0.000004   0.000003
    21  H    0.000197   0.007529  -0.000006  -0.000000   0.000000   0.000000
    22  H    0.005005   0.000767   0.000000  -0.000000   0.000000   0.000000
    23  H    0.005474  -0.000187  -0.000000   0.000000   0.000000   0.000000
    24  H   -0.009176  -0.000027   0.000000   0.000000  -0.000000   0.000000
    25  H    0.363765  -0.030368  -0.000000  -0.000000  -0.000000  -0.000000
    26  H   -0.038168   0.368517   0.000011  -0.000000   0.000000   0.000000
    27  H   -0.000000   0.000013   0.362774  -0.037720   0.000003  -0.000004
    28  H    0.000000   0.000000  -0.031512   0.365429  -0.000059   0.004366
              19         20         21         22         23         24
     1  N   -0.007054  -0.000103  -0.000000   0.000000   0.000000   0.000000
     2  C   -0.042184   0.004303   0.000000  -0.000000  -0.000000  -0.000000
     3  C    0.363921  -0.038295  -0.000000   0.000000  -0.000000  -0.000000
     4  C   -0.030061   0.369045   0.000014   0.000000  -0.000000   0.000000
     5  C    0.003343  -0.049988   0.000003  -0.000000  -0.000000  -0.000000
     6  N   -0.000111  -0.010262   0.000688  -0.000001   0.000000   0.000000
     7  N   -0.000006   0.009091  -0.004183  -0.000108  -0.000000  -0.000000
     8  C   -0.000000  -0.000329  -0.045497   0.003442   0.000004  -0.000004
     9  C   -0.000000   0.000012   0.363289  -0.031864  -0.000036  -0.000168
    10  C   -0.000000  -0.000000  -0.037906   0.365445  -0.009137   0.005422
    11  C    0.000000   0.000000   0.004226  -0.041963  -0.024739  -0.024750
    12  N    0.000000  -0.000000  -0.000106  -0.007121   0.343795   0.344036
    13  C   -0.000000   0.000000   0.000197   0.005005   0.005474  -0.009176
    14  C    0.000000   0.000082   0.007529   0.000767  -0.000187  -0.000027
    15  C    0.000797   0.006626  -0.000006   0.000000  -0.000000   0.000000
    16  C    0.004890   0.000307  -0.000000  -0.000000   0.000000   0.000000
    17  H    0.004479  -0.000004   0.000000   0.000000   0.000000  -0.000000
    18  H   -0.000049   0.000003   0.000000   0.000000   0.000000   0.000000
    19  H    0.605389  -0.005896   0.000000  -0.000000   0.000000   0.000000
    20  H   -0.005896   0.614453   0.000002   0.000000   0.000000   0.000000
    21  H    0.000000   0.000002   0.616036  -0.005974  -0.000007   0.000003
    22  H   -0.000000   0.000000  -0.005974   0.605254   0.004496  -0.000052
    23  H    0.000000   0.000000  -0.000007   0.004496   0.428658  -0.028094
    24  H    0.000000   0.000000   0.000003  -0.000052  -0.028094   0.428444
    25  H    0.000000  -0.000000   0.000016  -0.000184  -0.000058   0.004424
    26  H   -0.000000   0.000246  -0.000135   0.000016   0.000003  -0.000006
    27  H    0.000016  -0.000135   0.000012  -0.000000   0.000000   0.000000
    28  H   -0.000184   0.000015  -0.000000   0.000000   0.000000   0.000000
              25         26         27         28
     1  N   -0.000000  -0.000000  -0.000102  -0.007049
     2  C   -0.000000   0.000000   0.004347  -0.042230
     3  C   -0.000000  -0.000000   0.000191   0.004996
     4  C    0.000000   0.000087   0.007530   0.000736
     5  C   -0.000000  -0.000343  -0.045426   0.003446
     6  N   -0.000007   0.009504  -0.003638  -0.000109
     7  N   -0.000113  -0.010521   0.000545   0.000000
     8  C    0.003217  -0.049560   0.000013  -0.000000
     9  C    0.000795   0.006626  -0.000005   0.000000
    10  C    0.004938   0.000342  -0.000000  -0.000000
    11  C   -0.041928   0.004198   0.000000  -0.000000
    12  N   -0.007116  -0.000108  -0.000000  -0.000000
    13  C    0.363765  -0.038168  -0.000000   0.000000
    14  C   -0.030368   0.368517   0.000013   0.000000
    15  C   -0.000000   0.000011   0.362774  -0.031512
    16  C   -0.000000  -0.000000  -0.037720   0.365429
    17  H   -0.000000   0.000000   0.000003  -0.000059
    18  H   -0.000000   0.000000  -0.000004   0.004366
    19  H    0.000000  -0.000000   0.000016  -0.000184
    20  H   -0.000000   0.000246  -0.000135   0.000015
    21  H    0.000016  -0.000135   0.000012  -0.000000
    22  H   -0.000184   0.000016  -0.000000   0.000000
    23  H   -0.000058   0.000003   0.000000   0.000000
    24  H    0.004424  -0.000006   0.000000   0.000000
    25  H    0.606009  -0.005807   0.000000  -0.000000
    26  H   -0.005807   0.614214   0.000003   0.000000
    27  H    0.000000   0.000003   0.615197  -0.006043
    28  H   -0.000000   0.000000  -0.006043   0.605151
 Mulliken charges:
               1
     1  N   -0.667996
     2  C    0.264864
     3  C   -0.143022
     4  C   -0.098053
     5  C    0.218930
     6  N   -0.291182
     7  N   -0.291888
     8  C    0.218315
     9  C   -0.109912
    10  C   -0.141090
    11  C    0.264706
    12  N   -0.667999
    13  C   -0.142889
    14  C   -0.098412
    15  C   -0.110064
    16  C   -0.141068
    17  H    0.279984
    18  H    0.280050
    19  H    0.102711
    20  H    0.100826
    21  H    0.101800
    22  H    0.102843
    23  H    0.279830
    24  H    0.279946
    25  H    0.102415
    26  H    0.100881
    27  H    0.102429
    28  H    0.103047
 Sum of Mulliken charges =  -0.00000
 Mulliken charges with hydrogens summed into heavy atoms:
               1
     1  N   -0.107962
     2  C    0.264864
     3  C   -0.040312
     4  C    0.002773
     5  C    0.218930
     6  N   -0.291182
     7  N   -0.291888
     8  C    0.218315
     9  C   -0.008112
    10  C   -0.038248
    11  C    0.264706
    12  N   -0.108223
    13  C   -0.040474
    14  C    0.002468
    15  C   -0.007635
    16  C   -0.038021
 APT charges:
               1
     1  N   -1.433915
     2  C    0.315941
     3  C   -0.376367
     4  C   -0.579500
     5  C   -0.526707
     6  N   -0.234408
     7  N   -0.231023
     8  C   -0.512075
     9  C   -0.591380
    10  C   -0.356860
    11  C    0.339713
    12  N   -1.578751
    13  C   -0.364635
    14  C   -0.588609
    15  C   -0.580222
    16  C   -0.366522
    17  H    0.848878
    18  H    0.919522
    19  H    0.687686
    20  H    0.254750
    21  H    0.311783
    22  H    0.746362
    23  H    0.981806
    24  H    0.912101
    25  H    0.679672
    26  H    0.251024
    27  H    0.317278
    28  H    0.754460
 Sum of APT charges =  -0.00000
 APT charges with hydrogens summed into heavy atoms:
               1
     1  N    0.334485
     2  C    0.315941
     3  C    0.311319
     4  C   -0.324750
     5  C   -0.526707
     6  N   -0.234408
     7  N   -0.231023
     8  C   -0.512075
     9  C   -0.279597
    10  C    0.389502
    11  C    0.339713
    12  N    0.315156
    13  C    0.315037
    14  C   -0.337584
    15  C   -0.262944
    16  C    0.387938
 Electronic spatial extent (au):  <R**2>=           5932.7727
 Charge=              0.0000 electrons
 Dipole moment (field-independent basis, Debye):
    X=             -0.2643    Y=             -0.0441    Z=             -2.0444  Tot=              2.0618
 Quadrupole moment (field-independent basis, Debye-Ang):
   XX=            -39.7129   YY=            -82.9525   ZZ=            -95.7385
   XY=             -8.0093   XZ=             -3.2056   YZ=              0.5042
 Traceless Quadrupole moment (field-independent basis, Debye-Ang):
   XX=             33.0884   YY=            -10.1512   ZZ=            -22.9372
   XY=             -8.0093   XZ=             -3.2056   YZ=              0.5042
 Octapole moment (field-independent basis, Debye-Ang**2):
  XXX=            -37.0457  YYY=             -0.2488  ZZZ=             -2.1679  XYY=              0.6037
  XXY=            -11.9517  XXZ=            -85.1701  XZZ=              8.3308  YZZ=             -0.6611
  YYZ=             -0.6022  XYZ=            -35.0427
 Hexadecapole moment (field-independent basis, Debye-Ang**3):
 XXXX=          -4634.8030 YYYY=           -452.8375 ZZZZ=           -280.4745 XXXY=           -329.9715
 XXXZ=           -165.9521 YYYX=             -9.5681 YYYZ=              0.9361 ZZZX=            -14.4291
 ZZZY=             -0.3707 XXYY=          -1112.0534 XXZZ=          -1253.8211 YYZZ=           -110.4600
 XXYZ=             19.6706 YYXZ=             -4.9085 ZZXY=             -1.6690
 N-N= 9.475555023304D+02 E-N=-3.483133521174D+03  KE= 6.771488142128D+02
  Exact polarizability:   0.000   0.000   0.000   0.000   0.000   0.000
 Approx polarizability: 412.008   0.293 214.747  -9.523  -0.153 146.149
 D2PCM: PCM CHGder 2nd derivatives, FixD1E=F FixD2E=F DoIter=F DoCFld=F I1PDM=0
 Calling FoFJK, ICntrl=    100147 FMM=F ISym2X=0 I1Cent= 0 IOpClX= 0 NMat=1 NMatS=1 NMatT=0.
 ***** Axes restored to original set *****
 -------------------------------------------------------------------
 Center     Atomic                   Forces (Hartrees/Bohr)
 Number     Number              X              Y              Z
 -------------------------------------------------------------------
      1        7           0.002424696   -0.003342282    0.002911578
      2        6          -0.014987185    0.009148348   -0.007311364
      3        6           0.014746796    0.004661017    0.005670456
      4        6          -0.005912959   -0.001052425    0.005822701
      5        6          -0.021311215    0.005404340   -0.000620443
      6        7          -0.005751093   -0.004729531   -0.003638006
      7        7           0.005718742   -0.004743605    0.001590417
      8        6           0.021275706    0.006004608    0.003285144
      9        6           0.008191361   -0.001882503    0.004516979
     10        6          -0.012342226   -0.008117936    0.007925114
     11        6           0.009453102   -0.003091387   -0.016628103
     12        7          -0.000492109    0.001391296    0.004879285
     13        6          -0.013431807    0.008033602    0.004839665
     14        6           0.005579483    0.001784581   -0.005906625
     15        6          -0.008380808    0.000516506   -0.005596308
     16        6           0.014412344   -0.008440010   -0.005109777
     17        1          -0.001169494   -0.002528681   -0.002432918
     18        1          -0.000683013    0.002541442    0.002678292
     19        1          -0.000891695   -0.000892107    0.000217040
     20        1           0.000337158   -0.000804230   -0.000800075
     21        1          -0.000114012    0.000608182    0.000003150
     22        1           0.000879403    0.000809246    0.000186445
     23        1           0.000550025    0.003473540   -0.001134946
     24        1           0.001350695   -0.003437942    0.000917545
     25        1           0.001255167    0.000033742    0.001386184
     26        1          -0.000270041   -0.001136802    0.000371313
     27        1           0.000098781    0.000572773    0.000328344
     28        1          -0.000535802   -0.000783781    0.001648915
 -------------------------------------------------------------------
 Cartesian Forces:  Max     0.021311215 RMS     0.006386467
 FormGI is forming the generalized inverse of G from B-inverse, IUseBI=4.

 GradGradGradGradGradGradGradGradGradGradGradGradGradGradGradGradGradGrad
 Berny optimization.
 Internal  Forces:  Max     0.023183874 RMS     0.005002162
 Search for a local minimum.
 Step number   1 out of a maximum of  144
 All quantities printed in internal units (Hartrees-Bohrs-Radians)
 Mixed Optimization -- RFO/linear search
 Second derivative matrix not updated -- analytic derivatives used.
 ITU=  0
     Eigenvalues ---   -0.00481  -0.00383   0.00561   0.00567   0.01584
     Eigenvalues ---    0.01605   0.01729   0.01732   0.01792   0.01812
     Eigenvalues ---    0.01854   0.01883   0.02156   0.02159   0.02263
     Eigenvalues ---    0.02266   0.02375   0.02389   0.02686   0.02719
     Eigenvalues ---    0.02723   0.02736   0.02902   0.02904   0.09567
     Eigenvalues ---    0.11061   0.11109   0.11321   0.11336   0.11732
     Eigenvalues ---    0.11762   0.12587   0.12595   0.13474   0.13535
     Eigenvalues ---    0.15256   0.15420   0.17146   0.17643   0.18373
     Eigenvalues ---    0.18962   0.18972   0.19458   0.19515   0.19540
     Eigenvalues ---    0.21662   0.21919   0.27697   0.28938   0.31506
     Eigenvalues ---    0.31742   0.35632   0.35633   0.35858   0.35867
     Eigenvalues ---    0.35968   0.35976   0.36009   0.36032   0.37847
     Eigenvalues ---    0.37976   0.40912   0.40972   0.41987   0.43819
     Eigenvalues ---    0.45471   0.45526   0.45933   0.45971   0.45998
     Eigenvalues ---    0.46115   0.47001   0.47108   0.47700   0.47776
     Eigenvalues ---    0.51604   0.51685   0.79776
 RFO step:  Lambda=-2.08925932D-02 EMin=-4.81297668D-03
 Linear search not attempted -- first point.
 Iteration  1 RMS(Cart)=  0.19928006 RMS(Int)=  0.06512316
 Iteration  2 RMS(Cart)=  0.22358687 RMS(Int)=  0.03514145
 Iteration  3 RMS(Cart)=  0.19138333 RMS(Int)=  0.01058361
 Iteration  4 RMS(Cart)=  0.02581882 RMS(Int)=  0.00027809
 Iteration  5 RMS(Cart)=  0.00033026 RMS(Int)=  0.00024808
 Iteration  6 RMS(Cart)=  0.00000005 RMS(Int)=  0.00024808
 Variable       Old X    -DE/DX   Delta X   Delta X   Delta X     New X
                                 (Linear)    (Quad)   (Total)
    R1        2.64352  -0.00008   0.00000  -0.02387  -0.02387   2.61964
    R2        1.91847  -0.00260   0.00000  -0.00673  -0.00673   1.91174
    R3        1.91846  -0.00265   0.00000  -0.00644  -0.00644   1.91202
    R4        2.63891   0.00958   0.00000   0.02763   0.02767   2.66657
    R5        2.63914   0.00990   0.00000   0.02727   0.02726   2.66640
    R6        2.64394  -0.00645   0.00000  -0.02353  -0.02348   2.62047
    R7        2.05331  -0.00001   0.00000   0.00036   0.00036   2.05367
    R8        2.64471   0.00165   0.00000   0.01452   0.01453   2.65924
    R9        2.05340  -0.00077   0.00000  -0.00339  -0.00339   2.05000
   R10        2.65841   0.02025   0.00000  -0.00542  -0.00542   2.65299
   R11        2.63948   0.00325   0.00000   0.01621   0.01617   2.65566
   R12        2.36405   0.02048   0.00000   0.03857   0.03857   2.40263
   R13        2.65871   0.02069   0.00000   0.00421   0.00421   2.66292
   R14        2.63967   0.00317   0.00000   0.01424   0.01418   2.65385
   R15        2.64474   0.00141   0.00000   0.01166   0.01157   2.65631
   R16        2.64420  -0.00676   0.00000  -0.02184  -0.02181   2.62239
   R17        2.05350  -0.00048   0.00000  -0.00116  -0.00116   2.05235
   R18        2.63917   0.00976   0.00000   0.02513   0.02522   2.66438
   R19        2.05339  -0.00013   0.00000   0.00014   0.00014   2.05352
   R20        2.64301   0.00017   0.00000  -0.01874  -0.01874   2.62427
   R21        2.63897   0.00929   0.00000   0.02510   0.02516   2.66412
   R22        1.91825  -0.00252   0.00000  -0.00601  -0.00601   1.91225
   R23        1.91832  -0.00264   0.00000  -0.00613  -0.00613   1.91220
   R24        2.64396  -0.00626   0.00000  -0.02112  -0.02115   2.62282
   R25        2.05334  -0.00001   0.00000   0.00049   0.00049   2.05383
   R26        2.05348  -0.00080   0.00000  -0.00305  -0.00305   2.05043
   R27        2.64423  -0.00693   0.00000  -0.02484  -0.02488   2.61935
   R28        2.05361  -0.00051   0.00000  -0.00139  -0.00139   2.05222
   R29        2.05341  -0.00012   0.00000  -0.00053  -0.00053   2.05288
    A1        1.98742   0.00217   0.00000   0.02786   0.02713   2.01455
    A2        1.98756   0.00208   0.00000   0.03031   0.02957   2.01714
    A3        1.95927  -0.00313   0.00000  -0.00571  -0.00675   1.95252
    A4        2.09900   0.00156   0.00000   0.00492   0.00434   2.10334
    A5        2.09901   0.00106   0.00000   0.00589   0.00530   2.10431
    A6        2.06984  -0.00206   0.00000  -0.00019  -0.00086   2.06898
    A7        2.10571  -0.00004   0.00000   0.00008   0.00009   2.10581
    A8        2.10027  -0.00116   0.00000  -0.01691  -0.01692   2.08335
    A9        2.07721   0.00119   0.00000   0.01682   0.01680   2.09401
   A10        2.10532  -0.00008   0.00000   0.00036   0.00034   2.10566
   A11        2.08871   0.00095   0.00000   0.01467   0.01466   2.10337
   A12        2.08908  -0.00088   0.00000  -0.01512  -0.01513   2.07395
   A13        2.13051  -0.00029   0.00000   0.03668   0.03670   2.16721
   A14        2.06966   0.00264   0.00000   0.00180   0.00167   2.07132
   A15        2.08144  -0.00233   0.00000  -0.03773  -0.03772   2.04372
   A16        1.93282   0.02316   0.00000   0.06471   0.06471   1.99753
   A17        1.93279   0.02318   0.00000   0.05601   0.05601   1.98880
   A18        2.08175  -0.00200   0.00000  -0.02873  -0.02864   2.05311
   A19        2.13084  -0.00050   0.00000   0.02688   0.02695   2.15779
   A20        2.07022   0.00249   0.00000   0.00171   0.00153   2.07175
   A21        2.10578  -0.00023   0.00000   0.00314   0.00308   2.10885
   A22        2.08714  -0.00024   0.00000  -0.01217  -0.01215   2.07499
   A23        2.09012   0.00047   0.00000   0.00894   0.00896   2.09909
   A24        2.10618   0.00000   0.00000  -0.00244  -0.00236   2.10382
   A25        2.07715   0.00111   0.00000   0.01594   0.01588   2.09303
   A26        2.09985  -0.00111   0.00000  -0.01351  -0.01357   2.08628
   A27        2.09914   0.00135   0.00000   0.00613   0.00512   2.10427
   A28        2.07029  -0.00220   0.00000  -0.00098  -0.00184   2.06845
   A29        2.09928   0.00144   0.00000   0.00773   0.00671   2.10600
   A30        1.98936   0.00208   0.00000   0.02205   0.02170   2.01106
   A31        1.98910   0.00204   0.00000   0.02346   0.02311   2.01221
   A32        1.96084  -0.00320   0.00000  -0.01129  -0.01179   1.94905
   A33        2.10578   0.00002   0.00000   0.00009   0.00009   2.10587
   A34        2.10035  -0.00116   0.00000  -0.01454  -0.01454   2.08581
   A35        2.07705   0.00114   0.00000   0.01444   0.01443   2.09149
   A36        2.10518   0.00006   0.00000   0.00163   0.00143   2.10660
   A37        2.08932  -0.00097   0.00000  -0.01365  -0.01365   2.07567
   A38        2.08858   0.00092   0.00000   0.01232   0.01232   2.10090
   A39        2.10583  -0.00023   0.00000   0.00462   0.00438   2.11021
   A40        2.08719  -0.00028   0.00000  -0.01493  -0.01494   2.07225
   A41        2.09010   0.00052   0.00000   0.01056   0.01055   2.10065
   A42        2.10619  -0.00009   0.00000  -0.00336  -0.00351   2.10268
   A43        2.09996  -0.00107   0.00000  -0.01255  -0.01250   2.08746
   A44        2.07704   0.00116   0.00000   0.01590   0.01594   2.09298
    D1       -0.52757   0.00142   0.00000   0.05984   0.06026  -0.46731
    D2        2.80392  -0.00178   0.00000  -0.00526  -0.00502   2.79890
    D3       -2.80449   0.00190   0.00000   0.01235   0.01211  -2.79238
    D4        0.52701  -0.00131   0.00000  -0.05275  -0.05317   0.47383
    D5       -3.04204  -0.00185   0.00000  -0.03249  -0.03252  -3.07456
    D6        0.09801  -0.00160   0.00000  -0.03826  -0.03822   0.05979
    D7       -0.08721   0.00163   0.00000   0.03218   0.03211  -0.05510
    D8        3.05284   0.00188   0.00000   0.02641   0.02641   3.07925
    D9        3.04229   0.00113   0.00000   0.00902   0.00902   3.05131
   D10       -0.09803   0.00135   0.00000   0.02093   0.02080  -0.07723
   D11        0.08746  -0.00240   0.00000  -0.05554  -0.05554   0.03192
   D12       -3.05286  -0.00218   0.00000  -0.04364  -0.04376  -3.09662
   D13        0.02750  -0.00014   0.00000   0.00002   0.00004   0.02754
   D14       -3.12789  -0.00014   0.00000  -0.00837  -0.00845  -3.13634
   D15       -3.11257  -0.00038   0.00000   0.00574   0.00581  -3.10677
   D16        0.01523  -0.00038   0.00000  -0.00265  -0.00268   0.01254
   D17        3.11381  -0.00017   0.00000   0.00348   0.00360   3.11741
   D18        0.03309  -0.00039   0.00000  -0.00939  -0.00954   0.02354
   D19       -0.01398  -0.00018   0.00000   0.01164   0.01172  -0.00227
   D20       -3.09471  -0.00040   0.00000  -0.00123  -0.00143  -3.09614
   D21        1.06358  -0.00741   0.00000  -0.61817  -0.61813   0.44545
   D22       -2.13928  -0.00702   0.00000  -0.60386  -0.60390  -2.74318
   D23       -0.03287  -0.00037   0.00000  -0.01382  -0.01398  -0.04685
   D24        3.09709   0.00060   0.00000   0.01112   0.01078   3.10787
   D25       -3.11534  -0.00065   0.00000  -0.02893  -0.02875   3.13910
   D26        0.01462   0.00032   0.00000  -0.00398  -0.00399   0.01063
   D27        3.13162   0.00585   0.00000   0.06531   0.06531  -3.08625
   D28       -2.10949  -0.00736   0.00000  -0.49232  -0.49233  -2.60181
   D29        1.06213  -0.00656   0.00000  -0.48660  -0.48660   0.57553
   D30       -3.11693  -0.00022   0.00000  -0.01954  -0.01974  -3.13667
   D31        0.04299  -0.00001   0.00000  -0.01380  -0.01400   0.02899
   D32       -0.00431  -0.00103   0.00000  -0.02460  -0.02471  -0.02902
   D33       -3.12758  -0.00082   0.00000  -0.01886  -0.01896   3.13664
   D34        3.11635  -0.00057   0.00000  -0.00122  -0.00135   3.11500
   D35       -0.04154   0.00016   0.00000   0.01995   0.01971  -0.02183
   D36        0.00459   0.00029   0.00000   0.00498   0.00493   0.00952
   D37        3.12988   0.00102   0.00000   0.02615   0.02599  -3.12731
   D38        0.04369   0.00012   0.00000   0.00471   0.00466   0.04835
   D39       -3.10029  -0.00024   0.00000  -0.00398  -0.00407  -3.10435
   D40       -3.11626  -0.00010   0.00000  -0.00125  -0.00139  -3.11765
   D41        0.02295  -0.00046   0.00000  -0.00995  -0.01011   0.01284
   D42       -3.04180  -0.00216   0.00000  -0.04597  -0.04590  -3.08770
   D43       -0.08163   0.00167   0.00000   0.03480   0.03473  -0.04690
   D44        0.10221  -0.00179   0.00000  -0.03720  -0.03725   0.06496
   D45        3.06238   0.00203   0.00000   0.04357   0.04338   3.10576
   D46       -0.52291   0.00145   0.00000   0.05188   0.05218  -0.47073
   D47       -2.80548   0.00213   0.00000   0.02423   0.02420  -2.78128
   D48        2.80314  -0.00205   0.00000  -0.02933  -0.02931   2.77383
   D49        0.52057  -0.00137   0.00000  -0.05699  -0.05729   0.46329
   D50        0.08190  -0.00241   0.00000  -0.05433  -0.05435   0.02755
   D51       -3.06243  -0.00231   0.00000  -0.05862  -0.05865  -3.12108
   D52        3.04205   0.00140   0.00000   0.02628   0.02620   3.06825
   D53       -0.10228   0.00150   0.00000   0.02199   0.02190  -0.08038
   D54       -0.04425   0.00137   0.00000   0.03493   0.03490  -0.00935
   D55        3.11364   0.00066   0.00000   0.01401   0.01377   3.12741
   D56        3.10004   0.00128   0.00000   0.03921   0.03926   3.13930
   D57       -0.02525   0.00057   0.00000   0.01829   0.01813  -0.00712
   D58       -0.02793   0.00168   0.00000   0.04689   0.04692   0.01899
   D59        3.11241   0.00146   0.00000   0.03512   0.03508  -3.13570
   D60        3.12532   0.00071   0.00000   0.02207   0.02193  -3.13594
   D61       -0.01753   0.00050   0.00000   0.01030   0.01009  -0.00744
         Item               Value     Threshold  Converged?
 Maximum Force            0.023184     0.000450     NO 
 RMS     Force            0.005002     0.000300     NO 
 Maximum Displacement     1.950533     0.001800     NO 
 RMS     Displacement     0.616450     0.001200     NO 
 Predicted change in Energy=-2.355744D-02
 GradGradGradGradGradGradGradGradGradGradGradGradGradGradGradGradGradGrad

                          Input orientation:                          
 ---------------------------------------------------------------------
 Center     Atomic      Atomic             Coordinates (Angstroms)
 Number     Number       Type             X           Y           Z
 ---------------------------------------------------------------------
      1          7           0       -5.904151   -0.215773    0.430078
      2          6           0       -4.533377   -0.226594    0.223764
      3          6           0       -3.650918    0.166182    1.252435
      4          6           0       -2.284630    0.232436    1.024887
      5          6           0       -1.754093   -0.058798   -0.245526
      6          7           0       -0.388865    0.011888   -0.565054
      7          7           0        0.392261   -0.142085    0.426223
      8          6           0        1.757211    0.000832    0.106522
      9          6           0        2.682550   -0.748529    0.851119
     10          6           0        4.043364   -0.654301    0.596101
     11          6           0        4.529299    0.241011   -0.378676
     12          7           0        5.884141    0.290286   -0.679461
     13          6           0        3.599262    0.992958   -1.125083
     14          6           0        2.237749    0.877675   -0.881462
     15          6           0       -2.638708   -0.390033   -1.286027
     16          6           0       -4.002634   -0.484559   -1.057907
     17          1           0       -6.199798   -0.333934    1.390318
     18          1           0       -6.445838   -0.788416   -0.204261
     19          1           0       -4.051962    0.424713    2.228836
     20          1           0       -1.607806    0.529993    1.818733
     21          1           0        2.314824   -1.423479    1.618412
     22          1           0        4.743764   -1.266655    1.157643
     23          1           0        6.502894    0.010244    0.070671
     24          1           0        6.197625    1.143793   -1.123506
     25          1           0        3.955228    1.673756   -1.893862
     26          1           0        1.526782    1.468366   -1.449731
     27          1           0       -2.232807   -0.583870   -2.274483
     28          1           0       -4.671370   -0.747105   -1.872763
 ---------------------------------------------------------------------
                    Distance matrix (angstroms):
                    1          2          3          4          5
     1  N    0.000000
     2  C    1.386255   0.000000
     3  C    2.428831   1.411089   0.000000
     4  C    3.695351   2.430920   1.386691   0.000000
     5  C    4.207620   2.823616   2.427437   1.407208   0.000000
     6  N    5.608965   4.225646   3.737387   2.484044   1.403902
     7  N    6.296844   4.930521   4.138230   2.768466   2.250559
     8  C    7.671250   6.295790   5.530671   4.151327   3.529412
     9  C    8.613508   7.261927   6.411752   5.066099   4.621921
    10  C    9.958560   8.595467   7.765690   6.404191   5.888418
    11  C   10.474713   9.094706   8.341587   6.956988   6.291949
    12  N   11.851202  10.469368   9.729593   8.344876   7.658510
    13  C    9.705381   8.333458   7.674716   6.310384   5.526140
    14  C    8.319032   6.949034   6.303660   4.949990   4.149240
    15  C    3.693034   2.428158   2.788859   2.419331   1.405313
    16  C    2.429426   1.410997   2.425870   2.793501   2.428410
    17  H    1.011647   2.036990   2.601138   3.972764   4.745101
    18  H    1.011796   2.038714   3.293144   4.457420   4.748317
    19  H    2.660143   2.162470   1.086754   2.147074   3.411225
    20  H    4.576364   3.416916   2.151129   1.084815   2.151567
    21  H    8.391796   7.090517   6.184743   4.924358   4.678964
    22  H   10.724355   9.381854   8.516612   7.187712   6.756474
    23  H   12.414307  11.039873  10.223540   8.841972   8.263327
    24  H   12.276604  10.901719  10.178143   8.797431   8.089925
    25  H   10.304289   8.952770   8.368119   7.037921   6.189919
    26  H    7.847852   6.511452   5.983808   4.709365   3.813985
    27  H    4.574812   3.414895   3.874631   3.399247   2.149775
    28  H    2.665547   2.164578   3.412079   3.879743   3.410597
                    6          7          8          9         10
     6  N    0.000000
     7  N    1.271415   0.000000
     8  C    2.248729   1.409157   0.000000
     9  C    3.466608   2.407018   1.404357   0.000000
    10  C    4.629983   3.690770   2.428041   1.387707   0.000000
    11  C    4.927025   4.231987   2.824460   2.429418   1.409931
    12  N    6.280223   5.618740   4.211069   3.697567   2.430589
    13  C    4.145032   3.738948   2.427821   2.788999   2.423461
    14  C    2.783667   2.481084   1.405661   2.417483   2.791127
    15  C    2.396484   3.489993   4.627750   5.745580   6.947109
    16  C    3.680854   4.651347   5.896382   6.957423   8.215999
    17  H    6.140848   6.664947   8.066858   8.908351  10.278900
    18  H    6.120259   6.897452   8.246788   9.189280  10.520548
    19  H    4.625421   4.829263   6.199225   6.973395   8.328529
    20  H    2.727030   2.528051   3.812483   4.580180   5.901958
    21  H    3.760019   2.599911   2.150676   1.086056   2.150490
    22  H    5.562934   4.553593   3.410407   2.147327   1.086677
    23  H    6.921018   6.122864   4.745827   3.972388   2.601342
    24  H    6.706335   6.144704   4.747273   4.453738   3.291052
    25  H    4.837219   4.623290   3.410497   3.875835   3.409917
    26  H    2.563920   2.720275   2.151436   3.397696   3.876123
    27  H    2.584027   3.792092   4.683087   5.827283   6.901850
    28  H    4.541588   5.593902   6.767838   7.842172   9.058173
                   11         12         13         14         15
    11  C    0.000000
    12  N    1.388703   0.000000
    13  C    1.409793   2.431666   0.000000
    14  C    2.430913   3.698920   1.387934   0.000000
    15  C    7.252712   8.571447   6.391466   5.054759   0.000000
    16  C    8.589627   9.924310   7.744443   6.389772   1.386099
    17  H   10.889143  12.275798  10.203404   8.821631   4.455035
    18  H   11.024689  12.386194  10.243302   8.867871   3.977835
    19  H    8.970558  10.353859   8.373345   7.031329   3.874966
    20  H    6.525043   7.901121   5.999496   4.711712   3.398345
    21  H    3.415083   4.577907   3.875012   3.398621   5.834489
    22  H    2.163176   2.664484   3.409776   3.877655   7.825655
    23  H    2.037214   1.011917   3.290384   4.455385   9.250391
    24  H    2.037914   1.011890   2.602737   3.976182   8.969939
    25  H    2.162892   2.666358   1.086839   2.146727   6.936042
    26  H    3.415943   4.579057   2.150949   1.085043   4.564182
    27  H    7.071110   8.318238   6.149840   4.905353   1.085989
    28  H    9.373419  10.673282   8.484704   7.166485   2.145571
                   16         17         18         19         20
    16  C    0.000000
    17  H    3.293026   0.000000
    18  H    2.605817   1.676237   0.000000
    19  H    3.410555   2.427315   3.622470   0.000000
    20  H    3.878089   4.692153   5.407149   2.480557   0.000000
    21  H    6.924921   8.587079   8.970766   6.657657   4.386709
    22  H    9.056479  10.985702  11.282317   9.020697   6.633809
    23  H   10.577553  12.775692  12.976251  10.781207   8.313201
    24  H   10.329623  12.735740  12.823244  10.807835   8.364106
    25  H    8.287624  10.860074  10.821239   9.092406   6.785198
    26  H    5.877235   8.426993   8.378958   6.763391   4.624830
    27  H    2.149932   5.406500   4.698647   4.960488   4.287859
    28  H    1.086337   3.626913   2.436051   4.310446   4.964227
                   21         22         23         24         25
    21  H    0.000000
    22  H    2.477226   0.000000
    23  H    4.689455   2.430333   0.000000
    24  H    5.402327   3.623204   1.674569   0.000000
    25  H    4.961841   4.310393   3.621776   2.429537   0.000000
    26  H    4.289206   4.962631   5.403649   4.693457   2.477254
    27  H    6.044876   7.805012   9.064501   8.682266   6.597994
    28  H    7.839177   9.904445  11.367263  11.057663   8.959866
                   26         27         28
    26  H    0.000000
    27  H    4.361926   0.000000
    28  H    6.595783   2.476815   0.000000
 Stoichiometry    C12H12N4
 Framework group  C1[X(C12H12N4)]
 Deg. of freedom    78
 Full point group                 C1      NOp   1
 Largest Abelian subgroup         C1      NOp   1
 Largest concise Abelian subgroup C1      NOp   1
                         Standard orientation:                         
 ---------------------------------------------------------------------
 Center     Atomic      Atomic             Coordinates (Angstroms)
 Number     Number       Type             X           Y           Z
 ---------------------------------------------------------------------
      1          7           0        5.924205    0.191089    0.103231
      2          6           0        4.546640    0.075416    0.000099
      3          6           0        3.700412    1.031400    0.601069
[...]
    14    N    1  dx2y2  Ryd( 3d)     0.00044
    15    N    1  dz2    Ryd( 3d)     0.00072

    16    C    2  S      Cor( 1S)     1.99902
    17    C    2  S      Val( 2S)     0.84204
    18    C    2  S      Ryd( 3S)     0.00120
    19    C    2  S      Ryd( 4S)     0.00009
    20    C    2  px     Val( 2p)     0.91177
    21    C    2  px     Ryd( 3p)     0.00607
    22    C    2  py     Val( 2p)     1.08852
    23    C    2  py     Ryd( 3p)     0.00454
    24    C    2  pz     Val( 2p)     0.98559
    25    C    2  pz     Ryd( 3p)     0.00121
    26    C    2  dxy    Ryd( 3d)     0.00088
    27    C    2  dxz    Ryd( 3d)     0.00177
    28    C    2  dyz    Ryd( 3d)     0.00057
    29    C    2  dx2y2  Ryd( 3d)     0.00111
    30    C    2  dz2    Ryd( 3d)     0.00039

    31    C    3  S      Cor( 1S)     1.99905
    32    C    3  S      Val( 2S)     0.95446
    33    C    3  S      Ryd( 3S)     0.00069
    34    C    3  S      Ryd( 4S)     0.00004
    35    C    3  px     Val( 2p)     1.08591
    36    C    3  px     Ryd( 3p)     0.00427
    37    C    3  py     Val( 2p)     1.17010
    38    C    3  py     Ryd( 3p)     0.00447
    39    C    3  pz     Val( 2p)     1.05696
    40    C    3  pz     Ryd( 3p)     0.00074
    41    C    3  dxy    Ryd( 3d)     0.00070
    42    C    3  dxz    Ryd( 3d)     0.00057
    43    C    3  dyz    Ryd( 3d)     0.00033
    44    C    3  dx2y2  Ryd( 3d)     0.00056
    45    C    3  dz2    Ryd( 3d)     0.00038

    46    C    4  S      Cor( 1S)     1.99904
    47    C    4  S      Val( 2S)     0.95400
    48    C    4  S      Ryd( 3S)     0.00075
    49    C    4  S      Ryd( 4S)     0.00005
    50    C    4  px     Val( 2p)     1.12096
    51    C    4  px     Ryd( 3p)     0.00397
    52    C    4  py     Val( 2p)     1.13516
    53    C    4  py     Ryd( 3p)     0.00453
    54    C    4  pz     Val( 2p)     1.04424
    55    C    4  pz     Ryd( 3p)     0.00152
    56    C    4  dxy    Ryd( 3d)     0.00072
    57    C    4  dxz    Ryd( 3d)     0.00055
    58    C    4  dyz    Ryd( 3d)     0.00038
    59    C    4  dx2y2  Ryd( 3d)     0.00055
    60    C    4  dz2    Ryd( 3d)     0.00038

    61    C    5  S      Cor( 1S)     1.99886
    62    C    5  S      Val( 2S)     0.84999
    63    C    5  S      Ryd( 3S)     0.00145
    64    C    5  S      Ryd( 4S)     0.00009
    65    C    5  px     Val( 2p)     0.89784
    66    C    5  px     Ryd( 3p)     0.00791
    67    C    5  py     Val( 2p)     1.09458
    68    C    5  py     Ryd( 3p)     0.00666
    69    C    5  pz     Val( 2p)     1.08327
    70    C    5  pz     Ryd( 3p)     0.00128
    71    C    5  dxy    Ryd( 3d)     0.00101
    72    C    5  dxz    Ryd( 3d)     0.00157
    73    C    5  dyz    Ryd( 3d)     0.00062
    74    C    5  dx2y2  Ryd( 3d)     0.00105
    75    C    5  dz2    Ryd( 3d)     0.00041

    76    N    6  S      Cor( 1S)     1.99937
    77    N    6  S      Val( 2S)     1.32465
    78    N    6  S      Ryd( 3S)     0.00279
    79    N    6  S      Ryd( 4S)     0.00002
    80    N    6  px     Val( 2p)     1.16994
    81    N    6  px     Ryd( 3p)     0.00396
    82    N    6  py     Val( 2p)     1.19198
    83    N    6  py     Ryd( 3p)     0.00551
    84    N    6  pz     Val( 2p)     1.41372
    85    N    6  pz     Ryd( 3p)     0.00291
    86    N    6  dxy    Ryd( 3d)     0.00124
    87    N    6  dxz    Ryd( 3d)     0.00144
    88    N    6  dyz    Ryd( 3d)     0.00195
    89    N    6  dx2y2  Ryd( 3d)     0.00161
    90    N    6  dz2    Ryd( 3d)     0.00042

    91    N    7  S      Cor( 1S)     1.99937
    92    N    7  S      Val( 2S)     1.32466
    93    N    7  S      Ryd( 3S)     0.00279
    94    N    7  S      Ryd( 4S)     0.00002
    95    N    7  px     Val( 2p)     1.16993
    96    N    7  px     Ryd( 3p)     0.00396
    97    N    7  py     Val( 2p)     1.19199
    98    N    7  py     Ryd( 3p)     0.00551
    99    N    7  pz     Val( 2p)     1.41373
   100    N    7  pz     Ryd( 3p)     0.00291
   101    N    7  dxy    Ryd( 3d)     0.00124
   102    N    7  dxz    Ryd( 3d)     0.00144
   103    N    7  dyz    Ryd( 3d)     0.00195
   104    N    7  dx2y2  Ryd( 3d)     0.00161
   105    N    7  dz2    Ryd( 3d)     0.00042

   106    C    8  S      Cor( 1S)     1.99886
   107    C    8  S      Val( 2S)     0.84999
   108    C    8  S      Ryd( 3S)     0.00145
   109    C    8  S      Ryd( 4S)     0.00009
   110    C    8  px     Val( 2p)     0.89784
   111    C    8  px     Ryd( 3p)     0.00791
   112    C    8  py     Val( 2p)     1.09457
   113    C    8  py     Ryd( 3p)     0.00666
   114    C    8  pz     Val( 2p)     1.08328
   115    C    8  pz     Ryd( 3p)     0.00128
   116    C    8  dxy    Ryd( 3d)     0.00102
   117    C    8  dxz    Ryd( 3d)     0.00157
   118    C    8  dyz    Ryd( 3d)     0.00062
   119    C    8  dx2y2  Ryd( 3d)     0.00105
   120    C    8  dz2    Ryd( 3d)     0.00041

   121    C    9  S      Cor( 1S)     1.99907
   122    C    9  S      Val( 2S)     0.95367
   123    C    9  S      Ryd( 3S)     0.00068
   124    C    9  S      Ryd( 4S)     0.00004
   125    C    9  px     Val( 2p)     1.08790
   126    C    9  px     Ryd( 3p)     0.00464
   127    C    9  py     Val( 2p)     1.17245
   128    C    9  py     Ryd( 3p)     0.00486
   129    C    9  pz     Val( 2p)     1.00898
   130    C    9  pz     Ryd( 3p)     0.00083
   131    C    9  dxy    Ryd( 3d)     0.00073
   132    C    9  dxz    Ryd( 3d)     0.00066
   133    C    9  dyz    Ryd( 3d)     0.00032
   134    C    9  dx2y2  Ryd( 3d)     0.00054
   135    C    9  dz2    Ryd( 3d)     0.00038

   136    C   10  S      Cor( 1S)     1.99905
   137    C   10  S      Val( 2S)     0.95417
   138    C   10  S      Ryd( 3S)     0.00061
   139    C   10  S      Ryd( 4S)     0.00004
   140    C   10  px     Val( 2p)     1.11713
   141    C   10  px     Ryd( 3p)     0.00429
   142    C   10  py     Val( 2p)     1.14202
   143    C   10  py     Ryd( 3p)     0.00441
   144    C   10  pz     Val( 2p)     1.06648
   145    C   10  pz     Ryd( 3p)     0.00084
   146    C   10  dxy    Ryd( 3d)     0.00071
   147    C   10  dxz    Ryd( 3d)     0.00050
   148    C   10  dyz    Ryd( 3d)     0.00038
   149    C   10  dx2y2  Ryd( 3d)     0.00056
   150    C   10  dz2    Ryd( 3d)     0.00037

   151    C   11  S      Cor( 1S)     1.99902
   152    C   11  S      Val( 2S)     0.84204
   153    C   11  S      Ryd( 3S)     0.00120
   154    C   11  S      Ryd( 4S)     0.00009
   155    C   11  px     Val( 2p)     0.91177
   156    C   11  px     Ryd( 3p)     0.00607
   157    C   11  py     Val( 2p)     1.08852
   158    C   11  py     Ryd( 3p)     0.00454
   159    C   11  pz     Val( 2p)     0.98560
   160    C   11  pz     Ryd( 3p)     0.00121
   161    C   11  dxy    Ryd( 3d)     0.00088
   162    C   11  dxz    Ryd( 3d)     0.00177
   163    C   11  dyz    Ryd( 3d)     0.00057
   164    C   11  dx2y2  Ryd( 3d)     0.00111
   165    C   11  dz2    Ryd( 3d)     0.00039

   166    N   12  S      Cor( 1S)     1.99949
   167    N   12  S      Val( 2S)     1.34292
   168    N   12  S      Ryd( 3S)     0.00011
   169    N   12  S      Ryd( 4S)     0.00001
   170    N   12  px     Val( 2p)     1.31737
   171    N   12  px     Ryd( 3p)     0.00247
   172    N   12  py     Val( 2p)     1.41723
   173    N   12  py     Ryd( 3p)     0.00189
   174    N   12  pz     Val( 2p)     1.76038
   175    N   12  pz     Ryd( 3p)     0.00398
   176    N   12  dxy    Ryd( 3d)     0.00038
   177    N   12  dxz    Ryd( 3d)     0.00078
   178    N   12  dyz    Ryd( 3d)     0.00065
   179    N   12  dx2y2  Ryd( 3d)     0.00044
   180    N   12  dz2    Ryd( 3d)     0.00072

   181    C   13  S      Cor( 1S)     1.99905
   182    C   13  S      Val( 2S)     0.95446
   183    C   13  S      Ryd( 3S)     0.00069
   184    C   13  S      Ryd( 4S)     0.00004
   185    C   13  px     Val( 2p)     1.08591
   186    C   13  px     Ryd( 3p)     0.00427
   187    C   13  py     Val( 2p)     1.17011
   188    C   13  py     Ryd( 3p)     0.00447
   189    C   13  pz     Val( 2p)     1.05696
   190    C   13  pz     Ryd( 3p)     0.00074
   191    C   13  dxy    Ryd( 3d)     0.00070
   192    C   13  dxz    Ryd( 3d)     0.00057
   193    C   13  dyz    Ryd( 3d)     0.00033
   194    C   13  dx2y2  Ryd( 3d)     0.00056
   195    C   13  dz2    Ryd( 3d)     0.00038

   196    C   14  S      Cor( 1S)     1.99904
   197    C   14  S      Val( 2S)     0.95400
   198    C   14  S      Ryd( 3S)     0.00075
   199    C   14  S      Ryd( 4S)     0.00005
   200    C   14  px     Val( 2p)     1.12097
   201    C   14  px     Ryd( 3p)     0.00397
   202    C   14  py     Val( 2p)     1.13516
   203    C   14  py     Ryd( 3p)     0.00453
   204    C   14  pz     Val( 2p)     1.04423
   205    C   14  pz     Ryd( 3p)     0.00152
   206    C   14  dxy    Ryd( 3d)     0.00072
   207    C   14  dxz    Ryd( 3d)     0.00055
   208    C   14  dyz    Ryd( 3d)     0.00038
   209    C   14  dx2y2  Ryd( 3d)     0.00055
   210    C   14  dz2    Ryd( 3d)     0.00038

   211    C   15  S      Cor( 1S)     1.99907
   212    C   15  S      Val( 2S)     0.95367
   213    C   15  S      Ryd( 3S)     0.00068
   214    C   15  S      Ryd( 4S)     0.00004
   215    C   15  px     Val( 2p)     1.08791
   216    C   15  px     Ryd( 3p)     0.00464
   217    C   15  py     Val( 2p)     1.17244
   218    C   15  py     Ryd( 3p)     0.00486
   219    C   15  pz     Val( 2p)     1.00898
   220    C   15  pz     Ryd( 3p)     0.00083
   221    C   15  dxy    Ryd( 3d)     0.00073
   222    C   15  dxz    Ryd( 3d)     0.00066
   223    C   15  dyz    Ryd( 3d)     0.00032
   224    C   15  dx2y2  Ryd( 3d)     0.00054
   225    C   15  dz2    Ryd( 3d)     0.00038

   226    C   16  S      Cor( 1S)     1.99905
   227    C   16  S      Val( 2S)     0.95417
   228    C   16  S      Ryd( 3S)     0.00061
   229    C   16  S      Ryd( 4S)     0.00004
   230    C   16  px     Val( 2p)     1.11712
   231    C   16  px     Ryd( 3p)     0.00429
   232    C   16  py     Val( 2p)     1.14203
   233    C   16  py     Ryd( 3p)     0.00441
   234    C   16  pz     Val( 2p)     1.06648
   235    C   16  pz     Ryd( 3p)     0.00084
   236    C   16  dxy    Ryd( 3d)     0.00071
   237    C   16  dxz    Ryd( 3d)     0.00050
   238    C   16  dyz    Ryd( 3d)     0.00038
   239    C   16  dx2y2  Ryd( 3d)     0.00056
   240    C   16  dz2    Ryd( 3d)     0.00037

   241    H   17  S      Val( 1S)     0.57934
   242    H   17  S      Ryd( 2S)     0.00108
   243    H   17  px     Ryd( 2p)     0.00024
   244    H   17  py     Ryd( 2p)     0.00048
   245    H   17  pz     Ryd( 2p)     0.00051

   246    H   18  S      Val( 1S)     0.57935
   247    H   18  S      Ryd( 2S)     0.00110
   248    H   18  px     Ryd( 2p)     0.00032
   249    H   18  py     Ryd( 2p)     0.00040
   250    H   18  pz     Ryd( 2p)     0.00051

   251    H   19  S      Val( 1S)     0.74949
   252    H   19  S      Ryd( 2S)     0.00089
   253    H   19  px     Ryd( 2p)     0.00011
   254    H   19  py     Ryd( 2p)     0.00036
   255    H   19  pz     Ryd( 2p)     0.00013

   256    H   20  S      Val( 1S)     0.74546
   257    H   20  S      Ryd( 2S)     0.00097
   258    H   20  px     Ryd( 2p)     0.00020
   259    H   20  py     Ryd( 2p)     0.00028
   260    H   20  pz     Ryd( 2p)     0.00013

   261    H   21  S      Val( 1S)     0.74838
   262    H   21  S      Ryd( 2S)     0.00097
   263    H   21  px     Ryd( 2p)     0.00012
   264    H   21  py     Ryd( 2p)     0.00035
   265    H   21  pz     Ryd( 2p)     0.00012

   266    H   22  S      Val( 1S)     0.75218
   267    H   22  S      Ryd( 2S)     0.00089
   268    H   22  px     Ryd( 2p)     0.00017
   269    H   22  py     Ryd( 2p)     0.00029
   270    H   22  pz     Ryd( 2p)     0.00013

   271    H   23  S      Val( 1S)     0.57935
   272    H   23  S      Ryd( 2S)     0.00110
   273    H   23  px     Ryd( 2p)     0.00032
   274    H   23  py     Ryd( 2p)     0.00040
   275    H   23  pz     Ryd( 2p)     0.00051

   276    H   24  S      Val( 1S)     0.57934
   277    H   24  S      Ryd( 2S)     0.00108
   278    H   24  px     Ryd( 2p)     0.00024
   279    H   24  py     Ryd( 2p)     0.00048
   280    H   24  pz     Ryd( 2p)     0.00051

   281    H   25  S      Val( 1S)     0.74950
   282    H   25  S      Ryd( 2S)     0.00089
   283    H   25  px     Ryd( 2p)     0.00011
   284    H   25  py     Ryd( 2p)     0.00036
   285    H   25  pz     Ryd( 2p)     0.00013

   286    H   26  S      Val( 1S)     0.74546
   287    H   26  S      Ryd( 2S)     0.00097
   288    H   26  px     Ryd( 2p)     0.00020
   289    H   26  py     Ryd( 2p)     0.00028
   290    H   26  pz     Ryd( 2p)     0.00013

   291    H   27  S      Val( 1S)     0.74838
   292    H   27  S      Ryd( 2S)     0.00097
   293    H   27  px     Ryd( 2p)     0.00012
   294    H   27  py     Ryd( 2p)     0.00035
   295    H   27  pz     Ryd( 2p)     0.00012

   296    H   28  S      Val( 1S)     0.75218
   297    H   28  S      Ryd( 2S)     0.00089
   298    H   28  px     Ryd( 2p)     0.00017
   299    H   28  py     Ryd( 2p)     0.00029
   300    H   28  pz     Ryd( 2p)     0.00013

 WARNING:  1 low occupancy (<1.9990e) core orbital  found on  C    5
           1 low occupancy (<1.9990e) core orbital  found on  C    8


 Summary of Natural Population Analysis:                  
                                                          
                                       Natural Population 
                Natural  -----------------------------------------------
    Atom  No    Charge         Core      Valence    Rydberg      Total
 -----------------------------------------------------------------------
      N    1   -0.84883      1.99949     5.83790    0.01143     7.84883
      C    2    0.15525      1.99902     3.82792    0.01782     5.84475
      C    3   -0.27923      1.99905     4.26744    0.01274     6.27923
      C    4   -0.26679      1.99904     4.25436    0.01340     6.26679
      C    5    0.05341      1.99886     3.92567    0.02205     5.94659
      N    6   -0.12154      1.99937     5.10030    0.02186     7.12154
      N    7   -0.12155      1.99937     5.10032    0.02186     7.12155
      C    8    0.05341      1.99886     3.92567    0.02205     5.94659
      C    9   -0.23575      1.99907     4.22301    0.01367     6.23575
      C   10   -0.29155      1.99905     4.27979    0.01271     6.29155
      C   11    0.15524      1.99902     3.82792    0.01782     5.84476
      N   12   -0.84883      1.99949     5.83790    0.01143     7.84883
      C   13   -0.27923      1.99905     4.26744    0.01274     6.27923
      C   14   -0.26679      1.99904     4.25436    0.01340     6.26679
      C   15   -0.23575      1.99907     4.22301    0.01367     6.23575
      C   16   -0.29155      1.99905     4.27980    0.01271     6.29155
      H   17    0.41835      0.00000     0.57934    0.00231     0.58165
      H   18    0.41833      0.00000     0.57935    0.00232     0.58167
      H   19    0.24902      0.00000     0.74949    0.00149     0.75098
      H   20    0.25295      0.00000     0.74546    0.00158     0.74705
      H   21    0.25005      0.00000     0.74838    0.00157     0.74995
      H   22    0.24634      0.00000     0.75218    0.00148     0.75366
      H   23    0.41832      0.00000     0.57935    0.00232     0.58168
      H   24    0.41835      0.00000     0.57934    0.00231     0.58165
      H   25    0.24902      0.00000     0.74950    0.00149     0.75098
      H   26    0.25295      0.00000     0.74546    0.00158     0.74705
      H   27    0.25006      0.00000     0.74838    0.00157     0.74994
      H   28    0.24634      0.00000     0.75218    0.00148     0.75366
 =======================================================================
   * Total *    0.00000     31.98590    79.74124    0.27286   112.00000

                                 Natural Population      
 --------------------------------------------------------
   Core                      31.98590 ( 99.9559% of  32)
   Valence                   79.74124 ( 99.6765% of  80)
   Natural Minimal Basis    111.72714 ( 99.7564% of 112)
   Natural Rydberg Basis      0.27286 (  0.2436% of 112)
 --------------------------------------------------------

    Atom  No          Natural Electron Configuration
 ----------------------------------------------------------------------------
      N    1      [core]2S( 1.34)2p( 4.49)3p( 0.01)
      C    2      [core]2S( 0.84)2p( 2.99)3p( 0.01)
      C    3      [core]2S( 0.95)2p( 3.31)3p( 0.01)
      C    4      [core]2S( 0.95)2p( 3.30)3p( 0.01)
      C    5      [core]2S( 0.85)2p( 3.08)3p( 0.02)
      N    6      [core]2S( 1.32)2p( 3.78)3p( 0.01)3d( 0.01)
      N    7      [core]2S( 1.32)2p( 3.78)3p( 0.01)3d( 0.01)
      C    8      [core]2S( 0.85)2p( 3.08)3p( 0.02)
      C    9      [core]2S( 0.95)2p( 3.27)3p( 0.01)
      C   10      [core]2S( 0.95)2p( 3.33)3p( 0.01)
      C   11      [core]2S( 0.84)2p( 2.99)3p( 0.01)
      N   12      [core]2S( 1.34)2p( 4.49)3p( 0.01)
      C   13      [core]2S( 0.95)2p( 3.31)3p( 0.01)
      C   14      [core]2S( 0.95)2p( 3.30)3p( 0.01)
      C   15      [core]2S( 0.95)2p( 3.27)3p( 0.01)
      C   16      [core]2S( 0.95)2p( 3.33)3p( 0.01)
      H   17            1S( 0.58)
      H   18            1S( 0.58)
      H   19            1S( 0.75)
      H   20            1S( 0.75)
      H   21            1S( 0.75)
      H   22            1S( 0.75)
      H   23            1S( 0.58)
      H   24            1S( 0.58)
      H   25            1S( 0.75)
      H   26            1S( 0.75)
      H   27            1S( 0.75)
      H   28            1S( 0.75)


 NBO analysis skipped by request.
 1\1\GINC-DRG2-W004\SP\RB3LYP TD-FC\6-31G(d,p)\C12H12N4\QDUEZ\18-Jul-20
 24\0\\# TD(NStates=10, Root=1) B3LYP/6-31G** SCRF=(Solvent=water) volu
 me pop=NPA density=current Geom=AllCheck Guess=Read\\KQIKKETXZQDHGE-FO
 CLMDBBSA-N_conf_0\\0,1\N,0,-5.9171250917,-0.2501442226,0.4840503636\C,
 0,-4.5572100694,-0.2099081323,0.2428502356\C,0,-3.6342233574,-0.445219
 9359,1.2897240006\C,0,-2.2712550384,-0.3506919106,1.0708127231\C,0,-1.
 769312749,-0.0165733474,-0.2041699345\N,0,-0.4086882532,0.1052015431,-
 0.5404381031\N,0,0.4087027893,-0.1051295525,0.4090371082\C,0,1.7693334
 569,0.0165856659,0.0727145913\C,0,2.6867289958,-0.2153862239,1.1118666
 855\C,0,4.0548573716,-0.1222698836,0.9004374182\C,0,4.5572052754,0.209
 9086152,-0.3744741955\N,0,5.9171180809,0.2501516208,-0.6157335868\C,0,
 3.6341676911,0.4448962407,-1.4213693717\C,0,2.2712087238,0.3503655267,
 -1.2023767164\C,0,-2.6866594314,0.2156661675,-1.2433089296\C,0,-4.0547
 971809,0.1225616972,-1.031962376\H,0,-6.2178831162,-0.7816252356,1.289
 4509535\H,0,-6.5158724933,-0.3810120503,-0.3196550821\H,0,-4.009309978
 7,-0.7032601174,2.2767095295\H,0,-1.5713014847,-0.535624615,1.87781236
 78\H,0,2.2979568417,-0.4684233993,2.0937725802\H,0,4.7471731837,-0.305
 2566818,1.7174602776\H,0,6.5158669378,0.3812730764,0.1879297874\H,0,6.
 217805404,0.7814934641,-1.4212526068\H,0,4.0092003522,0.7026661284,-2.
 4084464741\H,0,1.5712156884,0.535036152,-2.0094034697\H,0,-2.297830788
 4,0.4689434235,-2.2251304392\H,0,-4.74707176,0.3057759865,-1.848968406
 \\Version=ES64L-G16RevA.03\State=1-A\HF=-683.5147218\RMSD=9.604e-09\Di
 pole=-0.000126,-0.0006322,-0.0003355\Quadrupole=24.8551549,-18.1949284
 ,-6.6602265,12.4766473,-0.6637411,-4.5049343\PG=C01 [X(C12H12N4)]\\@


      LET US REMEMBER, PLEASE, THAT THE SEARCH FOR THE CONSTITUTION
      OF THE WORLD IS ONE OF THE GREATEST AND NOBLEST PROBLEMS PRESENTED 
      BY NATURE.

                                                  -- GALILEO
 Job cpu time:       0 days  0 hours 33 minutes 40.4 seconds.
 Elapsed time:       0 days  0 hours 11 minutes 39.7 seconds.
 File lengths (MBytes):  RWF=    775 Int=      0 D2E=      0 Chk=     48 Scr=      1
 Normal termination of Gaussian 16 at Thu Jul 18 07:31:28 2024.
