 Entering Gaussian System, Link 0=g16
 Initial command:
 /opt/sw/arch/manual/gaussian/G16_A03/g16/l1.exe "/scratch/1381506/Gau-34600.inp" -scrdir="/scratch/1381506/"
 Entering Link 1 = /opt/sw/arch/manual/gaussian/G16_A03/g16/l1.exe PID=     34602.
  
 Copyright (c) 1988,1990,1992,1993,1995,1998,2003,2009,2016,
            Gaussian, Inc.  All Rights Reserved.
  
 This is part of the Gaussian(R) 16 program.  It is based on
 the Gaussian(R) 09 system (copyright 2009, Gaussian, Inc.),
 the Gaussian(R) 03 system (copyright 2003, Gaussian, Inc.),
 the Gaussian(R) 98 system (copyright 1998, Gaussian, Inc.),
 the Gaussian(R) 94 system (copyright 1995, Gaussian, Inc.),
 the Gaussian 92(TM) system (copyright 1992, Gaussian, Inc.),
 the Gaussian 90(TM) system (copyright 1990, Gaussian, Inc.),
 the Gaussian 88(TM) system (copyright 1988, Gaussian, Inc.),
 the Gaussian 86(TM) system (copyright 1986, Carnegie Mellon
 University), and the Gaussian 82(TM) system (copyright 1983,
 Carnegie Mellon University). Gaussian is a federally registered
 trademark of Gaussian, Inc.
  
 This software contains proprietary and confidential information,
 including trade secrets, belonging to Gaussian, Inc.
  
 This software is provided under written license and may be
 used, copied, transmitted, or stored only in accord with that
 written license.
  
 The following legend is applicable only to US Government
 contracts under FAR:
  
                    RESTRICTED RIGHTS LEGEND
  
 Use, reproduction and disclosure by the US Government is
 subject to restrictions as set forth in subparagraphs (a)
 and (c) of the Commercial Computer Software - Restricted
 Rights clause in FAR 52.227-19.
  
 Gaussian, Inc.
 340 Quinnipiac St., Bldg. 40, Wallingford CT 06492
  
  
 ---------------------------------------------------------------
 Warning -- This program may not be used in any manner that
 competes with the business of Gaussian, Inc. or will provide
 assistance to any competitor of Gaussian, Inc.  The licensee
 of this program is prohibited from giving any competitor of
 Gaussian, Inc. access to this program.  By using this program,
 the user acknowledges that Gaussian, Inc. is engaged in the
 business of creating and licensing software in the field of
 computational chemistry and represents and warrants to the
 licensee that it is not a competitor of Gaussian, Inc. and that
 it will not use this program in any manner prohibited above.
 ---------------------------------------------------------------
  

 Cite this work as:
 Gaussian 16, Revision A.03,
 M. J. Frisch, G. W. Trucks, H. B. Schlegel, G. E. Scuseria, 
 M. A. Robb, J. R. Cheeseman, G. Scalmani, V. Barone, 
 G. A. Petersson, H. Nakatsuji, X. Li, M. Caricato, A. V. Marenich, 
 J. Bloino, B. G. Janesko, R. Gomperts, B. Mennucci, H. P. Hratchian, 
 J. V. Ortiz, A. F. Izmaylov, J. L. Sonnenberg, D. Williams-Young, 
 F. Ding, F. Lipparini, F. Egidi, J. Goings, B. Peng, A. Petrone, 
 T. Henderson, D. Ranasinghe, V. G. Zakrzewski, J. Gao, N. Rega, 
 G. Zheng, W. Liang, M. Hada, M. Ehara, K. Toyota, R. Fukuda, 
 J. Hasegawa, M. Ishida, T. Nakajima, Y. Honda, O. Kitao, H. Nakai, 
 T. Vreven, K. Throssell, J. A. Montgomery, Jr., J. E. Peralta, 
 F. Ogliaro, M. J. Bearpark, J. J. Heyd, E. N. Brothers, K. N. Kudin, 
 V. N. Staroverov, T. A. Keith, R. Kobayashi, J. Normand, 
 K. Raghavachari, A. P. Rendell, J. C. Burant, S. S. Iyengar, 
 J. Tomasi, M. Cossi, J. M. Millam, M. Klene, C. Adamo, R. Cammi, 
 J. W. Ochterski, R. L. Martin, K. Morokuma, O. Farkas, 
 J. B. Foresman, and D. J. Fox, Gaussian, Inc., Wallingford CT, 2016.
 
 ******************************************
 Gaussian 16:  ES64L-G16RevA.03 25-Dec-2016
                21-Jul-2024 
 ******************************************
 %nprocshared=5
 Will use up to    5 processors via shared memory.
 %mem=10GB
 %Chk=NVKGJHAQGWCWDI-UHFFFAOYSA-N_conf_0_0.chk
 -------------------------------------------------------
 # opt=CalcFc B3LYP/6-31G** SCRF=(Solvent=water) scf=xqc
 -------------------------------------------------------
 1/10=4,18=20,19=15,26=3,38=1/1,3;
 2/9=110,12=2,17=6,18=5,40=1/2;
 3/5=1,6=6,7=101,11=2,25=1,30=1,70=2201,71=2,72=1,74=-5,140=1/1,2,3;
 4//1;
 5/5=2,8=3,13=1,38=5,53=1/2,8;
 8/6=4,10=90,11=11/1;
 11/6=1,8=1,9=11,15=111,16=1/1,2,10;
 10/6=1,13=1/2;
 6/7=2,8=2,9=2,10=2,28=1/1;
 7/10=1,18=20,25=1/1,2,3,16;
 1/10=4,18=20,19=15,26=3/3(2);
 2/9=110/2;
 99//99;
 2/9=110/2;
 3/5=1,6=6,7=101,11=2,25=1,30=1,70=2205,71=1,72=1,74=-5/1,2,3;
 4/5=5,16=3,69=1/1;
 5/5=2,8=3,13=1,38=5,53=1/2,8;
 7//1,2,3,16;
 1/18=20,19=15,26=3/3(-5);
 2/9=110/2;
 6/7=2,8=2,9=2,10=2,19=2,28=1/1;
 99/9=1/99;
 ----------------------------------
 NVKGJHAQGWCWDI-UHFFFAOYSA-N_conf_0
 ----------------------------------
 Symbolic Z-matrix:
 Charge =  0 Multiplicity = 1
 N                     4.93915   0.56088  -0.38275 
 C                     3.55035   0.44392  -0.47501 
 C                     2.74726   1.58074  -0.48962 
 C                     1.35464   1.47034  -0.46338 
 C                     0.72573   0.21698  -0.37251 
 C                    -0.74532   0.1595   -0.35833 
 C                    -1.42393  -0.13865  -1.55218 
 C                    -2.81926  -0.19697  -1.59601 
 C                    -3.578     0.0875   -0.46423 
 N                    -4.96386  -0.08593  -0.48054 
 C                    -2.91299   0.32957   0.73866 
 C                    -1.50449   0.38684   0.80969 
 C                    -0.8503    0.70062   2.13575 
 F                    -0.28417   1.9405    2.15426 
 F                    -1.72427   0.69027   3.1847 
 F                     0.13513  -0.17338   2.47964 
 C                     1.53317  -0.93801  -0.29287 
 C                     0.93463  -2.32145  -0.18024 
 F                     0.32456  -2.71803  -1.33293 
 F                     1.85952  -3.28968   0.08687 
 F                     0.00062  -2.43464   0.80363 
 C                     2.93754  -0.80139  -0.32857 
 H                     5.31459   1.41401  -0.78521 
 H                     5.45242  -0.26393  -0.67739 
 H                     3.19703   2.56984  -0.52292 
 H                     0.758     2.38104  -0.5 
 H                    -0.86397  -0.34442  -2.46367 
 H                    -3.30643  -0.46728  -2.52944 
 H                    -5.39019   0.03895  -1.39345 
 H                    -5.46028   0.41508   0.24962 
 H                    -3.49909   0.47666   1.64521 
 H                     3.5622   -1.68947  -0.23851 
 

 GradGradGradGradGradGradGradGradGradGradGradGradGradGradGradGradGradGrad
 Berny optimization.
 Initialization pass.
                           ----------------------------
                           !    Initial Parameters    !
                           ! (Angstroms and Degrees)  !
 --------------------------                            --------------------------
 ! Name  Definition              Value          Derivative Info.                !
 --------------------------------------------------------------------------------
 ! R1    R(1,2)                  1.3968         calculate D2E/DX2 analytically  !
 ! R2    R(1,23)                 1.0153         calculate D2E/DX2 analytically  !
 ! R3    R(1,24)                 1.0152         calculate D2E/DX2 analytically  !
 ! R4    R(2,3)                  1.392          calculate D2E/DX2 analytically  !
 ! R5    R(2,22)                 1.3956         calculate D2E/DX2 analytically  !
 ! R6    R(3,4)                  1.3972         calculate D2E/DX2 analytically  !
 ! R7    R(3,25)                 1.0871         calculate D2E/DX2 analytically  !
 ! R8    R(4,5)                  1.4052         calculate D2E/DX2 analytically  !
 ! R9    R(4,26)                 1.0894         calculate D2E/DX2 analytically  !
 ! R10   R(5,6)                  1.4722         calculate D2E/DX2 analytically  !
 ! R11   R(5,17)                 1.4115         calculate D2E/DX2 analytically  !
 ! R12   R(6,7)                  1.4052         calculate D2E/DX2 analytically  !
 ! R13   R(6,12)                 1.4115         calculate D2E/DX2 analytically  !
 ! R14   R(7,8)                  1.3972         calculate D2E/DX2 analytically  !
 ! R15   R(7,27)                 1.0894         calculate D2E/DX2 analytically  !
 ! R16   R(8,9)                  1.392          calculate D2E/DX2 analytically  !
 ! R17   R(8,28)                 1.0871         calculate D2E/DX2 analytically  !
 ! R18   R(9,10)                 1.3968         calculate D2E/DX2 analytically  !
 ! R19   R(9,11)                 1.3956         calculate D2E/DX2 analytically  !
 ! R20   R(10,29)                1.0153         calculate D2E/DX2 analytically  !
 ! R21   R(10,30)                1.0152         calculate D2E/DX2 analytically  !
 ! R22   R(11,12)                1.4115         calculate D2E/DX2 analytically  !
 ! R23   R(11,31)                1.0895         calculate D2E/DX2 analytically  !
 ! R24   R(12,13)                1.5116         calculate D2E/DX2 analytically  !
 ! R25   R(13,14)                1.3631         calculate D2E/DX2 analytically  !
 ! R26   R(13,15)                1.3654         calculate D2E/DX2 analytically  !
 ! R27   R(13,16)                1.3613         calculate D2E/DX2 analytically  !
 ! R28   R(17,18)                1.5116         calculate D2E/DX2 analytically  !
 ! R29   R(17,22)                1.4115         calculate D2E/DX2 analytically  !
 ! R30   R(18,19)                1.3631         calculate D2E/DX2 analytically  !
 ! R31   R(18,20)                1.3654         calculate D2E/DX2 analytically  !
 ! R32   R(18,21)                1.3613         calculate D2E/DX2 analytically  !
 ! R33   R(22,32)                1.0895         calculate D2E/DX2 analytically  !
 ! A1    A(2,1,23)             114.3227         calculate D2E/DX2 analytically  !
 ! A2    A(2,1,24)             114.5513         calculate D2E/DX2 analytically  !
 ! A3    A(23,1,24)            112.3774         calculate D2E/DX2 analytically  !
 ! A4    A(1,2,3)              120.3952         calculate D2E/DX2 analytically  !
 ! A5    A(1,2,22)             120.29           calculate D2E/DX2 analytically  !
 ! A6    A(3,2,22)             118.458          calculate D2E/DX2 analytically  !
 ! A7    A(2,3,4)              120.6846         calculate D2E/DX2 analytically  !
 ! A8    A(2,3,25)             120.3124         calculate D2E/DX2 analytically  !
 ! A9    A(4,3,25)             119.003          calculate D2E/DX2 analytically  !
 ! A10   A(3,4,5)              121.1824         calculate D2E/DX2 analytically  !
 ! A11   A(3,4,26)             118.6328         calculate D2E/DX2 analytically  !
 ! A12   A(5,4,26)             120.1787         calculate D2E/DX2 analytically  !
 ! A13   A(4,5,6)              118.8575         calculate D2E/DX2 analytically  !
 ! A14   A(4,5,17)             118.5203         calculate D2E/DX2 analytically  !
 ! A15   A(6,5,17)             122.6217         calculate D2E/DX2 analytically  !
 ! A16   A(5,6,7)              118.8574         calculate D2E/DX2 analytically  !
 ! A17   A(5,6,12)             122.6217         calculate D2E/DX2 analytically  !
 ! A18   A(7,6,12)             118.5203         calculate D2E/DX2 analytically  !
 ! A19   A(6,7,8)              121.1824         calculate D2E/DX2 analytically  !
 ! A20   A(6,7,27)             120.1787         calculate D2E/DX2 analytically  !
 ! A21   A(8,7,27)             118.6328         calculate D2E/DX2 analytically  !
 ! A22   A(7,8,9)              120.6845         calculate D2E/DX2 analytically  !
 ! A23   A(7,8,28)             119.0029         calculate D2E/DX2 analytically  !
 ! A24   A(9,8,28)             120.3125         calculate D2E/DX2 analytically  !
 ! A25   A(8,9,10)             120.3952         calculate D2E/DX2 analytically  !
 ! A26   A(8,9,11)             118.458          calculate D2E/DX2 analytically  !
 ! A27   A(10,9,11)            120.29           calculate D2E/DX2 analytically  !
 ! A28   A(9,10,29)            114.3222         calculate D2E/DX2 analytically  !
 ! A29   A(9,10,30)            114.5508         calculate D2E/DX2 analytically  !
 ! A30   A(29,10,30)           112.3768         calculate D2E/DX2 analytically  !
 ! A31   A(9,11,12)            121.7294         calculate D2E/DX2 analytically  !
 ! A32   A(9,11,31)            118.9636         calculate D2E/DX2 analytically  !
 ! A33   A(12,11,31)           119.3069         calculate D2E/DX2 analytically  !
 ! A34   A(6,12,11)            119.245          calculate D2E/DX2 analytically  !
 ! A35   A(6,12,13)            121.777          calculate D2E/DX2 analytically  !
 ! A36   A(11,12,13)           118.9765         calculate D2E/DX2 analytically  !
 ! A37   A(12,13,14)           112.363          calculate D2E/DX2 analytically  !
 ! A38   A(12,13,15)           113.2891         calculate D2E/DX2 analytically  !
 ! A39   A(12,13,16)           113.6799         calculate D2E/DX2 analytically  !
 ! A40   A(14,13,15)           105.2063         calculate D2E/DX2 analytically  !
 ! A41   A(14,13,16)           106.2542         calculate D2E/DX2 analytically  !
 ! A42   A(15,13,16)           105.3318         calculate D2E/DX2 analytically  !
 ! A43   A(5,17,18)            121.7769         calculate D2E/DX2 analytically  !
 ! A44   A(5,17,22)            119.2451         calculate D2E/DX2 analytically  !
 ! A45   A(18,17,22)           118.9766         calculate D2E/DX2 analytically  !
 ! A46   A(17,18,19)           112.3631         calculate D2E/DX2 analytically  !
 ! A47   A(17,18,20)           113.2891         calculate D2E/DX2 analytically  !
 ! A48   A(17,18,21)           113.6798         calculate D2E/DX2 analytically  !
 ! A49   A(19,18,20)           105.2062         calculate D2E/DX2 analytically  !
 ! A50   A(19,18,21)           106.2542         calculate D2E/DX2 analytically  !
 ! A51   A(20,18,21)           105.3319         calculate D2E/DX2 analytically  !
 ! A52   A(2,22,17)            121.7294         calculate D2E/DX2 analytically  !
 ! A53   A(2,22,32)            118.9636         calculate D2E/DX2 analytically  !
 ! A54   A(17,22,32)           119.307          calculate D2E/DX2 analytically  !
 ! D1    D(23,1,2,3)           -29.2945         calculate D2E/DX2 analytically  !
 ! D2    D(23,1,2,22)          161.4647         calculate D2E/DX2 analytically  !
 ! D3    D(24,1,2,3)          -161.0374         calculate D2E/DX2 analytically  !
 ! D4    D(24,1,2,22)           29.7218         calculate D2E/DX2 analytically  !
 ! D5    D(1,2,3,4)           -174.3533         calculate D2E/DX2 analytically  !
 ! D6    D(1,2,3,25)             5.7204         calculate D2E/DX2 analytically  !
 ! D7    D(22,2,3,4)            -4.9183         calculate D2E/DX2 analytically  !
 ! D8    D(22,2,3,25)          175.1554         calculate D2E/DX2 analytically  !
 ! D9    D(1,2,22,17)          174.0611         calculate D2E/DX2 analytically  !
 ! D10   D(1,2,22,32)           -5.8659         calculate D2E/DX2 analytically  !
 ! D11   D(3,2,22,17)            4.6146         calculate D2E/DX2 analytically  !
 ! D12   D(3,2,22,32)         -175.3124         calculate D2E/DX2 analytically  !
 ! D13   D(2,3,4,5)              2.3446         calculate D2E/DX2 analytically  !
 ! D14   D(2,3,4,26)          -178.5546         calculate D2E/DX2 analytically  !
 ! D15   D(25,3,4,5)          -177.7281         calculate D2E/DX2 analytically  !
 ! D16   D(25,3,4,26)            1.3727         calculate D2E/DX2 analytically  !
 ! D17   D(3,4,5,6)           -179.5717         calculate D2E/DX2 analytically  !
 ! D18   D(3,4,5,17)             0.6828         calculate D2E/DX2 analytically  !
 ! D19   D(26,4,5,6)             1.3413         calculate D2E/DX2 analytically  !
 ! D20   D(26,4,5,17)         -178.4042         calculate D2E/DX2 analytically  !
 ! D21   D(4,5,6,7)             98.8111         calculate D2E/DX2 analytically  !
 ! D22   D(4,5,6,12)           -81.4544         calculate D2E/DX2 analytically  !
 ! D23   D(17,5,6,7)           -81.4545         calculate D2E/DX2 analytically  !
 ! D24   D(17,5,6,12)           98.28           calculate D2E/DX2 analytically  !
 ! D25   D(4,5,17,18)          179.4394         calculate D2E/DX2 analytically  !
 ! D26   D(4,5,17,22)           -1.0139         calculate D2E/DX2 analytically  !
 ! D27   D(6,5,17,18)           -0.296          calculate D2E/DX2 analytically  !
 ! D28   D(6,5,17,22)          179.2508         calculate D2E/DX2 analytically  !
 ! D29   D(5,6,7,8)           -179.5719         calculate D2E/DX2 analytically  !
 ! D30   D(5,6,7,27)             1.341          calculate D2E/DX2 analytically  !
 ! D31   D(12,6,7,8)             0.6826         calculate D2E/DX2 analytically  !
 ! D32   D(12,6,7,27)         -178.4045         calculate D2E/DX2 analytically  !
 ! D33   D(5,6,12,11)          179.2508         calculate D2E/DX2 analytically  !
 ! D34   D(5,6,12,13)           -0.2955         calculate D2E/DX2 analytically  !
 ! D35   D(7,6,12,11)           -1.0138         calculate D2E/DX2 analytically  !
 ! D36   D(7,6,12,13)          179.4398         calculate D2E/DX2 analytically  !
 ! D37   D(6,7,8,9)              2.3449         calculate D2E/DX2 analytically  !
 ! D38   D(6,7,8,28)          -177.7279         calculate D2E/DX2 analytically  !
 ! D39   D(27,7,8,9)          -178.5542         calculate D2E/DX2 analytically  !
 ! D40   D(27,7,8,28)            1.373          calculate D2E/DX2 analytically  !
 ! D41   D(7,8,9,10)          -174.3536         calculate D2E/DX2 analytically  !
 ! D42   D(7,8,9,11)            -4.9185         calculate D2E/DX2 analytically  !
 ! D43   D(28,8,9,10)            5.7202         calculate D2E/DX2 analytically  !
 ! D44   D(28,8,9,11)          175.1553         calculate D2E/DX2 analytically  !
 ! D45   D(8,9,10,29)          -29.2955         calculate D2E/DX2 analytically  !
 ! D46   D(8,9,10,30)         -161.0365         calculate D2E/DX2 analytically  !
 ! D47   D(11,9,10,29)         161.4636         calculate D2E/DX2 analytically  !
 ! D48   D(11,9,10,30)          29.7225         calculate D2E/DX2 analytically  !
 ! D49   D(8,9,11,12)            4.6146         calculate D2E/DX2 analytically  !
 ! D50   D(8,9,11,31)         -175.3126         calculate D2E/DX2 analytically  !
 ! D51   D(10,9,11,12)         174.0612         calculate D2E/DX2 analytically  !
 ! D52   D(10,9,11,31)          -5.866          calculate D2E/DX2 analytically  !
 ! D53   D(9,11,12,6)           -1.6636         calculate D2E/DX2 analytically  !
 ! D54   D(9,11,12,13)         177.8956         calculate D2E/DX2 analytically  !
 ! D55   D(31,11,12,6)         178.2634         calculate D2E/DX2 analytically  !
 ! D56   D(31,11,12,13)         -2.1774         calculate D2E/DX2 analytically  !
 ! D57   D(6,12,13,14)          70.2239         calculate D2E/DX2 analytically  !
 ! D58   D(6,12,13,15)        -170.7062         calculate D2E/DX2 analytically  !
 ! D59   D(6,12,13,16)         -50.5009         calculate D2E/DX2 analytically  !
 ! D60   D(11,12,13,14)       -109.3236         calculate D2E/DX2 analytically  !
 ! D61   D(11,12,13,15)          9.7462         calculate D2E/DX2 analytically  !
 ! D62   D(11,12,13,16)        129.9516         calculate D2E/DX2 analytically  !
 ! D63   D(5,17,18,19)          70.2212         calculate D2E/DX2 analytically  !
 ! D64   D(5,17,18,20)        -170.7089         calculate D2E/DX2 analytically  !
 ! D65   D(5,17,18,21)         -50.5036         calculate D2E/DX2 analytically  !
 ! D66   D(22,17,18,19)       -109.3268         calculate D2E/DX2 analytically  !
 ! D67   D(22,17,18,20)          9.7432         calculate D2E/DX2 analytically  !
 ! D68   D(22,17,18,21)        129.9485         calculate D2E/DX2 analytically  !
 ! D69   D(5,17,22,2)           -1.6636         calculate D2E/DX2 analytically  !
 ! D70   D(5,17,22,32)         178.2631         calculate D2E/DX2 analytically  !
 ! D71   D(18,17,22,2)         177.8959         calculate D2E/DX2 analytically  !
 ! D72   D(18,17,22,32)         -2.1774         calculate D2E/DX2 analytically  !
 --------------------------------------------------------------------------------
 Trust Radius=3.00D-01 FncErr=1.00D-07 GrdErr=1.00D-06 EigMax=2.50D+02 EigMin=1.00D-04
 Number of steps in this run=    169 maximum allowed number of steps=    192.
 GradGradGradGradGradGradGradGradGradGradGradGradGradGradGradGradGradGrad

                          Input orientation:                          
 ---------------------------------------------------------------------
 Center     Atomic      Atomic             Coordinates (Angstroms)
 Number     Number       Type             X           Y           Z
 ---------------------------------------------------------------------
      1          7           0        4.939149    0.560884   -0.382749
      2          6           0        3.550352    0.443919   -0.475009
      3          6           0        2.747262    1.580745   -0.489620
      4          6           0        1.354643    1.470336   -0.463380
      5          6           0        0.725732    0.216982   -0.372509
      6          6           0       -0.745322    0.159500   -0.358335
      7          6           0       -1.423934   -0.138652   -1.552183
      8          6           0       -2.819264   -0.196970   -1.596011
      9          6           0       -3.578003    0.087501   -0.464229
     10          7           0       -4.963863   -0.085932   -0.480540
     11          6           0       -2.912992    0.329574    0.738663
     12          6           0       -1.504486    0.386838    0.809690
     13          6           0       -0.850297    0.700617    2.135747
     14          9           0       -0.284170    1.940496    2.154264
     15          9           0       -1.724266    0.690273    3.184702
     16          9           0        0.135131   -0.173377    2.479644
     17          6           0        1.533165   -0.938010   -0.292869
     18          6           0        0.934631   -2.321455   -0.180244
     19          9           0        0.324564   -2.718026   -1.332930
     20          9           0        1.859525   -3.289679    0.086872
     21          9           0        0.000619   -2.434643    0.803631
     22          6           0        2.937542   -0.801395   -0.328570
     23          1           0        5.314595    1.414009   -0.785211
     24          1           0        5.452421   -0.263927   -0.677391
     25          1           0        3.197032    2.569835   -0.522923
     26          1           0        0.758004    2.381044   -0.500002
     27          1           0       -0.863975   -0.344424   -2.463672
     28          1           0       -3.306433   -0.467284   -2.529444
     29          1           0       -5.390191    0.038954   -1.393450
     30          1           0       -5.460279    0.415076    0.249625
     31          1           0       -3.499095    0.476658    1.645211
     32          1           0        3.562201   -1.689466   -0.238507
 ---------------------------------------------------------------------
                    Distance matrix (angstroms):
                    1          2          3          4          5
     1  N    0.000000
     2  C    1.396764   0.000000
     3  C    2.419898   1.391955   0.000000
     4  C    3.698957   2.423799   1.397235   0.000000
     5  C    4.227441   2.835574   2.441341   1.405234   0.000000
     6  C    5.698677   4.306660   3.772972   2.477737   1.472245
     7  C    6.507362   5.122813   4.635110   3.390403   2.477736
     8  C    7.889190   6.499184   5.947317   4.635112   3.772971
     9  C    8.530687   7.137268   6.499185   5.122815   4.306660
    10  N    9.924595   8.530688   7.889192   6.507364   5.698678
    11  C    7.935187   6.577301   5.925587   4.578095   3.806270
    12  C    6.555352   5.215850   4.603366   3.311992   2.529885
    13  C    6.315064   5.123246   4.539780   3.494236   3.001519
    14  F    5.968486   4.884299   4.038455   3.123910   3.221022
    15  F    7.559402   6.424622   5.855608   4.837012   4.345140
    16  F    5.640126   4.557934   4.326280   3.584744   2.938701
    17  C    3.722296   2.451927   2.803010   2.420965   1.411487
    18  C    4.938122   3.817875   4.313757   3.825474   2.554264
    19  F    5.740078   4.597785   5.006003   4.399950   3.114100
    20  F    4.952925   4.136950   4.984119   4.818238   3.713917
    21  F    5.896589   4.745697   5.033874   4.322911   2.990018
    22  C    2.421811   1.395631   2.395148   2.772094   2.435390
    23  H    1.015262   2.037119   2.589666   3.973407   4.760342
    24  H    1.015172   2.039576   3.279627   4.454801   4.760862
    25  H    2.662800   2.155609   1.087061   2.146355   3.415533
    26  H    4.561656   3.398571   2.144233   1.089362   2.168055
    27  H    6.231057   4.905359   4.543588   3.495252   2.686133
    28  H    8.582252   7.215712   6.708392   5.454230   4.623738
    29  H   10.391785   8.996712   8.331397   6.957490   6.203107
    30  H   10.419657   9.039767   8.322800   6.932901   6.220372
    31  H    8.678921   7.361461   6.692793   5.384452   4.689114
    32  H    2.642133   2.146486   3.379565   3.861117   3.420241
                    6          7          8          9         10
     6  C    0.000000
     7  C    1.405235   0.000000
     8  C    2.441342   1.397235   0.000000
     9  C    2.835574   2.423799   1.391955   0.000000
    10  N    4.227442   3.698959   2.419899   1.396765   0.000000
    11  C    2.435390   2.772094   2.395148   1.395631   2.421812
    12  C    1.411487   2.420966   2.803011   2.451927   3.722297
    13  C    2.554265   3.825475   4.313758   3.817874   4.938122
    14  F    3.114122   4.399962   5.005998   4.597763   5.740046
    15  F    3.713915   4.818236   4.984119   4.136952   4.952927
    16  F    2.990005   4.322907   5.033882   4.745715   5.896616
    17  C    2.529884   3.311991   4.603363   5.215848   6.555351
    18  C    3.001515   3.494235   4.539775   5.123240   6.315060
    19  F    3.220970   3.123858   4.038390   4.884225   5.968413
    20  F    4.345143   4.837001   5.855596   6.424622   7.559403
    21  F    2.938736   3.584799   4.326338   4.557983   5.640179
    22  C    3.806270   4.578093   5.925585   6.577300   7.935187
    23  H    6.203112   6.957498   8.331405   8.996719  10.391792
    24  H    6.220378   6.932908   8.322807   9.039773  10.419664
    25  H    4.623739   5.454229   6.708394   7.215714   8.582255
    26  H    2.686134   3.495256   4.543593   4.905362   6.231060
    27  H    2.168055   1.089362   2.144233   3.398571   4.561657
    28  H    3.415533   2.146355   1.087061   2.155609   2.662802
    29  H    4.760337   3.973403   2.589663   2.037114   1.015262
    30  H    4.760856   4.454795   3.279623   2.039572   1.015174
    31  H    3.420241   3.861117   3.379565   2.146486   2.642134
    32  H    4.689113   5.384451   6.692791   7.361458   8.678921
                   11         12         13         14         15
    11  C    0.000000
    12  C    1.411458   0.000000
    13  C    2.518775   1.511571   0.000000
    14  F    3.392595   2.389749   1.363136   0.000000
    15  F    2.743407   2.404383   1.365371   2.167657   0.000000
    16  F    3.546129   2.406436   1.361323   2.179483   2.168031
    17  C    4.736997   3.492590   3.776793   4.192488   5.035441
    18  C    4.761990   3.776786   4.205080   5.009952   5.240525
    19  F    4.905215   4.192425   5.009904   5.850889   6.018572
    20  F    6.025010   5.035455   5.240561   6.018659   6.187093
    21  F    4.016746   3.197833   3.511189   4.587718   4.290668
    22  C    6.053662   4.736998   4.761998   4.905288   6.024999
    23  H    8.437498   7.078040   6.859068   6.345381   8.113542
    24  H    8.505150   7.143770   6.969099   6.766551   8.205553
    25  H    6.628934   5.352159   5.190701   4.436459   6.441926
    26  H    4.383951   3.288010   3.515343   2.885365   4.753674
    27  H    3.861048   3.414660   4.716667   5.184820   5.806447
    28  H    3.386783   3.889262   5.400056   6.071951   6.041081
    29  H    3.281293   4.480352   5.788235   6.501814   5.901076
    30  H    2.595215   3.995343   4.989080   5.722470   4.759013
    31  H    1.089486   2.164400   2.703130   3.568991   2.359170
    32  H    6.852700   5.575040   5.551550   5.804872   6.732626
                   16         17         18         19         20
    16  F    0.000000
    17  C    3.197811   0.000000
    18  C    3.511188   1.511571   0.000000
    19  F    4.587684   2.389749   1.363135   0.000000
    20  F    4.290714   2.404384   1.365370   2.167655   0.000000
    21  F    2.817879   2.406433   1.361323   2.179481   2.168031
    22  C    4.016713   1.411458   2.518776   3.392620   2.743405
    23  H    6.325023   4.480357   5.788242   6.501855   5.901077
    24  H    6.184548   3.995349   4.989088   5.722521   4.759009
    25  H    5.090763   3.889261   5.400056   6.071957   6.041082
    26  H    3.973831   3.414659   4.716666   5.184801   5.806450
    27  H    5.046172   3.288010   3.515349   2.885340   4.753656
    28  H    6.084547   5.352155   5.190696   4.436398   6.441906
    29  H    6.750935   7.078036   6.859065   6.345315   8.113540
    30  H    6.052097   7.143766   6.969093   6.766477   8.205560
    31  H    3.785026   5.575041   5.551544   5.804800   6.732645
    32  H    4.629436   2.164400   2.703132   3.569032   2.359165
                   21         22         23         24         25
    21  F    0.000000
    22  C    3.546110   0.000000
    23  H    6.750917   3.281298   0.000000
    24  H    6.052072   2.595219   1.687036   0.000000
    25  H    6.084538   3.386783   2.426685   3.625030   0.000000
    26  H    5.046180   3.861048   4.666800   5.391186   2.446431
    27  H    3.973890   4.383950   6.639581   6.564612   5.362014
    28  H    5.090824   6.628930   8.994650   8.954830   7.452870
    29  H    6.325083   8.437493  10.809864  10.870451   8.994642
    30  H    6.184596   8.505146  10.870449  10.973031   8.954823
    31  H    4.629463   6.852702   9.190577   9.277531   7.343045
    32  H    3.784997   1.089486   3.605735   2.407844   4.284377
                   26         27         28         29         30
    26  H    0.000000
    27  H    3.730281   0.000000
    28  H    5.362020   2.446431   0.000000
    29  H    6.639574   4.666796   2.426686   0.000000
    30  H    6.564603   5.391181   3.625029   1.687031   0.000000
    31  H    5.133372   4.949844   4.284377   3.605730   2.407841
    32  H    4.949843   5.133373   7.343041   9.190574   9.277527
                   31         32
    31  H    0.000000
    32  H    7.622492   0.000000
 Stoichiometry    C14H10F6N2
 Framework group  C1[X(C14H10F6N2)]
 Deg. of freedom    90
 Full point group                 C1      NOp   1
 Largest Abelian subgroup         C1      NOp   1
 Largest concise Abelian subgroup C1      NOp   1
                         Standard orientation:                         
 ---------------------------------------------------------------------
 Center     Atomic      Atomic             Coordinates (Angstroms)
 Number     Number       Type             X           Y           Z
 ---------------------------------------------------------------------
      1          7           0        4.876889    0.916711   -0.813597
      2          6           0        3.519123    0.592396   -0.860941
      3          6           0        2.629208    1.389214   -1.575555
      4          6           0        1.255181    1.139400   -1.531878
      5          6           0        0.727504    0.112319   -0.731037
      6          6           0       -0.727502   -0.112320   -0.731037
      7          6           0       -1.255177   -1.139401   -1.531879
      8          6           0       -2.629204   -1.389218   -1.575554
      9          6           0       -3.519119   -0.592401   -0.860940
     10          7           0       -4.876887   -0.916716   -0.813598
     11          6           0       -3.001142    0.393504   -0.019823
     12          6           0       -1.616700    0.660167    0.046707
     13          6           0       -1.127850    1.774439    0.943516
     14          9           0       -0.672296    2.847168    0.236505
     15          9           0       -2.098979    2.272488    1.763939
     16          9           0       -0.112311    1.404470    1.771166
     17          6           0        1.616702   -0.660170    0.046704
     18          6           0        1.127848   -1.774437    0.943519
     19          9           0        0.672228   -2.847141    0.236516
     20          9           0        2.098990   -2.272529    1.763899
     21          9           0        0.112354   -1.404439    1.771210
     22          6           0        3.001144   -0.393509   -0.019825
     23          1           0        5.218152    1.408627   -1.633545
     24          1           0        5.484466    0.150084   -0.542107
     25          1           0        2.995624    2.216429   -2.178178
     26          1           0        0.591091    1.769002   -2.122890
     27          1           0       -0.591088   -1.768998   -2.122897
     28          1           0       -2.995619   -2.216435   -2.178177
     29          1           0       -5.218145   -1.408616   -1.633557
     30          1           0       -5.484459   -0.150079   -0.542120
     31          1           0       -3.685737    0.970015    0.601421
     32          1           0        3.685738   -0.970018    0.601422
 ---------------------------------------------------------------------
 Rotational constants (GHZ):           0.4044168           0.2209285           0.1916692
 Standard basis: 6-31G(d,p) (6D, 7F)
 There are   380 symmetry adapted cartesian basis functions of A   symmetry.
 There are   380 symmetry adapted basis functions of A   symmetry.
   380 basis functions,   686 primitive gaussians,   380 cartesian basis functions
    81 alpha electrons       81 beta electrons
       nuclear repulsion energy      1948.5959802076 Hartrees.
 NAtoms=   32 NActive=   32 NUniq=   32 SFac= 1.00D+00 NAtFMM=   60 NAOKFM=F Big=F
 Integral buffers will be    131072 words long.
 Raffenetti 2 integral format.
 Two-electron integral symmetry is turned on.
 Force inversion solution in PCM.
 ------------------------------------------------------------------------------
 Polarizable Continuum Model (PCM)
 =================================
 Model                : PCM.
 Atomic radii         : UFF (Universal Force Field).
 Polarization charges : Total charges.
 Charge compensation  : None.
 Solution method      : Matrix inversion.
 Cavity type          : Scaled VdW (van der Waals Surface) (Alpha=1.100).
 Cavity algorithm     : GePol (No added spheres)
                        Default sphere list used, NSphG=   32.
                        Lebedev-Laikov grids with approx.  5.0 points / Ang**2.
                        Smoothing algorithm: York/Karplus (Gamma=1.0000).
                        Polarization charges: spherical gaussians, with
                                              point-specific exponents (IZeta= 3).
                        Self-potential: point-specific (ISelfS= 7).
                        Self-field    : sphere-specific E.n sum rule (ISelfD= 2).
 1st derivatives      : Analytical E(r).r(x)/FMM algorithm (CHGder, D1EAlg=3).
                        Cavity 1st derivative terms included.
 2nd derivatives      : Analytical E(r).r(xy)/FMM algorithm (CHGder, D2EAlg=3).
                        Cavity 2nd derivative terms included.
 Solvent              : Water, Eps=  78.355300 Eps(inf)=   1.777849
 ------------------------------------------------------------------------------
 One-electron integrals computed using PRISM.
 NBasis=   380 RedAO= T EigKep=  3.19D-04  NBF=   380
 NBsUse=   380 1.00D-06 EigRej= -1.00D+00 NBFU=   380
 ExpMin= 1.61D-01 ExpMax= 7.00D+03 ExpMxC= 1.05D+03 IAcc=3 IRadAn=         5 AccDes= 0.00D+00
 Harris functional with IExCor=  402 and IRadAn=       5 diagonalized for initial guess.
 HarFok:  IExCor=  402 AccDes= 0.00D+00 IRadAn=         5 IDoV= 1 UseB2=F ITyADJ=14
 ICtDFT=  3500011 ScaDFX=  1.000000  1.000000  1.000000  1.000000
 FoFCou: FMM=F IPFlag=           0 FMFlag=      100000 FMFlg1=           0
         NFxFlg=           0 DoJE=T BraDBF=F KetDBF=T FulRan=T
         wScrn=  0.000000 ICntrl=       500 IOpCl=  0 I1Cent=   200000004 NGrid=           0
         NMat0=    1 NMatS0=      1 NMatT0=    0 NMatD0=    1 NMtDS0=    0 NMtDT0=    0
 Petite list used in FoFCou.
 Requested convergence on RMS density matrix=1.00D-08 within  32 cycles.
 Requested convergence on MAX density matrix=1.00D-06.
 Requested convergence on             energy=1.00D-06.
 No special actions if energy rises.
 Inv3:  Mode=1 IEnd=    20280000.
 Iteration    1 A*A^-1 deviation from unit magnitude is 3.55D-15 for    735.
 Iteration    1 A*A^-1 deviation from orthogonality  is 1.73D-15 for   2026    477.
 Iteration    1 A^-1*A deviation from unit magnitude is 3.22D-15 for   1138.
 Iteration    1 A^-1*A deviation from orthogonality  is 1.69D-15 for   1835    121.
 Error on total polarization charges =  0.00609
 SCF Done:  E(RB3LYP) =  -1248.11187347     A.U. after   12 cycles
            NFock= 12  Conv=0.63D-08     -V/T= 2.0083
 QCSCF skips out because SCF is already converged.
 DoSCS=F DFT=T ScalE2(SS,OS)=  1.000000  1.000000
 Range of M.O.s used for correlation:     1   380
 NBasis=   380 NAE=    81 NBE=    81 NFC=     0 NFV=     0
 NROrb=    380 NOA=    81 NOB=    81 NVA=   299 NVB=   299

 **** Warning!!: The largest alpha MO coefficient is  0.10362297D+02

 Symmetrizing basis deriv contribution to polar:
 IMax=3 JMax=2 DiffMx= 0.00D+00
 G2DrvN: will do    33 centers at a time, making    1 passes.
 Calling FoFCou, ICntrl=  3107 FMM=F I1Cent=   0 AccDes= 0.00D+00.
 NEqPCM:  Using equilibrium solvation (IEInf=0, Eps=  78.3553, EpsInf=   1.7778)
 G2PCM: DoFxE=T DoFxN=T DoGrad=T DoDP/DQ/DG/TGxP=FFFF NFrqRd=   0 IEInf=0 SqF1=F DoCFld=F IF1Alg=4.
 End of G2Drv F.D. properties file   721 does not exist.
 End of G2Drv F.D. properties file   722 does not exist.
 End of G2Drv F.D. properties file   788 does not exist.
          IDoAtm=11111111111111111111111111111111
 NEqPCM:  Using equilibrium solvation (IEInf=0, Eps=  78.3553, EpsInf=   1.7778)
          Differentiating once with respect to nuclear coordinates.
 CalDSu exits because no D1Ps are significant.
          There are    99 degrees of freedom in the 1st order CPHF.  IDoFFX=6 NUNeed=     0.
     93 vectors produced by pass  0 Test12= 2.45D-14 1.01D-09 XBig12= 1.43D-01 9.11D-02.
 AX will form    93 AO Fock derivatives at one time.
     93 vectors produced by pass  1 Test12= 2.45D-14 1.01D-09 XBig12= 2.21D-02 2.49D-02.
     93 vectors produced by pass  2 Test12= 2.45D-14 1.01D-09 XBig12= 2.22D-04 1.60D-03.
     93 vectors produced by pass  3 Test12= 2.45D-14 1.01D-09 XBig12= 7.30D-07 1.12D-04.
     93 vectors produced by pass  4 Test12= 2.45D-14 1.01D-09 XBig12= 1.26D-09 3.06D-06.
     85 vectors produced by pass  5 Test12= 2.45D-14 1.01D-09 XBig12= 1.53D-12 1.06D-07.
     26 vectors produced by pass  6 Test12= 2.45D-14 1.01D-09 XBig12= 1.51D-15 3.00D-09.
 InvSVY:  IOpt=1 It=  1 EMax= 6.11D-16
 Solved reduced A of dimension   576 with    99 vectors.
 End of Minotr F.D. properties file   721 does not exist.
 End of Minotr F.D. properties file   722 does not exist.
 End of Minotr F.D. properties file   788 does not exist.

 **********************************************************************

            Population analysis using the SCF density.

 **********************************************************************

 Orbital symmetries:
       Occupied  (A) (A) (A) (A) (A) (A) (A) (A) (A) (A) (A) (A)
                 (A) (A) (A) (A) (A) (A) (A) (A) (A) (A) (A) (A)
                 (A) (A) (A) (A) (A) (A) (A) (A) (A) (A) (A) (A)
                 (A) (A) (A) (A) (A) (A) (A) (A) (A) (A) (A) (A)
                 (A) (A) (A) (A) (A) (A) (A) (A) (A) (A) (A) (A)
                 (A) (A) (A) (A) (A) (A) (A) (A) (A) (A) (A) (A)
                 (A) (A) (A) (A) (A) (A) (A) (A) (A)
       Virtual   (A) (A) (A) (A) (A) (A) (A) (A) (A) (A) (A) (A)
                 (A) (A) (A) (A) (A) (A) (A) (A) (A) (A) (A) (A)
                 (A) (A) (A) (A) (A) (A) (A) (A) (A) (A) (A) (A)
                 (A) (A) (A) (A) (A) (A) (A) (A) (A) (A) (A) (A)
                 (A) (A) (A) (A) (A) (A) (A) (A) (A) (A) (A) (A)
                 (A) (A) (A) (A) (A) (A) (A) (A) (A) (A) (A) (A)
                 (A) (A) (A) (A) (A) (A) (A) (A) (A) (A) (A) (A)
                 (A) (A) (A) (A) (A) (A) (A) (A) (A) (A) (A) (A)
                 (A) (A) (A) (A) (A) (A) (A) (A) (A) (A) (A) (A)
                 (A) (A) (A) (A) (A) (A) (A) (A) (A) (A) (A) (A)
                 (A) (A) (A) (A) (A) (A) (A) (A) (A) (A) (A) (A)
                 (A) (A) (A) (A) (A) (A) (A) (A) (A) (A) (A) (A)
                 (A) (A) (A) (A) (A) (A) (A) (A) (A) (A) (A) (A)
                 (A) (A) (A) (A) (A) (A) (A) (A) (A) (A) (A) (A)
                 (A) (A) (A) (A) (A) (A) (A) (A) (A) (A) (A) (A)
                 (A) (A) (A) (A) (A) (A) (A) (A) (A) (A) (A) (A)
                 (A) (A) (A) (A) (A) (A) (A) (A) (A) (A) (A) (A)
                 (A) (A) (A) (A) (A) (A) (A) (A) (A) (A) (A) (A)
                 (A) (A) (A) (A) (A) (A) (A) (A) (A) (A) (A) (A)
                 (A) (A) (A) (A) (A) (A) (A) (A) (A) (A) (A) (A)
                 (A) (A) (A) (A) (A) (A) (A) (A) (A) (A) (A) (A)
                 (A) (A) (A) (A) (A) (A) (A) (A) (A) (A) (A) (A)
                 (A) (A) (A) (A) (A) (A) (A) (A) (A) (A) (A) (A)
                 (A) (A) (A) (A) (A) (A) (A) (A) (A) (A) (A) (A)
                 (A) (A) (A) (A) (A) (A) (A) (A) (A) (A) (A)
 The electronic state is 1-A.
 Alpha  occ. eigenvalues --  -24.72578 -24.72578 -24.72333 -24.72333 -24.72256
 Alpha  occ. eigenvalues --  -24.72256 -14.34269 -14.34269 -10.43685 -10.43685
 Alpha  occ. eigenvalues --  -10.23684 -10.23684 -10.22024 -10.22024 -10.20598
 Alpha  occ. eigenvalues --  -10.20566 -10.19980 -10.19980 -10.19978 -10.19978
 Alpha  occ. eigenvalues --  -10.19350 -10.19350  -1.29784  -1.29717  -1.21113
 Alpha  occ. eigenvalues --   -1.20992  -1.20975  -1.20908  -0.92312  -0.92214
 Alpha  occ. eigenvalues --   -0.87226  -0.84383  -0.77818  -0.77685  -0.76737
 Alpha  occ. eigenvalues --   -0.72211  -0.70098  -0.68760  -0.63131  -0.62993
 Alpha  occ. eigenvalues --   -0.62485  -0.60034  -0.57855  -0.57719  -0.57574
 Alpha  occ. eigenvalues --   -0.57394  -0.56574  -0.54838  -0.51573  -0.51344
 Alpha  occ. eigenvalues --   -0.50327  -0.49105  -0.48088  -0.45944  -0.45703
 Alpha  occ. eigenvalues --   -0.45695  -0.45592  -0.44527  -0.44284  -0.44196
 Alpha  occ. eigenvalues --   -0.43376  -0.42231  -0.41518  -0.41320  -0.40970
 Alpha  occ. eigenvalues --   -0.40590  -0.39984  -0.39765  -0.39713  -0.39581
 Alpha  occ. eigenvalues --   -0.38931  -0.38568  -0.35833  -0.35708  -0.35109
 Alpha  occ. eigenvalues --   -0.31650  -0.31180  -0.26566  -0.26113  -0.21656
 Alpha  occ. eigenvalues --   -0.21018
 Alpha virt. eigenvalues --   -0.03249  -0.01897  -0.00612   0.00472   0.08797
 Alpha virt. eigenvalues --    0.09075   0.10845   0.11725   0.12319   0.12856
 Alpha virt. eigenvalues --    0.12862   0.12989   0.13621   0.13698   0.17016
 Alpha virt. eigenvalues --    0.17395   0.18776   0.19341   0.20934   0.21031
 Alpha virt. eigenvalues --    0.21746   0.21928   0.23889   0.24428   0.26372
 Alpha virt. eigenvalues --    0.27034   0.29766   0.31462   0.32698   0.33920
 Alpha virt. eigenvalues --    0.33940   0.36319   0.38342   0.38673   0.39092
 Alpha virt. eigenvalues --    0.43380   0.45383   0.46412   0.46924   0.48636
 Alpha virt. eigenvalues --    0.50038   0.50757   0.52010   0.52393   0.53192
 Alpha virt. eigenvalues --    0.53632   0.54759   0.54844   0.56015   0.56501
 Alpha virt. eigenvalues --    0.58013   0.58524   0.59520   0.59674   0.60073
 Alpha virt. eigenvalues --    0.60200   0.61093   0.61327   0.62924   0.64196
 Alpha virt. eigenvalues --    0.66237   0.66265   0.67255   0.69341   0.69441
 Alpha virt. eigenvalues --    0.69836   0.73455   0.73687   0.75540   0.77491
 Alpha virt. eigenvalues --    0.78745   0.79036   0.80626   0.80954   0.81220
 Alpha virt. eigenvalues --    0.81289   0.81951   0.84264   0.84757   0.85075
 Alpha virt. eigenvalues --    0.85669   0.86161   0.86916   0.88386   0.88726
 Alpha virt. eigenvalues --    0.91049   0.92154   0.95118   0.95355   0.96507
 Alpha virt. eigenvalues --    0.97409   0.99517   1.01136   1.02450   1.04413
 Alpha virt. eigenvalues --    1.06722   1.07507   1.08837   1.09433   1.10108
 Alpha virt. eigenvalues --    1.10721   1.11383   1.13435   1.14326   1.14984
 Alpha virt. eigenvalues --    1.15736   1.16380   1.16951   1.19430   1.19915
 Alpha virt. eigenvalues --    1.20527   1.23249   1.25256   1.25436   1.26797
 Alpha virt. eigenvalues --    1.28186   1.30660   1.31257   1.34114   1.34156
 Alpha virt. eigenvalues --    1.34942   1.34971   1.36180   1.36692   1.37998
 Alpha virt. eigenvalues --    1.38555   1.39568   1.39801   1.40809   1.40939
 Alpha virt. eigenvalues --    1.41480   1.41627   1.42077   1.42296   1.44868
 Alpha virt. eigenvalues --    1.46772   1.49593   1.52850   1.55882   1.56604
 Alpha virt. eigenvalues --    1.58048   1.61820   1.61974   1.63727   1.65502
 Alpha virt. eigenvalues --    1.66677   1.71186   1.71227   1.73465   1.74812
 Alpha virt. eigenvalues --    1.75450   1.75538   1.76592   1.76682   1.78244
 Alpha virt. eigenvalues --    1.78817   1.80124   1.80911   1.82221   1.83156
 Alpha virt. eigenvalues --    1.84549   1.85103   1.85326   1.85582   1.86457
 Alpha virt. eigenvalues --    1.87843   1.88423   1.88868   1.90695   1.91114
 Alpha virt. eigenvalues --    1.93537   1.94438   1.95595   1.95812   1.96654
 Alpha virt. eigenvalues --    1.97968   1.98462   1.98507   1.98576   2.00523
 Alpha virt. eigenvalues --    2.00695   2.01240   2.02100   2.04181   2.04579
 Alpha virt. eigenvalues --    2.06075   2.06173   2.07098   2.07621   2.08216
 Alpha virt. eigenvalues --    2.09759   2.11513   2.12469   2.15138   2.15844
 Alpha virt. eigenvalues --    2.16141   2.16750   2.16854   2.19442   2.22552
 Alpha virt. eigenvalues --    2.22982   2.24610   2.25881   2.27157   2.27406
 Alpha virt. eigenvalues --    2.27855   2.33192   2.33405   2.33818   2.34088
 Alpha virt. eigenvalues --    2.36330   2.36638   2.38819   2.39516   2.41227
 Alpha virt. eigenvalues --    2.41534   2.43014   2.43715   2.44989   2.45863
 Alpha virt. eigenvalues --    2.46625   2.49647   2.50513   2.51652   2.52471
 Alpha virt. eigenvalues --    2.53124   2.53935   2.54062   2.55068   2.56231
 Alpha virt. eigenvalues --    2.58735   2.62354   2.64147   2.65288   2.65431
 Alpha virt. eigenvalues --    2.66958   2.67251   2.70319   2.73067   2.73934
 Alpha virt. eigenvalues --    2.74415   2.75269   2.76776   2.78474   2.80288
 Alpha virt. eigenvalues --    2.80584   2.83287   2.85610   2.86919   2.90994
 Alpha virt. eigenvalues --    2.96988   2.97757   3.00087   3.01872   3.02194
 Alpha virt. eigenvalues --    3.02654   3.04402   3.04924   3.05868   3.07956
 Alpha virt. eigenvalues --    3.07960   3.15062   3.17858   3.20069   3.20772
 Alpha virt. eigenvalues --    3.27381   3.27501   3.27834   3.28895   3.30859
 Alpha virt. eigenvalues --    3.32813   3.43900   3.43901   3.51859   3.52023
 Alpha virt. eigenvalues --    3.73105   3.78205   4.03790   4.04516   4.09860
 Alpha virt. eigenvalues --    4.10145   4.13485   4.13523   4.19483   4.19959
 Alpha virt. eigenvalues --    4.28345   4.30394   4.31293   4.39678   4.44012
 Alpha virt. eigenvalues --    4.51312   4.54106   4.55157   4.73967   4.86271
 Alpha virt. eigenvalues --    4.90797   5.04029   5.61101   5.93658
          Condensed to atoms (all electrons):
               1          2          3          4          5          6
     1  N    6.818036   0.303441  -0.071327   0.004117   0.000794   0.000001
     2  C    0.303441   4.599608   0.528260  -0.015724  -0.028842   0.000191
     3  C   -0.071327   0.528260   4.957288   0.492473  -0.033247   0.006797
     4  C    0.004117  -0.015724   0.492473   4.915877   0.504176  -0.060899
     5  C    0.000794  -0.028842  -0.033247   0.504176   5.024129   0.311211
     6  C    0.000001   0.000191   0.006797  -0.060899   0.311211   5.024131
     7  C   -0.000000   0.000033  -0.000025  -0.000977  -0.060899   0.504176
     8  C    0.000000  -0.000000   0.000002  -0.000025   0.006797  -0.033247
     9  C   -0.000000   0.000000  -0.000000   0.000033   0.000191  -0.028842
    10  N   -0.000000  -0.000000   0.000000  -0.000000   0.000001   0.000794
    11  C    0.000000  -0.000000   0.000004  -0.000025   0.008270  -0.043621
    12  C    0.000000   0.000033   0.000207  -0.005576  -0.054847   0.473088
    13  C    0.000000  -0.000008  -0.000213   0.002757  -0.011526  -0.025945
    14  F    0.000000   0.000007  -0.000236   0.003281  -0.001661  -0.001594
    15  F    0.000000   0.000000  -0.000000   0.000010  -0.000034   0.002633
    16  F   -0.000000   0.000028  -0.000035  -0.000434   0.005127  -0.005472
    17  C    0.004023  -0.015404  -0.042781  -0.017151   0.473087  -0.054847
    18  C   -0.000084   0.005111  -0.000380   0.006429  -0.025945  -0.011526
    19  F    0.000000  -0.000045  -0.000001   0.000067  -0.001595  -0.001661
    20  F   -0.000001   0.000879  -0.000005  -0.000018   0.002633  -0.000034
    21  F    0.000000  -0.000029  -0.000002   0.000109  -0.005471   0.005127
    22  C   -0.065100   0.469353  -0.045414  -0.058891  -0.043621   0.008270
    23  H    0.345364  -0.024699  -0.009172   0.000008  -0.000008  -0.000000
    24  H    0.344030  -0.023816   0.005457  -0.000178  -0.000003  -0.000000
    25  H   -0.006945  -0.041503   0.363915  -0.030689   0.003810  -0.000213
    26  H   -0.000119   0.003626  -0.033877   0.367925  -0.042462  -0.003652
    27  H    0.000000   0.000001  -0.000061   0.001072  -0.003652  -0.042462
    28  H   -0.000000  -0.000000  -0.000000  -0.000002  -0.000213   0.003810
    29  H   -0.000000   0.000000   0.000000  -0.000000  -0.000000  -0.000008
    30  H   -0.000000   0.000000   0.000000  -0.000000  -0.000000  -0.000003
    31  H    0.000000   0.000000  -0.000000  -0.000003  -0.000154   0.003806
    32  H   -0.007250  -0.035103   0.005376   0.000503   0.003806  -0.000154
               7          8          9         10         11         12
     1  N   -0.000000   0.000000  -0.000000  -0.000000   0.000000   0.000000
     2  C    0.000033  -0.000000   0.000000  -0.000000  -0.000000   0.000033
     3  C   -0.000025   0.000002  -0.000000   0.000000   0.000004   0.000207
     4  C   -0.000977  -0.000025   0.000033  -0.000000  -0.000025  -0.005576
     5  C   -0.060899   0.006797   0.000191   0.000001   0.008270  -0.054847
     6  C    0.504176  -0.033247  -0.028842   0.000794  -0.043621   0.473088
     7  C    4.915875   0.492473  -0.015724   0.004117  -0.058891  -0.017151
     8  C    0.492473   4.957287   0.528260  -0.071327  -0.045414  -0.042780
     9  C   -0.015724   0.528260   4.599612   0.303441   0.469353  -0.015404
    10  N    0.004117  -0.071327   0.303441   6.818037  -0.065100   0.004023
    11  C   -0.058891  -0.045414   0.469353  -0.065100   5.121024   0.454631
    12  C   -0.017151  -0.042780  -0.015404   0.004023   0.454631   5.129987
    13  C    0.006429  -0.000380   0.005111  -0.000084  -0.043213   0.274794
    14  F    0.000067  -0.000001  -0.000045   0.000000   0.000647  -0.044249
    15  F   -0.000018  -0.000005   0.000879  -0.000001   0.002803  -0.045049
    16  F    0.000109  -0.000002  -0.000029   0.000000   0.001861  -0.036451
    17  C   -0.005576   0.000207   0.000033   0.000000  -0.000032  -0.000230
    18  C    0.002757  -0.000213  -0.000008   0.000000  -0.000101   0.001000
    19  F    0.003282  -0.000236   0.000007   0.000000  -0.000001   0.000119
    20  F    0.000010  -0.000000   0.000000   0.000000  -0.000000   0.000003
    21  F   -0.000434  -0.000035   0.000028  -0.000000  -0.000238   0.000252
    22  C   -0.000025   0.000004  -0.000000   0.000000   0.000005  -0.000032
    23  H   -0.000000   0.000000   0.000000  -0.000000  -0.000000   0.000000
    24  H   -0.000000   0.000000   0.000000  -0.000000  -0.000000   0.000000
    25  H   -0.000002  -0.000000  -0.000000  -0.000000  -0.000000  -0.000004
    26  H    0.001072  -0.000061   0.000001   0.000000  -0.000149   0.001579
    27  H    0.367925  -0.033877   0.003626  -0.000119   0.000737   0.004861
    28  H   -0.030689   0.363915  -0.041503  -0.006945   0.005055   0.000843
    29  H    0.000008  -0.009172  -0.024700   0.345364   0.005358  -0.000131
    30  H   -0.000178   0.005457  -0.023816   0.344030  -0.009061  -0.000024
    31  H    0.000503   0.005376  -0.035103  -0.007250   0.361475  -0.039067
    32  H   -0.000003  -0.000000   0.000000   0.000000  -0.000000  -0.000001
              13         14         15         16         17         18
     1  N    0.000000   0.000000   0.000000  -0.000000   0.004023  -0.000084
     2  C   -0.000008   0.000007   0.000000   0.000028  -0.015404   0.005111
     3  C   -0.000213  -0.000236  -0.000000  -0.000035  -0.042781  -0.000380
     4  C    0.002757   0.003281   0.000010  -0.000434  -0.017151   0.006429
     5  C   -0.011526  -0.001661  -0.000034   0.005127   0.473087  -0.025945
     6  C   -0.025945  -0.001594   0.002633  -0.005472  -0.054847  -0.011526
     7  C    0.006429   0.000067  -0.000018   0.000109  -0.005576   0.002757
     8  C   -0.000380  -0.000001  -0.000005  -0.000002   0.000207  -0.000213
     9  C    0.005111  -0.000045   0.000879  -0.000029   0.000033  -0.000008
    10  N   -0.000084   0.000000  -0.000001   0.000000   0.000000   0.000000
    11  C   -0.043213   0.000647   0.002803   0.001861  -0.000032  -0.000101
    12  C    0.274794  -0.044249  -0.045049  -0.036451  -0.000230   0.001000
    13  C    4.177691   0.270680   0.282250   0.265578   0.001000  -0.000265
    14  F    0.270680   9.124937  -0.039744  -0.037655   0.000119   0.000000
    15  F    0.282250  -0.039744   9.108031  -0.038879   0.000003  -0.000002
    16  F    0.265578  -0.037655  -0.038879   9.123028   0.000252  -0.000593
    17  C    0.001000   0.000119   0.000003   0.000252   5.129984   0.274795
    18  C   -0.000265   0.000000  -0.000002  -0.000593   0.274795   4.177690
    19  F    0.000000   0.000000   0.000000   0.000000  -0.044248   0.270679
    20  F   -0.000002   0.000000   0.000000  -0.000000  -0.045049   0.282250
    21  F   -0.000593   0.000000  -0.000000   0.001422  -0.036453   0.265579
    22  C   -0.000101  -0.000001  -0.000000  -0.000238   0.454634  -0.043214
    23  H   -0.000000  -0.000000   0.000000   0.000000  -0.000131   0.000001
    24  H   -0.000000   0.000000  -0.000000  -0.000000  -0.000024  -0.000002
    25  H   -0.000000  -0.000004  -0.000000  -0.000000   0.000843   0.000008
    26  H    0.000056   0.001655   0.000002   0.000028   0.004861  -0.000080
    27  H   -0.000080   0.000000   0.000000   0.000001   0.001579   0.000056
    28  H    0.000008  -0.000000  -0.000000  -0.000000  -0.000004  -0.000000
    29  H    0.000001  -0.000000  -0.000000  -0.000000   0.000000  -0.000000
    30  H   -0.000002  -0.000000  -0.000002   0.000000   0.000000  -0.000000
    31  H   -0.006930   0.000203   0.009980   0.000170  -0.000001   0.000000
    32  H    0.000000  -0.000000  -0.000000  -0.000000  -0.039067  -0.006930
              19         20         21         22         23         24
     1  N    0.000000  -0.000001   0.000000  -0.065100   0.345364   0.344030
     2  C   -0.000045   0.000879  -0.000029   0.469353  -0.024699  -0.023816
     3  C   -0.000001  -0.000005  -0.000002  -0.045414  -0.009172   0.005457
     4  C    0.000067  -0.000018   0.000109  -0.058891   0.000008  -0.000178
     5  C   -0.001595   0.002633  -0.005471  -0.043621  -0.000008  -0.000003
     6  C   -0.001661  -0.000034   0.005127   0.008270  -0.000000  -0.000000
     7  C    0.003282   0.000010  -0.000434  -0.000025  -0.000000  -0.000000
     8  C   -0.000236  -0.000000  -0.000035   0.000004   0.000000   0.000000
     9  C    0.000007   0.000000   0.000028  -0.000000   0.000000   0.000000
    10  N    0.000000   0.000000  -0.000000   0.000000  -0.000000  -0.000000
    11  C   -0.000001  -0.000000  -0.000238   0.000005  -0.000000  -0.000000
    12  C    0.000119   0.000003   0.000252  -0.000032   0.000000   0.000000
    13  C    0.000000  -0.000002  -0.000593  -0.000101  -0.000000  -0.000000
    14  F    0.000000   0.000000   0.000000  -0.000001  -0.000000   0.000000
    15  F    0.000000   0.000000  -0.000000  -0.000000   0.000000  -0.000000
    16  F    0.000000  -0.000000   0.001422  -0.000238   0.000000  -0.000000
    17  C   -0.044248  -0.045049  -0.036453   0.454634  -0.000131  -0.000024
    18  C    0.270679   0.282250   0.265579  -0.043214   0.000001  -0.000002
    19  F    9.124936  -0.039744  -0.037655   0.000647  -0.000000  -0.000000
    20  F   -0.039744   9.108030  -0.038879   0.002803  -0.000000  -0.000002
    21  F   -0.037655  -0.038879   9.123029   0.001861  -0.000000   0.000000
    22  C    0.000647   0.002803   0.001861   5.121024   0.005358  -0.009061
    23  H   -0.000000  -0.000000  -0.000000   0.005358   0.423414  -0.027701
    24  H   -0.000000  -0.000002   0.000000  -0.009061  -0.027701   0.424272
    25  H   -0.000000  -0.000000  -0.000000   0.005055   0.004326  -0.000047
    26  H    0.000000   0.000000   0.000001   0.000737  -0.000005   0.000003
    27  H    0.001655   0.000002   0.000028  -0.000149   0.000000   0.000000
    28  H   -0.000004  -0.000000  -0.000000  -0.000000  -0.000000  -0.000000
    29  H   -0.000000   0.000000   0.000000  -0.000000  -0.000000  -0.000000
    30  H    0.000000  -0.000000  -0.000000  -0.000000  -0.000000  -0.000000
    31  H   -0.000000  -0.000000  -0.000000  -0.000000   0.000000   0.000000
    32  H    0.000203   0.009980   0.000170   0.361475  -0.000062   0.004331
              25         26         27         28         29         30
     1  N   -0.006945  -0.000119   0.000000  -0.000000  -0.000000  -0.000000
     2  C   -0.041503   0.003626   0.000001  -0.000000   0.000000   0.000000
     3  C    0.363915  -0.033877  -0.000061  -0.000000   0.000000   0.000000
     4  C   -0.030689   0.367925   0.001072  -0.000002  -0.000000  -0.000000
     5  C    0.003810  -0.042462  -0.003652  -0.000213  -0.000000  -0.000000
     6  C   -0.000213  -0.003652  -0.042462   0.003810  -0.000008  -0.000003
     7  C   -0.000002   0.001072   0.367925  -0.030689   0.000008  -0.000178
     8  C   -0.000000  -0.000061  -0.033877   0.363915  -0.009172   0.005457
     9  C   -0.000000   0.000001   0.003626  -0.041503  -0.024700  -0.023816
    10  N   -0.000000   0.000000  -0.000119  -0.006945   0.345364   0.344030
    11  C   -0.000000  -0.000149   0.000737   0.005055   0.005358  -0.009061
    12  C   -0.000004   0.001579   0.004861   0.000843  -0.000131  -0.000024
    13  C   -0.000000   0.000056  -0.000080   0.000008   0.000001  -0.000002
    14  F   -0.000004   0.001655   0.000000  -0.000000  -0.000000  -0.000000
    15  F   -0.000000   0.000002   0.000000  -0.000000  -0.000000  -0.000002
    16  F   -0.000000   0.000028   0.000001  -0.000000  -0.000000   0.000000
    17  C    0.000843   0.004861   0.001579  -0.000004   0.000000   0.000000
    18  C    0.000008  -0.000080   0.000056  -0.000000  -0.000000  -0.000000
    19  F   -0.000000   0.000000   0.001655  -0.000004  -0.000000   0.000000
    20  F   -0.000000   0.000000   0.000002  -0.000000   0.000000  -0.000000
    21  F   -0.000000   0.000001   0.000028  -0.000000   0.000000  -0.000000
    22  C    0.005055   0.000737  -0.000149  -0.000000  -0.000000  -0.000000
    23  H    0.004326  -0.000005   0.000000  -0.000000  -0.000000  -0.000000
    24  H   -0.000047   0.000003   0.000000  -0.000000  -0.000000  -0.000000
    25  H    0.599043  -0.005866   0.000000   0.000000  -0.000000  -0.000000
    26  H   -0.005866   0.593324   0.000132   0.000000   0.000000   0.000000
    27  H    0.000000   0.000132   0.593324  -0.005866  -0.000005   0.000003
    28  H    0.000000   0.000000  -0.005866   0.599042   0.004326  -0.000047
    29  H   -0.000000   0.000000  -0.000005   0.004326   0.423416  -0.027701
    30  H   -0.000000   0.000000   0.000003  -0.000047  -0.027701   0.424274
    31  H    0.000000   0.000001   0.000016  -0.000182  -0.000062   0.004331
    32  H   -0.000182   0.000016   0.000001   0.000000   0.000000   0.000000
              31         32
     1  N    0.000000  -0.007250
     2  C    0.000000  -0.035103
     3  C   -0.000000   0.005376
     4  C   -0.000003   0.000503
     5  C   -0.000154   0.003806
     6  C    0.003806  -0.000154
     7  C    0.000503  -0.000003
     8  C    0.005376  -0.000000
     9  C   -0.035103   0.000000
    10  N   -0.007250   0.000000
    11  C    0.361475  -0.000000
    12  C   -0.039067  -0.000001
    13  C   -0.006930   0.000000
    14  F    0.000203  -0.000000
    15  F    0.009980  -0.000000
    16  F    0.000170  -0.000000
    17  C   -0.000001  -0.039067
    18  C    0.000000  -0.006930
    19  F   -0.000000   0.000203
    20  F   -0.000000   0.009980
    21  F   -0.000000   0.000170
    22  C   -0.000000   0.361475
    23  H    0.000000  -0.000062
    24  H    0.000000   0.004331
    25  H    0.000000  -0.000182
    26  H    0.000001   0.000016
    27  H    0.000016   0.000001
    28  H   -0.000182   0.000000
    29  H   -0.000062   0.000000
    30  H    0.004331   0.000000
    31  H    0.589281   0.000000
    32  H    0.000000   0.589281
 Mulliken charges:
               1
     1  N   -0.668981
     2  C    0.274602
     3  C   -0.123003
     4  C   -0.108244
     5  C   -0.029852
     6  C   -0.029853
     7  C   -0.108242
     8  C   -0.123002
     9  C    0.274599
    10  N   -0.668980
    11  C   -0.165379
    12  C   -0.044421
    13  C    0.802986
    14  F   -0.276406
    15  F   -0.282855
    16  F   -0.277816
    17  C   -0.044422
    18  C    0.802987
    19  F   -0.276405
    20  F   -0.282856
    21  F   -0.277816
    22  C   -0.165380
    23  H    0.283307
    24  H    0.282740
    25  H    0.108458
    26  H    0.111253
    27  H    0.111253
    28  H    0.108459
    29  H    0.283306
    30  H    0.282739
    31  H    0.113613
    32  H    0.113613
 Sum of Mulliken charges =  -0.00000
 Mulliken charges with hydrogens summed into heavy atoms:
               1
     1  N   -0.102935
     2  C    0.274602
     3  C   -0.014545
     4  C    0.003009
     5  C   -0.029852
     6  C   -0.029853
     7  C    0.003011
     8  C   -0.014544
     9  C    0.274599
    10  N   -0.102934
    11  C   -0.051766
    12  C   -0.044421
    13  C    0.802986
    14  F   -0.276406
    15  F   -0.282855
    16  F   -0.277816
    17  C   -0.044422
    18  C    0.802987
    19  F   -0.276405
    20  F   -0.282856
    21  F   -0.277816
    22  C   -0.051767
 APT charges:
               1
     1  N   -1.507159
     2  C    0.241244
     3  C   -0.401952
     4  C   -0.558341
     5  C   -0.473980
     6  C   -0.473982
     7  C   -0.558341
     8  C   -0.401951
     9  C    0.241250
    10  N   -1.507151
    11  C   -0.467916
    12  C   -0.488914
    13  C    0.025120
    14  F    0.004106
    15  F    0.242910
    16  F   -0.172828
    17  C   -0.488921
    18  C    0.025124
    19  F    0.004097
    20  F    0.242917
    21  F   -0.172826
    22  C   -0.467913
    23  H    0.964490
    24  H    0.828871
    25  H    0.718733
    26  H    0.428798
    27  H    0.428799
    28  H    0.718732
    29  H    0.964482
    30  H    0.828862
    31  H    0.616820
    32  H    0.616820
 Sum of APT charges =  -0.00000
 APT charges with hydrogens summed into heavy atoms:
               1
     1  N    0.286202
     2  C    0.241244
     3  C    0.316781
     4  C   -0.129543
     5  C   -0.473980
     6  C   -0.473982
     7  C   -0.129541
     8  C    0.316782
     9  C    0.241250
    10  N    0.286193
    11  C    0.148904
    12  C   -0.488914
    13  C    0.025120
    14  F    0.004106
    15  F    0.242910
    16  F   -0.172828
    17  C   -0.488921
    18  C    0.025124
    19  F    0.004097
    20  F    0.242917
    21  F   -0.172826
    22  C    0.148907
 Electronic spatial extent (au):  <R**2>=           6022.3210
 Charge=             -0.0000 electrons
 Dipole moment (field-independent basis, Debye):
    X=              0.0001    Y=              0.0000    Z=             -5.7994  Tot=              5.7994
 Quadrupole moment (field-independent basis, Debye-Ang):
   XX=            -72.7717   YY=           -126.5617   ZZ=           -116.9909
   XY=              2.8038   XZ=              0.0002   YZ=              0.0000
 Traceless Quadrupole moment (field-independent basis, Debye-Ang):
   XX=             32.6697   YY=            -21.1203   ZZ=            -11.5495
   XY=              2.8038   XZ=              0.0002   YZ=              0.0000
 Octapole moment (field-independent basis, Debye-Ang**2):
  XXX=              0.0031  YYY=              0.0000  ZZZ=             34.4481  XYY=              0.0005
  XXY=              0.0016  XXZ=            -73.5022  XZZ=             -0.0003  YZZ=             -0.0000
  YYZ=             -9.0773  XYZ=            -29.9770
 Hexadecapole moment (field-independent basis, Debye-Ang**3):
 XXXX=          -2965.4796 YYYY=          -1646.5775 ZZZZ=          -1039.1870 XXXY=            -77.3681
 XXXZ=              0.0036 YYYX=            -35.7744 YYYZ=              0.0001 ZZZX=              0.0013
 ZZZY=              0.0000 XXYY=          -1025.3680 XXZZ=           -803.0845 YYZZ=           -408.2605
 XXYZ=             -0.0010 YYXZ=             -0.0006 ZZXY=             55.2114
 N-N= 1.948595980208D+03 E-N=-6.832591929040D+03  KE= 1.237878947966D+03
  Exact polarizability:   0.000   0.000   0.000   0.000   0.000   0.000
 Approx polarizability: 355.044  22.972 222.396  -0.000   0.000 190.308
 D2PCM: PCM CHGder 2nd derivatives, FixD1E=F FixD2E=F DoIter=F DoCFld=F I1PDM=0
 Calling FoFJK, ICntrl=    100147 FMM=F ISym2X=0 I1Cent= 0 IOpClX= 0 NMat=1 NMatS=1 NMatT=0.
 ***** Axes restored to original set *****
 -------------------------------------------------------------------
 Center     Atomic                   Forces (Hartrees/Bohr)
 Number     Number              X              Y              Z
 -------------------------------------------------------------------
      1        7          -0.001174438   -0.001126692   -0.004823216
      2        6           0.011348128    0.000012486    0.014205081
      3        6          -0.013787683    0.010202387   -0.004700359
      4        6           0.009320816   -0.003062053    0.000902066
      5        6           0.008263869    0.001490851    0.001333008
      6        6          -0.008236939   -0.002011458   -0.000632743
      7        6          -0.009144745   -0.000323858    0.003652686
      8        6           0.013149790    0.002062214   -0.011794588
      9        6          -0.010618776   -0.014013668    0.004626670
     10        7           0.000973358    0.004984154   -0.000362946
     11        6           0.012959911    0.008057901    0.014645080
     12        6          -0.016034603   -0.002219314   -0.006394165
     13        6           0.001666635    0.001305788    0.011571659
     14        9          -0.000857489   -0.003750433   -0.003528719
     15        9           0.000613249   -0.001363850   -0.009558087
     16        9          -0.004569768    0.003296332   -0.005310606
     17        6           0.015768035    0.007351090   -0.000508987
     18        6          -0.001135044   -0.011508952    0.002152082
     19        9           0.000818920    0.004489942    0.002532689
     20        9          -0.001037359    0.009515335   -0.001404955
     21        9           0.004173936    0.004298314   -0.004903702
     22        6          -0.012504673   -0.016817185   -0.002864116
     23        1           0.000444118   -0.003625916    0.000370108
     24        1           0.000062980    0.003543762   -0.000102848
     25        1           0.001010959   -0.000817186   -0.001216186
     26        1          -0.000203617   -0.004183918    0.000491001
     27        1           0.000382585    0.000745279    0.004133414
     28        1          -0.001039527    0.001362086    0.000483158
     29        1          -0.000290946    0.000675821    0.003596725
     30        1          -0.000199000   -0.000927589   -0.003416956
     31        1           0.002336225    0.000337141   -0.002304888
     32        1          -0.002458906    0.002021187   -0.000867362
 -------------------------------------------------------------------
 Cartesian Forces:  Max     0.016817185 RMS     0.006405535
 FormGI is forming the generalized inverse of G from B-inverse, IUseBI=4.

 GradGradGradGradGradGradGradGradGradGradGradGradGradGradGradGradGradGrad
 Berny optimization.
 Internal  Forces:  Max     0.018956948 RMS     0.003979844
 Search for a local minimum.
 Step number   1 out of a maximum of  169
 All quantities printed in internal units (Hartrees-Bohrs-Radians)
 Mixed Optimization -- RFO/linear search
 Second derivative matrix not updated -- analytic derivatives used.
 ITU=  0
     Eigenvalues ---    0.00341   0.00398   0.00562   0.00566   0.00661
     Eigenvalues ---    0.01299   0.01570   0.01581   0.01713   0.01715
     Eigenvalues ---    0.01737   0.01765   0.01900   0.02055   0.02101
     Eigenvalues ---    0.02152   0.02196   0.02317   0.02392   0.02550
     Eigenvalues ---    0.02622   0.02626   0.02851   0.02878   0.04888
     Eigenvalues ---    0.11469   0.11470   0.11894   0.11915   0.11925
     Eigenvalues ---    0.12346   0.12434   0.12549   0.12629   0.13017
     Eigenvalues ---    0.13431   0.13433   0.15266   0.15300   0.17825
     Eigenvalues ---    0.18002   0.18123   0.18151   0.19079   0.19128
     Eigenvalues ---    0.19265   0.19420   0.21310   0.21315   0.23281
     Eigenvalues ---    0.23365   0.23574   0.24094   0.24151   0.24377
     Eigenvalues ---    0.27260   0.28140   0.32499   0.32503   0.32921
     Eigenvalues ---    0.33088   0.33609   0.34399   0.35080   0.35099
     Eigenvalues ---    0.35338   0.35538   0.35893   0.35928   0.36761
     Eigenvalues ---    0.38027   0.38059   0.39228   0.40774   0.42192
     Eigenvalues ---    0.42524   0.45542   0.45560   0.45891   0.45974
     Eigenvalues ---    0.46059   0.46354   0.46799   0.47436   0.48717
     Eigenvalues ---    0.49357   0.50687   0.51283   0.51457   0.52110
 RFO step:  Lambda=-9.49479451D-03 EMin= 3.40876513D-03
 Linear search not attempted -- first point.
 Iteration  1 RMS(Cart)=  0.04507196 RMS(Int)=  0.00073482
 Iteration  2 RMS(Cart)=  0.00119192 RMS(Int)=  0.00029189
 Iteration  3 RMS(Cart)=  0.00000075 RMS(Int)=  0.00029189
 Variable       Old X    -DE/DX   Delta X   Delta X   Delta X     New X
                                 (Linear)    (Quad)   (Total)
    R1        2.63950  -0.00107   0.00000  -0.01368  -0.01368   2.62582
    R2        1.91857  -0.00303   0.00000  -0.00675  -0.00675   1.91182
    R3        1.91840  -0.00282   0.00000  -0.00650  -0.00650   1.91190
    R4        2.63041   0.01075   0.00000   0.02298   0.02298   2.65340
    R5        2.63736   0.00615   0.00000   0.01795   0.01798   2.65534
    R6        2.64039  -0.00446   0.00000  -0.01236  -0.01240   2.62800
    R7        2.05425  -0.00029   0.00000  -0.00112  -0.00112   2.05313
    R8        2.65551  -0.00269   0.00000  -0.00627  -0.00631   2.64920
    R9        2.05860  -0.00340   0.00000  -0.00795  -0.00795   2.05064
   R10        2.78214   0.01896   0.00000   0.04489   0.04489   2.82703
   R11        2.66732  -0.00105   0.00000  -0.00225  -0.00225   2.66507
   R12        2.65551  -0.00269   0.00000  -0.00627  -0.00631   2.64920
   R13        2.66732  -0.00105   0.00000  -0.00225  -0.00225   2.66507
   R14        2.64039  -0.00446   0.00000  -0.01236  -0.01240   2.62800
   R15        2.05860  -0.00340   0.00000  -0.00795  -0.00795   2.05064
   R16        2.63041   0.01075   0.00000   0.02298   0.02298   2.65340
   R17        2.05425  -0.00029   0.00000  -0.00112  -0.00112   2.05313
   R18        2.63950  -0.00107   0.00000  -0.01368  -0.01368   2.62582
   R19        2.63736   0.00615   0.00000   0.01795   0.01798   2.65534
   R20        1.91857  -0.00303   0.00000  -0.00675  -0.00675   1.91182
   R21        1.91840  -0.00282   0.00000  -0.00650  -0.00650   1.91190
   R22        2.66727  -0.01320   0.00000  -0.03363  -0.03360   2.63367
   R23        2.05883  -0.00313   0.00000  -0.01027  -0.01027   2.04856
   R24        2.85645  -0.00746   0.00000  -0.00709  -0.00709   2.84936
   R25        2.57595  -0.00381   0.00000  -0.00787  -0.00787   2.56808
   R26        2.58018  -0.00773   0.00000  -0.02196  -0.02196   2.55821
   R27        2.57253  -0.00677   0.00000  -0.01573  -0.01573   2.55680
   R28        2.85646  -0.00746   0.00000  -0.00709  -0.00709   2.84936
   R29        2.66727  -0.01320   0.00000  -0.03363  -0.03360   2.63367
   R30        2.57595  -0.00381   0.00000  -0.00787  -0.00787   2.56808
   R31        2.58018  -0.00773   0.00000  -0.02196  -0.02196   2.55821
   R32        2.57253  -0.00676   0.00000  -0.01573  -0.01573   2.55680
   R33        2.05883  -0.00313   0.00000  -0.01027  -0.01027   2.04856
    A1        1.99531   0.00131   0.00000   0.01496   0.01486   2.01017
    A2        1.99930   0.00155   0.00000   0.01426   0.01416   2.01346
    A3        1.96135  -0.00245   0.00000  -0.01254  -0.01269   1.94867
    A4        2.10129   0.00301   0.00000   0.01500   0.01367   2.11497
    A5        2.09946   0.00105   0.00000   0.00802   0.00667   2.10612
    A6        2.06748  -0.00349   0.00000  -0.00758  -0.00891   2.05857
    A7        2.10634  -0.00127   0.00000  -0.00319  -0.00322   2.10313
    A8        2.09985  -0.00066   0.00000  -0.01049  -0.01048   2.08937
    A9        2.07699   0.00193   0.00000   0.01368   0.01369   2.09069
   A10        2.11503   0.00384   0.00000   0.01866   0.01856   2.13359
   A11        2.07053   0.00063   0.00000   0.00693   0.00693   2.07747
   A12        2.09751  -0.00446   0.00000  -0.02539  -0.02539   2.07213
   A13        2.07446   0.00268   0.00000   0.01142   0.01129   2.08575
   A14        2.06857  -0.00583   0.00000  -0.02769  -0.02786   2.04071
   A15        2.14015   0.00315   0.00000   0.01640   0.01627   2.15642
   A16        2.07445   0.00268   0.00000   0.01142   0.01130   2.08575
   A17        2.14015   0.00315   0.00000   0.01639   0.01627   2.15642
   A18        2.06857  -0.00583   0.00000  -0.02769  -0.02786   2.04071
   A19        2.11503   0.00384   0.00000   0.01866   0.01856   2.13359
   A20        2.09751  -0.00446   0.00000  -0.02539  -0.02539   2.07213
   A21        2.07053   0.00063   0.00000   0.00693   0.00693   2.07747
   A22        2.10634  -0.00127   0.00000  -0.00319  -0.00322   2.10313
   A23        2.07699   0.00193   0.00000   0.01368   0.01369   2.09069
   A24        2.09985  -0.00066   0.00000  -0.01049  -0.01048   2.08937
   A25        2.10129   0.00301   0.00000   0.01500   0.01367   2.11497
   A26        2.06748  -0.00349   0.00000  -0.00759  -0.00891   2.05857
   A27        2.09946   0.00105   0.00000   0.00802   0.00667   2.10612
   A28        1.99530   0.00131   0.00000   0.01497   0.01487   2.01017
   A29        1.99929   0.00155   0.00000   0.01427   0.01417   2.01345
   A30        1.96134  -0.00245   0.00000  -0.01253  -0.01268   1.94866
   A31        2.12458  -0.00288   0.00000  -0.01102  -0.01095   2.11363
   A32        2.07631   0.00226   0.00000   0.00745   0.00741   2.08372
   A33        2.08230   0.00061   0.00000   0.00357   0.00353   2.08583
   A34        2.08122   0.00977   0.00000   0.03519   0.03522   2.11644
   A35        2.12541  -0.00327   0.00000  -0.01782  -0.01785   2.10756
   A36        2.07653  -0.00650   0.00000  -0.01741  -0.01744   2.05909
   A37        1.96110  -0.00259   0.00000  -0.00614  -0.00621   1.95490
   A38        1.97727  -0.00775   0.00000  -0.01602  -0.01609   1.96118
   A39        1.98409  -0.00376   0.00000  -0.01728  -0.01739   1.96669
   A40        1.83620   0.00642   0.00000   0.01865   0.01864   1.85484
   A41        1.85449   0.00284   0.00000   0.00546   0.00535   1.85984
   A42        1.83839   0.00658   0.00000   0.02031   0.02021   1.85860
   A43        2.12541  -0.00327   0.00000  -0.01782  -0.01785   2.10756
   A44        2.08122   0.00977   0.00000   0.03519   0.03522   2.11644
   A45        2.07653  -0.00650   0.00000  -0.01741  -0.01744   2.05909
   A46        1.96111  -0.00259   0.00000  -0.00614  -0.00621   1.95490
   A47        1.97727  -0.00775   0.00000  -0.01602  -0.01609   1.96118
   A48        1.98409  -0.00376   0.00000  -0.01728  -0.01739   1.96669
   A49        1.83620   0.00642   0.00000   0.01865   0.01864   1.85484
   A50        1.85449   0.00284   0.00000   0.00546   0.00535   1.85984
   A51        1.83839   0.00658   0.00000   0.02031   0.02021   1.85860
   A52        2.12458  -0.00288   0.00000  -0.01102  -0.01095   2.11363
   A53        2.07631   0.00226   0.00000   0.00745   0.00741   2.08371
   A54        2.08230   0.00061   0.00000   0.00357   0.00353   2.08583
    D1       -0.51129   0.00119   0.00000   0.05417   0.05458  -0.45671
    D2        2.81809  -0.00197   0.00000  -0.04094  -0.04124   2.77685
    D3       -2.81063   0.00194   0.00000   0.04327   0.04358  -2.76705
    D4        0.51874  -0.00121   0.00000  -0.05184  -0.05224   0.46650
    D5       -3.04304  -0.00149   0.00000  -0.03492  -0.03489  -3.07793
    D6        0.09984  -0.00145   0.00000  -0.03327  -0.03322   0.06662
    D7       -0.08584   0.00208   0.00000   0.06007   0.05997  -0.02587
    D8        3.05704   0.00211   0.00000   0.06173   0.06164   3.11868
    D9        3.03794   0.00179   0.00000   0.03890   0.03861   3.07654
   D10       -0.10238   0.00173   0.00000   0.04169   0.04143  -0.06094
   D11        0.08054  -0.00198   0.00000  -0.05676  -0.05653   0.02401
   D12       -3.05978  -0.00204   0.00000  -0.05397  -0.05370  -3.11348
   D13        0.04092  -0.00092   0.00000  -0.02936  -0.02943   0.01149
   D14       -3.11637  -0.00052   0.00000  -0.01547  -0.01537  -3.13174
   D15       -3.10194  -0.00096   0.00000  -0.03102  -0.03112  -3.13306
   D16        0.02396  -0.00056   0.00000  -0.01713  -0.01706   0.00690
   D17       -3.13412   0.00065   0.00000   0.02357   0.02341  -3.11071
   D18        0.01192  -0.00035   0.00000  -0.00661  -0.00647   0.00545
   D19        0.02341   0.00019   0.00000   0.00917   0.00911   0.03252
   D20       -3.11374  -0.00081   0.00000  -0.02101  -0.02077  -3.13451
   D21        1.72458  -0.00005   0.00000   0.00088   0.00040   1.72498
   D22       -1.42165   0.00097   0.00000   0.03225   0.03225  -1.38940
   D23       -1.42165   0.00097   0.00000   0.03225   0.03225  -1.38940
   D24        1.71531   0.00199   0.00000   0.06361   0.06410   1.77941
   D25        3.13181   0.00086   0.00000   0.01698   0.01698  -3.13440
   D26       -0.01770   0.00042   0.00000   0.01033   0.01026  -0.00743
   D27       -0.00517  -0.00017   0.00000  -0.01438  -0.01421  -0.01937
   D28        3.12852  -0.00061   0.00000  -0.02103  -0.02092   3.10760
   D29       -3.13412   0.00065   0.00000   0.02358   0.02342  -3.11070
   D30        0.02340   0.00019   0.00000   0.00918   0.00911   0.03252
   D31        0.01191  -0.00035   0.00000  -0.00661  -0.00646   0.00545
   D32       -3.11375  -0.00081   0.00000  -0.02100  -0.02077  -3.13452
   D33        3.12852  -0.00061   0.00000  -0.02104  -0.02093   3.10759
   D34       -0.00516  -0.00017   0.00000  -0.01439  -0.01421  -0.01937
   D35       -0.01769   0.00042   0.00000   0.01033   0.01026  -0.00743
   D36        3.13182   0.00086   0.00000   0.01698   0.01697  -3.13439
   D37        0.04093  -0.00092   0.00000  -0.02937  -0.02944   0.01149
   D38       -3.10194  -0.00096   0.00000  -0.03102  -0.03112  -3.13306
[...]
   112    C    8  py     Val( 2p)     1.15133
   113    C    8  py     Ryd( 3p)     0.00396
   114    C    8  pz     Val( 2p)     1.13400
   115    C    8  pz     Ryd( 3p)     0.00422
   116    C    8  dxy    Ryd( 3d)     0.00060
   117    C    8  dxz    Ryd( 3d)     0.00053
   118    C    8  dyz    Ryd( 3d)     0.00047
   119    C    8  dx2y2  Ryd( 3d)     0.00045
   120    C    8  dz2    Ryd( 3d)     0.00036

   121    C    9  S      Cor( 1S)     1.99898
   122    C    9  S      Val( 2S)     0.84668
   123    C    9  S      Ryd( 3S)     0.00120
   124    C    9  S      Ryd( 4S)     0.00010
   125    C    9  px     Val( 2p)     0.91240
   126    C    9  px     Ryd( 3p)     0.00564
   127    C    9  py     Val( 2p)     1.02836
   128    C    9  py     Ryd( 3p)     0.00352
   129    C    9  pz     Val( 2p)     1.00546
   130    C    9  pz     Ryd( 3p)     0.00256
   131    C    9  dxy    Ryd( 3d)     0.00121
   132    C    9  dxz    Ryd( 3d)     0.00122
   133    C    9  dyz    Ryd( 3d)     0.00046
   134    C    9  dx2y2  Ryd( 3d)     0.00109
   135    C    9  dz2    Ryd( 3d)     0.00096

   136    N   10  S      Cor( 1S)     1.99948
   137    N   10  S      Val( 2S)     1.36066
   138    N   10  S      Ryd( 3S)     0.00011
   139    N   10  S      Ryd( 4S)     0.00001
   140    N   10  px     Val( 2p)     1.31613
   141    N   10  px     Ryd( 3p)     0.00215
   142    N   10  py     Val( 2p)     1.51857
   143    N   10  py     Ryd( 3p)     0.00265
   144    N   10  pz     Val( 2p)     1.54821
   145    N   10  pz     Ryd( 3p)     0.00266
   146    N   10  dxy    Ryd( 3d)     0.00076
   147    N   10  dxz    Ryd( 3d)     0.00048
   148    N   10  dyz    Ryd( 3d)     0.00063
   149    N   10  dx2y2  Ryd( 3d)     0.00046
   150    N   10  dz2    Ryd( 3d)     0.00077

   151    C   11  S      Cor( 1S)     1.99901
   152    C   11  S      Val( 2S)     0.94474
   153    C   11  S      Ryd( 3S)     0.00070
   154    C   11  S      Ryd( 4S)     0.00005
   155    C   11  px     Val( 2p)     1.11948
   156    C   11  px     Ryd( 3p)     0.00418
   157    C   11  py     Val( 2p)     1.09515
   158    C   11  py     Ryd( 3p)     0.00400
   159    C   11  pz     Val( 2p)     1.09822
   160    C   11  pz     Ryd( 3p)     0.00386
   161    C   11  dxy    Ryd( 3d)     0.00059
   162    C   11  dxz    Ryd( 3d)     0.00062
   163    C   11  dyz    Ryd( 3d)     0.00046
   164    C   11  dx2y2  Ryd( 3d)     0.00051
   165    C   11  dz2    Ryd( 3d)     0.00039

   166    C   12  S      Cor( 1S)     1.99879
   167    C   12  S      Val( 2S)     0.88751
   168    C   12  S      Ryd( 3S)     0.00098
   169    C   12  S      Ryd( 4S)     0.00007
   170    C   12  px     Val( 2p)     1.09663
   171    C   12  px     Ryd( 3p)     0.00420
   172    C   12  py     Val( 2p)     1.10176
   173    C   12  py     Ryd( 3p)     0.00501
   174    C   12  pz     Val( 2p)     1.11024
   175    C   12  pz     Ryd( 3p)     0.00453
   176    C   12  dxy    Ryd( 3d)     0.00066
   177    C   12  dxz    Ryd( 3d)     0.00072
   178    C   12  dyz    Ryd( 3d)     0.00066
   179    C   12  dx2y2  Ryd( 3d)     0.00060
   180    C   12  dz2    Ryd( 3d)     0.00042

   181    C   13  S      Cor( 1S)     1.99905
   182    C   13  S      Val( 2S)     0.79802
   183    C   13  S      Ryd( 3S)     0.00517
   184    C   13  S      Ryd( 4S)     0.00034
   185    C   13  px     Val( 2p)     0.58557
   186    C   13  px     Ryd( 3p)     0.01712
   187    C   13  py     Val( 2p)     0.75164
   188    C   13  py     Ryd( 3p)     0.01494
   189    C   13  pz     Val( 2p)     0.68480
   190    C   13  pz     Ryd( 3p)     0.01570
   191    C   13  dxy    Ryd( 3d)     0.00329
   192    C   13  dxz    Ryd( 3d)     0.00393
   193    C   13  dyz    Ryd( 3d)     0.00325
   194    C   13  dx2y2  Ryd( 3d)     0.00328
   195    C   13  dz2    Ryd( 3d)     0.00321

   196    F   14  S      Cor( 1S)     1.99993
   197    F   14  S      Val( 2S)     1.84758
   198    F   14  S      Ryd( 3S)     0.00095
   199    F   14  S      Ryd( 4S)     0.00003
   200    F   14  px     Val( 2p)     1.89355
   201    F   14  px     Ryd( 3p)     0.00023
   202    F   14  py     Val( 2p)     1.76905
   203    F   14  py     Ryd( 3p)     0.00034
   204    F   14  pz     Val( 2p)     1.86103
   205    F   14  pz     Ryd( 3p)     0.00030
   206    F   14  dxy    Ryd( 3d)     0.00084
   207    F   14  dxz    Ryd( 3d)     0.00058
   208    F   14  dyz    Ryd( 3d)     0.00106
   209    F   14  dx2y2  Ryd( 3d)     0.00094
   210    F   14  dz2    Ryd( 3d)     0.00079

   211    F   15  S      Cor( 1S)     1.99993
   212    F   15  S      Val( 2S)     1.84148
   213    F   15  S      Ryd( 3S)     0.00073
   214    F   15  S      Ryd( 4S)     0.00004
   215    F   15  px     Val( 2p)     1.77990
   216    F   15  px     Ryd( 3p)     0.00017
   217    F   15  py     Val( 2p)     1.89950
   218    F   15  py     Ryd( 3p)     0.00032
   219    F   15  pz     Val( 2p)     1.84580
   220    F   15  pz     Ryd( 3p)     0.00026
   221    F   15  dxy    Ryd( 3d)     0.00088
   222    F   15  dxz    Ryd( 3d)     0.00103
   223    F   15  dyz    Ryd( 3d)     0.00060
   224    F   15  dx2y2  Ryd( 3d)     0.00090
   225    F   15  dz2    Ryd( 3d)     0.00090

   226    F   16  S      Cor( 1S)     1.99993
   227    F   16  S      Val( 2S)     1.84402
   228    F   16  S      Ryd( 3S)     0.00089
   229    F   16  S      Ryd( 4S)     0.00005
   230    F   16  px     Val( 2p)     1.78239
   231    F   16  px     Ryd( 3p)     0.00027
   232    F   16  py     Val( 2p)     1.92585
   233    F   16  py     Ryd( 3p)     0.00044
   234    F   16  pz     Val( 2p)     1.81257
   235    F   16  pz     Ryd( 3p)     0.00023
   236    F   16  dxy    Ryd( 3d)     0.00081
   237    F   16  dxz    Ryd( 3d)     0.00106
   238    F   16  dyz    Ryd( 3d)     0.00066
   239    F   16  dx2y2  Ryd( 3d)     0.00077
   240    F   16  dz2    Ryd( 3d)     0.00104

   241    C   17  S      Cor( 1S)     1.99879
   242    C   17  S      Val( 2S)     0.88751
   243    C   17  S      Ryd( 3S)     0.00098
   244    C   17  S      Ryd( 4S)     0.00007
   245    C   17  px     Val( 2p)     1.09663
   246    C   17  px     Ryd( 3p)     0.00420
   247    C   17  py     Val( 2p)     1.10176
   248    C   17  py     Ryd( 3p)     0.00501
   249    C   17  pz     Val( 2p)     1.11024
   250    C   17  pz     Ryd( 3p)     0.00453
   251    C   17  dxy    Ryd( 3d)     0.00066
   252    C   17  dxz    Ryd( 3d)     0.00072
   253    C   17  dyz    Ryd( 3d)     0.00066
   254    C   17  dx2y2  Ryd( 3d)     0.00060
   255    C   17  dz2    Ryd( 3d)     0.00042

   256    C   18  S      Cor( 1S)     1.99905
   257    C   18  S      Val( 2S)     0.79802
   258    C   18  S      Ryd( 3S)     0.00517
   259    C   18  S      Ryd( 4S)     0.00034
   260    C   18  px     Val( 2p)     0.58557
   261    C   18  px     Ryd( 3p)     0.01712
   262    C   18  py     Val( 2p)     0.75164
   263    C   18  py     Ryd( 3p)     0.01494
   264    C   18  pz     Val( 2p)     0.68480
   265    C   18  pz     Ryd( 3p)     0.01570
   266    C   18  dxy    Ryd( 3d)     0.00329
   267    C   18  dxz    Ryd( 3d)     0.00393
   268    C   18  dyz    Ryd( 3d)     0.00325
   269    C   18  dx2y2  Ryd( 3d)     0.00328
   270    C   18  dz2    Ryd( 3d)     0.00321

   271    F   19  S      Cor( 1S)     1.99993
   272    F   19  S      Val( 2S)     1.84758
   273    F   19  S      Ryd( 3S)     0.00095
   274    F   19  S      Ryd( 4S)     0.00003
   275    F   19  px     Val( 2p)     1.89355
   276    F   19  px     Ryd( 3p)     0.00023
   277    F   19  py     Val( 2p)     1.76905
   278    F   19  py     Ryd( 3p)     0.00034
   279    F   19  pz     Val( 2p)     1.86103
   280    F   19  pz     Ryd( 3p)     0.00030
   281    F   19  dxy    Ryd( 3d)     0.00084
   282    F   19  dxz    Ryd( 3d)     0.00058
   283    F   19  dyz    Ryd( 3d)     0.00106
   284    F   19  dx2y2  Ryd( 3d)     0.00094
   285    F   19  dz2    Ryd( 3d)     0.00079

   286    F   20  S      Cor( 1S)     1.99993
   287    F   20  S      Val( 2S)     1.84148
   288    F   20  S      Ryd( 3S)     0.00073
   289    F   20  S      Ryd( 4S)     0.00004
   290    F   20  px     Val( 2p)     1.77990
   291    F   20  px     Ryd( 3p)     0.00017
   292    F   20  py     Val( 2p)     1.89950
   293    F   20  py     Ryd( 3p)     0.00032
   294    F   20  pz     Val( 2p)     1.84580
   295    F   20  pz     Ryd( 3p)     0.00026
   296    F   20  dxy    Ryd( 3d)     0.00088
   297    F   20  dxz    Ryd( 3d)     0.00103
   298    F   20  dyz    Ryd( 3d)     0.00060
   299    F   20  dx2y2  Ryd( 3d)     0.00090
   300    F   20  dz2    Ryd( 3d)     0.00090

   301    F   21  S      Cor( 1S)     1.99993
   302    F   21  S      Val( 2S)     1.84402
   303    F   21  S      Ryd( 3S)     0.00089
   304    F   21  S      Ryd( 4S)     0.00005
   305    F   21  px     Val( 2p)     1.78239
   306    F   21  px     Ryd( 3p)     0.00027
   307    F   21  py     Val( 2p)     1.92585
   308    F   21  py     Ryd( 3p)     0.00044
   309    F   21  pz     Val( 2p)     1.81257
   310    F   21  pz     Ryd( 3p)     0.00023
   311    F   21  dxy    Ryd( 3d)     0.00081
   312    F   21  dxz    Ryd( 3d)     0.00106
   313    F   21  dyz    Ryd( 3d)     0.00066
   314    F   21  dx2y2  Ryd( 3d)     0.00077
   315    F   21  dz2    Ryd( 3d)     0.00104

   316    C   22  S      Cor( 1S)     1.99901
   317    C   22  S      Val( 2S)     0.94474
   318    C   22  S      Ryd( 3S)     0.00070
   319    C   22  S      Ryd( 4S)     0.00005
   320    C   22  px     Val( 2p)     1.11948
   321    C   22  px     Ryd( 3p)     0.00418
   322    C   22  py     Val( 2p)     1.09515
   323    C   22  py     Ryd( 3p)     0.00400
   324    C   22  pz     Val( 2p)     1.09822
   325    C   22  pz     Ryd( 3p)     0.00386
   326    C   22  dxy    Ryd( 3d)     0.00059
   327    C   22  dxz    Ryd( 3d)     0.00062
   328    C   22  dyz    Ryd( 3d)     0.00046
   329    C   22  dx2y2  Ryd( 3d)     0.00051
   330    C   22  dz2    Ryd( 3d)     0.00039

   331    H   23  S      Val( 1S)     0.56842
   332    H   23  S      Ryd( 2S)     0.00137
   333    H   23  px     Ryd( 2p)     0.00023
   334    H   23  py     Ryd( 2p)     0.00039
   335    H   23  pz     Ryd( 2p)     0.00059

   336    H   24  S      Val( 1S)     0.56771
   337    H   24  S      Ryd( 2S)     0.00113
   338    H   24  px     Ryd( 2p)     0.00036
   339    H   24  py     Ryd( 2p)     0.00052
   340    H   24  pz     Ryd( 2p)     0.00034

   341    H   25  S      Val( 1S)     0.75141
   342    H   25  S      Ryd( 2S)     0.00093
   343    H   25  px     Ryd( 2p)     0.00009
   344    H   25  py     Ryd( 2p)     0.00030
   345    H   25  pz     Ryd( 2p)     0.00023

   346    H   26  S      Val( 1S)     0.74389
   347    H   26  S      Ryd( 2S)     0.00109
   348    H   26  px     Ryd( 2p)     0.00021
   349    H   26  py     Ryd( 2p)     0.00020
   350    H   26  pz     Ryd( 2p)     0.00019

   351    H   27  S      Val( 1S)     0.74389
   352    H   27  S      Ryd( 2S)     0.00109
   353    H   27  px     Ryd( 2p)     0.00021
   354    H   27  py     Ryd( 2p)     0.00020
   355    H   27  pz     Ryd( 2p)     0.00019

   356    H   28  S      Val( 1S)     0.75141
   357    H   28  S      Ryd( 2S)     0.00093
   358    H   28  px     Ryd( 2p)     0.00009
   359    H   28  py     Ryd( 2p)     0.00030
   360    H   28  pz     Ryd( 2p)     0.00023

   361    H   29  S      Val( 1S)     0.56842
   362    H   29  S      Ryd( 2S)     0.00137
   363    H   29  px     Ryd( 2p)     0.00023
   364    H   29  py     Ryd( 2p)     0.00039
   365    H   29  pz     Ryd( 2p)     0.00059

   366    H   30  S      Val( 1S)     0.56771
   367    H   30  S      Ryd( 2S)     0.00113
   368    H   30  px     Ryd( 2p)     0.00036
   369    H   30  py     Ryd( 2p)     0.00052
   370    H   30  pz     Ryd( 2p)     0.00034

   371    H   31  S      Val( 1S)     0.74339
   372    H   31  S      Ryd( 2S)     0.00167
   373    H   31  px     Ryd( 2p)     0.00020
   374    H   31  py     Ryd( 2p)     0.00021
   375    H   31  pz     Ryd( 2p)     0.00022

   376    H   32  S      Val( 1S)     0.74339
   377    H   32  S      Ryd( 2S)     0.00167
   378    H   32  px     Ryd( 2p)     0.00020
   379    H   32  py     Ryd( 2p)     0.00021
   380    H   32  pz     Ryd( 2p)     0.00022

 WARNING:  1 low occupancy (<1.9990e) core orbital  found on  C    2
           1 low occupancy (<1.9990e) core orbital  found on  C    5
           1 low occupancy (<1.9990e) core orbital  found on  C    6
           1 low occupancy (<1.9990e) core orbital  found on  C    9
           1 low occupancy (<1.9990e) core orbital  found on  C   12
           1 low occupancy (<1.9990e) core orbital  found on  C   17


 Summary of Natural Population Analysis:                  
                                                          
                                       Natural Population 
                Natural  -----------------------------------------------
    Atom  No    Charge         Core      Valence    Rydberg      Total
 -----------------------------------------------------------------------
      N    1   -0.75373      1.99948     5.74357    0.01069     7.75373
      C    2    0.19015      1.99898     3.79289    0.01798     5.80985
      C    3   -0.32696      1.99904     4.31213    0.01579     6.32696
      C    4   -0.21323      1.99905     4.19870    0.01549     6.21323
      C    5   -0.01625      1.99897     3.99813    0.01915     6.01625
      C    6   -0.01625      1.99897     3.99813    0.01915     6.01625
      C    7   -0.21323      1.99905     4.19870    0.01549     6.21323
      C    8   -0.32696      1.99904     4.31213    0.01579     6.32696
      C    9    0.19015      1.99898     3.79289    0.01798     5.80985
      N   10   -0.75373      1.99948     5.74357    0.01069     7.75373
      C   11   -0.27196      1.99901     4.25758    0.01537     6.27196
      C   12   -0.21280      1.99879     4.19615    0.01786     6.21280
      C   13    1.11070      1.99905     2.82003    0.07022     4.88930
      F   14   -0.37719      1.99993     7.37122    0.00604     9.37719
      F   15   -0.37245      1.99993     7.36669    0.00583     9.37245
      F   16   -0.37099      1.99993     7.36482    0.00624     9.37099
      C   17   -0.21280      1.99879     4.19615    0.01786     6.21280
      C   18    1.11070      1.99905     2.82003    0.07022     4.88930
      F   19   -0.37719      1.99993     7.37122    0.00604     9.37719
      F   20   -0.37245      1.99993     7.36669    0.00583     9.37245
      F   21   -0.37099      1.99993     7.36482    0.00624     9.37099
      C   22   -0.27196      1.99901     4.25758    0.01537     6.27196
      H   23    0.42899      0.00000     0.56842    0.00259     0.57101
      H   24    0.42995      0.00000     0.56771    0.00234     0.57005
      H   25    0.24705      0.00000     0.75141    0.00154     0.75295
      H   26    0.25442      0.00000     0.74389    0.00169     0.74558
      H   27    0.25442      0.00000     0.74389    0.00169     0.74558
      H   28    0.24705      0.00000     0.75141    0.00154     0.75295
      H   29    0.42899      0.00000     0.56842    0.00259     0.57101
      H   30    0.42995      0.00000     0.56771    0.00234     0.57005
      H   31    0.25431      0.00000     0.74339    0.00230     0.74569
      H   32    0.25431      0.00000     0.74339    0.00230     0.74569
 =======================================================================
   * Total *    0.00000     43.98429   117.59344    0.42227   162.00000

                                 Natural Population      
 --------------------------------------------------------
   Core                      43.98429 ( 99.9643% of  44)
   Valence                  117.59344 ( 99.6555% of 118)
   Natural Minimal Basis    161.57773 ( 99.7393% of 162)
   Natural Rydberg Basis      0.42227 (  0.2607% of 162)
 --------------------------------------------------------

    Atom  No          Natural Electron Configuration
 ----------------------------------------------------------------------------
      N    1      [core]2S( 1.36)2p( 4.38)3p( 0.01)
      C    2      [core]2S( 0.85)2p( 2.95)3p( 0.01)
      C    3      [core]2S( 0.95)2p( 3.36)3p( 0.01)
      C    4      [core]2S( 0.95)2p( 3.25)3p( 0.01)
      C    5      [core]2S( 0.87)2p( 3.13)3p( 0.01)
      C    6      [core]2S( 0.87)2p( 3.13)3p( 0.01)
      C    7      [core]2S( 0.95)2p( 3.25)3p( 0.01)
      C    8      [core]2S( 0.95)2p( 3.36)3p( 0.01)
      C    9      [core]2S( 0.85)2p( 2.95)3p( 0.01)
      N   10      [core]2S( 1.36)2p( 4.38)3p( 0.01)
      C   11      [core]2S( 0.94)2p( 3.31)3p( 0.01)
      C   12      [core]2S( 0.89)2p( 3.31)3p( 0.01)
      C   13      [core]2S( 0.80)2p( 2.02)3S( 0.01)3p( 0.05)3d( 0.02)
      F   14      [core]2S( 1.85)2p( 5.52)
      F   15      [core]2S( 1.84)2p( 5.53)
      F   16      [core]2S( 1.84)2p( 5.52)
      C   17      [core]2S( 0.89)2p( 3.31)3p( 0.01)
      C   18      [core]2S( 0.80)2p( 2.02)3S( 0.01)3p( 0.05)3d( 0.02)
      F   19      [core]2S( 1.85)2p( 5.52)
      F   20      [core]2S( 1.84)2p( 5.53)
      F   21      [core]2S( 1.84)2p( 5.52)
      C   22      [core]2S( 0.94)2p( 3.31)3p( 0.01)
      H   23            1S( 0.57)
      H   24            1S( 0.57)
      H   25            1S( 0.75)
      H   26            1S( 0.74)
      H   27            1S( 0.74)
      H   28            1S( 0.75)
      H   29            1S( 0.57)
      H   30            1S( 0.57)
      H   31            1S( 0.74)
      H   32            1S( 0.74)


 NBO analysis skipped by request.
 1\1\GINC-DRG2-W004\SP\RB3LYP TD-FC\6-31G(d,p)\C14H10F6N2\QDUEZ\21-Jul-
 2024\0\\# TD(NStates=10, Root=1) B3LYP/6-31G** SCRF=(Solvent=water) vo
 lume pop=NPA density=current Geom=AllCheck Guess=Read\\NVKGJHAQGWCWDI-
 UHFFFAOYSA-N_conf_0\\0,1\N,0,4.9636250968,0.5606217166,-0.4188798765\C
 ,0,3.5802266845,0.4417838662,-0.429244694\C,0,2.7515103369,1.576236938
 3,-0.4574133887\C,0,1.3687568399,1.4416546463,-0.4020235978\C,0,0.7403
 134864,0.1908799292,-0.3193749136\C,0,-0.7562640737,0.1156633034,-0.31
 7400341\C,0,-1.4339061441,-0.1895942276,-1.5064454654\C,0,-2.821735220
 7,-0.2266323361,-1.5822497619\C,0,-3.6054639581,0.0432340958,-0.447573
 8579\N,0,-4.9900806271,-0.0521910191,-0.4894280624\C,0,-2.9420311482,0
 .3497014786,0.7533043702\C,0,-1.5497441878,0.3847453394,0.8172144505\C
 ,0,-0.910311739,0.7306446682,2.1386741802\F,0,-0.2958983349,1.94225687
 86,2.108653162\F,0,-1.8099207894,0.7872482439,3.1488717252\F,0,0.02989
 01051,-0.1689827135,2.5107764394\C,0,1.5787884203,-0.9429273154,-0.290
 9587421\C,0,0.9935686258,-2.3307026399,-0.2111247739\F,0,0.3339989245,
 -2.6744851943,-1.3483101595\F,0,1.939638911,-3.2802130071,-0.020387859
 2\F,0,0.1069989288,-2.4617961999,0.8030634103\C,0,2.9665095131,-0.8201
 350456,-0.3450677083\H,0,5.3289373061,1.4183788486,-0.8109903346\H,0,5
 .475096801,-0.2496411288,-0.7427720081\H,0,3.1963732212,2.5651353357,-
 0.5250168541\H,0,0.7513063795,2.3335403299,-0.4277296013\H,0,-0.851935
 7168,-0.3996130062,-2.3978311714\H,0,-3.3057086343,-0.4638916947,-2.52
 55794956\H,0,-5.4059569613,0.0618108524,-1.4043058517\H,0,-5.486700857
 6,0.4726523679,0.2183452516\H,0,-3.5230904727,0.5556094897,1.644820761
 8\H,0,3.5832092848,-1.7109928004,-0.3153460531\\Version=ES64L-G16RevA.
 03\State=1-A\HF=-1248.1172366\RMSD=2.372e-09\Dipole=-0.076076,1.46209,
 -1.9664693\Quadrupole=35.9889052,-19.2012609,-16.7876444,-0.7600635,-2
 .5017463,-3.7862483\PG=C01 [X(C14H10F6N2)]\\@


 IF YOU GIVE A BOY AND A PIG EVERYTHING THEY WANT,
 YOU'LL GET A BAD BOY AND A GOOD PIG.
 Job cpu time:       0 days  1 hours 16 minutes 49.5 seconds.
 Elapsed time:       0 days  0 hours 25 minutes 41.2 seconds.
 File lengths (MBytes):  RWF=   1286 Int=      0 D2E=      0 Chk=     74 Scr=      1
 Normal termination of Gaussian 16 at Sun Jul 21 13:20:37 2024.
