 Entering Gaussian System, Link 0=g16
 Initial command:
 /opt/sw/arch/manual/gaussian/G16_A03/g16/l1.exe "/scratch/1381507/Gau-34599.inp" -scrdir="/scratch/1381507/"
 Entering Link 1 = /opt/sw/arch/manual/gaussian/G16_A03/g16/l1.exe PID=     34601.
  
 Copyright (c) 1988,1990,1992,1993,1995,1998,2003,2009,2016,
            Gaussian, Inc.  All Rights Reserved.
  
 This is part of the Gaussian(R) 16 program.  It is based on
 the Gaussian(R) 09 system (copyright 2009, Gaussian, Inc.),
 the Gaussian(R) 03 system (copyright 2003, Gaussian, Inc.),
 the Gaussian(R) 98 system (copyright 1998, Gaussian, Inc.),
 the Gaussian(R) 94 system (copyright 1995, Gaussian, Inc.),
 the Gaussian 92(TM) system (copyright 1992, Gaussian, Inc.),
 the Gaussian 90(TM) system (copyright 1990, Gaussian, Inc.),
 the Gaussian 88(TM) system (copyright 1988, Gaussian, Inc.),
 the Gaussian 86(TM) system (copyright 1986, Carnegie Mellon
 University), and the Gaussian 82(TM) system (copyright 1983,
 Carnegie Mellon University). Gaussian is a federally registered
 trademark of Gaussian, Inc.
  
 This software contains proprietary and confidential information,
 including trade secrets, belonging to Gaussian, Inc.
  
 This software is provided under written license and may be
 used, copied, transmitted, or stored only in accord with that
 written license.
  
 The following legend is applicable only to US Government
 contracts under FAR:
  
                    RESTRICTED RIGHTS LEGEND
  
 Use, reproduction and disclosure by the US Government is
 subject to restrictions as set forth in subparagraphs (a)
 and (c) of the Commercial Computer Software - Restricted
 Rights clause in FAR 52.227-19.
  
 Gaussian, Inc.
 340 Quinnipiac St., Bldg. 40, Wallingford CT 06492
  
  
 ---------------------------------------------------------------
 Warning -- This program may not be used in any manner that
 competes with the business of Gaussian, Inc. or will provide
 assistance to any competitor of Gaussian, Inc.  The licensee
 of this program is prohibited from giving any competitor of
 Gaussian, Inc. access to this program.  By using this program,
 the user acknowledges that Gaussian, Inc. is engaged in the
 business of creating and licensing software in the field of
 computational chemistry and represents and warrants to the
 licensee that it is not a competitor of Gaussian, Inc. and that
 it will not use this program in any manner prohibited above.
 ---------------------------------------------------------------
  

 Cite this work as:
 Gaussian 16, Revision A.03,
 M. J. Frisch, G. W. Trucks, H. B. Schlegel, G. E. Scuseria, 
 M. A. Robb, J. R. Cheeseman, G. Scalmani, V. Barone, 
 G. A. Petersson, H. Nakatsuji, X. Li, M. Caricato, A. V. Marenich, 
 J. Bloino, B. G. Janesko, R. Gomperts, B. Mennucci, H. P. Hratchian, 
 J. V. Ortiz, A. F. Izmaylov, J. L. Sonnenberg, D. Williams-Young, 
 F. Ding, F. Lipparini, F. Egidi, J. Goings, B. Peng, A. Petrone, 
 T. Henderson, D. Ranasinghe, V. G. Zakrzewski, J. Gao, N. Rega, 
 G. Zheng, W. Liang, M. Hada, M. Ehara, K. Toyota, R. Fukuda, 
 J. Hasegawa, M. Ishida, T. Nakajima, Y. Honda, O. Kitao, H. Nakai, 
 T. Vreven, K. Throssell, J. A. Montgomery, Jr., J. E. Peralta, 
 F. Ogliaro, M. J. Bearpark, J. J. Heyd, E. N. Brothers, K. N. Kudin, 
 V. N. Staroverov, T. A. Keith, R. Kobayashi, J. Normand, 
 K. Raghavachari, A. P. Rendell, J. C. Burant, S. S. Iyengar, 
 J. Tomasi, M. Cossi, J. M. Millam, M. Klene, C. Adamo, R. Cammi, 
 J. W. Ochterski, R. L. Martin, K. Morokuma, O. Farkas, 
 J. B. Foresman, and D. J. Fox, Gaussian, Inc., Wallingford CT, 2016.
 
 ******************************************
 Gaussian 16:  ES64L-G16RevA.03 25-Dec-2016
                21-Jul-2024 
 ******************************************
 %nprocshared=5
 Will use up to    5 processors via shared memory.
 %mem=10GB
 %Chk=NVKGJHAQGWCWDI-UHFFFAOYSA-N_conf_1_0.chk
 -------------------------------------------------------
 # opt=CalcFc B3LYP/6-31G** SCRF=(Solvent=water) scf=xqc
 -------------------------------------------------------
 1/10=4,18=20,19=15,26=3,38=1/1,3;
 2/9=110,12=2,17=6,18=5,40=1/2;
 3/5=1,6=6,7=101,11=2,25=1,30=1,70=2201,71=2,72=1,74=-5,140=1/1,2,3;
 4//1;
 5/5=2,8=3,13=1,38=5,53=1/2,8;
 8/6=4,10=90,11=11/1;
 11/6=1,8=1,9=11,15=111,16=1/1,2,10;
 10/6=1,13=1/2;
 6/7=2,8=2,9=2,10=2,28=1/1;
 7/10=1,18=20,25=1/1,2,3,16;
 1/10=4,18=20,19=15,26=3/3(2);
 2/9=110/2;
 99//99;
 2/9=110/2;
 3/5=1,6=6,7=101,11=2,25=1,30=1,70=2205,71=1,72=1,74=-5/1,2,3;
 4/5=5,16=3,69=1/1;
 5/5=2,8=3,13=1,38=5,53=1/2,8;
 7//1,2,3,16;
 1/18=20,19=15,26=3/3(-5);
 2/9=110/2;
 6/7=2,8=2,9=2,10=2,19=2,28=1/1;
 99/9=1/99;
 ----------------------------------
 NVKGJHAQGWCWDI-UHFFFAOYSA-N_conf_1
 ----------------------------------
 Symbolic Z-matrix:
 Charge =  0 Multiplicity = 1
 N                    -4.78849   0.91868  -1.04927 
 C                    -3.4298    0.70042  -0.80473 
 C                    -2.51313   0.72608  -1.85212 
 C                    -1.17453   0.38938  -1.63618 
 C                    -0.72337  -0.02061  -0.37025 
 C                     0.69635  -0.36877  -0.19968 
 C                     1.08252  -1.71562  -0.30501 
 C                     2.41793  -2.09822  -0.15626 
 C                     3.39825  -1.15506   0.1393 
 N                     4.74663  -1.52198   0.16625 
 C                     3.03493   0.19184   0.18094 
 C                     1.69236   0.60227   0.03846 
 C                     1.36406   2.07541   0.11269 
 F                     0.34219   2.36252   0.96647 
 F                     2.41175   2.84116   0.53725 
 F                     1.00611   2.59341  -1.09591 
 C                    -1.65814  -0.10913   0.68332 
 C                    -1.26111  -0.59153   2.05922 
 F                    -0.1746    0.05292   2.56892 
 F                    -2.24443  -0.42954   2.99255 
 F                    -0.9594   -1.92031   2.0811 
 C                    -3.00551   0.23218   0.4397 
 H                    -5.32088   1.1901   -0.22817 
 H                    -4.97251   1.52753  -1.84113 
 H                    -2.83011   1.01135  -2.85205 
 H                    -0.48073   0.44005  -2.47461 
 H                     0.33897  -2.48336  -0.51615 
 H                     2.68198  -3.14627  -0.27279 
 H                     5.34234  -0.88065   0.68116 
 H                     4.90582  -2.48858   0.43448 
 H                     3.80961   0.94321   0.33002 
 H                    -3.73507   0.13113   1.24247 
 

 GradGradGradGradGradGradGradGradGradGradGradGradGradGradGradGradGradGrad
 Berny optimization.
 Initialization pass.
                           ----------------------------
                           !    Initial Parameters    !
                           ! (Angstroms and Degrees)  !
 --------------------------                            --------------------------
 ! Name  Definition              Value          Derivative Info.                !
 --------------------------------------------------------------------------------
 ! R1    R(1,2)                  1.3977         calculate D2E/DX2 analytically  !
 ! R2    R(1,23)                 1.0155         calculate D2E/DX2 analytically  !
 ! R3    R(1,24)                 1.0157         calculate D2E/DX2 analytically  !
 ! R4    R(2,3)                  1.3921         calculate D2E/DX2 analytically  !
 ! R5    R(2,22)                 1.3957         calculate D2E/DX2 analytically  !
 ! R6    R(3,4)                  1.3971         calculate D2E/DX2 analytically  !
 ! R7    R(3,25)                 1.0871         calculate D2E/DX2 analytically  !
 ! R8    R(4,5)                  1.4051         calculate D2E/DX2 analytically  !
 ! R9    R(4,26)                 1.0894         calculate D2E/DX2 analytically  !
 ! R10   R(5,6)                  1.4717         calculate D2E/DX2 analytically  !
 ! R11   R(5,17)                 1.4113         calculate D2E/DX2 analytically  !
 ! R12   R(6,7)                  1.4051         calculate D2E/DX2 analytically  !
 ! R13   R(6,12)                 1.4113         calculate D2E/DX2 analytically  !
 ! R14   R(7,8)                  1.3971         calculate D2E/DX2 analytically  !
 ! R15   R(7,27)                 1.0894         calculate D2E/DX2 analytically  !
 ! R16   R(8,9)                  1.3921         calculate D2E/DX2 analytically  !
 ! R17   R(8,28)                 1.0871         calculate D2E/DX2 analytically  !
 ! R18   R(9,10)                 1.3977         calculate D2E/DX2 analytically  !
 ! R19   R(9,11)                 1.3957         calculate D2E/DX2 analytically  !
 ! R20   R(10,29)                1.0155         calculate D2E/DX2 analytically  !
 ! R21   R(10,30)                1.0157         calculate D2E/DX2 analytically  !
 ! R22   R(11,12)                1.4111         calculate D2E/DX2 analytically  !
 ! R23   R(11,31)                1.0894         calculate D2E/DX2 analytically  !
 ! R24   R(12,13)                1.5111         calculate D2E/DX2 analytically  !
 ! R25   R(13,14)                1.3622         calculate D2E/DX2 analytically  !
 ! R26   R(13,15)                1.3654         calculate D2E/DX2 analytically  !
 ! R27   R(13,16)                1.3628         calculate D2E/DX2 analytically  !
 ! R28   R(17,18)                1.5111         calculate D2E/DX2 analytically  !
 ! R29   R(17,22)                1.4111         calculate D2E/DX2 analytically  !
 ! R30   R(18,19)                1.3622         calculate D2E/DX2 analytically  !
 ! R31   R(18,20)                1.3654         calculate D2E/DX2 analytically  !
 ! R32   R(18,21)                1.3628         calculate D2E/DX2 analytically  !
 ! R33   R(22,32)                1.0894         calculate D2E/DX2 analytically  !
 ! A1    A(2,1,23)             114.1984         calculate D2E/DX2 analytically  !
 ! A2    A(2,1,24)             113.9627         calculate D2E/DX2 analytically  !
 ! A3    A(23,1,24)            112.0351         calculate D2E/DX2 analytically  !
 ! A4    A(1,2,3)              120.3711         calculate D2E/DX2 analytically  !
 ! A5    A(1,2,22)             120.2595         calculate D2E/DX2 analytically  !
 ! A6    A(3,2,22)             118.4802         calculate D2E/DX2 analytically  !
 ! A7    A(2,3,4)              120.6759         calculate D2E/DX2 analytically  !
 ! A8    A(2,3,25)             120.3246         calculate D2E/DX2 analytically  !
 ! A9    A(4,3,25)             118.9994         calculate D2E/DX2 analytically  !
 ! A10   A(3,4,5)              121.1469         calculate D2E/DX2 analytically  !
 ! A11   A(3,4,26)             118.6868         calculate D2E/DX2 analytically  !
 ! A12   A(5,4,26)             120.1633         calculate D2E/DX2 analytically  !
 ! A13   A(4,5,6)              118.8954         calculate D2E/DX2 analytically  !
 ! A14   A(4,5,17)             118.5704         calculate D2E/DX2 analytically  !
 ! A15   A(6,5,17)             122.5206         calculate D2E/DX2 analytically  !
 ! A16   A(5,6,7)              118.8953         calculate D2E/DX2 analytically  !
 ! A17   A(5,6,12)             122.5207         calculate D2E/DX2 analytically  !
 ! A18   A(7,6,12)             118.5704         calculate D2E/DX2 analytically  !
 ! A19   A(6,7,8)              121.1469         calculate D2E/DX2 analytically  !
 ! A20   A(6,7,27)             120.1633         calculate D2E/DX2 analytically  !
 ! A21   A(8,7,27)             118.6868         calculate D2E/DX2 analytically  !
 ! A22   A(7,8,9)              120.6759         calculate D2E/DX2 analytically  !
 ! A23   A(7,8,28)             118.9993         calculate D2E/DX2 analytically  !
 ! A24   A(9,8,28)             120.3247         calculate D2E/DX2 analytically  !
 ! A25   A(8,9,10)             120.3711         calculate D2E/DX2 analytically  !
 ! A26   A(8,9,11)             118.4802         calculate D2E/DX2 analytically  !
 ! A27   A(10,9,11)            120.2595         calculate D2E/DX2 analytically  !
 ! A28   A(9,10,29)            114.1981         calculate D2E/DX2 analytically  !
 ! A29   A(9,10,30)            113.9623         calculate D2E/DX2 analytically  !
 ! A30   A(29,10,30)           112.0348         calculate D2E/DX2 analytically  !
 ! A31   A(9,11,12)            121.6917         calculate D2E/DX2 analytically  !
 ! A32   A(9,11,31)            118.9832         calculate D2E/DX2 analytically  !
 ! A33   A(12,11,31)           119.3249         calculate D2E/DX2 analytically  !
 ! A34   A(6,12,11)            119.2348         calculate D2E/DX2 analytically  !
 ! A35   A(6,12,13)            121.7181         calculate D2E/DX2 analytically  !
 ! A36   A(11,12,13)           119.0311         calculate D2E/DX2 analytically  !
 ! A37   A(12,13,14)           113.5305         calculate D2E/DX2 analytically  !
 ! A38   A(12,13,15)           113.2854         calculate D2E/DX2 analytically  !
 ! A39   A(12,13,16)           112.5853         calculate D2E/DX2 analytically  !
 ! A40   A(14,13,15)           105.2197         calculate D2E/DX2 analytically  !
 ! A41   A(14,13,16)           106.1826         calculate D2E/DX2 analytically  !
 ! A42   A(15,13,16)           105.3158         calculate D2E/DX2 analytically  !
 ! A43   A(5,17,18)            121.7181         calculate D2E/DX2 analytically  !
 ! A44   A(5,17,22)            119.2348         calculate D2E/DX2 analytically  !
 ! A45   A(18,17,22)           119.0311         calculate D2E/DX2 analytically  !
 ! A46   A(17,18,19)           113.5304         calculate D2E/DX2 analytically  !
 ! A47   A(17,18,20)           113.2854         calculate D2E/DX2 analytically  !
 ! A48   A(17,18,21)           112.5854         calculate D2E/DX2 analytically  !
 ! A49   A(19,18,20)           105.2197         calculate D2E/DX2 analytically  !
 ! A50   A(19,18,21)           106.1826         calculate D2E/DX2 analytically  !
 ! A51   A(20,18,21)           105.3158         calculate D2E/DX2 analytically  !
 ! A52   A(2,22,17)            121.6918         calculate D2E/DX2 analytically  !
 ! A53   A(2,22,32)            118.9832         calculate D2E/DX2 analytically  !
 ! A54   A(17,22,32)           119.3249         calculate D2E/DX2 analytically  !
 ! D1    D(23,1,2,3)          -160.3998         calculate D2E/DX2 analytically  !
 ! D2    D(23,1,2,22)           30.5562         calculate D2E/DX2 analytically  !
 ! D3    D(24,1,2,3)           -29.8703         calculate D2E/DX2 analytically  !
 ! D4    D(24,1,2,22)          161.0857         calculate D2E/DX2 analytically  !
 ! D5    D(1,2,3,4)           -174.1304         calculate D2E/DX2 analytically  !
 ! D6    D(1,2,3,25)             5.9954         calculate D2E/DX2 analytically  !
 ! D7    D(22,2,3,4)            -4.8943         calculate D2E/DX2 analytically  !
 ! D8    D(22,2,3,25)          175.2315         calculate D2E/DX2 analytically  !
 ! D9    D(1,2,22,17)          174.3957         calculate D2E/DX2 analytically  !
 ! D10   D(1,2,22,32)           -5.7683         calculate D2E/DX2 analytically  !
 ! D11   D(3,2,22,17)            5.1472         calculate D2E/DX2 analytically  !
 ! D12   D(3,2,22,32)         -175.0167         calculate D2E/DX2 analytically  !
 ! D13   D(2,3,4,5)              1.8567         calculate D2E/DX2 analytically  !
 ! D14   D(2,3,4,26)          -178.7693         calculate D2E/DX2 analytically  !
 ! D15   D(25,3,4,5)          -178.2675         calculate D2E/DX2 analytically  !
 ! D16   D(25,3,4,26)            1.1065         calculate D2E/DX2 analytically  !
 ! D17   D(3,4,5,6)            179.7636         calculate D2E/DX2 analytically  !
 ! D18   D(3,4,5,17)             1.0704         calculate D2E/DX2 analytically  !
 ! D19   D(26,4,5,6)             0.3988         calculate D2E/DX2 analytically  !
 ! D20   D(26,4,5,17)         -178.2944         calculate D2E/DX2 analytically  !
 ! D21   D(4,5,6,7)            -95.0084         calculate D2E/DX2 analytically  !
 ! D22   D(4,5,6,12)            83.6305         calculate D2E/DX2 analytically  !
 ! D23   D(17,5,6,7)            83.6305         calculate D2E/DX2 analytically  !
 ! D24   D(17,5,6,12)          -97.7307         calculate D2E/DX2 analytically  !
 ! D25   D(4,5,17,18)          177.6733         calculate D2E/DX2 analytically  !
 ! D26   D(4,5,17,22)           -0.856          calculate D2E/DX2 analytically  !
 ! D27   D(6,5,17,18)           -0.9698         calculate D2E/DX2 analytically  !
 ! D28   D(6,5,17,22)         -179.4991         calculate D2E/DX2 analytically  !
 ! D29   D(5,6,7,8)            179.7638         calculate D2E/DX2 analytically  !
 ! D30   D(5,6,7,27)             0.399          calculate D2E/DX2 analytically  !
 ! D31   D(12,6,7,8)             1.0706         calculate D2E/DX2 analytically  !
 ! D32   D(12,6,7,27)         -178.2942         calculate D2E/DX2 analytically  !
 ! D33   D(5,6,12,11)         -179.4994         calculate D2E/DX2 analytically  !
 ! D34   D(5,6,12,13)           -0.9702         calculate D2E/DX2 analytically  !
 ! D35   D(7,6,12,11)           -0.8563         calculate D2E/DX2 analytically  !
 ! D36   D(7,6,12,13)          177.6729         calculate D2E/DX2 analytically  !
 ! D37   D(6,7,8,9)              1.8568         calculate D2E/DX2 analytically  !
 ! D38   D(6,7,8,28)          -178.2672         calculate D2E/DX2 analytically  !
 ! D39   D(27,7,8,9)          -178.7692         calculate D2E/DX2 analytically  !
 ! D40   D(27,7,8,28)            1.1068         calculate D2E/DX2 analytically  !
 ! D41   D(7,8,9,10)          -174.1303         calculate D2E/DX2 analytically  !
 ! D42   D(7,8,9,11)            -4.8945         calculate D2E/DX2 analytically  !
 ! D43   D(28,8,9,10)            5.9953         calculate D2E/DX2 analytically  !
 ! D44   D(28,8,9,11)          175.2311         calculate D2E/DX2 analytically  !
 ! D45   D(8,9,10,29)         -160.3985         calculate D2E/DX2 analytically  !
 ! D46   D(8,9,10,30)          -29.8702         calculate D2E/DX2 analytically  !
 ! D47   D(11,9,10,29)          30.5578         calculate D2E/DX2 analytically  !
 ! D48   D(11,9,10,30)         161.0862         calculate D2E/DX2 analytically  !
 ! D49   D(8,9,11,12)            5.1473         calculate D2E/DX2 analytically  !
 ! D50   D(8,9,11,31)         -175.0165         calculate D2E/DX2 analytically  !
 ! D51   D(10,9,11,12)         174.3954         calculate D2E/DX2 analytically  !
 ! D52   D(10,9,11,31)          -5.7683         calculate D2E/DX2 analytically  !
 ! D53   D(9,11,12,6)           -2.289          calculate D2E/DX2 analytically  !
 ! D54   D(9,11,12,13)         179.142          calculate D2E/DX2 analytically  !
 ! D55   D(31,11,12,6)         177.8753         calculate D2E/DX2 analytically  !
 ! D56   D(31,11,12,13)         -0.6937         calculate D2E/DX2 analytically  !
 ! D57   D(6,12,13,14)          51.2145         calculate D2E/DX2 analytically  !
 ! D58   D(6,12,13,15)         171.1564         calculate D2E/DX2 analytically  !
 ! D59   D(6,12,13,16)         -69.4727         calculate D2E/DX2 analytically  !
 ! D60   D(11,12,13,14)       -130.2534         calculate D2E/DX2 analytically  !
 ! D61   D(11,12,13,15)        -10.3115         calculate D2E/DX2 analytically  !
 ! D62   D(11,12,13,16)        109.0594         calculate D2E/DX2 analytically  !
 ! D63   D(5,17,18,19)          51.2144         calculate D2E/DX2 analytically  !
 ! D64   D(5,17,18,20)         171.1562         calculate D2E/DX2 analytically  !
 ! D65   D(5,17,18,21)         -69.4728         calculate D2E/DX2 analytically  !
 ! D66   D(22,17,18,19)       -130.2534         calculate D2E/DX2 analytically  !
 ! D67   D(22,17,18,20)        -10.3116         calculate D2E/DX2 analytically  !
 ! D68   D(22,17,18,21)        109.0594         calculate D2E/DX2 analytically  !
 ! D69   D(5,17,22,2)           -2.2891         calculate D2E/DX2 analytically  !
 ! D70   D(5,17,22,32)         177.8754         calculate D2E/DX2 analytically  !
 ! D71   D(18,17,22,2)         179.1417         calculate D2E/DX2 analytically  !
 ! D72   D(18,17,22,32)         -0.6938         calculate D2E/DX2 analytically  !
 --------------------------------------------------------------------------------
 Trust Radius=3.00D-01 FncErr=1.00D-07 GrdErr=1.00D-06 EigMax=2.50D+02 EigMin=1.00D-04
 Number of steps in this run=    169 maximum allowed number of steps=    192.
 GradGradGradGradGradGradGradGradGradGradGradGradGradGradGradGradGradGrad

                          Input orientation:                          
 ---------------------------------------------------------------------
 Center     Atomic      Atomic             Coordinates (Angstroms)
 Number     Number       Type             X           Y           Z
 ---------------------------------------------------------------------
      1          7           0       -4.788493    0.918683   -1.049272
      2          6           0       -3.429797    0.700421   -0.804735
      3          6           0       -2.513132    0.726077   -1.852117
      4          6           0       -1.174532    0.389381   -1.636181
      5          6           0       -0.723369   -0.020605   -0.370255
      6          6           0        0.696354   -0.368775   -0.199677
      7          6           0        1.082516   -1.715619   -0.305005
      8          6           0        2.417930   -2.098224   -0.156256
      9          6           0        3.398253   -1.155060    0.139301
     10          7           0        4.746634   -1.521985    0.166250
     11          6           0        3.034933    0.191845    0.180939
     12          6           0        1.692358    0.602265    0.038464
     13          6           0        1.364063    2.075410    0.112689
     14          9           0        0.342188    2.362518    0.966466
     15          9           0        2.411750    2.841160    0.537250
     16          9           0        1.006112    2.593410   -1.095912
     17          6           0       -1.658143   -0.109132    0.683317
     18          6           0       -1.261106   -0.591526    2.059217
     19          9           0       -0.174602    0.052921    2.568916
     20          9           0       -2.244426   -0.429542    2.992554
     21          9           0       -0.959401   -1.920310    2.081103
     22          6           0       -3.005513    0.232181    0.439701
     23          1           0       -5.320882    1.190099   -0.228170
     24          1           0       -4.972512    1.527533   -1.841132
     25          1           0       -2.830108    1.011352   -2.852046
     26          1           0       -0.480733    0.440054   -2.474605
     27          1           0        0.338966   -2.483364   -0.516146
     28          1           0        2.681983   -3.146273   -0.272788
     29          1           0        5.342343   -0.880649    0.681158
     30          1           0        4.905823   -2.488584    0.434481
     31          1           0        3.809611    0.943208    0.330023
     32          1           0       -3.735071    0.131132    1.242467
 ---------------------------------------------------------------------
                    Distance matrix (angstroms):
                    1          2          3          4          5
     1  N    0.000000
     2  C    1.397673   0.000000
     3  C    2.420522   1.392101   0.000000
     4  C    3.699370   2.423690   1.397084   0.000000
     5  C    4.227122   2.834326   2.440635   1.405064   0.000000
     6  C    5.697623   4.305160   3.772275   2.477611   1.471711
     7  C    6.477826   5.142757   4.613471   3.361148   2.477610
     8  C    7.863316   6.515278   5.930261   4.613473   3.772274
     9  C    8.528536   7.138367   6.515281   5.142761   4.305160
    10  N    9.917309   8.528536   7.863319   6.477830   5.697624
    11  C    7.952843   6.559188   5.932937   4.589176   3.804443
    12  C    6.579113   5.192023   4.612567   3.326983   2.527995
    13  C    6.367269   5.070834   4.551242   3.513645   2.997313
    14  F    5.698399   4.486379   4.333036   3.601039   2.932833
    15  F    7.619480   6.364540   5.868314   4.857617   4.340764
    16  F    6.031943   4.831716   4.055102   3.147196   3.217259
    17  C    3.722548   2.451211   2.803035   2.421253   1.411259
    18  C    4.938208   3.817665   4.313025   3.824348   2.552929
    19  F    5.926957   4.732555   5.046523   4.335424   2.990866
    20  F    4.962494   4.135375   4.987835   4.820840   3.713398
    21  F    5.702725   4.615100   4.988754   4.381683   3.110264
    22  C    2.422260   1.395667   2.395580   2.772452   2.434771
    23  H    1.015536   2.036765   3.276581   4.451501   4.756376
    24  H    1.015679   2.034257   2.586697   3.970144   4.755568
    25  H    2.663429   2.155873   1.087066   2.146184   3.415050
    26  H    4.562615   3.399006   2.144749   1.089441   2.167803
    27  H    6.176487   4.941999   4.496643   3.434795   2.686079
    28  H    8.540188   7.241124   6.669227   5.406699   4.623389
    29  H   10.433879   9.036488   8.408777   7.032261   6.215948
    30  H   10.382233   9.010437   8.402587   7.038539   6.198897
    31  H    8.708068   7.331825   6.692231   5.386498   4.686922
    32  H    2.642348   2.146698   3.379873   3.861303   3.419684
                    6          7          8          9         10
     6  C    0.000000
     7  C    1.405064   0.000000
     8  C    2.440636   1.397084   0.000000
     9  C    2.834327   2.423690   1.392101   0.000000
    10  N    4.227122   3.699370   2.420522   1.397674   0.000000
    11  C    2.434772   2.772452   2.395581   1.395667   2.422261
    12  C    1.411260   2.421253   2.803036   2.451211   3.722548
    13  C    2.552929   3.824348   4.313025   3.817666   4.938209
    14  F    2.990867   4.335427   5.046526   4.732556   5.926960
    15  F    3.713398   4.820839   4.987835   4.135375   4.962495
    16  F    3.110261   4.381678   4.988748   4.615097   5.702722
    17  C    2.527994   3.326980   4.612564   5.192019   6.579110
    18  C    2.997311   3.513645   4.551238   5.070826   6.367262
    19  F    2.932832   3.601042   4.333037   4.486373   5.698395
    20  F    4.340763   4.857617   5.868311   6.364531   7.619472
    21  F    3.217258   3.147195   4.055095   4.831703   6.031929
    22  C    3.804442   4.589172   5.932933   6.559184   7.952840
    23  H    6.215950   7.032254   8.408772   9.036488  10.433880
    24  H    6.198903   7.038542   8.402592   9.010445  10.382241
    25  H    4.623391   5.406700   6.669231   7.241131   8.540194
    26  H    2.686082   3.434798   4.496648   4.942006   6.176494
    27  H    2.167802   1.089440   2.144748   3.399006   4.562615
    28  H    3.415049   2.146183   1.087065   2.155873   2.663429
    29  H    4.756375   4.451497   3.276575   2.036762   1.015535
    30  H    4.755563   3.970138   2.586690   2.034253   1.015679
    31  H    3.419685   3.861304   3.379874   2.146699   2.642349
    32  H    4.686919   5.386492   6.692225   7.331819   8.708063
                   11         12         13         14         15
    11  C    0.000000
    12  C    1.411117   0.000000
    13  C    2.518786   1.511106   0.000000
    14  F    3.546795   2.404712   1.362202   0.000000
    15  F    2.744847   2.403947   1.365384   2.167120   0.000000
    16  F    3.393226   2.392155   1.362781   2.178878   2.168967
    17  C    4.729475   3.485367   3.772475   3.192264   5.028875
    18  C    4.753688   3.772470   4.218178   3.534266   5.252579
    19  F    4.002855   3.192258   3.534261   2.858174   4.311747
    20  F    6.013563   5.028871   5.252580   4.311753   6.197256
    21  F    4.901686   4.191370   5.023835   4.612935   6.034877
    22  C    6.046121   4.729477   4.753696   4.002865   6.013571
    23  H    8.425172   7.042882   6.751922   5.905259   7.943895
    24  H    8.366123   6.986379   6.653553   6.068430   7.868268
    25  H    6.653517   5.382852   5.245278   5.144914   6.504813
    26  H    4.412871   3.326283   3.573759   4.026666   4.816953
    27  H    3.861465   3.414729   4.714730   5.067615   5.810046
    28  H    3.387252   3.889444   5.399211   6.112051   6.048020
    29  H    2.593184   3.991801   4.988803   5.966664   4.739298
    30  H    3.278599   4.476219   5.785988   6.681539   5.885332
    31  H    1.089449   2.164257   2.703668   3.800332   2.366259
    32  H    6.852991   5.579299   5.572951   4.656104   6.754627
                   16         17         18         19         20
    16  F    0.000000
    17  C    4.191377   0.000000
    18  C    5.023837   1.511107   0.000000
    19  F    4.612932   2.404712   1.362202   0.000000
    20  F    6.034881   2.403948   1.365384   2.167120   0.000000
    21  F    5.859209   2.392156   1.362781   2.178879   2.168968
    22  C    4.901698   1.411117   2.518786   3.546794   2.744848
    23  H    6.538586   3.991800   4.988798   5.966662   4.739291
    24  H    6.118446   4.476221   5.785989   6.681537   5.885330
    25  H    4.505940   3.889444   5.399212   6.112048   6.048020
    26  H    2.957777   3.414729   4.714731   5.067613   5.810047
    27  H    5.153140   3.326280   3.573763   4.026674   4.816957
    28  H    6.035730   5.382848   5.245277   5.144920   6.504813
    29  H    5.833521   7.042872   6.751902   5.905241   7.943873
    30  H    6.586085   6.986370   6.653542   6.068425   7.868256
    31  H    3.551911   5.579298   5.572943   4.656094   6.754619
    32  H    5.831779   2.164256   2.703667   3.800332   2.366259
                   21         22         23         24         25
    21  F    0.000000
    22  C    3.393227   0.000000
    23  H    5.833515   2.593181   0.000000
    24  H    6.586091   3.278600   1.684301   0.000000
    25  H    6.035738   3.387251   3.622241   2.424517   0.000000
    26  H    5.153146   3.861465   5.388514   4.664759   2.447122
    27  H    2.957784   4.412864   6.753602   6.786360   5.264266
    28  H    4.505937   6.653511   9.102305   9.104694   7.370316
    29  H    6.538557   8.425165  10.900424  10.888412   9.102316
    30  H    6.118428   8.366112  10.888402  10.903628   9.104693
    31  H    5.831766   6.852993   9.150871   9.065375   7.363156
    32  H    3.551910   1.089448   2.408107   3.604133   4.284714
                   26         27         28         29         30
    26  H    0.000000
    27  H    3.613010   0.000000
    28  H    5.264267   2.447120   0.000000
    29  H    6.753615   5.388508   3.622235   0.000000
    30  H    6.786360   4.664751   2.424510   1.684297   0.000000
    31  H    5.150355   4.950028   4.284715   2.408114   3.604135
    32  H    4.950027   5.150348   7.363148   9.150859   9.065363
                   31         32
    31  H    0.000000
    32  H    7.642921   0.000000
 Stoichiometry    C14H10F6N2
 Framework group  C1[X(C14H10F6N2)]
 Deg. of freedom    90
 Full point group                 C1      NOp   1
 Largest Abelian subgroup         C1      NOp   1
 Largest concise Abelian subgroup C1      NOp   1
                         Standard orientation:                         
 ---------------------------------------------------------------------
 Center     Atomic      Atomic             Coordinates (Angstroms)
 Number     Number       Type             X           Y           Z
 ---------------------------------------------------------------------
      1          7           0       -4.892484    0.807380   -0.914839
      2          6           0       -3.510790    0.642988   -0.782977
      3          6           0       -2.636122    1.357525   -1.596817
      4          6           0       -1.261718    1.110138   -1.556100
      5          6           0       -0.727429    0.111051   -0.725098
      6          6           0        0.727427   -0.111048   -0.725099
      7          6           0        1.261714   -1.110134   -1.556104
      8          6           0        2.636116   -1.357525   -1.596822
      9          6           0        3.510786   -0.642995   -0.782977
     10          7           0        4.892480   -0.807389   -0.914842
     11          6           0        2.997191    0.394631   -0.003592
     12          6           0        1.612691    0.660434    0.057702
     13          6           0        1.120441    1.786863    0.936502
     14          9           0        0.099489    1.425625    1.762795
     15          9           0        2.086316    2.291025    1.759411
     16          9           0        0.668128    2.852402    0.217329
     17          6           0       -1.612691   -0.660435    0.057702
     18          6           0       -1.120437   -1.786860    0.936506
     19          9           0       -0.099488   -1.425615    1.762798
     20          9           0       -2.086311   -2.291023    1.759416
     21          9           0       -0.668119   -2.852401    0.217337
     22          6           0       -2.997192   -0.394637   -0.003595
     23          1           0       -5.426624    0.506541   -0.105208
     24          1           0       -5.169519    1.731588   -1.232163
     25          1           0       -3.014622    2.119546   -2.273407
     26          1           0       -0.604704    1.702296   -2.192152
     27          1           0        0.604698   -1.702287   -2.192158
     28          1           0        3.014614   -2.119542   -2.273418
     29          1           0        5.426616   -0.506576   -0.105199
     30          1           0        5.169506   -1.731597   -1.232174
     31          1           0        3.685059    1.011880    0.573244
     32          1           0       -3.685057   -1.011889    0.573241
 ---------------------------------------------------------------------
 Rotational constants (GHZ):           0.4036196           0.2208993           0.1916613
 Standard basis: 6-31G(d,p) (6D, 7F)
 There are   380 symmetry adapted cartesian basis functions of A   symmetry.
 There are   380 symmetry adapted basis functions of A   symmetry.
   380 basis functions,   686 primitive gaussians,   380 cartesian basis functions
    81 alpha electrons       81 beta electrons
       nuclear repulsion energy      1948.0794890993 Hartrees.
 NAtoms=   32 NActive=   32 NUniq=   32 SFac= 1.00D+00 NAtFMM=   60 NAOKFM=F Big=F
 Integral buffers will be    131072 words long.
 Raffenetti 2 integral format.
 Two-electron integral symmetry is turned on.
 Force inversion solution in PCM.
 ------------------------------------------------------------------------------
 Polarizable Continuum Model (PCM)
 =================================
 Model                : PCM.
 Atomic radii         : UFF (Universal Force Field).
 Polarization charges : Total charges.
 Charge compensation  : None.
 Solution method      : Matrix inversion.
 Cavity type          : Scaled VdW (van der Waals Surface) (Alpha=1.100).
 Cavity algorithm     : GePol (No added spheres)
                        Default sphere list used, NSphG=   32.
                        Lebedev-Laikov grids with approx.  5.0 points / Ang**2.
                        Smoothing algorithm: York/Karplus (Gamma=1.0000).
                        Polarization charges: spherical gaussians, with
                                              point-specific exponents (IZeta= 3).
                        Self-potential: point-specific (ISelfS= 7).
                        Self-field    : sphere-specific E.n sum rule (ISelfD= 2).
 1st derivatives      : Analytical E(r).r(x)/FMM algorithm (CHGder, D1EAlg=3).
                        Cavity 1st derivative terms included.
 2nd derivatives      : Analytical E(r).r(xy)/FMM algorithm (CHGder, D2EAlg=3).
                        Cavity 2nd derivative terms included.
 Solvent              : Water, Eps=  78.355300 Eps(inf)=   1.777849
 ------------------------------------------------------------------------------
 One-electron integrals computed using PRISM.
 NBasis=   380 RedAO= T EigKep=  3.26D-04  NBF=   380
 NBsUse=   380 1.00D-06 EigRej= -1.00D+00 NBFU=   380
 ExpMin= 1.61D-01 ExpMax= 7.00D+03 ExpMxC= 1.05D+03 IAcc=3 IRadAn=         5 AccDes= 0.00D+00
 Harris functional with IExCor=  402 and IRadAn=       5 diagonalized for initial guess.
 HarFok:  IExCor=  402 AccDes= 0.00D+00 IRadAn=         5 IDoV= 1 UseB2=F ITyADJ=14
 ICtDFT=  3500011 ScaDFX=  1.000000  1.000000  1.000000  1.000000
 FoFCou: FMM=F IPFlag=           0 FMFlag=      100000 FMFlg1=           0
         NFxFlg=           0 DoJE=T BraDBF=F KetDBF=T FulRan=T
         wScrn=  0.000000 ICntrl=       500 IOpCl=  0 I1Cent=   200000004 NGrid=           0
         NMat0=    1 NMatS0=      1 NMatT0=    0 NMatD0=    1 NMtDS0=    0 NMtDT0=    0
 Petite list used in FoFCou.
 Requested convergence on RMS density matrix=1.00D-08 within  32 cycles.
 Requested convergence on MAX density matrix=1.00D-06.
 Requested convergence on             energy=1.00D-06.
 No special actions if energy rises.
 Inv3:  Mode=1 IEnd=    20062188.
 Iteration    1 A*A^-1 deviation from unit magnitude is 3.44D-15 for   1276.
 Iteration    1 A*A^-1 deviation from orthogonality  is 1.60D-15 for   1080    982.
 Iteration    1 A^-1*A deviation from unit magnitude is 3.44D-15 for   1276.
 Iteration    1 A^-1*A deviation from orthogonality  is 2.15D-15 for   1981   1408.
 Error on total polarization charges =  0.00604
 SCF Done:  E(RB3LYP) =  -1248.11165516     A.U. after   12 cycles
            NFock= 12  Conv=0.63D-08     -V/T= 2.0083
 QCSCF skips out because SCF is already converged.
 DoSCS=F DFT=T ScalE2(SS,OS)=  1.000000  1.000000
 Range of M.O.s used for correlation:     1   380
 NBasis=   380 NAE=    81 NBE=    81 NFC=     0 NFV=     0
 NROrb=    380 NOA=    81 NOB=    81 NVA=   299 NVB=   299

 **** Warning!!: The largest alpha MO coefficient is  0.10260834D+02

 Symmetrizing basis deriv contribution to polar:
 IMax=3 JMax=2 DiffMx= 0.00D+00
 G2DrvN: will do    33 centers at a time, making    1 passes.
 Calling FoFCou, ICntrl=  3107 FMM=F I1Cent=   0 AccDes= 0.00D+00.
 NEqPCM:  Using equilibrium solvation (IEInf=0, Eps=  78.3553, EpsInf=   1.7778)
 G2PCM: DoFxE=T DoFxN=T DoGrad=T DoDP/DQ/DG/TGxP=FFFF NFrqRd=   0 IEInf=0 SqF1=F DoCFld=F IF1Alg=4.
 End of G2Drv F.D. properties file   721 does not exist.
 End of G2Drv F.D. properties file   722 does not exist.
 End of G2Drv F.D. properties file   788 does not exist.
          IDoAtm=11111111111111111111111111111111
 NEqPCM:  Using equilibrium solvation (IEInf=0, Eps=  78.3553, EpsInf=   1.7778)
          Differentiating once with respect to nuclear coordinates.
 CalDSu exits because no D1Ps are significant.
          There are    99 degrees of freedom in the 1st order CPHF.  IDoFFX=6 NUNeed=     0.
     93 vectors produced by pass  0 Test12= 2.45D-14 1.01D-09 XBig12= 1.43D-01 8.98D-02.
 AX will form    93 AO Fock derivatives at one time.
     93 vectors produced by pass  1 Test12= 2.45D-14 1.01D-09 XBig12= 2.22D-02 2.46D-02.
     93 vectors produced by pass  2 Test12= 2.45D-14 1.01D-09 XBig12= 2.17D-04 1.71D-03.
     93 vectors produced by pass  3 Test12= 2.45D-14 1.01D-09 XBig12= 7.46D-07 1.03D-04.
     93 vectors produced by pass  4 Test12= 2.45D-14 1.01D-09 XBig12= 1.22D-09 3.00D-06.
     85 vectors produced by pass  5 Test12= 2.45D-14 1.01D-09 XBig12= 1.34D-12 9.44D-08.
     26 vectors produced by pass  6 Test12= 2.45D-14 1.01D-09 XBig12= 1.42D-15 2.76D-09.
 InvSVY:  IOpt=1 It=  1 EMax= 3.33D-16
 Solved reduced A of dimension   576 with    99 vectors.
 End of Minotr F.D. properties file   721 does not exist.
 End of Minotr F.D. properties file   722 does not exist.
 End of Minotr F.D. properties file   788 does not exist.

 **********************************************************************

            Population analysis using the SCF density.

 **********************************************************************

 Orbital symmetries:
       Occupied  (A) (A) (A) (A) (A) (A) (A) (A) (A) (A) (A) (A)
                 (A) (A) (A) (A) (A) (A) (A) (A) (A) (A) (A) (A)
                 (A) (A) (A) (A) (A) (A) (A) (A) (A) (A) (A) (A)
                 (A) (A) (A) (A) (A) (A) (A) (A) (A) (A) (A) (A)
                 (A) (A) (A) (A) (A) (A) (A) (A) (A) (A) (A) (A)
                 (A) (A) (A) (A) (A) (A) (A) (A) (A) (A) (A) (A)
                 (A) (A) (A) (A) (A) (A) (A) (A) (A)
       Virtual   (A) (A) (A) (A) (A) (A) (A) (A) (A) (A) (A) (A)
                 (A) (A) (A) (A) (A) (A) (A) (A) (A) (A) (A) (A)
                 (A) (A) (A) (A) (A) (A) (A) (A) (A) (A) (A) (A)
                 (A) (A) (A) (A) (A) (A) (A) (A) (A) (A) (A) (A)
                 (A) (A) (A) (A) (A) (A) (A) (A) (A) (A) (A) (A)
                 (A) (A) (A) (A) (A) (A) (A) (A) (A) (A) (A) (A)
                 (A) (A) (A) (A) (A) (A) (A) (A) (A) (A) (A) (A)
                 (A) (A) (A) (A) (A) (A) (A) (A) (A) (A) (A) (A)
                 (A) (A) (A) (A) (A) (A) (A) (A) (A) (A) (A) (A)
                 (A) (A) (A) (A) (A) (A) (A) (A) (A) (A) (A) (A)
                 (A) (A) (A) (A) (A) (A) (A) (A) (A) (A) (A) (A)
                 (A) (A) (A) (A) (A) (A) (A) (A) (A) (A) (A) (A)
                 (A) (A) (A) (A) (A) (A) (A) (A) (A) (A) (A) (A)
                 (A) (A) (A) (A) (A) (A) (A) (A) (A) (A) (A) (A)
                 (A) (A) (A) (A) (A) (A) (A) (A) (A) (A) (A) (A)
                 (A) (A) (A) (A) (A) (A) (A) (A) (A) (A) (A) (A)
                 (A) (A) (A) (A) (A) (A) (A) (A) (A) (A) (A) (A)
                 (A) (A) (A) (A) (A) (A) (A) (A) (A) (A) (A) (A)
                 (A) (A) (A) (A) (A) (A) (A) (A) (A) (A) (A) (A)
                 (A) (A) (A) (A) (A) (A) (A) (A) (A) (A) (A) (A)
                 (A) (A) (A) (A) (A) (A) (A) (A) (A) (A) (A) (A)
                 (A) (A) (A) (A) (A) (A) (A) (A) (A) (A) (A) (A)
                 (A) (A) (A) (A) (A) (A) (A) (A) (A) (A) (A) (A)
                 (A) (A) (A) (A) (A) (A) (A) (A) (A) (A) (A) (A)
                 (A) (A) (A) (A) (A) (A) (A) (A) (A) (A) (A)
 The electronic state is 1-A.
 Alpha  occ. eigenvalues --  -24.72579 -24.72579 -24.72315 -24.72315 -24.72277
 Alpha  occ. eigenvalues --  -24.72277 -14.34276 -14.34276 -10.43691 -10.43691
 Alpha  occ. eigenvalues --  -10.23686 -10.23686 -10.22024 -10.22024 -10.20608
 Alpha  occ. eigenvalues --  -10.20576 -10.20004 -10.20004 -10.19999 -10.19998
 Alpha  occ. eigenvalues --  -10.19375 -10.19375  -1.29778  -1.29716  -1.21075
 Alpha  occ. eigenvalues --   -1.21006  -1.20996  -1.20895  -0.92327  -0.92228
 Alpha  occ. eigenvalues --   -0.87258  -0.84409  -0.77830  -0.77720  -0.76760
 Alpha  occ. eigenvalues --   -0.72218  -0.70110  -0.68765  -0.63125  -0.62964
 Alpha  occ. eigenvalues --   -0.62544  -0.60043  -0.57857  -0.57710  -0.57569
 Alpha  occ. eigenvalues --   -0.57400  -0.56570  -0.54819  -0.51579  -0.51261
 Alpha  occ. eigenvalues --   -0.50368  -0.49110  -0.48048  -0.45922  -0.45691
 Alpha  occ. eigenvalues --   -0.45687  -0.45594  -0.44529  -0.44348  -0.44171
 Alpha  occ. eigenvalues --   -0.43244  -0.42233  -0.41638  -0.41403  -0.41018
 Alpha  occ. eigenvalues --   -0.40596  -0.40032  -0.39761  -0.39737  -0.39491
 Alpha  occ. eigenvalues --   -0.38920  -0.38468  -0.35860  -0.35759  -0.35261
 Alpha  occ. eigenvalues --   -0.31482  -0.31297  -0.26576  -0.26144  -0.21620
 Alpha  occ. eigenvalues --   -0.21160
 Alpha virt. eigenvalues --   -0.03289  -0.01910  -0.00542   0.00318   0.08780
 Alpha virt. eigenvalues --    0.09084   0.10825   0.11744   0.12321   0.12600
 Alpha virt. eigenvalues --    0.12900   0.13106   0.13438   0.13834   0.16977
 Alpha virt. eigenvalues --    0.17373   0.18919   0.19208   0.21003   0.21009
 Alpha virt. eigenvalues --    0.21732   0.21809   0.23839   0.24467   0.26308
 Alpha virt. eigenvalues --    0.27070   0.29492   0.31614   0.33061   0.33539
 Alpha virt. eigenvalues --    0.33885   0.36167   0.38195   0.38792   0.39416
 Alpha virt. eigenvalues --    0.43356   0.45376   0.46101   0.47031   0.48352
 Alpha virt. eigenvalues --    0.50088   0.50657   0.52187   0.52268   0.53434
 Alpha virt. eigenvalues --    0.53706   0.54897   0.54963   0.55936   0.56686
 Alpha virt. eigenvalues --    0.57902   0.58407   0.59374   0.59924   0.60177
 Alpha virt. eigenvalues --    0.60244   0.61432   0.61668   0.61950   0.63136
 Alpha virt. eigenvalues --    0.66236   0.66262   0.67284   0.69407   0.69563
 Alpha virt. eigenvalues --    0.70428   0.73562   0.74513   0.75107   0.77426
 Alpha virt. eigenvalues --    0.78616   0.78647   0.80386   0.80986   0.81222
 Alpha virt. eigenvalues --    0.81697   0.82841   0.83118   0.84698   0.85328
 Alpha virt. eigenvalues --    0.85623   0.86403   0.86669   0.88381   0.88971
 Alpha virt. eigenvalues --    0.91291   0.91897   0.94273   0.95209   0.95956
 Alpha virt. eigenvalues --    0.97933   0.99404   1.00911   1.01972   1.04212
 Alpha virt. eigenvalues --    1.06155   1.07859   1.09084   1.09885   1.10253
 Alpha virt. eigenvalues --    1.10521   1.12071   1.12718   1.13866   1.14983
 Alpha virt. eigenvalues --    1.15723   1.16596   1.17100   1.18868   1.20227
 Alpha virt. eigenvalues --    1.20355   1.23642   1.24550   1.25226   1.26408
 Alpha virt. eigenvalues --    1.29310   1.30518   1.31032   1.33534   1.34533
 Alpha virt. eigenvalues --    1.35012   1.35249   1.36271   1.36502   1.37651
 Alpha virt. eigenvalues --    1.38021   1.39487   1.39881   1.40273   1.41025
 Alpha virt. eigenvalues --    1.41305   1.41549   1.42303   1.43008   1.45164
 Alpha virt. eigenvalues --    1.46503   1.48881   1.52908   1.55666   1.55822
 Alpha virt. eigenvalues --    1.58645   1.61483   1.61668   1.63717   1.65175
 Alpha virt. eigenvalues --    1.66556   1.71196   1.71415   1.73052   1.73963
 Alpha virt. eigenvalues --    1.75263   1.75359   1.76897   1.78218   1.78854
 Alpha virt. eigenvalues --    1.79485   1.80001   1.80079   1.81643   1.83028
 Alpha virt. eigenvalues --    1.84514   1.84549   1.85145   1.86363   1.86603
 Alpha virt. eigenvalues --    1.86975   1.88373   1.88503   1.90437   1.91530
 Alpha virt. eigenvalues --    1.93749   1.95064   1.95470   1.95622   1.96402
 Alpha virt. eigenvalues --    1.97859   1.98047   1.98844   1.99011   2.00225
 Alpha virt. eigenvalues --    2.00465   2.01157   2.02373   2.04921   2.05025
 Alpha virt. eigenvalues --    2.05955   2.06613   2.07212   2.07661   2.08285
 Alpha virt. eigenvalues --    2.10264   2.10853   2.12418   2.14892   2.16431
 Alpha virt. eigenvalues --    2.16456   2.16909   2.17343   2.18436   2.22115
 Alpha virt. eigenvalues --    2.22651   2.24450   2.26640   2.27337   2.28231
 Alpha virt. eigenvalues --    2.28277   2.31365   2.32409   2.33649   2.34190
 Alpha virt. eigenvalues --    2.36417   2.36492   2.38226   2.39560   2.41190
 Alpha virt. eigenvalues --    2.41285   2.42889   2.43676   2.44594   2.46223
 Alpha virt. eigenvalues --    2.46727   2.48350   2.50713   2.51970   2.53170
 Alpha virt. eigenvalues --    2.53489   2.53834   2.53953   2.55746   2.56831
 Alpha virt. eigenvalues --    2.58528   2.61254   2.63310   2.63926   2.66811
 Alpha virt. eigenvalues --    2.67052   2.68668   2.69941   2.73252   2.73802
 Alpha virt. eigenvalues --    2.74674   2.75461   2.77180   2.77791   2.79991
 Alpha virt. eigenvalues --    2.80428   2.83589   2.85532   2.87056   2.90553
 Alpha virt. eigenvalues --    2.96800   2.98065   3.00070   3.01567   3.02472
 Alpha virt. eigenvalues --    3.02798   3.03913   3.05685   3.05904   3.07936
 Alpha virt. eigenvalues --    3.07958   3.15015   3.17933   3.19791   3.21209
 Alpha virt. eigenvalues --    3.27427   3.27501   3.27748   3.28867   3.30682
 Alpha virt. eigenvalues --    3.32695   3.43829   3.43879   3.51421   3.51561
 Alpha virt. eigenvalues --    3.73124   3.78126   4.03698   4.04259   4.09742
 Alpha virt. eigenvalues --    4.10264   4.13232   4.13606   4.19811   4.19831
 Alpha virt. eigenvalues --    4.28745   4.30641   4.31204   4.39776   4.43966
 Alpha virt. eigenvalues --    4.50806   4.54200   4.55429   4.73669   4.85771
 Alpha virt. eigenvalues --    4.91488   5.03685   5.62073   5.90876
          Condensed to atoms (all electrons):
               1          2          3          4          5          6
     1  N    6.818088   0.302527  -0.071266   0.004113   0.000783   0.000001
     2  C    0.302527   4.600429   0.527697  -0.016083  -0.029451   0.000156
     3  C   -0.071266   0.527697   4.957815   0.492161  -0.032888   0.006846
     4  C    0.004113  -0.016083   0.492161   4.913606   0.505689  -0.061762
     5  C    0.000783  -0.029451  -0.032888   0.505689   5.028357   0.310072
     6  C    0.000001   0.000156   0.006846  -0.061762   0.310072   5.028358
     7  C    0.000000   0.000045  -0.000024  -0.001394  -0.061762   0.505690
     8  C    0.000000  -0.000001   0.000005  -0.000024   0.006846  -0.032888
     9  C   -0.000000   0.000000  -0.000001   0.000045   0.000156  -0.029451
    10  N   -0.000000  -0.000000   0.000000   0.000000   0.000001   0.000783
    11  C    0.000000  -0.000000   0.000005  -0.000036   0.008490  -0.043415
    12  C   -0.000000   0.000014   0.000192  -0.005366  -0.053915   0.468870
    13  C    0.000000   0.000006  -0.000222   0.002778  -0.011844  -0.025491
    14  F   -0.000000   0.000029  -0.000023  -0.000464   0.005488  -0.006248
    15  F   -0.000000   0.000000  -0.000000   0.000010  -0.000036   0.002698
    16  F   -0.000000   0.000006  -0.000162   0.003463  -0.002024  -0.000924
    17  C    0.003992  -0.015443  -0.043754  -0.016912   0.468871  -0.053915
    18  C   -0.000081   0.005167  -0.000409   0.006444  -0.025491  -0.011844
    19  F    0.000000  -0.000038   0.000000   0.000077  -0.006248   0.005487
    20  F   -0.000001   0.000801  -0.000003  -0.000020   0.002698  -0.000036
    21  F    0.000000  -0.000015  -0.000006   0.000108  -0.000924  -0.002024
    22  C   -0.064359   0.473936  -0.045066  -0.058417  -0.043415   0.008490
    23  H    0.343492  -0.023931   0.005501  -0.000176  -0.000005  -0.000000
    24  H    0.344879  -0.024874  -0.009241   0.000031  -0.000012  -0.000000
    25  H   -0.006892  -0.041589   0.364024  -0.030562   0.003822  -0.000210
    26  H   -0.000118   0.003668  -0.034028   0.368017  -0.042219  -0.003551
    27  H   -0.000000  -0.000010  -0.000059   0.001185  -0.003551  -0.042219
    28  H    0.000000   0.000000  -0.000000  -0.000003  -0.000210   0.003822
    29  H   -0.000000   0.000000  -0.000000   0.000000  -0.000000  -0.000005
    30  H   -0.000000   0.000000  -0.000000   0.000000  -0.000000  -0.000012
    31  H   -0.000000  -0.000000  -0.000000  -0.000004  -0.000155   0.003835
    32  H   -0.007194  -0.034981   0.005367   0.000504   0.003835  -0.000155
               7          8          9         10         11         12
     1  N    0.000000   0.000000  -0.000000  -0.000000   0.000000  -0.000000
     2  C    0.000045  -0.000001   0.000000  -0.000000  -0.000000   0.000014
     3  C   -0.000024   0.000005  -0.000001   0.000000   0.000005   0.000192
     4  C   -0.001394  -0.000024   0.000045   0.000000  -0.000036  -0.005366
     5  C   -0.061762   0.006846   0.000156   0.000001   0.008490  -0.053915
     6  C    0.505690  -0.032888  -0.029451   0.000783  -0.043415   0.468870
     7  C    4.913605   0.492161  -0.016083   0.004113  -0.058417  -0.016912
     8  C    0.492161   4.957814   0.527697  -0.071266  -0.045066  -0.043754
     9  C   -0.016083   0.527697   4.600434   0.302526   0.473936  -0.015443
    10  N    0.004113  -0.071266   0.302526   6.818087  -0.064359   0.003992
    11  C   -0.058417  -0.045066   0.473936  -0.064359   5.115828   0.453159
    12  C   -0.016912  -0.043754  -0.015443   0.003992   0.453159   5.134050
    13  C    0.006444  -0.000409   0.005167  -0.000081  -0.043532   0.274725
    14  F    0.000077   0.000000  -0.000038   0.000000   0.002096  -0.035048
    15  F   -0.000020  -0.000003   0.000801  -0.000001   0.002618  -0.044819
    16  F    0.000108  -0.000006  -0.000015   0.000000   0.000350  -0.046005
    17  C   -0.005366   0.000192   0.000014  -0.000000  -0.000009  -0.000074
    18  C    0.002778  -0.000222   0.000006   0.000000  -0.000114   0.000878
    19  F   -0.000464  -0.000023   0.000029  -0.000000  -0.000212   0.000334
    20  F    0.000010  -0.000000   0.000000  -0.000000  -0.000000   0.000003
    21  F    0.003463  -0.000162   0.000006  -0.000000   0.000003   0.000090
    22  C   -0.000036   0.000005  -0.000000   0.000000   0.000004  -0.000009
    23  H    0.000000  -0.000000   0.000000  -0.000000  -0.000000  -0.000000
    24  H    0.000000  -0.000000   0.000000  -0.000000  -0.000000  -0.000000
    25  H   -0.000003  -0.000000   0.000000   0.000000  -0.000000  -0.000003
    26  H    0.001185  -0.000059  -0.000010  -0.000000  -0.000108   0.001459
    27  H    0.368017  -0.034028   0.003668  -0.000118   0.000729   0.004890
    28  H   -0.030562   0.364025  -0.041589  -0.006892   0.004989   0.000842
    29  H   -0.000176   0.005501  -0.023931   0.343491  -0.009153  -0.000033
    30  H    0.000031  -0.009241  -0.024874   0.344878   0.005347  -0.000129
    31  H    0.000504   0.005367  -0.034981  -0.007194   0.361346  -0.038984
    32  H   -0.000004  -0.000000  -0.000000  -0.000000  -0.000000  -0.000000
              13         14         15         16         17         18
     1  N    0.000000  -0.000000  -0.000000  -0.000000   0.003992  -0.000081
     2  C    0.000006   0.000029   0.000000   0.000006  -0.015443   0.005167
     3  C   -0.000222  -0.000023  -0.000000  -0.000162  -0.043754  -0.000409
     4  C    0.002778  -0.000464   0.000010   0.003463  -0.016912   0.006444
     5  C   -0.011844   0.005488  -0.000036  -0.002024   0.468871  -0.025491
     6  C   -0.025491  -0.006248   0.002698  -0.000924  -0.053915  -0.011844
     7  C    0.006444   0.000077  -0.000020   0.000108  -0.005366   0.002778
     8  C   -0.000409   0.000000  -0.000003  -0.000006   0.000192  -0.000222
     9  C    0.005167  -0.000038   0.000801  -0.000015   0.000014   0.000006
    10  N   -0.000081   0.000000  -0.000001   0.000000  -0.000000   0.000000
    11  C   -0.043532   0.002096   0.002618   0.000350  -0.000009  -0.000114
    12  C    0.274725  -0.035048  -0.044819  -0.046005  -0.000074   0.000878
    13  C    4.177968   0.263671   0.281897   0.273779   0.000878  -0.000254
    14  F    0.263671   9.125278  -0.038884  -0.037783   0.000334  -0.000597
    15  F    0.281897  -0.038884   9.108474  -0.039742   0.000003  -0.000001
    16  F    0.273779  -0.037783  -0.039742   9.123333   0.000090  -0.000001
    17  C    0.000878   0.000334   0.000003   0.000090   5.134049   0.274725
    18  C   -0.000254  -0.000597  -0.000001  -0.000001   0.274725   4.177969
    19  F   -0.000597   0.001252  -0.000000   0.000000  -0.035049   0.263671
    20  F   -0.000001  -0.000000   0.000000   0.000000  -0.044819   0.281897
    21  F   -0.000001   0.000000   0.000000   0.000000  -0.046005   0.273779
    22  C   -0.000114  -0.000212  -0.000000   0.000003   0.453159  -0.043532
    23  H    0.000000  -0.000000  -0.000000  -0.000000  -0.000033  -0.000000
    24  H    0.000000  -0.000000  -0.000000  -0.000000  -0.000129   0.000002
    25  H   -0.000001  -0.000000  -0.000000  -0.000003   0.000842   0.000008
    26  H    0.000008   0.000019   0.000001   0.001105   0.004890  -0.000079
    27  H   -0.000079   0.000001   0.000000   0.000001   0.001459   0.000008
    28  H    0.000008  -0.000000  -0.000000  -0.000000  -0.000003  -0.000001
    29  H   -0.000000  -0.000000  -0.000002   0.000000  -0.000000   0.000000
    30  H    0.000002  -0.000000  -0.000000  -0.000000  -0.000000   0.000000
    31  H   -0.007007   0.000165   0.009940   0.000189  -0.000000  -0.000000
    32  H   -0.000000  -0.000000  -0.000000  -0.000000  -0.038984  -0.007007
              19         20         21         22         23         24
     1  N    0.000000  -0.000001   0.000000  -0.064359   0.343492   0.344879
     2  C   -0.000038   0.000801  -0.000015   0.473936  -0.023931  -0.024874
     3  C    0.000000  -0.000003  -0.000006  -0.045066   0.005501  -0.009241
     4  C    0.000077  -0.000020   0.000108  -0.058417  -0.000176   0.000031
     5  C   -0.006248   0.002698  -0.000924  -0.043415  -0.000005  -0.000012
     6  C    0.005487  -0.000036  -0.002024   0.008490  -0.000000  -0.000000
     7  C   -0.000464   0.000010   0.003463  -0.000036   0.000000   0.000000
     8  C   -0.000023  -0.000000  -0.000162   0.000005  -0.000000  -0.000000
     9  C    0.000029   0.000000   0.000006  -0.000000   0.000000   0.000000
    10  N   -0.000000  -0.000000  -0.000000   0.000000  -0.000000  -0.000000
    11  C   -0.000212  -0.000000   0.000003   0.000004  -0.000000  -0.000000
    12  C    0.000334   0.000003   0.000090  -0.000009  -0.000000  -0.000000
    13  C   -0.000597  -0.000001  -0.000001  -0.000114   0.000000   0.000000
    14  F    0.001252  -0.000000   0.000000  -0.000212  -0.000000  -0.000000
    15  F   -0.000000   0.000000   0.000000  -0.000000  -0.000000  -0.000000
    16  F    0.000000   0.000000   0.000000   0.000003  -0.000000  -0.000000
    17  C   -0.035049  -0.044819  -0.046005   0.453159  -0.000033  -0.000129
    18  C    0.263671   0.281897   0.273779  -0.043532  -0.000000   0.000002
    19  F    9.125279  -0.038884  -0.037783   0.002096  -0.000000  -0.000000
    20  F   -0.038884   9.108474  -0.039742   0.002618  -0.000002  -0.000000
    21  F   -0.037783  -0.039742   9.123333   0.000350   0.000000  -0.000000
    22  C    0.002096   0.002618   0.000350   5.115828  -0.009153   0.005347
    23  H   -0.000000  -0.000002   0.000000  -0.009153   0.425271  -0.027746
    24  H   -0.000000  -0.000000  -0.000000   0.005347  -0.027746   0.424522
    25  H   -0.000000  -0.000000  -0.000000   0.004989  -0.000044   0.004328
    26  H    0.000001   0.000000   0.000001   0.000729   0.000003  -0.000004
    27  H    0.000019   0.000001   0.001105  -0.000108   0.000000  -0.000000
    28  H   -0.000000  -0.000000  -0.000003  -0.000000   0.000000   0.000000
    29  H   -0.000000  -0.000000  -0.000000  -0.000000   0.000000   0.000000
    30  H   -0.000000  -0.000000  -0.000000  -0.000000   0.000000  -0.000000
    31  H   -0.000000  -0.000000  -0.000000  -0.000000  -0.000000  -0.000000
    32  H    0.000165   0.009940   0.000189   0.361346   0.004343  -0.000059
              25         26         27         28         29         30
     1  N   -0.006892  -0.000118  -0.000000   0.000000  -0.000000  -0.000000
     2  C   -0.041589   0.003668  -0.000010   0.000000   0.000000   0.000000
     3  C    0.364024  -0.034028  -0.000059  -0.000000  -0.000000  -0.000000
     4  C   -0.030562   0.368017   0.001185  -0.000003   0.000000   0.000000
     5  C    0.003822  -0.042219  -0.003551  -0.000210  -0.000000  -0.000000
     6  C   -0.000210  -0.003551  -0.042219   0.003822  -0.000005  -0.000012
     7  C   -0.000003   0.001185   0.368017  -0.030562  -0.000176   0.000031
     8  C   -0.000000  -0.000059  -0.034028   0.364025   0.005501  -0.009241
     9  C    0.000000  -0.000010   0.003668  -0.041589  -0.023931  -0.024874
    10  N    0.000000  -0.000000  -0.000118  -0.006892   0.343491   0.344878
    11  C   -0.000000  -0.000108   0.000729   0.004989  -0.009153   0.005347
    12  C   -0.000003   0.001459   0.004890   0.000842  -0.000033  -0.000129
    13  C   -0.000001   0.000008  -0.000079   0.000008  -0.000000   0.000002
    14  F   -0.000000   0.000019   0.000001  -0.000000  -0.000000  -0.000000
    15  F   -0.000000   0.000001   0.000000  -0.000000  -0.000002  -0.000000
    16  F   -0.000003   0.001105   0.000001  -0.000000   0.000000  -0.000000
    17  C    0.000842   0.004890   0.001459  -0.000003  -0.000000  -0.000000
    18  C    0.000008  -0.000079   0.000008  -0.000001   0.000000   0.000000
    19  F   -0.000000   0.000001   0.000019  -0.000000  -0.000000  -0.000000
    20  F   -0.000000   0.000000   0.000001  -0.000000  -0.000000  -0.000000
    21  F   -0.000000   0.000001   0.001105  -0.000003  -0.000000  -0.000000
    22  C    0.004989   0.000729  -0.000108  -0.000000  -0.000000  -0.000000
    23  H   -0.000044   0.000003   0.000000   0.000000   0.000000   0.000000
    24  H    0.004328  -0.000004  -0.000000   0.000000   0.000000  -0.000000
    25  H    0.598691  -0.005867   0.000001   0.000000   0.000000   0.000000
    26  H   -0.005867   0.593150   0.000160   0.000001   0.000000  -0.000000
    27  H    0.000001   0.000160   0.593150  -0.005867   0.000003  -0.000004
    28  H    0.000000   0.000001  -0.005867   0.598690  -0.000044   0.004328
    29  H    0.000000   0.000000   0.000003  -0.000044   0.425271  -0.027746
    30  H    0.000000  -0.000000  -0.000004   0.004328  -0.027746   0.424523
    31  H    0.000000   0.000001   0.000016  -0.000182   0.004343  -0.000059
    32  H   -0.000182   0.000016   0.000001   0.000000  -0.000000  -0.000000
              31         32
     1  N   -0.000000  -0.007194
     2  C   -0.000000  -0.034981
     3  C   -0.000000   0.005367
     4  C   -0.000004   0.000504
     5  C   -0.000155   0.003835
     6  C    0.003835  -0.000155
     7  C    0.000504  -0.000004
     8  C    0.005367  -0.000000
     9  C   -0.034981  -0.000000
    10  N   -0.007194  -0.000000
    11  C    0.361346  -0.000000
    12  C   -0.038984  -0.000000
    13  C   -0.007007  -0.000000
    14  F    0.000165  -0.000000
    15  F    0.009940  -0.000000
    16  F    0.000189  -0.000000
    17  C   -0.000000  -0.038984
    18  C   -0.000000  -0.007007
    19  F   -0.000000   0.000165
    20  F   -0.000000   0.009940
    21  F   -0.000000   0.000189
    22  C   -0.000000   0.361346
    23  H   -0.000000   0.004343
    24  H   -0.000000  -0.000059
    25  H    0.000000  -0.000182
    26  H    0.000001   0.000016
    27  H    0.000016   0.000001
    28  H   -0.000182   0.000000
    29  H    0.004343  -0.000000
    30  H   -0.000059  -0.000000
    31  H    0.589137   0.000000
    32  H    0.000000   0.589137
 Mulliken charges:
               1
     1  N   -0.667962
     2  C    0.271935
     3  C   -0.122462
     4  C   -0.107009
     5  C   -0.030958
     6  C   -0.030959
     7  C   -0.107009
     8  C   -0.122462
     9  C    0.271931
    10  N   -0.667960
    11  C   -0.164478
    12  C   -0.043003
    13  C    0.802302
    14  F   -0.279111
    15  F   -0.282934
    16  F   -0.275762
    17  C   -0.043003
    18  C    0.802302
    19  F   -0.279111
    20  F   -0.282934
    21  F   -0.275762
    22  C   -0.164479
    23  H    0.282481
    24  H    0.282957
    25  H    0.108652
    26  H    0.111630
    27  H    0.111630
    28  H    0.108652
    29  H    0.282481
    30  H    0.282956
    31  H    0.113725
    32  H    0.113725
 Sum of Mulliken charges =  -0.00000
 Mulliken charges with hydrogens summed into heavy atoms:
               1
     1  N   -0.102524
     2  C    0.271935
     3  C   -0.013810
     4  C    0.004621
     5  C   -0.030958
     6  C   -0.030959
     7  C    0.004621
     8  C   -0.013809
     9  C    0.271931
    10  N   -0.102523
    11  C   -0.050753
    12  C   -0.043003
    13  C    0.802302
    14  F   -0.279111
    15  F   -0.282934
    16  F   -0.275762
    17  C   -0.043003
    18  C    0.802302
    19  F   -0.279111
    20  F   -0.282934
    21  F   -0.275762
    22  C   -0.050754
 APT charges:
               1
     1  N   -1.345033
     2  C    0.215584
     3  C   -0.413760
     4  C   -0.542683
     5  C   -0.493926
     6  C   -0.493927
     7  C   -0.542682
     8  C   -0.413759
     9  C    0.215587
    10  N   -1.345026
    11  C   -0.479628
    12  C   -0.472283
    13  C    0.025051
    14  F   -0.172228
    15  F    0.242698
    16  F    0.004328
    17  C   -0.472284
    18  C    0.025051
    19  F   -0.172228
    20  F    0.242697
    21  F    0.004327
    22  C   -0.479627
    23  H    0.752991
    24  H    0.891227
    25  H    0.728470
    26  H    0.435366
    27  H    0.435366
    28  H    0.728469
    29  H    0.752986
    30  H    0.891218
    31  H    0.623830
    32  H    0.623829
 Sum of APT charges =  -0.00000
 APT charges with hydrogens summed into heavy atoms:
               1
     1  N    0.299185
     2  C    0.215584
     3  C    0.314710
     4  C   -0.107317
     5  C   -0.493926
     6  C   -0.493927
     7  C   -0.107316
     8  C    0.314711
     9  C    0.215587
    10  N    0.299178
    11  C    0.144201
    12  C   -0.472283
    13  C    0.025051
    14  F   -0.172228
    15  F    0.242698
    16  F    0.004328
    17  C   -0.472284
    18  C    0.025051
    19  F   -0.172228
    20  F    0.242697
    21  F    0.004327
    22  C    0.144201
 Electronic spatial extent (au):  <R**2>=           6024.9701
 Charge=             -0.0000 electrons
 Dipole moment (field-independent basis, Debye):
    X=             -0.0001    Y=             -0.0000    Z=             -2.1709  Tot=              2.1709
 Quadrupole moment (field-independent basis, Debye-Ang):
   XX=            -78.2850   YY=           -121.0701   ZZ=           -122.8530
   XY=            -19.4832   XZ=              0.0001   YZ=              0.0000
 Traceless Quadrupole moment (field-independent basis, Debye-Ang):
   XX=             29.1177   YY=            -13.6674   ZZ=            -15.4503
   XY=            -19.4832   XZ=              0.0001   YZ=              0.0000
 Octapole moment (field-independent basis, Debye-Ang**2):
  XXX=             -0.0029  YYY=              0.0001  ZZZ=             44.1884  XYY=              0.0001
  XXY=             -0.0008  XXZ=             39.9943  XZZ=              0.0003  YZZ=             -0.0001
  YYZ=             -9.7193  XYZ=             25.7725
 Hexadecapole moment (field-independent basis, Debye-Ang**3):
 XXXX=          -3280.9148 YYYY=          -1627.3561 ZZZZ=          -1057.4314 XXXY=           -389.4100
 XXXZ=              0.0031 YYYX=            -26.5461 YYYZ=              0.0000 ZZZX=             -0.0007
 ZZZY=              0.0003 XXYY=           -863.1238 XXZZ=           -990.5156 YYZZ=           -411.5643
 XXYZ=             -0.0003 YYXZ=             -0.0002 ZZXY=            -37.2022
 N-N= 1.948079489099D+03 E-N=-6.831396068082D+03  KE= 1.237885056779D+03
  Exact polarizability:   0.000   0.000   0.000   0.000   0.000   0.000
 Approx polarizability: 353.860 -22.813 218.662   0.000  -0.000 194.139
 D2PCM: PCM CHGder 2nd derivatives, FixD1E=F FixD2E=F DoIter=F DoCFld=F I1PDM=0
 Calling FoFJK, ICntrl=    100147 FMM=F ISym2X=0 I1Cent= 0 IOpClX= 0 NMat=1 NMatS=1 NMatT=0.
 ***** Axes restored to original set *****
 -------------------------------------------------------------------
 Center     Atomic                   Forces (Hartrees/Bohr)
 Number     Number              X              Y              Z
 -------------------------------------------------------------------
      1        7           0.002028061    0.004955571    0.002212119
      2        6          -0.013573490   -0.012014962   -0.003673515
      3        6           0.015221382    0.002866885   -0.008006519
      4        6          -0.009130346    0.001517003    0.002421761
      5        6          -0.008061855    0.002746923   -0.001359840
      6        6           0.008070771   -0.002621510    0.001543141
      7        6           0.009325852    0.001297298    0.001697335
      8        6          -0.015565358   -0.007820572    0.000754792
      9        6           0.012764519    0.000364348   -0.013380109
     10        7          -0.001661046    0.000339669    0.005540231
     11        6          -0.009491885    0.017969611    0.004353193
     12        6           0.013877420   -0.010416131    0.001515511
     13        6           0.000384169    0.012003306    0.002943232
     14        9           0.003856223   -0.005318257   -0.004414355
     15        9          -0.002515516   -0.009128413   -0.002433826
     16        9          -0.000145989   -0.004802510    0.002456522
     17        6          -0.014196375    0.005817898   -0.008245055
     18        6           0.000336358   -0.001620697    0.012253767
     19        9          -0.004364033   -0.001997793   -0.006293606
     20        9           0.001948390    0.000952480   -0.009533195
     21        9           0.000092206    0.004029497   -0.003588677
     22        6           0.010536209   -0.002919283    0.017675743
     23        1           0.000230450    0.000473227   -0.003520080
     24        1          -0.001108387   -0.000975881    0.003408635
     25        1          -0.000972036    0.000870088    0.000848783
     26        1          -0.000295123   -0.000622955    0.004123111
     27        1           0.000532633    0.004048962    0.000891727
     28        1           0.001062398    0.000429198    0.001053600
     29        1          -0.000435209   -0.003435664   -0.000817063
     30        1           0.001282103    0.003477472    0.000252663
     31        1          -0.002820228   -0.001669224    0.000774455
     32        1           0.002787733    0.001204415   -0.001454479
 -------------------------------------------------------------------
 Cartesian Forces:  Max     0.017969611 RMS     0.006420773
 FormGI is forming the generalized inverse of G from B-inverse, IUseBI=4.

 GradGradGradGradGradGradGradGradGradGradGradGradGradGradGradGradGradGrad
 Berny optimization.
 Internal  Forces:  Max     0.019433711 RMS     0.004000275
 Search for a local minimum.
 Step number   1 out of a maximum of  169
 All quantities printed in internal units (Hartrees-Bohrs-Radians)
 Mixed Optimization -- RFO/linear search
 Second derivative matrix not updated -- analytic derivatives used.
 ITU=  0
     Eigenvalues ---    0.00336   0.00373   0.00551   0.00561   0.00602
     Eigenvalues ---    0.01320   0.01613   0.01624   0.01716   0.01761
     Eigenvalues ---    0.01832   0.01841   0.01890   0.02071   0.02102
     Eigenvalues ---    0.02147   0.02201   0.02320   0.02409   0.02499
     Eigenvalues ---    0.02635   0.02642   0.02870   0.02897   0.04145
     Eigenvalues ---    0.11418   0.11420   0.11926   0.11926   0.11931
     Eigenvalues ---    0.12341   0.12416   0.12520   0.12612   0.12871
     Eigenvalues ---    0.13501   0.13502   0.15293   0.15297   0.17791
     Eigenvalues ---    0.17951   0.18131   0.18142   0.19071   0.19125
     Eigenvalues ---    0.19236   0.19400   0.21341   0.21363   0.23293
     Eigenvalues ---    0.23381   0.23488   0.24081   0.24129   0.24179
     Eigenvalues ---    0.27177   0.27911   0.32531   0.32540   0.32855
     Eigenvalues ---    0.32999   0.33652   0.34279   0.35076   0.35100
     Eigenvalues ---    0.35292   0.35514   0.35883   0.35908   0.36559
     Eigenvalues ---    0.38065   0.38093   0.39088   0.40686   0.42159
     Eigenvalues ---    0.42493   0.45421   0.45440   0.45813   0.45846
     Eigenvalues ---    0.46071   0.46368   0.46693   0.47326   0.48530
     Eigenvalues ---    0.49135   0.50621   0.51130   0.51382   0.51703
 RFO step:  Lambda=-9.71699921D-03 EMin= 3.35743218D-03
 Linear search not attempted -- first point.
 Iteration  1 RMS(Cart)=  0.04717509 RMS(Int)=  0.00083627
 Iteration  2 RMS(Cart)=  0.00128073 RMS(Int)=  0.00030344
 Iteration  3 RMS(Cart)=  0.00000073 RMS(Int)=  0.00030344
 Variable       Old X    -DE/DX   Delta X   Delta X   Delta X     New X
                                 (Linear)    (Quad)   (Total)
    R1        2.64122  -0.00079   0.00000  -0.01433  -0.01433   2.62688
    R2        1.91908  -0.00284   0.00000  -0.00695  -0.00695   1.91214
    R3        1.91935  -0.00304   0.00000  -0.00722  -0.00722   1.91214
    R4        2.63069   0.01059   0.00000   0.02251   0.02255   2.65324
    R5        2.63743   0.00602   0.00000   0.01787   0.01793   2.65535
    R6        2.64011  -0.00421   0.00000  -0.01180  -0.01182   2.62829
    R7        2.05426  -0.00027   0.00000  -0.00109  -0.00109   2.05317
    R8        2.65519  -0.00270   0.00000  -0.00624  -0.00630   2.64889
    R9        2.05874  -0.00339   0.00000  -0.00795  -0.00795   2.05080
   R10        2.78113   0.01943   0.00000   0.04599   0.04599   2.82713
   R11        2.66689  -0.00111   0.00000  -0.00201  -0.00205   2.66485
   R12        2.65519  -0.00270   0.00000  -0.00624  -0.00630   2.64889
   R13        2.66689  -0.00111   0.00000  -0.00201  -0.00205   2.66485
   R14        2.64011  -0.00421   0.00000  -0.01180  -0.01182   2.62829
   R15        2.05874  -0.00339   0.00000  -0.00795  -0.00795   2.05080
   R16        2.63069   0.01059   0.00000   0.02251   0.02255   2.65324
   R17        2.05426  -0.00027   0.00000  -0.00108  -0.00108   2.05317
   R18        2.64122  -0.00079   0.00000  -0.01434  -0.01434   2.62689
   R19        2.63743   0.00602   0.00000   0.01787   0.01793   2.65535
   R20        1.91908  -0.00284   0.00000  -0.00694  -0.00694   1.91214
   R21        1.91936  -0.00304   0.00000  -0.00722  -0.00722   1.91214
   R22        2.66662  -0.01293   0.00000  -0.03312  -0.03310   2.63352
   R23        2.05876  -0.00305   0.00000  -0.01011  -0.01011   2.04865
   R24        2.85558  -0.00748   0.00000  -0.00634  -0.00634   2.84923
   R25        2.57419  -0.00678   0.00000  -0.01710  -0.01710   2.55709
   R26        2.58020  -0.00781   0.00000  -0.02209  -0.02209   2.55811
   R27        2.57528  -0.00397   0.00000  -0.00748  -0.00748   2.56780
   R28        2.85558  -0.00748   0.00000  -0.00634  -0.00634   2.84923
   R29        2.66662  -0.01293   0.00000  -0.03312  -0.03310   2.63352
   R30        2.57419  -0.00678   0.00000  -0.01710  -0.01710   2.55709
   R31        2.58020  -0.00781   0.00000  -0.02209  -0.02209   2.55811
   R32        2.57528  -0.00397   0.00000  -0.00748  -0.00748   2.56780
   R33        2.05876  -0.00305   0.00000  -0.01010  -0.01010   2.04865
    A1        1.99314   0.00176   0.00000   0.01735   0.01714   2.01028
    A2        1.98902   0.00161   0.00000   0.01895   0.01874   2.00776
    A3        1.95538  -0.00252   0.00000  -0.00974  -0.01004   1.94534
    A4        2.10087   0.00314   0.00000   0.01588   0.01446   2.11533
    A5        2.09892   0.00099   0.00000   0.00796   0.00652   2.10544
    A6        2.06787  -0.00354   0.00000  -0.00765  -0.00903   2.05884
    A7        2.10619  -0.00120   0.00000  -0.00330  -0.00331   2.10288
    A8        2.10006  -0.00074   0.00000  -0.01037  -0.01036   2.08970
    A9        2.07693   0.00194   0.00000   0.01367   0.01367   2.09060
   A10        2.11441   0.00386   0.00000   0.01913   0.01901   2.13343
   A11        2.07148   0.00057   0.00000   0.00615   0.00620   2.07767
   A12        2.09725  -0.00442   0.00000  -0.02520  -0.02516   2.07208
   A13        2.07512   0.00255   0.00000   0.01029   0.01035   2.08546
   A14        2.06944  -0.00595   0.00000  -0.02819  -0.02833   2.04112
   A15        2.13839   0.00339   0.00000   0.01779   0.01785   2.15624
   A16        2.07511   0.00255   0.00000   0.01029   0.01035   2.08546
   A17        2.13839   0.00339   0.00000   0.01779   0.01785   2.15624
   A18        2.06944  -0.00595   0.00000  -0.02819  -0.02833   2.04112
   A19        2.11441   0.00385   0.00000   0.01913   0.01901   2.13343
   A20        2.09725  -0.00442   0.00000  -0.02520  -0.02516   2.07208
   A21        2.07148   0.00057   0.00000   0.00615   0.00620   2.07767
   A22        2.10619  -0.00120   0.00000  -0.00330  -0.00331   2.10288
   A23        2.07693   0.00194   0.00000   0.01367   0.01368   2.09060
   A24        2.10006  -0.00074   0.00000  -0.01037  -0.01036   2.08970
   A25        2.10087   0.00314   0.00000   0.01588   0.01446   2.11533
   A26        2.06787  -0.00354   0.00000  -0.00765  -0.00903   2.05884
   A27        2.09892   0.00099   0.00000   0.00796   0.00652   2.10544
   A28        1.99313   0.00176   0.00000   0.01736   0.01715   2.01028
   A29        1.98902   0.00161   0.00000   0.01895   0.01874   2.00776
   A30        1.95538  -0.00252   0.00000  -0.00973  -0.01004   1.94533
   A31        2.12392  -0.00286   0.00000  -0.01047  -0.01042   2.11350
   A32        2.07665   0.00217   0.00000   0.00688   0.00686   2.08350
   A33        2.08261   0.00069   0.00000   0.00359   0.00356   2.08618
   A34        2.08104   0.00984   0.00000   0.03528   0.03522   2.11626
   A35        2.12438  -0.00359   0.00000  -0.01748  -0.01745   2.10693
   A36        2.07748  -0.00626   0.00000  -0.01775  -0.01773   2.05975
   A37        1.98148  -0.00409   0.00000  -0.01443  -0.01452   1.96696
   A38        1.97720  -0.00767   0.00000  -0.01584  -0.01590   1.96131
   A39        1.96498  -0.00301   0.00000  -0.01060  -0.01069   1.95429
   A40        1.83643   0.00705   0.00000   0.02210   0.02204   1.85847
   A41        1.85324   0.00327   0.00000   0.00652   0.00640   1.85963
   A42        1.83811   0.00628   0.00000   0.01735   0.01730   1.85541
   A43        2.12438  -0.00359   0.00000  -0.01748  -0.01745   2.10693
   A44        2.08104   0.00984   0.00000   0.03528   0.03522   2.11626
   A45        2.07748  -0.00626   0.00000  -0.01775  -0.01773   2.05975
   A46        1.98148  -0.00409   0.00000  -0.01442  -0.01452   1.96696
   A47        1.97720  -0.00767   0.00000  -0.01584  -0.01590   1.96131
   A48        1.96499  -0.00301   0.00000  -0.01060  -0.01069   1.95429
   A49        1.83643   0.00705   0.00000   0.02210   0.02204   1.85847
   A50        1.85324   0.00327   0.00000   0.00652   0.00640   1.85963
   A51        1.83811   0.00628   0.00000   0.01735   0.01730   1.85541
   A52        2.12392  -0.00286   0.00000  -0.01047  -0.01042   2.11350
   A53        2.07665   0.00217   0.00000   0.00688   0.00685   2.08350
   A54        2.08261   0.00069   0.00000   0.00359   0.00356   2.08618
    D1       -2.79951   0.00178   0.00000   0.03612   0.03641  -2.76309
    D2        0.53331  -0.00143   0.00000  -0.06177  -0.06226   0.47104
    D3       -0.52134   0.00135   0.00000   0.05709   0.05758  -0.46375
    D4        2.81148  -0.00186   0.00000  -0.04080  -0.04109   2.77038
    D5       -3.03915  -0.00166   0.00000  -0.03894  -0.03890  -3.07805
    D6        0.10464  -0.00167   0.00000  -0.04074  -0.04065   0.06399
    D7       -0.08542   0.00196   0.00000   0.05886   0.05882  -0.02660
    D8        3.05837   0.00196   0.00000   0.05705   0.05707   3.11543
    D9        3.04378   0.00176   0.00000   0.03717   0.03689   3.08067
   D10       -0.10068   0.00168   0.00000   0.03564   0.03536  -0.06532
   D11        0.08984  -0.00209   0.00000  -0.06139  -0.06114   0.02869
   D12       -3.05462  -0.00218   0.00000  -0.06292  -0.06267  -3.11729
   D13        0.03241  -0.00066   0.00000  -0.02124  -0.02120   0.01121
   D14       -3.12011  -0.00050   0.00000  -0.01298  -0.01286  -3.13297
   D15       -3.11135  -0.00066   0.00000  -0.01949  -0.01947  -3.13083
   D16        0.01931  -0.00050   0.00000  -0.01123  -0.01113   0.00818
   D17        3.13747  -0.00058   0.00000  -0.02105  -0.02101   3.11646
   D18        0.01868  -0.00056   0.00000  -0.01574  -0.01573   0.00295
   D19        0.00696  -0.00077   0.00000  -0.02964  -0.02952  -0.02256
   D20       -3.11182  -0.00075   0.00000  -0.02433  -0.02424  -3.13606
   D21       -1.65821  -0.00058   0.00000  -0.04015  -0.04003  -1.69824
   D22        1.45963  -0.00073   0.00000  -0.04632  -0.04632   1.41331
   D23        1.45963  -0.00073   0.00000  -0.04632  -0.04632   1.41331
   D24       -1.70572  -0.00087   0.00000  -0.05249  -0.05260  -1.75832
   D25        3.10098   0.00027   0.00000   0.01561   0.01563   3.11661
   D26       -0.01494   0.00050   0.00000   0.01393   0.01395  -0.00099
   D27       -0.01693   0.00031   0.00000   0.02126   0.02128   0.00436
   D28       -3.13285   0.00054   0.00000   0.01958   0.01960  -3.11325
   D29        3.13747  -0.00058   0.00000  -0.02106  -0.02101   3.11646
   D30        0.00696  -0.00077   0.00000  -0.02964  -0.02952  -0.02256
   D31        0.01869  -0.00056   0.00000  -0.01574  -0.01573   0.00295
   D32       -3.11182  -0.00075   0.00000  -0.02433  -0.02424  -3.13606
   D33       -3.13286   0.00054   0.00000   0.01958   0.01961  -3.11325
   D34       -0.01693   0.00031   0.00000   0.02127   0.02129   0.00435
   D35       -0.01495   0.00050   0.00000   0.01393   0.01396  -0.00099
   D36        3.10098   0.00027   0.00000   0.01562   0.01564   3.11661
   D37        0.03241  -0.00066   0.00000  -0.02124  -0.02120   0.01121
   D38       -3.11135  -0.00066   0.00000  -0.01949  -0.01948  -3.13083
[...]
   112    C    8  py     Val( 2p)     1.15039
   113    C    8  py     Ryd( 3p)     0.00410
   114    C    8  pz     Val( 2p)     1.13556
   115    C    8  pz     Ryd( 3p)     0.00408
   116    C    8  dxy    Ryd( 3d)     0.00059
   117    C    8  dxz    Ryd( 3d)     0.00054
   118    C    8  dyz    Ryd( 3d)     0.00046
   119    C    8  dx2y2  Ryd( 3d)     0.00045
   120    C    8  dz2    Ryd( 3d)     0.00036

   121    C    9  S      Cor( 1S)     1.99898
   122    C    9  S      Val( 2S)     0.84666
   123    C    9  S      Ryd( 3S)     0.00120
   124    C    9  S      Ryd( 4S)     0.00010
   125    C    9  px     Val( 2p)     0.90936
   126    C    9  px     Ryd( 3p)     0.00580
   127    C    9  py     Val( 2p)     1.03343
   128    C    9  py     Ryd( 3p)     0.00321
   129    C    9  pz     Val( 2p)     1.00366
   130    C    9  pz     Ryd( 3p)     0.00273
   131    C    9  dxy    Ryd( 3d)     0.00112
   132    C    9  dxz    Ryd( 3d)     0.00128
   133    C    9  dyz    Ryd( 3d)     0.00044
   134    C    9  dx2y2  Ryd( 3d)     0.00117
   135    C    9  dz2    Ryd( 3d)     0.00094

   136    N   10  S      Cor( 1S)     1.99948
   137    N   10  S      Val( 2S)     1.36140
   138    N   10  S      Ryd( 3S)     0.00011
   139    N   10  S      Ryd( 4S)     0.00001
   140    N   10  px     Val( 2p)     1.33153
   141    N   10  px     Ryd( 3p)     0.00228
   142    N   10  py     Val( 2p)     1.49198
   143    N   10  py     Ryd( 3p)     0.00231
   144    N   10  pz     Val( 2p)     1.55859
   145    N   10  pz     Ryd( 3p)     0.00289
   146    N   10  dxy    Ryd( 3d)     0.00040
   147    N   10  dxz    Ryd( 3d)     0.00083
   148    N   10  dyz    Ryd( 3d)     0.00041
   149    N   10  dx2y2  Ryd( 3d)     0.00077
   150    N   10  dz2    Ryd( 3d)     0.00071

   151    C   11  S      Cor( 1S)     1.99901
   152    C   11  S      Val( 2S)     0.94478
   153    C   11  S      Ryd( 3S)     0.00070
   154    C   11  S      Ryd( 4S)     0.00005
   155    C   11  px     Val( 2p)     1.11965
   156    C   11  px     Ryd( 3p)     0.00415
   157    C   11  py     Val( 2p)     1.09599
   158    C   11  py     Ryd( 3p)     0.00395
   159    C   11  pz     Val( 2p)     1.09659
   160    C   11  pz     Ryd( 3p)     0.00390
   161    C   11  dxy    Ryd( 3d)     0.00060
   162    C   11  dxz    Ryd( 3d)     0.00061
   163    C   11  dyz    Ryd( 3d)     0.00047
   164    C   11  dx2y2  Ryd( 3d)     0.00051
   165    C   11  dz2    Ryd( 3d)     0.00039

   166    C   12  S      Cor( 1S)     1.99879
   167    C   12  S      Val( 2S)     0.88726
   168    C   12  S      Ryd( 3S)     0.00098
   169    C   12  S      Ryd( 4S)     0.00007
   170    C   12  px     Val( 2p)     1.09715
   171    C   12  px     Ryd( 3p)     0.00420
   172    C   12  py     Val( 2p)     1.10164
   173    C   12  py     Ryd( 3p)     0.00499
   174    C   12  pz     Val( 2p)     1.11045
   175    C   12  pz     Ryd( 3p)     0.00455
   176    C   12  dxy    Ryd( 3d)     0.00066
   177    C   12  dxz    Ryd( 3d)     0.00072
   178    C   12  dyz    Ryd( 3d)     0.00066
   179    C   12  dx2y2  Ryd( 3d)     0.00059
   180    C   12  dz2    Ryd( 3d)     0.00042

   181    C   13  S      Cor( 1S)     1.99905
   182    C   13  S      Val( 2S)     0.79801
   183    C   13  S      Ryd( 3S)     0.00517
   184    C   13  S      Ryd( 4S)     0.00034
   185    C   13  px     Val( 2p)     0.58575
   186    C   13  px     Ryd( 3p)     0.01712
   187    C   13  py     Val( 2p)     0.75083
   188    C   13  py     Ryd( 3p)     0.01493
   189    C   13  pz     Val( 2p)     0.68548
   190    C   13  pz     Ryd( 3p)     0.01571
   191    C   13  dxy    Ryd( 3d)     0.00330
   192    C   13  dxz    Ryd( 3d)     0.00392
   193    C   13  dyz    Ryd( 3d)     0.00325
   194    C   13  dx2y2  Ryd( 3d)     0.00328
   195    C   13  dz2    Ryd( 3d)     0.00321

   196    F   14  S      Cor( 1S)     1.99993
   197    F   14  S      Val( 2S)     1.84401
   198    F   14  S      Ryd( 3S)     0.00089
   199    F   14  S      Ryd( 4S)     0.00005
   200    F   14  px     Val( 2p)     1.78277
   201    F   14  px     Ryd( 3p)     0.00027
   202    F   14  py     Val( 2p)     1.92544
   203    F   14  py     Ryd( 3p)     0.00044
   204    F   14  pz     Val( 2p)     1.81269
   205    F   14  pz     Ryd( 3p)     0.00023
   206    F   14  dxy    Ryd( 3d)     0.00081
   207    F   14  dxz    Ryd( 3d)     0.00106
   208    F   14  dyz    Ryd( 3d)     0.00066
   209    F   14  dx2y2  Ryd( 3d)     0.00077
   210    F   14  dz2    Ryd( 3d)     0.00104

   211    F   15  S      Cor( 1S)     1.99993
   212    F   15  S      Val( 2S)     1.84149
   213    F   15  S      Ryd( 3S)     0.00073
   214    F   15  S      Ryd( 4S)     0.00004
   215    F   15  px     Val( 2p)     1.78014
   216    F   15  px     Ryd( 3p)     0.00017
   217    F   15  py     Val( 2p)     1.89944
   218    F   15  py     Ryd( 3p)     0.00032
   219    F   15  pz     Val( 2p)     1.84564
   220    F   15  pz     Ryd( 3p)     0.00026
   221    F   15  dxy    Ryd( 3d)     0.00087
   222    F   15  dxz    Ryd( 3d)     0.00103
   223    F   15  dyz    Ryd( 3d)     0.00060
   224    F   15  dx2y2  Ryd( 3d)     0.00089
   225    F   15  dz2    Ryd( 3d)     0.00091

   226    F   16  S      Cor( 1S)     1.99993
   227    F   16  S      Val( 2S)     1.84759
   228    F   16  S      Ryd( 3S)     0.00095
   229    F   16  S      Ryd( 4S)     0.00003
   230    F   16  px     Val( 2p)     1.89327
   231    F   16  px     Ryd( 3p)     0.00023
   232    F   16  py     Val( 2p)     1.76873
   233    F   16  py     Ryd( 3p)     0.00034
   234    F   16  pz     Val( 2p)     1.86161
   235    F   16  pz     Ryd( 3p)     0.00030
   236    F   16  dxy    Ryd( 3d)     0.00084
   237    F   16  dxz    Ryd( 3d)     0.00058
   238    F   16  dyz    Ryd( 3d)     0.00105
   239    F   16  dx2y2  Ryd( 3d)     0.00095
   240    F   16  dz2    Ryd( 3d)     0.00079

   241    C   17  S      Cor( 1S)     1.99879
   242    C   17  S      Val( 2S)     0.88726
   243    C   17  S      Ryd( 3S)     0.00098
   244    C   17  S      Ryd( 4S)     0.00007
   245    C   17  px     Val( 2p)     1.09715
   246    C   17  px     Ryd( 3p)     0.00420
   247    C   17  py     Val( 2p)     1.10164
   248    C   17  py     Ryd( 3p)     0.00499
   249    C   17  pz     Val( 2p)     1.11045
   250    C   17  pz     Ryd( 3p)     0.00455
   251    C   17  dxy    Ryd( 3d)     0.00066
   252    C   17  dxz    Ryd( 3d)     0.00072
   253    C   17  dyz    Ryd( 3d)     0.00066
   254    C   17  dx2y2  Ryd( 3d)     0.00059
   255    C   17  dz2    Ryd( 3d)     0.00042

   256    C   18  S      Cor( 1S)     1.99905
   257    C   18  S      Val( 2S)     0.79801
   258    C   18  S      Ryd( 3S)     0.00517
   259    C   18  S      Ryd( 4S)     0.00034
   260    C   18  px     Val( 2p)     0.58575
   261    C   18  px     Ryd( 3p)     0.01712
   262    C   18  py     Val( 2p)     0.75083
   263    C   18  py     Ryd( 3p)     0.01493
   264    C   18  pz     Val( 2p)     0.68548
   265    C   18  pz     Ryd( 3p)     0.01571
   266    C   18  dxy    Ryd( 3d)     0.00330
   267    C   18  dxz    Ryd( 3d)     0.00392
   268    C   18  dyz    Ryd( 3d)     0.00325
   269    C   18  dx2y2  Ryd( 3d)     0.00328
   270    C   18  dz2    Ryd( 3d)     0.00321

   271    F   19  S      Cor( 1S)     1.99993
   272    F   19  S      Val( 2S)     1.84401
   273    F   19  S      Ryd( 3S)     0.00089
   274    F   19  S      Ryd( 4S)     0.00005
   275    F   19  px     Val( 2p)     1.78277
   276    F   19  px     Ryd( 3p)     0.00027
   277    F   19  py     Val( 2p)     1.92544
   278    F   19  py     Ryd( 3p)     0.00044
   279    F   19  pz     Val( 2p)     1.81269
   280    F   19  pz     Ryd( 3p)     0.00023
   281    F   19  dxy    Ryd( 3d)     0.00081
   282    F   19  dxz    Ryd( 3d)     0.00106
   283    F   19  dyz    Ryd( 3d)     0.00066
   284    F   19  dx2y2  Ryd( 3d)     0.00077
   285    F   19  dz2    Ryd( 3d)     0.00104

   286    F   20  S      Cor( 1S)     1.99993
   287    F   20  S      Val( 2S)     1.84149
   288    F   20  S      Ryd( 3S)     0.00073
   289    F   20  S      Ryd( 4S)     0.00004
   290    F   20  px     Val( 2p)     1.78014
   291    F   20  px     Ryd( 3p)     0.00017
   292    F   20  py     Val( 2p)     1.89944
   293    F   20  py     Ryd( 3p)     0.00032
   294    F   20  pz     Val( 2p)     1.84564
   295    F   20  pz     Ryd( 3p)     0.00026
   296    F   20  dxy    Ryd( 3d)     0.00087
   297    F   20  dxz    Ryd( 3d)     0.00103
   298    F   20  dyz    Ryd( 3d)     0.00060
   299    F   20  dx2y2  Ryd( 3d)     0.00089
   300    F   20  dz2    Ryd( 3d)     0.00091

   301    F   21  S      Cor( 1S)     1.99993
   302    F   21  S      Val( 2S)     1.84759
   303    F   21  S      Ryd( 3S)     0.00095
   304    F   21  S      Ryd( 4S)     0.00003
   305    F   21  px     Val( 2p)     1.89327
   306    F   21  px     Ryd( 3p)     0.00023
   307    F   21  py     Val( 2p)     1.76873
   308    F   21  py     Ryd( 3p)     0.00034
   309    F   21  pz     Val( 2p)     1.86161
   310    F   21  pz     Ryd( 3p)     0.00030
   311    F   21  dxy    Ryd( 3d)     0.00084
   312    F   21  dxz    Ryd( 3d)     0.00058
   313    F   21  dyz    Ryd( 3d)     0.00105
   314    F   21  dx2y2  Ryd( 3d)     0.00095
   315    F   21  dz2    Ryd( 3d)     0.00079

   316    C   22  S      Cor( 1S)     1.99901
   317    C   22  S      Val( 2S)     0.94478
   318    C   22  S      Ryd( 3S)     0.00070
   319    C   22  S      Ryd( 4S)     0.00005
   320    C   22  px     Val( 2p)     1.11965
   321    C   22  px     Ryd( 3p)     0.00415
   322    C   22  py     Val( 2p)     1.09599
   323    C   22  py     Ryd( 3p)     0.00395
   324    C   22  pz     Val( 2p)     1.09659
   325    C   22  pz     Ryd( 3p)     0.00390
   326    C   22  dxy    Ryd( 3d)     0.00060
   327    C   22  dxz    Ryd( 3d)     0.00061
   328    C   22  dyz    Ryd( 3d)     0.00047
   329    C   22  dx2y2  Ryd( 3d)     0.00051
   330    C   22  dz2    Ryd( 3d)     0.00039

   331    H   23  S      Val( 1S)     0.56791
   332    H   23  S      Ryd( 2S)     0.00108
   333    H   23  px     Ryd( 2p)     0.00034
   334    H   23  py     Ryd( 2p)     0.00031
   335    H   23  pz     Ryd( 2p)     0.00057

   336    H   24  S      Val( 1S)     0.56856
   337    H   24  S      Ryd( 2S)     0.00135
   338    H   24  px     Ryd( 2p)     0.00024
   339    H   24  py     Ryd( 2p)     0.00062
   340    H   24  pz     Ryd( 2p)     0.00036

   341    H   25  S      Val( 1S)     0.75107
   342    H   25  S      Ryd( 2S)     0.00090
   343    H   25  px     Ryd( 2p)     0.00009
   344    H   25  py     Ryd( 2p)     0.00029
   345    H   25  pz     Ryd( 2p)     0.00024

   346    H   26  S      Val( 1S)     0.74371
   347    H   26  S      Ryd( 2S)     0.00110
   348    H   26  px     Ryd( 2p)     0.00021
   349    H   26  py     Ryd( 2p)     0.00020
   350    H   26  pz     Ryd( 2p)     0.00019

   351    H   27  S      Val( 1S)     0.74371
   352    H   27  S      Ryd( 2S)     0.00110
   353    H   27  px     Ryd( 2p)     0.00021
   354    H   27  py     Ryd( 2p)     0.00020
   355    H   27  pz     Ryd( 2p)     0.00019

   356    H   28  S      Val( 1S)     0.75107
   357    H   28  S      Ryd( 2S)     0.00090
   358    H   28  px     Ryd( 2p)     0.00009
   359    H   28  py     Ryd( 2p)     0.00029
   360    H   28  pz     Ryd( 2p)     0.00024

   361    H   29  S      Val( 1S)     0.56791
   362    H   29  S      Ryd( 2S)     0.00108
   363    H   29  px     Ryd( 2p)     0.00034
   364    H   29  py     Ryd( 2p)     0.00031
   365    H   29  pz     Ryd( 2p)     0.00057

   366    H   30  S      Val( 1S)     0.56856
   367    H   30  S      Ryd( 2S)     0.00135
   368    H   30  px     Ryd( 2p)     0.00024
   369    H   30  py     Ryd( 2p)     0.00062
   370    H   30  pz     Ryd( 2p)     0.00036

   371    H   31  S      Val( 1S)     0.74370
   372    H   31  S      Ryd( 2S)     0.00166
   373    H   31  px     Ryd( 2p)     0.00020
   374    H   31  py     Ryd( 2p)     0.00022
   375    H   31  pz     Ryd( 2p)     0.00022

   376    H   32  S      Val( 1S)     0.74370
   377    H   32  S      Ryd( 2S)     0.00166
   378    H   32  px     Ryd( 2p)     0.00020
   379    H   32  py     Ryd( 2p)     0.00022
   380    H   32  pz     Ryd( 2p)     0.00022

 WARNING:  1 low occupancy (<1.9990e) core orbital  found on  C    2
           1 low occupancy (<1.9990e) core orbital  found on  C    5
           1 low occupancy (<1.9990e) core orbital  found on  C    6
           1 low occupancy (<1.9990e) core orbital  found on  C    9
           1 low occupancy (<1.9990e) core orbital  found on  C   12
           1 low occupancy (<1.9990e) core orbital  found on  C   17


 Summary of Natural Population Analysis:                  
                                                          
                                       Natural Population 
                Natural  -----------------------------------------------
    Atom  No    Charge         Core      Valence    Rydberg      Total
 -----------------------------------------------------------------------
      N    1   -0.75370      1.99948     5.74349    0.01072     7.75370
      C    2    0.18993      1.99898     3.79310    0.01798     5.81007
      C    3   -0.32710      1.99904     4.31227    0.01579     6.32710
      C    4   -0.21241      1.99905     4.19791    0.01545     6.21241
      C    5   -0.01682      1.99897     3.99867    0.01917     6.01682
      C    6   -0.01682      1.99897     3.99867    0.01917     6.01682
      C    7   -0.21241      1.99905     4.19791    0.01545     6.21241
      C    8   -0.32710      1.99904     4.31227    0.01579     6.32710
      C    9    0.18993      1.99898     3.79310    0.01798     5.81007
      N   10   -0.75370      1.99948     5.74349    0.01072     7.75370
      C   11   -0.27136      1.99901     4.25701    0.01534     6.27136
      C   12   -0.21314      1.99879     4.19649    0.01786     6.21314
      C   13    1.11066      1.99905     2.82007    0.07022     4.88934
      F   14   -0.37108      1.99993     7.36491    0.00624     9.37108
      F   15   -0.37248      1.99993     7.36672    0.00584     9.37248
      F   16   -0.37718      1.99993     7.37121    0.00605     9.37718
      C   17   -0.21314      1.99879     4.19649    0.01786     6.21314
      C   18    1.11066      1.99905     2.82007    0.07022     4.88934
      F   19   -0.37108      1.99993     7.36491    0.00624     9.37108
      F   20   -0.37248      1.99993     7.36672    0.00584     9.37248
      F   21   -0.37718      1.99993     7.37121    0.00605     9.37718
      C   22   -0.27136      1.99901     4.25701    0.01534     6.27136
      H   23    0.42979      0.00000     0.56791    0.00230     0.57021
      H   24    0.42887      0.00000     0.56856    0.00257     0.57113
      H   25    0.24741      0.00000     0.75107    0.00152     0.75259
      H   26    0.25458      0.00000     0.74371    0.00171     0.74542
      H   27    0.25458      0.00000     0.74371    0.00171     0.74542
      H   28    0.24741      0.00000     0.75107    0.00152     0.75259
      H   29    0.42979      0.00000     0.56791    0.00230     0.57021
      H   30    0.42887      0.00000     0.56856    0.00257     0.57113
      H   31    0.25401      0.00000     0.74370    0.00229     0.74599
      H   32    0.25401      0.00000     0.74370    0.00229     0.74599
 =======================================================================
   * Total *   -0.00000     43.98430   117.59363    0.42207   162.00000

                                 Natural Population      
 --------------------------------------------------------
   Core                      43.98430 ( 99.9643% of  44)
   Valence                  117.59363 ( 99.6556% of 118)
   Natural Minimal Basis    161.57793 ( 99.7395% of 162)
   Natural Rydberg Basis      0.42207 (  0.2605% of 162)
 --------------------------------------------------------

    Atom  No          Natural Electron Configuration
 ----------------------------------------------------------------------------
      N    1      [core]2S( 1.36)2p( 4.38)3p( 0.01)
      C    2      [core]2S( 0.85)2p( 2.95)3p( 0.01)
      C    3      [core]2S( 0.95)2p( 3.36)3p( 0.01)
      C    4      [core]2S( 0.95)2p( 3.25)3p( 0.01)
      C    5      [core]2S( 0.87)2p( 3.13)3p( 0.01)
      C    6      [core]2S( 0.87)2p( 3.13)3p( 0.01)
      C    7      [core]2S( 0.95)2p( 3.25)3p( 0.01)
      C    8      [core]2S( 0.95)2p( 3.36)3p( 0.01)
      C    9      [core]2S( 0.85)2p( 2.95)3p( 0.01)
      N   10      [core]2S( 1.36)2p( 4.38)3p( 0.01)
      C   11      [core]2S( 0.94)2p( 3.31)3p( 0.01)
      C   12      [core]2S( 0.89)2p( 3.31)3p( 0.01)
      C   13      [core]2S( 0.80)2p( 2.02)3S( 0.01)3p( 0.05)3d( 0.02)
      F   14      [core]2S( 1.84)2p( 5.52)
      F   15      [core]2S( 1.84)2p( 5.53)
      F   16      [core]2S( 1.85)2p( 5.52)
      C   17      [core]2S( 0.89)2p( 3.31)3p( 0.01)
      C   18      [core]2S( 0.80)2p( 2.02)3S( 0.01)3p( 0.05)3d( 0.02)
      F   19      [core]2S( 1.84)2p( 5.52)
      F   20      [core]2S( 1.84)2p( 5.53)
      F   21      [core]2S( 1.85)2p( 5.52)
      C   22      [core]2S( 0.94)2p( 3.31)3p( 0.01)
      H   23            1S( 0.57)
      H   24            1S( 0.57)
      H   25            1S( 0.75)
      H   26            1S( 0.74)
      H   27            1S( 0.74)
      H   28            1S( 0.75)
      H   29            1S( 0.57)
      H   30            1S( 0.57)
      H   31            1S( 0.74)
      H   32            1S( 0.74)


 NBO analysis skipped by request.
 1\1\GINC-DRG2-W004\SP\RB3LYP TD-FC\6-31G(d,p)\C14H10F6N2\QDUEZ\21-Jul-
 2024\0\\# TD(NStates=10, Root=1) B3LYP/6-31G** SCRF=(Solvent=water) vo
 lume pop=NPA density=current Geom=AllCheck Guess=Read\\NVKGJHAQGWCWDI-
 UHFFFAOYSA-N_conf_1\\0,1\N,0,-4.8169408414,0.8854549265,-1.0763821791\
 C,0,-3.4724380394,0.6420115335,-0.8284655321\C,0,-2.5069837786,0.78248
 34092,-1.8397614857\C,0,-1.1746564705,0.4721552476,-1.5912662617\C,0,-
 0.7325961124,0.0114836669,-0.3427851274\C,0,0.7087399423,-0.3553309017
 ,-0.1604937083\C,0,1.0891893034,-1.7040224055,-0.211780329\C,0,2.41508
 70995,-2.1070212261,-0.0989242725\C,0,3.4366579699,-1.1577217035,0.073
 6362804\N,0,4.7717823558,-1.5363395084,0.1237023458\C,0,3.0719788499,0
 .1985446771,0.1336773111\C,0,1.7390913498,0.5910447036,0.0189242317\C,
 0,1.4268169666,2.0649295523,0.0889047509\F,0,0.4561573889,2.3473471514
 ,0.9888599421\F,0,2.5045345364,2.8052286102,0.4402515631\F,0,1.0018435
 735,2.5553883312,-1.1049467263\C,0,-1.7064904211,-0.1211568089,0.66883
 63352\C,0,-1.3256701958,-0.6070675189,2.0449234863\F,0,-0.2874496458,0
 .0842936024,2.5702585719\F,0,-2.3447765123,-0.5025830252,2.9300606192\
 F,0,-0.9574167029,-1.9150489608,2.0421919407\C,0,-3.0452007312,0.18741
 72203,0.4312433955\H,0,-5.3792154077,1.0977499662,-0.2628304021\H,0,-5
 .0103872217,1.5170865475,-1.8423356687\H,0,-2.8057899905,1.133221418,-
 2.8236770878\H,0,-0.4487250429,0.5905319675,-2.3889523979\H,0,0.319219
 5646,-2.4571381125,-0.3431423867\H,0,2.6649470774,-3.1632377115,-0.147
 5960645\H,0,5.394199257,-0.8817812687,0.5789375424\H,0,4.943055629,-2.
 487557889,0.4218865497\H,0,3.8402054959,0.9498728179,0.2759476894\H,0,
 -3.7687692456,0.0797616913,1.2310970743\\Version=ES64L-G16RevA.03\Stat
 e=1-A\HF=-1248.1172519\RMSD=2.627e-09\Dipole=-0.0409422,-0.590058,-0.8
 636513\Quadrupole=29.8941095,-13.1155967,-16.7785128,-19.049936,10.750
 9972,-2.3468632\PG=C01 [X(C14H10F6N2)]\\@


 ALL SCIENCE IS EITHER PHYSICS, OR STAMP COLLECTING.
   --ERNEST RUTHERFORD, 1871-1937.
 Job cpu time:       0 days  1 hours 19 minutes 32.8 seconds.
 Elapsed time:       0 days  0 hours 26 minutes 36.0 seconds.
 File lengths (MBytes):  RWF=   1285 Int=      0 D2E=      0 Chk=     74 Scr=      1
 Normal termination of Gaussian 16 at Sun Jul 21 13:22:01 2024.
