 Entering Gaussian System, Link 0=g16
 Initial command:
 /opt/sw/arch/manual/gaussian/G16_A03/g16/l1.exe "/scratch/1381508/Gau-34603.inp" -scrdir="/scratch/1381508/"
 Entering Link 1 = /opt/sw/arch/manual/gaussian/G16_A03/g16/l1.exe PID=     34604.
  
 Copyright (c) 1988,1990,1992,1993,1995,1998,2003,2009,2016,
            Gaussian, Inc.  All Rights Reserved.
  
 This is part of the Gaussian(R) 16 program.  It is based on
 the Gaussian(R) 09 system (copyright 2009, Gaussian, Inc.),
 the Gaussian(R) 03 system (copyright 2003, Gaussian, Inc.),
 the Gaussian(R) 98 system (copyright 1998, Gaussian, Inc.),
 the Gaussian(R) 94 system (copyright 1995, Gaussian, Inc.),
 the Gaussian 92(TM) system (copyright 1992, Gaussian, Inc.),
 the Gaussian 90(TM) system (copyright 1990, Gaussian, Inc.),
 the Gaussian 88(TM) system (copyright 1988, Gaussian, Inc.),
 the Gaussian 86(TM) system (copyright 1986, Carnegie Mellon
 University), and the Gaussian 82(TM) system (copyright 1983,
 Carnegie Mellon University). Gaussian is a federally registered
 trademark of Gaussian, Inc.
  
 This software contains proprietary and confidential information,
 including trade secrets, belonging to Gaussian, Inc.
  
 This software is provided under written license and may be
 used, copied, transmitted, or stored only in accord with that
 written license.
  
 The following legend is applicable only to US Government
 contracts under FAR:
  
                    RESTRICTED RIGHTS LEGEND
  
 Use, reproduction and disclosure by the US Government is
 subject to restrictions as set forth in subparagraphs (a)
 and (c) of the Commercial Computer Software - Restricted
 Rights clause in FAR 52.227-19.
  
 Gaussian, Inc.
 340 Quinnipiac St., Bldg. 40, Wallingford CT 06492
  
  
 ---------------------------------------------------------------
 Warning -- This program may not be used in any manner that
 competes with the business of Gaussian, Inc. or will provide
 assistance to any competitor of Gaussian, Inc.  The licensee
 of this program is prohibited from giving any competitor of
 Gaussian, Inc. access to this program.  By using this program,
 the user acknowledges that Gaussian, Inc. is engaged in the
 business of creating and licensing software in the field of
 computational chemistry and represents and warrants to the
 licensee that it is not a competitor of Gaussian, Inc. and that
 it will not use this program in any manner prohibited above.
 ---------------------------------------------------------------
  

 Cite this work as:
 Gaussian 16, Revision A.03,
 M. J. Frisch, G. W. Trucks, H. B. Schlegel, G. E. Scuseria, 
 M. A. Robb, J. R. Cheeseman, G. Scalmani, V. Barone, 
 G. A. Petersson, H. Nakatsuji, X. Li, M. Caricato, A. V. Marenich, 
 J. Bloino, B. G. Janesko, R. Gomperts, B. Mennucci, H. P. Hratchian, 
 J. V. Ortiz, A. F. Izmaylov, J. L. Sonnenberg, D. Williams-Young, 
 F. Ding, F. Lipparini, F. Egidi, J. Goings, B. Peng, A. Petrone, 
 T. Henderson, D. Ranasinghe, V. G. Zakrzewski, J. Gao, N. Rega, 
 G. Zheng, W. Liang, M. Hada, M. Ehara, K. Toyota, R. Fukuda, 
 J. Hasegawa, M. Ishida, T. Nakajima, Y. Honda, O. Kitao, H. Nakai, 
 T. Vreven, K. Throssell, J. A. Montgomery, Jr., J. E. Peralta, 
 F. Ogliaro, M. J. Bearpark, J. J. Heyd, E. N. Brothers, K. N. Kudin, 
 V. N. Staroverov, T. A. Keith, R. Kobayashi, J. Normand, 
 K. Raghavachari, A. P. Rendell, J. C. Burant, S. S. Iyengar, 
 J. Tomasi, M. Cossi, J. M. Millam, M. Klene, C. Adamo, R. Cammi, 
 J. W. Ochterski, R. L. Martin, K. Morokuma, O. Farkas, 
 J. B. Foresman, and D. J. Fox, Gaussian, Inc., Wallingford CT, 2016.
 
 ******************************************
 Gaussian 16:  ES64L-G16RevA.03 25-Dec-2016
                21-Jul-2024 
 ******************************************
 %nprocshared=5
 Will use up to    5 processors via shared memory.
 %mem=10GB
 %Chk=NVKGJHAQGWCWDI-UHFFFAOYSA-N_conf_2_0.chk
 -------------------------------------------------------
 # opt=CalcFc B3LYP/6-31G** SCRF=(Solvent=water) scf=xqc
 -------------------------------------------------------
 1/10=4,18=20,19=15,26=3,38=1/1,3;
 2/9=110,12=2,17=6,18=5,40=1/2;
 3/5=1,6=6,7=101,11=2,25=1,30=1,70=2201,71=2,72=1,74=-5,140=1/1,2,3;
 4//1;
 5/5=2,8=3,13=1,38=5,53=1/2,8;
 8/6=4,10=90,11=11/1;
 11/6=1,8=1,9=11,15=111,16=1/1,2,10;
 10/6=1,13=1/2;
 6/7=2,8=2,9=2,10=2,28=1/1;
 7/10=1,18=20,25=1/1,2,3,16;
 1/10=4,18=20,19=15,26=3/3(2);
 2/9=110/2;
 99//99;
 2/9=110/2;
 3/5=1,6=6,7=101,11=2,25=1,30=1,70=2205,71=1,72=1,74=-5/1,2,3;
 4/5=5,16=3,69=1/1;
 5/5=2,8=3,13=1,38=5,53=1/2,8;
 7//1,2,3,16;
 1/18=20,19=15,26=3/3(-5);
 2/9=110/2;
 6/7=2,8=2,9=2,10=2,19=2,28=1/1;
 99/9=1/99;
 ----------------------------------
 NVKGJHAQGWCWDI-UHFFFAOYSA-N_conf_2
 ----------------------------------
 Symbolic Z-matrix:
 Charge =  0 Multiplicity = 1
 N                    -4.75672   0.17809  -1.36792 
 C                    -3.41224   0.18194  -0.98601 
 C                    -2.43738   0.67815  -1.84704 
 C                    -1.08198   0.57438  -1.52463 
 C                    -0.66218  -0.06517  -0.3461 
 C                     0.7785   -0.15086  -0.05793 
 C                     1.47816  -1.31014  -0.43308 
 C                     2.84728  -1.43937  -0.18678 
 C                     3.54805  -0.43414   0.47381 
 N                     4.93693  -0.51272   0.60924 
 C                     2.87618   0.74724   0.79134 
 C                     1.49304   0.89945   0.55684 
 C                     0.82249   2.19775   0.94185 
 F                     1.61862   3.0146    1.69232 
 F                    -0.31038   2.02708   1.67879 
 F                     0.4624    2.94217  -0.14135 
 C                    -1.64034  -0.62589   0.50269 
 C                    -1.26575  -1.37457   1.7607 
 F                    -0.6635   -2.56879   1.49933 
 F                    -0.41112  -0.68716   2.56858 
 F                    -2.33901  -1.67675   2.54879 
 C                    -3.00285  -0.51199   0.15361 
 H                    -5.4092    0.10107  -0.59355 
 H                    -5.00706   0.92944  -2.00385 
 H                    -2.72179   1.15506  -2.78159 
 H                    -0.34739   0.99182  -2.21239 
 H                     0.95778  -2.1254   -0.93452 
 H                     3.35954  -2.33943  -0.51721 
 H                     5.29414  -1.46256   0.65185 
 H                     5.31673   0.07068   1.34863 
 H                     3.43608   1.57035   1.23394 
 H                    -3.75702  -0.97433   0.78951 
 

 GradGradGradGradGradGradGradGradGradGradGradGradGradGradGradGradGradGrad
 Berny optimization.
 Initialization pass.
                           ----------------------------
                           !    Initial Parameters    !
                           ! (Angstroms and Degrees)  !
 --------------------------                            --------------------------
 ! Name  Definition              Value          Derivative Info.                !
 --------------------------------------------------------------------------------
 ! R1    R(1,2)                  1.3977         calculate D2E/DX2 analytically  !
 ! R2    R(1,23)                 1.0155         calculate D2E/DX2 analytically  !
 ! R3    R(1,24)                 1.0157         calculate D2E/DX2 analytically  !
 ! R4    R(2,3)                  1.3921         calculate D2E/DX2 analytically  !
 ! R5    R(2,22)                 1.3957         calculate D2E/DX2 analytically  !
 ! R6    R(3,4)                  1.3971         calculate D2E/DX2 analytically  !
 ! R7    R(3,25)                 1.0871         calculate D2E/DX2 analytically  !
 ! R8    R(4,5)                  1.4051         calculate D2E/DX2 analytically  !
 ! R9    R(4,26)                 1.0894         calculate D2E/DX2 analytically  !
 ! R10   R(5,6)                  1.4717         calculate D2E/DX2 analytically  !
 ! R11   R(5,17)                 1.4113         calculate D2E/DX2 analytically  !
 ! R12   R(6,7)                  1.4051         calculate D2E/DX2 analytically  !
 ! R13   R(6,12)                 1.4113         calculate D2E/DX2 analytically  !
 ! R14   R(7,8)                  1.3971         calculate D2E/DX2 analytically  !
 ! R15   R(7,27)                 1.0894         calculate D2E/DX2 analytically  !
 ! R16   R(8,9)                  1.3921         calculate D2E/DX2 analytically  !
 ! R17   R(8,28)                 1.0871         calculate D2E/DX2 analytically  !
 ! R18   R(9,10)                 1.3977         calculate D2E/DX2 analytically  !
 ! R19   R(9,11)                 1.3957         calculate D2E/DX2 analytically  !
 ! R20   R(10,29)                1.0157         calculate D2E/DX2 analytically  !
 ! R21   R(10,30)                1.0155         calculate D2E/DX2 analytically  !
 ! R22   R(11,12)                1.4111         calculate D2E/DX2 analytically  !
 ! R23   R(11,31)                1.0894         calculate D2E/DX2 analytically  !
 ! R24   R(12,13)                1.5111         calculate D2E/DX2 analytically  !
 ! R25   R(13,14)                1.3654         calculate D2E/DX2 analytically  !
 ! R26   R(13,15)                1.3622         calculate D2E/DX2 analytically  !
 ! R27   R(13,16)                1.3628         calculate D2E/DX2 analytically  !
 ! R28   R(17,18)                1.5111         calculate D2E/DX2 analytically  !
 ! R29   R(17,22)                1.4111         calculate D2E/DX2 analytically  !
 ! R30   R(18,19)                1.3628         calculate D2E/DX2 analytically  !
 ! R31   R(18,20)                1.3622         calculate D2E/DX2 analytically  !
 ! R32   R(18,21)                1.3654         calculate D2E/DX2 analytically  !
 ! R33   R(22,32)                1.0894         calculate D2E/DX2 analytically  !
 ! A1    A(2,1,23)             114.198          calculate D2E/DX2 analytically  !
 ! A2    A(2,1,24)             113.9625         calculate D2E/DX2 analytically  !
 ! A3    A(23,1,24)            112.0346         calculate D2E/DX2 analytically  !
 ! A4    A(1,2,3)              120.3712         calculate D2E/DX2 analytically  !
 ! A5    A(1,2,22)             120.2594         calculate D2E/DX2 analytically  !
 ! A6    A(3,2,22)             118.4802         calculate D2E/DX2 analytically  !
 ! A7    A(2,3,4)              120.6759         calculate D2E/DX2 analytically  !
 ! A8    A(2,3,25)             120.3246         calculate D2E/DX2 analytically  !
 ! A9    A(4,3,25)             118.9993         calculate D2E/DX2 analytically  !
 ! A10   A(3,4,5)              121.1469         calculate D2E/DX2 analytically  !
 ! A11   A(3,4,26)             118.6868         calculate D2E/DX2 analytically  !
 ! A12   A(5,4,26)             120.1633         calculate D2E/DX2 analytically  !
 ! A13   A(4,5,6)              118.8954         calculate D2E/DX2 analytically  !
 ! A14   A(4,5,17)             118.5704         calculate D2E/DX2 analytically  !
 ! A15   A(6,5,17)             122.5206         calculate D2E/DX2 analytically  !
 ! A16   A(5,6,7)              118.8955         calculate D2E/DX2 analytically  !
 ! A17   A(5,6,12)             122.5205         calculate D2E/DX2 analytically  !
 ! A18   A(7,6,12)             118.5704         calculate D2E/DX2 analytically  !
 ! A19   A(6,7,8)              121.1469         calculate D2E/DX2 analytically  !
 ! A20   A(6,7,27)             120.1632         calculate D2E/DX2 analytically  !
 ! A21   A(8,7,27)             118.6869         calculate D2E/DX2 analytically  !
 ! A22   A(7,8,9)              120.6759         calculate D2E/DX2 analytically  !
 ! A23   A(7,8,28)             118.9994         calculate D2E/DX2 analytically  !
 ! A24   A(9,8,28)             120.3247         calculate D2E/DX2 analytically  !
 ! A25   A(8,9,10)             120.3713         calculate D2E/DX2 analytically  !
 ! A26   A(8,9,11)             118.4802         calculate D2E/DX2 analytically  !
 ! A27   A(10,9,11)            120.2593         calculate D2E/DX2 analytically  !
 ! A28   A(9,10,29)            113.9623         calculate D2E/DX2 analytically  !
 ! A29   A(9,10,30)            114.1976         calculate D2E/DX2 analytically  !
 ! A30   A(29,10,30)           112.0342         calculate D2E/DX2 analytically  !
 ! A31   A(9,11,12)            121.6917         calculate D2E/DX2 analytically  !
 ! A32   A(9,11,31)            118.9832         calculate D2E/DX2 analytically  !
 ! A33   A(12,11,31)           119.3249         calculate D2E/DX2 analytically  !
 ! A34   A(6,12,11)            119.2348         calculate D2E/DX2 analytically  !
 ! A35   A(6,12,13)            121.7181         calculate D2E/DX2 analytically  !
 ! A36   A(11,12,13)           119.0311         calculate D2E/DX2 analytically  !
 ! A37   A(12,13,14)           113.2854         calculate D2E/DX2 analytically  !
 ! A38   A(12,13,15)           113.5304         calculate D2E/DX2 analytically  !
 ! A39   A(12,13,16)           112.5854         calculate D2E/DX2 analytically  !
 ! A40   A(14,13,15)           105.2197         calculate D2E/DX2 analytically  !
 ! A41   A(14,13,16)           105.3158         calculate D2E/DX2 analytically  !
 ! A42   A(15,13,16)           106.1825         calculate D2E/DX2 analytically  !
 ! A43   A(5,17,18)            121.7181         calculate D2E/DX2 analytically  !
 ! A44   A(5,17,22)            119.2348         calculate D2E/DX2 analytically  !
 ! A45   A(18,17,22)           119.0311         calculate D2E/DX2 analytically  !
 ! A46   A(17,18,19)           112.5851         calculate D2E/DX2 analytically  !
 ! A47   A(17,18,20)           113.5306         calculate D2E/DX2 analytically  !
 ! A48   A(17,18,21)           113.2855         calculate D2E/DX2 analytically  !
 ! A49   A(19,18,20)           106.1825         calculate D2E/DX2 analytically  !
 ! A50   A(19,18,21)           105.3159         calculate D2E/DX2 analytically  !
 ! A51   A(20,18,21)           105.2197         calculate D2E/DX2 analytically  !
 ! A52   A(2,22,17)            121.6917         calculate D2E/DX2 analytically  !
 ! A53   A(2,22,32)            118.9832         calculate D2E/DX2 analytically  !
 ! A54   A(17,22,32)           119.3249         calculate D2E/DX2 analytically  !
 ! D1    D(23,1,2,3)          -160.3971         calculate D2E/DX2 analytically  !
 ! D2    D(23,1,2,22)           30.5592         calculate D2E/DX2 analytically  !
 ! D3    D(24,1,2,3)           -29.8689         calculate D2E/DX2 analytically  !
 ! D4    D(24,1,2,22)          161.0874         calculate D2E/DX2 analytically  !
 ! D5    D(1,2,3,4)           -174.1312         calculate D2E/DX2 analytically  !
 ! D6    D(1,2,3,25)             5.995          calculate D2E/DX2 analytically  !
 ! D7    D(22,2,3,4)            -4.8954         calculate D2E/DX2 analytically  !
 ! D8    D(22,2,3,25)          175.2309         calculate D2E/DX2 analytically  !
 ! D9    D(1,2,22,17)          174.3961         calculate D2E/DX2 analytically  !
 ! D10   D(1,2,22,32)           -5.7675         calculate D2E/DX2 analytically  !
 ! D11   D(3,2,22,17)            5.1478         calculate D2E/DX2 analytically  !
 ! D12   D(3,2,22,32)         -175.0158         calculate D2E/DX2 analytically  !
 ! D13   D(2,3,4,5)              1.8572         calculate D2E/DX2 analytically  !
 ! D14   D(2,3,4,26)          -178.7687         calculate D2E/DX2 analytically  !
 ! D15   D(25,3,4,5)          -178.2674         calculate D2E/DX2 analytically  !
 ! D16   D(25,3,4,26)            1.1067         calculate D2E/DX2 analytically  !
 ! D17   D(3,4,5,6)            179.7646         calculate D2E/DX2 analytically  !
 ! D18   D(3,4,5,17)             1.071          calculate D2E/DX2 analytically  !
 ! D19   D(26,4,5,6)             0.3996         calculate D2E/DX2 analytically  !
 ! D20   D(26,4,5,17)         -178.294          calculate D2E/DX2 analytically  !
 ! D21   D(4,5,6,7)            -95.0067         calculate D2E/DX2 analytically  !
 ! D22   D(4,5,6,12)            83.6323         calculate D2E/DX2 analytically  !
 ! D23   D(17,5,6,7)            83.6327         calculate D2E/DX2 analytically  !
 ! D24   D(17,5,6,12)          -97.7284         calculate D2E/DX2 analytically  !
 ! D25   D(4,5,17,18)          177.6721         calculate D2E/DX2 analytically  !
 ! D26   D(4,5,17,22)           -0.857          calculate D2E/DX2 analytically  !
 ! D27   D(6,5,17,18)           -0.9715         calculate D2E/DX2 analytically  !
 ! D28   D(6,5,17,22)         -179.5005         calculate D2E/DX2 analytically  !
 ! D29   D(5,6,7,8)            179.7641         calculate D2E/DX2 analytically  !
 ! D30   D(5,6,7,27)             0.399          calculate D2E/DX2 analytically  !
 ! D31   D(12,6,7,8)             1.0708         calculate D2E/DX2 analytically  !
 ! D32   D(12,6,7,27)         -178.2943         calculate D2E/DX2 analytically  !
 ! D33   D(5,6,12,11)         -179.4999         calculate D2E/DX2 analytically  !
 ! D34   D(5,6,12,13)           -0.9704         calculate D2E/DX2 analytically  !
 ! D35   D(7,6,12,11)           -0.8567         calculate D2E/DX2 analytically  !
 ! D36   D(7,6,12,13)          177.6728         calculate D2E/DX2 analytically  !
 ! D37   D(6,7,8,9)              1.8571         calculate D2E/DX2 analytically  !
 ! D38   D(6,7,8,28)          -178.2677         calculate D2E/DX2 analytically  !
 ! D39   D(27,7,8,9)          -178.7687         calculate D2E/DX2 analytically  !
 ! D40   D(27,7,8,28)            1.1065         calculate D2E/DX2 analytically  !
 ! D41   D(7,8,9,10)          -174.1312         calculate D2E/DX2 analytically  !
 ! D42   D(7,8,9,11)            -4.8952         calculate D2E/DX2 analytically  !
 ! D43   D(28,8,9,10)            5.9952         calculate D2E/DX2 analytically  !
 ! D44   D(28,8,9,11)          175.2313         calculate D2E/DX2 analytically  !
 ! D45   D(8,9,10,29)          -29.8697         calculate D2E/DX2 analytically  !
 ! D46   D(8,9,10,30)         -160.3969         calculate D2E/DX2 analytically  !
 ! D47   D(11,9,10,29)         161.0863         calculate D2E/DX2 analytically  !
 ! D48   D(11,9,10,30)          30.5592         calculate D2E/DX2 analytically  !
 ! D49   D(8,9,11,12)            5.1478         calculate D2E/DX2 analytically  !
 ! D50   D(8,9,11,31)         -175.0165         calculate D2E/DX2 analytically  !
 ! D51   D(10,9,11,12)         174.3963         calculate D2E/DX2 analytically  !
 ! D52   D(10,9,11,31)          -5.768          calculate D2E/DX2 analytically  !
 ! D53   D(9,11,12,6)           -2.289          calculate D2E/DX2 analytically  !
 ! D54   D(9,11,12,13)         179.1417         calculate D2E/DX2 analytically  !
 ! D55   D(31,11,12,6)         177.8758         calculate D2E/DX2 analytically  !
 ! D56   D(31,11,12,13)         -0.6935         calculate D2E/DX2 analytically  !
 ! D57   D(6,12,13,14)         171.1565         calculate D2E/DX2 analytically  !
 ! D58   D(6,12,13,15)          51.2146         calculate D2E/DX2 analytically  !
 ! D59   D(6,12,13,16)         -69.4726         calculate D2E/DX2 analytically  !
 ! D60   D(11,12,13,14)        -10.3112         calculate D2E/DX2 analytically  !
 ! D61   D(11,12,13,15)       -130.253          calculate D2E/DX2 analytically  !
 ! D62   D(11,12,13,16)        109.0598         calculate D2E/DX2 analytically  !
 ! D63   D(5,17,18,19)         -69.4732         calculate D2E/DX2 analytically  !
 ! D64   D(5,17,18,20)          51.2138         calculate D2E/DX2 analytically  !
 ! D65   D(5,17,18,21)         171.1559         calculate D2E/DX2 analytically  !
 ! D66   D(22,17,18,19)        109.0587         calculate D2E/DX2 analytically  !
 ! D67   D(22,17,18,20)       -130.2542         calculate D2E/DX2 analytically  !
 ! D68   D(22,17,18,21)        -10.3122         calculate D2E/DX2 analytically  !
 ! D69   D(5,17,22,2)           -2.2887         calculate D2E/DX2 analytically  !
 ! D70   D(5,17,22,32)         177.8754         calculate D2E/DX2 analytically  !
 ! D71   D(18,17,22,2)         179.1423         calculate D2E/DX2 analytically  !
 ! D72   D(18,17,22,32)         -0.6935         calculate D2E/DX2 analytically  !
 --------------------------------------------------------------------------------
 Trust Radius=3.00D-01 FncErr=1.00D-07 GrdErr=1.00D-06 EigMax=2.50D+02 EigMin=1.00D-04
 Number of steps in this run=    169 maximum allowed number of steps=    192.
 GradGradGradGradGradGradGradGradGradGradGradGradGradGradGradGradGradGrad

                          Input orientation:                          
 ---------------------------------------------------------------------
 Center     Atomic      Atomic             Coordinates (Angstroms)
 Number     Number       Type             X           Y           Z
 ---------------------------------------------------------------------
      1          7           0       -4.756720    0.178086   -1.367923
      2          6           0       -3.412242    0.181942   -0.986008
      3          6           0       -2.437384    0.678152   -1.847037
      4          6           0       -1.081975    0.574382   -1.524635
      5          6           0       -0.662177   -0.065174   -0.346102
      6          6           0        0.778500   -0.150857   -0.057934
      7          6           0        1.478161   -1.310144   -0.433076
      8          6           0        2.847279   -1.439365   -0.186782
      9          6           0        3.548050   -0.434137    0.473809
     10          7           0        4.936926   -0.512725    0.609241
     11          6           0        2.876182    0.747241    0.791341
     12          6           0        1.493037    0.899451    0.556840
     13          6           0        0.822488    2.197745    0.941855
     14          9           0        1.618615    3.014604    1.692318
     15          9           0       -0.310379    2.027078    1.678794
     16          9           0        0.462398    2.942175   -0.141349
     17          6           0       -1.640343   -0.625888    0.502688
     18          6           0       -1.265753   -1.374573    1.760701
     19          9           0       -0.663502   -2.568791    1.499333
     20          9           0       -0.411124   -0.687162    2.568582
     21          9           0       -2.339010   -1.676745    2.548789
     22          6           0       -3.002850   -0.511993    0.153615
     23          1           0       -5.409197    0.101071   -0.593551
     24          1           0       -5.007060    0.929438   -2.003849
     25          1           0       -2.721790    1.155056   -2.781589
     26          1           0       -0.347390    0.991822   -2.212390
     27          1           0        0.957783   -2.125399   -0.934519
     28          1           0        3.359544   -2.339430   -0.517206
     29          1           0        5.294143   -1.462559    0.651847
     30          1           0        5.316727    0.070678    1.348635
     31          1           0        3.436083    1.570354    1.233935
     32          1           0       -3.757020   -0.974333    0.789513
 ---------------------------------------------------------------------
                    Distance matrix (angstroms):
                    1          2          3          4          5
     1  N    0.000000
     2  C    1.397674   0.000000
     3  C    2.420523   1.392100   0.000000
     4  C    3.699372   2.423689   1.397084   0.000000
     5  C    4.227124   2.834326   2.440635   1.405063   0.000000
     6  C    5.697625   4.305160   3.772275   2.477611   1.471711
     7  C    6.477847   5.142771   4.613469   3.361136   2.477612
     8  C    7.863335   6.515290   5.930261   4.613466   3.772276
     9  C    8.528540   7.138367   6.515285   5.142764   4.305160
    10  N    9.917316   8.528540   7.863329   6.477839   5.697625
    11  C    7.952832   6.559177   5.932941   4.589186   3.804441
    12  C    6.579098   5.192009   4.612570   3.326995   2.527993
    13  C    6.367232   5.070804   4.551246   3.513667   2.997309
    14  F    7.619436   6.364505   5.868319   4.857639   4.340760
    15  F    5.698350   4.486340   4.333040   3.601061   2.932829
    16  F    6.031903   4.831684   4.055109   3.147223   3.217256
    17  C    3.722548   2.451211   2.803035   2.421252   1.411260
    18  C    4.938207   3.817665   4.313023   3.824347   2.552929
    19  F    5.702712   4.615087   4.988736   4.381671   3.110262
    20  F    5.926966   4.732564   5.046534   4.335431   2.990866
    21  F    4.962495   4.135377   4.987836   4.820839   3.713398
    22  C    2.422260   1.395668   2.395580   2.772452   2.434772
    23  H    1.015535   2.036760   3.276571   4.451493   4.756371
    24  H    1.015679   2.034256   2.586690   3.970138   4.755564
    25  H    2.663430   2.155872   1.087066   2.146184   3.415050
    26  H    4.562617   3.399005   2.144748   1.089439   2.167801
    27  H    6.176522   4.942024   4.496638   3.434774   2.686081
    28  H    8.540219   7.241145   6.669230   5.406691   4.623392
    29  H   10.382245   9.010443   8.402593   7.038543   6.198897
    30  H   10.433866   9.036473   8.408780   7.032268   6.215938
    31  H    8.708048   7.331807   6.692237   5.386513   4.686919
    32  H    2.642347   2.146699   3.379872   3.861303   3.419685
                    6          7          8          9         10
     6  C    0.000000
     7  C    1.405063   0.000000
     8  C    2.440635   1.397084   0.000000
     9  C    2.834326   2.423689   1.392101   0.000000
    10  N    4.227124   3.699373   2.420524   1.397674   0.000000
    11  C    2.434772   2.772452   2.395580   1.395667   2.422260
    12  C    1.411260   2.421252   2.803035   2.451210   3.722547
    13  C    2.552928   3.824347   4.313024   3.817664   4.938207
    14  F    3.713397   4.820838   4.987833   4.135372   4.962489
    15  F    2.990867   4.335427   5.046525   4.732552   5.926952
    16  F    3.110261   4.381677   4.988749   4.615100   5.702729
    17  C    2.527994   3.327000   4.612577   5.192016   6.579105
    18  C    2.997312   3.513669   4.551255   5.070820   6.367249
    19  F    3.217275   3.147240   4.055142   4.831731   6.031954
    20  F    2.932817   3.601035   4.333017   4.486330   5.698341
    21  F    4.340761   4.857644   5.868330   6.364519   7.619451
    22  C    3.804442   4.589194   5.932950   6.559183   7.952838
    23  H    6.215943   7.032281   8.408793   9.036481  10.433873
    24  H    6.198898   7.038547   8.402595   9.010440  10.382241
    25  H    4.623390   5.406691   6.669226   7.241136   8.540208
    26  H    2.686080   3.434770   4.496629   4.942012   6.176509
    27  H    2.167801   1.089440   2.144749   3.399006   4.562619
    28  H    3.415050   2.146185   1.087066   2.155873   2.663432
    29  H    4.755563   3.970139   2.586692   2.034254   1.015679
    30  H    4.756366   4.451489   3.276570   2.036757   1.015535
    31  H    3.419684   3.861302   3.379872   2.146698   2.642346
    32  H    4.686921   5.386521   6.692247   7.331817   8.708058
                   11         12         13         14         15
    11  C    0.000000
    12  C    1.411116   0.000000
    13  C    2.518785   1.511106   0.000000
    14  F    2.744844   2.403946   1.365384   0.000000
    15  F    3.546791   2.404711   1.362202   2.167120   0.000000
    16  F    3.393229   2.392155   1.362781   2.168967   2.178878
    17  C    4.729461   3.485349   3.772440   5.028838   3.192219
    18  C    4.753669   3.772450   4.218141   5.252536   3.534216
    19  F    4.901701   4.191378   5.023825   6.034866   4.612908
    20  F    4.002808   3.192221   3.534223   4.311700   2.858142
    21  F    6.013531   5.028840   5.252521   6.197185   4.311675
    22  C    6.046104   4.729456   4.753652   6.013521   4.002806
    23  H    8.425138   7.042843   6.751844   7.943803   5.905167
    24  H    8.366109   6.986364   6.653525   7.868236   6.068400
    25  H    6.653528   5.382862   5.245296   6.504835   5.144933
    26  H    4.412894   3.326310   3.573811   4.817008   4.026715
    27  H    3.861464   3.414727   4.714728   5.810044   5.067614
    28  H    3.387251   3.889444   5.399210   6.048018   6.112050
    29  H    3.278599   4.476217   5.785986   5.885327   6.681531
    30  H    2.593179   3.991793   4.988795   4.739288   5.966644
    31  H    1.089447   2.164255   2.703667   2.366255   3.800326
    32  H    6.852969   5.579274   5.572897   6.754564   4.656031
                   16         17         18         19         20
    16  F    0.000000
    17  C    4.191345   0.000000
    18  C    5.023804   1.511106   0.000000
    19  F    5.859201   2.392152   1.362782   0.000000
    20  F    4.612901   2.404714   1.362202   2.178879   0.000000
    21  F    6.034828   2.403948   1.365384   2.168970   2.167120
    22  C    4.901655   1.411116   2.518785   3.393217   3.546800
    23  H    6.538500   3.991800   4.988803   5.833519   5.966668
    24  H    6.118413   4.476221   5.785991   6.586076   6.681553
    25  H    4.505964   3.889443   5.399209   6.035717   6.112060
    26  H    2.957844   3.414727   4.714728   5.153133   5.067617
    27  H    5.153138   3.326313   3.573802   2.957837   4.026680
    28  H    6.035733   5.382869   5.245300   4.505989   5.144902
    29  H    6.586092   6.986369   6.653535   6.118457   6.068376
    30  H    5.833529   7.042844   6.751858   6.538551   5.905157
    31  H    3.551916   5.579275   5.572911   5.831771   4.656035
    32  H    5.831726   2.164256   2.703666   3.551900   3.800339
                   21         22         23         24         25
    21  F    0.000000
    22  C    2.744848   0.000000
    23  H    4.739302   2.593185   0.000000
    24  H    5.885338   3.278603   1.684295   0.000000
    25  H    6.048020   3.387250   3.622230   2.424508   0.000000
    26  H    5.810045   3.861463   5.388503   4.664751   2.447122
    27  H    4.817009   4.412905   6.753656   6.786373   5.264249
    28  H    6.504844   6.653538   9.102345   9.104706   7.370311
    29  H    7.868245   8.366116  10.888408  10.903630   9.104700
    30  H    7.943813   8.425137  10.900388  10.888398   9.102328
    31  H    6.754568   6.852964   9.150818   9.065356   7.363172
    32  H    2.366261   1.089448   2.408121   3.604139   4.284713
                   26         27         28         29         30
    26  H    0.000000
    27  H    3.612963   0.000000
    28  H    5.264243   2.447123   0.000000
    29  H    6.786364   4.664754   2.424513   0.000000
    30  H    6.753638   5.388501   3.622231   1.684292   0.000000
    31  H    5.150391   4.950026   4.284713   3.604133   2.408112
    32  H    4.950026   5.150399   7.363184   9.065366   9.150823
                   31         32
    31  H    0.000000
    32  H    7.642884   0.000000
 Stoichiometry    C14H10F6N2
 Framework group  C1[X(C14H10F6N2)]
 Deg. of freedom    90
 Full point group                 C1      NOp   1
 Largest Abelian subgroup         C1      NOp   1
 Largest concise Abelian subgroup C1      NOp   1
                         Standard orientation:                         
 ---------------------------------------------------------------------
 Center     Atomic      Atomic             Coordinates (Angstroms)
 Number     Number       Type             X           Y           Z
 ---------------------------------------------------------------------
      1          7           0        4.892487   -0.807367   -0.914805
      2          6           0        3.510789   -0.642973   -0.782970
      3          6           0        2.636135   -1.357486   -1.596845
      4          6           0        1.261730   -1.110104   -1.556139
      5          6           0        0.727427   -0.111038   -0.725120
      6          6           0       -0.727431    0.111042   -0.725118
      7          6           0       -1.261739    1.110109   -1.556131
      8          6           0       -2.636145    1.357484   -1.596839
      9          6           0       -3.510797    0.642959   -0.782970
     10          7           0       -4.892495    0.807346   -0.914805
     11          6           0       -2.997183   -0.394655   -0.003582
     12          6           0       -1.612679   -0.660442    0.057699
     13          6           0       -1.120407   -1.786854    0.936509
     14          9           0       -2.086270   -2.291019    1.759430
     15          9           0       -0.099455   -1.425592    1.762790
     16          9           0       -0.668084   -2.852396    0.217346
     17          6           0        1.612678    0.660439    0.057700
     18          6           0        1.120414    1.786860    0.936502
     19          9           0        0.668123    2.852408    0.217325
     20          9           0        0.099441    1.425621    1.762768
     21          9           0        2.086273    2.291009    1.759439
     22          6           0        2.997180    0.394641   -0.003578
     23          1           0        5.426600   -0.506589   -0.105135
     24          1           0        5.169521   -1.731563   -1.232167
     25          1           0        3.014646   -2.119489   -2.273448
     26          1           0        0.604725   -1.702249   -2.192210
     27          1           0       -0.604736    1.702263   -2.192197
     28          1           0       -3.014659    2.119493   -2.273435
     29          1           0       -5.169532    1.731548   -1.232146
     30          1           0       -5.426602    0.506559   -0.105133
     31          1           0       -3.685035   -1.011900    0.573274
     32          1           0        3.685037    1.011886    0.573275
 ---------------------------------------------------------------------
 Rotational constants (GHZ):           0.4036215           0.2208994           0.1916624
 Standard basis: 6-31G(d,p) (6D, 7F)
 There are   380 symmetry adapted cartesian basis functions of A   symmetry.
 There are   380 symmetry adapted basis functions of A   symmetry.
   380 basis functions,   686 primitive gaussians,   380 cartesian basis functions
    81 alpha electrons       81 beta electrons
       nuclear repulsion energy      1948.0813589249 Hartrees.
 NAtoms=   32 NActive=   32 NUniq=   32 SFac= 1.00D+00 NAtFMM=   60 NAOKFM=F Big=F
 Integral buffers will be    131072 words long.
 Raffenetti 2 integral format.
 Two-electron integral symmetry is turned on.
 Force inversion solution in PCM.
 ------------------------------------------------------------------------------
 Polarizable Continuum Model (PCM)
 =================================
 Model                : PCM.
 Atomic radii         : UFF (Universal Force Field).
 Polarization charges : Total charges.
 Charge compensation  : None.
 Solution method      : Matrix inversion.
 Cavity type          : Scaled VdW (van der Waals Surface) (Alpha=1.100).
 Cavity algorithm     : GePol (No added spheres)
                        Default sphere list used, NSphG=   32.
                        Lebedev-Laikov grids with approx.  5.0 points / Ang**2.
                        Smoothing algorithm: York/Karplus (Gamma=1.0000).
                        Polarization charges: spherical gaussians, with
                                              point-specific exponents (IZeta= 3).
                        Self-potential: point-specific (ISelfS= 7).
                        Self-field    : sphere-specific E.n sum rule (ISelfD= 2).
 1st derivatives      : Analytical E(r).r(x)/FMM algorithm (CHGder, D1EAlg=3).
                        Cavity 1st derivative terms included.
 2nd derivatives      : Analytical E(r).r(xy)/FMM algorithm (CHGder, D2EAlg=3).
                        Cavity 2nd derivative terms included.
 Solvent              : Water, Eps=  78.355300 Eps(inf)=   1.777849
 ------------------------------------------------------------------------------
 One-electron integrals computed using PRISM.
 NBasis=   380 RedAO= T EigKep=  3.26D-04  NBF=   380
 NBsUse=   380 1.00D-06 EigRej= -1.00D+00 NBFU=   380
 ExpMin= 1.61D-01 ExpMax= 7.00D+03 ExpMxC= 1.05D+03 IAcc=3 IRadAn=         5 AccDes= 0.00D+00
 Harris functional with IExCor=  402 and IRadAn=       5 diagonalized for initial guess.
 HarFok:  IExCor=  402 AccDes= 0.00D+00 IRadAn=         5 IDoV= 1 UseB2=F ITyADJ=14
 ICtDFT=  3500011 ScaDFX=  1.000000  1.000000  1.000000  1.000000
 FoFCou: FMM=F IPFlag=           0 FMFlag=      100000 FMFlg1=           0
         NFxFlg=           0 DoJE=T BraDBF=F KetDBF=T FulRan=T
         wScrn=  0.000000 ICntrl=       500 IOpCl=  0 I1Cent=   200000004 NGrid=           0
         NMat0=    1 NMatS0=      1 NMatT0=    0 NMatD0=    1 NMtDS0=    0 NMtDT0=    0
 Petite list used in FoFCou.
 Requested convergence on RMS density matrix=1.00D-08 within  32 cycles.
 Requested convergence on MAX density matrix=1.00D-06.
 Requested convergence on             energy=1.00D-06.
 No special actions if energy rises.
 Inv3:  Mode=1 IEnd=    20062188.
 Iteration    1 A*A^-1 deviation from unit magnitude is 3.55D-15 for   1651.
 Iteration    1 A*A^-1 deviation from orthogonality  is 2.73D-15 for   2050    498.
 Iteration    1 A^-1*A deviation from unit magnitude is 2.89D-15 for   1651.
 Iteration    1 A^-1*A deviation from orthogonality  is 2.43D-15 for   2252    700.
 Error on total polarization charges =  0.00604
 SCF Done:  E(RB3LYP) =  -1248.11165510     A.U. after   12 cycles
            NFock= 12  Conv=0.63D-08     -V/T= 2.0083
 QCSCF skips out because SCF is already converged.
 DoSCS=F DFT=T ScalE2(SS,OS)=  1.000000  1.000000
 Range of M.O.s used for correlation:     1   380
 NBasis=   380 NAE=    81 NBE=    81 NFC=     0 NFV=     0
 NROrb=    380 NOA=    81 NOB=    81 NVA=   299 NVB=   299

 **** Warning!!: The largest alpha MO coefficient is  0.10261141D+02

 Symmetrizing basis deriv contribution to polar:
 IMax=3 JMax=2 DiffMx= 0.00D+00
 G2DrvN: will do    33 centers at a time, making    1 passes.
 Calling FoFCou, ICntrl=  3107 FMM=F I1Cent=   0 AccDes= 0.00D+00.
 NEqPCM:  Using equilibrium solvation (IEInf=0, Eps=  78.3553, EpsInf=   1.7778)
 G2PCM: DoFxE=T DoFxN=T DoGrad=T DoDP/DQ/DG/TGxP=FFFF NFrqRd=   0 IEInf=0 SqF1=F DoCFld=F IF1Alg=4.
 End of G2Drv F.D. properties file   721 does not exist.
 End of G2Drv F.D. properties file   722 does not exist.
 End of G2Drv F.D. properties file   788 does not exist.
          IDoAtm=11111111111111111111111111111111
 NEqPCM:  Using equilibrium solvation (IEInf=0, Eps=  78.3553, EpsInf=   1.7778)
          Differentiating once with respect to nuclear coordinates.
 CalDSu exits because no D1Ps are significant.
          There are    99 degrees of freedom in the 1st order CPHF.  IDoFFX=6 NUNeed=     0.
     93 vectors produced by pass  0 Test12= 2.45D-14 1.01D-09 XBig12= 1.43D-01 8.98D-02.
 AX will form    93 AO Fock derivatives at one time.
     93 vectors produced by pass  1 Test12= 2.45D-14 1.01D-09 XBig12= 2.22D-02 2.46D-02.
     93 vectors produced by pass  2 Test12= 2.45D-14 1.01D-09 XBig12= 2.17D-04 1.71D-03.
     93 vectors produced by pass  3 Test12= 2.45D-14 1.01D-09 XBig12= 7.46D-07 1.03D-04.
     93 vectors produced by pass  4 Test12= 2.45D-14 1.01D-09 XBig12= 1.22D-09 3.00D-06.
     84 vectors produced by pass  5 Test12= 2.45D-14 1.01D-09 XBig12= 1.34D-12 9.44D-08.
     26 vectors produced by pass  6 Test12= 2.45D-14 1.01D-09 XBig12= 1.43D-15 2.78D-09.
 InvSVY:  IOpt=1 It=  1 EMax= 3.33D-16
 Solved reduced A of dimension   575 with    99 vectors.
 End of Minotr F.D. properties file   721 does not exist.
 End of Minotr F.D. properties file   722 does not exist.
 End of Minotr F.D. properties file   788 does not exist.

 **********************************************************************

            Population analysis using the SCF density.

 **********************************************************************

 Orbital symmetries:
       Occupied  (A) (A) (A) (A) (A) (A) (A) (A) (A) (A) (A) (A)
                 (A) (A) (A) (A) (A) (A) (A) (A) (A) (A) (A) (A)
                 (A) (A) (A) (A) (A) (A) (A) (A) (A) (A) (A) (A)
                 (A) (A) (A) (A) (A) (A) (A) (A) (A) (A) (A) (A)
                 (A) (A) (A) (A) (A) (A) (A) (A) (A) (A) (A) (A)
                 (A) (A) (A) (A) (A) (A) (A) (A) (A) (A) (A) (A)
                 (A) (A) (A) (A) (A) (A) (A) (A) (A)
       Virtual   (A) (A) (A) (A) (A) (A) (A) (A) (A) (A) (A) (A)
                 (A) (A) (A) (A) (A) (A) (A) (A) (A) (A) (A) (A)
                 (A) (A) (A) (A) (A) (A) (A) (A) (A) (A) (A) (A)
                 (A) (A) (A) (A) (A) (A) (A) (A) (A) (A) (A) (A)
                 (A) (A) (A) (A) (A) (A) (A) (A) (A) (A) (A) (A)
                 (A) (A) (A) (A) (A) (A) (A) (A) (A) (A) (A) (A)
                 (A) (A) (A) (A) (A) (A) (A) (A) (A) (A) (A) (A)
                 (A) (A) (A) (A) (A) (A) (A) (A) (A) (A) (A) (A)
                 (A) (A) (A) (A) (A) (A) (A) (A) (A) (A) (A) (A)
                 (A) (A) (A) (A) (A) (A) (A) (A) (A) (A) (A) (A)
                 (A) (A) (A) (A) (A) (A) (A) (A) (A) (A) (A) (A)
                 (A) (A) (A) (A) (A) (A) (A) (A) (A) (A) (A) (A)
                 (A) (A) (A) (A) (A) (A) (A) (A) (A) (A) (A) (A)
                 (A) (A) (A) (A) (A) (A) (A) (A) (A) (A) (A) (A)
                 (A) (A) (A) (A) (A) (A) (A) (A) (A) (A) (A) (A)
                 (A) (A) (A) (A) (A) (A) (A) (A) (A) (A) (A) (A)
                 (A) (A) (A) (A) (A) (A) (A) (A) (A) (A) (A) (A)
                 (A) (A) (A) (A) (A) (A) (A) (A) (A) (A) (A) (A)
                 (A) (A) (A) (A) (A) (A) (A) (A) (A) (A) (A) (A)
                 (A) (A) (A) (A) (A) (A) (A) (A) (A) (A) (A) (A)
                 (A) (A) (A) (A) (A) (A) (A) (A) (A) (A) (A) (A)
                 (A) (A) (A) (A) (A) (A) (A) (A) (A) (A) (A) (A)
                 (A) (A) (A) (A) (A) (A) (A) (A) (A) (A) (A) (A)
                 (A) (A) (A) (A) (A) (A) (A) (A) (A) (A) (A) (A)
                 (A) (A) (A) (A) (A) (A) (A) (A) (A) (A) (A)
 The electronic state is 1-A.
 Alpha  occ. eigenvalues --  -24.72579 -24.72579 -24.72315 -24.72315 -24.72277
 Alpha  occ. eigenvalues --  -24.72277 -14.34276 -14.34276 -10.43691 -10.43691
 Alpha  occ. eigenvalues --  -10.23686 -10.23686 -10.22024 -10.22024 -10.20608
 Alpha  occ. eigenvalues --  -10.20576 -10.20004 -10.20004 -10.19999 -10.19999
 Alpha  occ. eigenvalues --  -10.19375 -10.19375  -1.29778  -1.29716  -1.21075
 Alpha  occ. eigenvalues --   -1.21006  -1.20996  -1.20895  -0.92327  -0.92228
 Alpha  occ. eigenvalues --   -0.87258  -0.84409  -0.77830  -0.77720  -0.76760
 Alpha  occ. eigenvalues --   -0.72218  -0.70110  -0.68765  -0.63125  -0.62964
 Alpha  occ. eigenvalues --   -0.62544  -0.60043  -0.57857  -0.57710  -0.57569
 Alpha  occ. eigenvalues --   -0.57400  -0.56570  -0.54819  -0.51579  -0.51261
 Alpha  occ. eigenvalues --   -0.50368  -0.49110  -0.48048  -0.45922  -0.45691
 Alpha  occ. eigenvalues --   -0.45687  -0.45594  -0.44529  -0.44348  -0.44171
 Alpha  occ. eigenvalues --   -0.43244  -0.42233  -0.41638  -0.41403  -0.41018
 Alpha  occ. eigenvalues --   -0.40596  -0.40032  -0.39761  -0.39737  -0.39491
 Alpha  occ. eigenvalues --   -0.38920  -0.38468  -0.35860  -0.35759  -0.35261
 Alpha  occ. eigenvalues --   -0.31482  -0.31297  -0.26576  -0.26144  -0.21620
 Alpha  occ. eigenvalues --   -0.21160
 Alpha virt. eigenvalues --   -0.03289  -0.01910  -0.00542   0.00318   0.08780
 Alpha virt. eigenvalues --    0.09084   0.10825   0.11744   0.12321   0.12600
 Alpha virt. eigenvalues --    0.12900   0.13106   0.13438   0.13834   0.16977
 Alpha virt. eigenvalues --    0.17373   0.18919   0.19208   0.21003   0.21009
 Alpha virt. eigenvalues --    0.21732   0.21809   0.23839   0.24467   0.26308
 Alpha virt. eigenvalues --    0.27070   0.29492   0.31614   0.33062   0.33539
 Alpha virt. eigenvalues --    0.33885   0.36167   0.38195   0.38792   0.39416
 Alpha virt. eigenvalues --    0.43356   0.45376   0.46101   0.47031   0.48352
 Alpha virt. eigenvalues --    0.50088   0.50657   0.52187   0.52268   0.53434
 Alpha virt. eigenvalues --    0.53706   0.54897   0.54963   0.55936   0.56686
 Alpha virt. eigenvalues --    0.57902   0.58407   0.59374   0.59924   0.60177
 Alpha virt. eigenvalues --    0.60244   0.61432   0.61668   0.61950   0.63136
 Alpha virt. eigenvalues --    0.66236   0.66262   0.67284   0.69407   0.69563
 Alpha virt. eigenvalues --    0.70428   0.73562   0.74513   0.75107   0.77425
 Alpha virt. eigenvalues --    0.78616   0.78647   0.80387   0.80986   0.81222
 Alpha virt. eigenvalues --    0.81697   0.82841   0.83117   0.84698   0.85328
 Alpha virt. eigenvalues --    0.85623   0.86403   0.86669   0.88381   0.88971
 Alpha virt. eigenvalues --    0.91290   0.91896   0.94273   0.95209   0.95956
 Alpha virt. eigenvalues --    0.97933   0.99404   1.00911   1.01972   1.04211
 Alpha virt. eigenvalues --    1.06155   1.07859   1.09084   1.09885   1.10253
 Alpha virt. eigenvalues --    1.10521   1.12071   1.12718   1.13866   1.14982
 Alpha virt. eigenvalues --    1.15723   1.16596   1.17100   1.18868   1.20227
 Alpha virt. eigenvalues --    1.20355   1.23642   1.24550   1.25226   1.26408
 Alpha virt. eigenvalues --    1.29310   1.30518   1.31031   1.33534   1.34533
 Alpha virt. eigenvalues --    1.35012   1.35249   1.36271   1.36502   1.37651
 Alpha virt. eigenvalues --    1.38021   1.39487   1.39880   1.40273   1.41025
 Alpha virt. eigenvalues --    1.41305   1.41549   1.42303   1.43008   1.45164
 Alpha virt. eigenvalues --    1.46503   1.48881   1.52908   1.55666   1.55822
 Alpha virt. eigenvalues --    1.58645   1.61483   1.61668   1.63717   1.65176
 Alpha virt. eigenvalues --    1.66556   1.71196   1.71415   1.73052   1.73963
 Alpha virt. eigenvalues --    1.75263   1.75359   1.76897   1.78218   1.78854
 Alpha virt. eigenvalues --    1.79485   1.80001   1.80079   1.81643   1.83028
 Alpha virt. eigenvalues --    1.84514   1.84549   1.85145   1.86363   1.86603
 Alpha virt. eigenvalues --    1.86975   1.88373   1.88503   1.90437   1.91530
 Alpha virt. eigenvalues --    1.93749   1.95064   1.95470   1.95622   1.96402
 Alpha virt. eigenvalues --    1.97859   1.98047   1.98844   1.99011   2.00225
 Alpha virt. eigenvalues --    2.00465   2.01157   2.02373   2.04921   2.05025
 Alpha virt. eigenvalues --    2.05955   2.06613   2.07212   2.07661   2.08285
 Alpha virt. eigenvalues --    2.10264   2.10853   2.12417   2.14893   2.16431
 Alpha virt. eigenvalues --    2.16457   2.16909   2.17343   2.18436   2.22115
 Alpha virt. eigenvalues --    2.22651   2.24450   2.26640   2.27337   2.28231
 Alpha virt. eigenvalues --    2.28276   2.31365   2.32409   2.33649   2.34190
 Alpha virt. eigenvalues --    2.36417   2.36492   2.38226   2.39560   2.41190
 Alpha virt. eigenvalues --    2.41285   2.42889   2.43676   2.44594   2.46222
 Alpha virt. eigenvalues --    2.46727   2.48350   2.50713   2.51970   2.53171
 Alpha virt. eigenvalues --    2.53489   2.53834   2.53953   2.55746   2.56832
 Alpha virt. eigenvalues --    2.58529   2.61254   2.63310   2.63926   2.66811
 Alpha virt. eigenvalues --    2.67052   2.68668   2.69941   2.73252   2.73802
 Alpha virt. eigenvalues --    2.74674   2.75461   2.77180   2.77791   2.79991
 Alpha virt. eigenvalues --    2.80428   2.83589   2.85532   2.87056   2.90553
 Alpha virt. eigenvalues --    2.96800   2.98065   3.00070   3.01567   3.02472
 Alpha virt. eigenvalues --    3.02798   3.03913   3.05685   3.05904   3.07936
 Alpha virt. eigenvalues --    3.07959   3.15015   3.17933   3.19791   3.21209
 Alpha virt. eigenvalues --    3.27427   3.27501   3.27748   3.28867   3.30682
 Alpha virt. eigenvalues --    3.32695   3.43829   3.43879   3.51421   3.51561
 Alpha virt. eigenvalues --    3.73124   3.78126   4.03698   4.04259   4.09742
 Alpha virt. eigenvalues --    4.10264   4.13232   4.13606   4.19811   4.19831
 Alpha virt. eigenvalues --    4.28745   4.30641   4.31204   4.39776   4.43966
 Alpha virt. eigenvalues --    4.50807   4.54200   4.55429   4.73669   4.85771
 Alpha virt. eigenvalues --    4.91489   5.03685   5.62072   5.90877
          Condensed to atoms (all electrons):
               1          2          3          4          5          6
     1  N    6.818087   0.302526  -0.071266   0.004113   0.000783   0.000001
     2  C    0.302526   4.600433   0.527698  -0.016083  -0.029451   0.000155
     3  C   -0.071266   0.527698   4.957815   0.492160  -0.032888   0.006846
     4  C    0.004113  -0.016083   0.492160   4.913606   0.505690  -0.061762
     5  C    0.000783  -0.029451  -0.032888   0.505690   5.028359   0.310073
     6  C    0.000001   0.000155   0.006846  -0.061762   0.310073   5.028356
     7  C    0.000000   0.000045  -0.000024  -0.001394  -0.061762   0.505690
     8  C    0.000000  -0.000001   0.000005  -0.000024   0.006846  -0.032888
     9  C   -0.000000   0.000000  -0.000001   0.000045   0.000156  -0.029451
    10  N   -0.000000  -0.000000   0.000000   0.000000   0.000001   0.000783
    11  C    0.000000  -0.000000   0.000005  -0.000036   0.008490  -0.043415
    12  C   -0.000000   0.000014   0.000192  -0.005365  -0.053915   0.468871
    13  C    0.000000   0.000006  -0.000222   0.002778  -0.011844  -0.025491
    14  F   -0.000000   0.000000  -0.000000   0.000010  -0.000036   0.002698
    15  F   -0.000000   0.000029  -0.000023  -0.000464   0.005487  -0.006248
    16  F   -0.000000   0.000006  -0.000162   0.003463  -0.002024  -0.000924
    17  C    0.003992  -0.015443  -0.043754  -0.016912   0.468870  -0.053915
    18  C   -0.000081   0.005167  -0.000409   0.006444  -0.025491  -0.011844
    19  F    0.000000  -0.000015  -0.000006   0.000108  -0.000924  -0.002024
    20  F    0.000000  -0.000038   0.000000   0.000076  -0.006248   0.005488
    21  F   -0.000001   0.000801  -0.000003  -0.000020   0.002698  -0.000036
    22  C   -0.064359   0.473935  -0.045066  -0.058417  -0.043415   0.008490
    23  H    0.343491  -0.023930   0.005501  -0.000176  -0.000005  -0.000000
    24  H    0.344879  -0.024874  -0.009241   0.000031  -0.000012  -0.000000
    25  H   -0.006892  -0.041589   0.364025  -0.030562   0.003822  -0.000210
    26  H   -0.000118   0.003668  -0.034028   0.368017  -0.042219  -0.003551
    27  H   -0.000000  -0.000010  -0.000059   0.001185  -0.003551  -0.042219
    28  H    0.000000   0.000000  -0.000000  -0.000003  -0.000210   0.003822
    29  H   -0.000000   0.000000  -0.000000   0.000000  -0.000000  -0.000012
    30  H   -0.000000   0.000000  -0.000000   0.000000  -0.000000  -0.000005
    31  H   -0.000000  -0.000000  -0.000000  -0.000004  -0.000155   0.003835
    32  H   -0.007194  -0.034981   0.005367   0.000504   0.003835  -0.000155
               7          8          9         10         11         12
     1  N    0.000000   0.000000  -0.000000  -0.000000   0.000000  -0.000000
     2  C    0.000045  -0.000001   0.000000  -0.000000  -0.000000   0.000014
     3  C   -0.000024   0.000005  -0.000001   0.000000   0.000005   0.000192
     4  C   -0.001394  -0.000024   0.000045   0.000000  -0.000036  -0.005365
     5  C   -0.061762   0.006846   0.000156   0.000001   0.008490  -0.053915
     6  C    0.505690  -0.032888  -0.029451   0.000783  -0.043415   0.468871
     7  C    4.913607   0.492160  -0.016083   0.004113  -0.058417  -0.016911
     8  C    0.492160   4.957814   0.527698  -0.071266  -0.045066  -0.043754
     9  C   -0.016083   0.527698   4.600435   0.302526   0.473935  -0.015443
    10  N    0.004113  -0.071266   0.302526   6.818088  -0.064359   0.003992
    11  C   -0.058417  -0.045066   0.473935  -0.064359   5.115827   0.453159
    12  C   -0.016911  -0.043754  -0.015443   0.003992   0.453159   5.134049
    13  C    0.006444  -0.000409   0.005167  -0.000081  -0.043532   0.274725
    14  F   -0.000020  -0.000003   0.000801  -0.000001   0.002618  -0.044819
    15  F    0.000077   0.000000  -0.000038   0.000000   0.002096  -0.035049
    16  F    0.000108  -0.000006  -0.000015   0.000000   0.000350  -0.046005
    17  C   -0.005365   0.000192   0.000014  -0.000000  -0.000009  -0.000075
    18  C    0.002779  -0.000222   0.000006   0.000000  -0.000114   0.000878
    19  F    0.003463  -0.000162   0.000006  -0.000000   0.000003   0.000090
    20  F   -0.000464  -0.000023   0.000029  -0.000000  -0.000212   0.000334
    21  F    0.000010  -0.000000   0.000000  -0.000000  -0.000000   0.000003
    22  C   -0.000036   0.000005  -0.000000   0.000000   0.000004  -0.000009
    23  H    0.000000  -0.000000   0.000000  -0.000000  -0.000000  -0.000000
    24  H    0.000000  -0.000000   0.000000  -0.000000  -0.000000  -0.000000
    25  H   -0.000003  -0.000000   0.000000   0.000000  -0.000000  -0.000003
    26  H    0.001185  -0.000059  -0.000010  -0.000000  -0.000108   0.001459
    27  H    0.368017  -0.034028   0.003668  -0.000118   0.000729   0.004890
    28  H   -0.030562   0.364025  -0.041589  -0.006892   0.004989   0.000842
    29  H    0.000031  -0.009241  -0.024874   0.344878   0.005347  -0.000129
    30  H   -0.000176   0.005501  -0.023931   0.343491  -0.009154  -0.000033
    31  H    0.000504   0.005367  -0.034982  -0.007194   0.361346  -0.038984
    32  H   -0.000004  -0.000000  -0.000000  -0.000000  -0.000000  -0.000000
              13         14         15         16         17         18
     1  N    0.000000  -0.000000  -0.000000  -0.000000   0.003992  -0.000081
     2  C    0.000006   0.000000   0.000029   0.000006  -0.015443   0.005167
     3  C   -0.000222  -0.000000  -0.000023  -0.000162  -0.043754  -0.000409
     4  C    0.002778   0.000010  -0.000464   0.003463  -0.016912   0.006444
     5  C   -0.011844  -0.000036   0.005487  -0.002024   0.468870  -0.025491
     6  C   -0.025491   0.002698  -0.006248  -0.000924  -0.053915  -0.011844
     7  C    0.006444  -0.000020   0.000077   0.000108  -0.005365   0.002779
     8  C   -0.000409  -0.000003   0.000000  -0.000006   0.000192  -0.000222
     9  C    0.005167   0.000801  -0.000038  -0.000015   0.000014   0.000006
    10  N   -0.000081  -0.000001   0.000000   0.000000  -0.000000   0.000000
    11  C   -0.043532   0.002618   0.002096   0.000350  -0.000009  -0.000114
    12  C    0.274725  -0.044819  -0.035049  -0.046005  -0.000075   0.000878
    13  C    4.177968   0.281897   0.263671   0.273780   0.000878  -0.000254
    14  F    0.281897   9.108474  -0.038884  -0.039742   0.000003  -0.000001
    15  F    0.263671  -0.038884   9.125278  -0.037783   0.000335  -0.000597
    16  F    0.273780  -0.039742  -0.037783   9.123333   0.000090  -0.000001
    17  C    0.000878   0.000003   0.000335   0.000090   5.134050   0.274725
    18  C   -0.000254  -0.000001  -0.000597  -0.000001   0.274725   4.177969
    19  F   -0.000001   0.000000   0.000000   0.000000  -0.046006   0.273780
    20  F   -0.000597  -0.000000   0.001253   0.000000  -0.035048   0.263670
    21  F   -0.000001   0.000000  -0.000000   0.000000  -0.044819   0.281897
    22  C   -0.000114  -0.000000  -0.000212   0.000003   0.453158  -0.043532
    23  H    0.000000  -0.000000  -0.000000  -0.000000  -0.000033  -0.000000
    24  H    0.000000  -0.000000  -0.000000  -0.000000  -0.000129   0.000002
    25  H   -0.000001  -0.000000  -0.000000  -0.000003   0.000842   0.000008
    26  H    0.000008   0.000001   0.000019   0.001105   0.004890  -0.000079
    27  H   -0.000079   0.000000   0.000001   0.000001   0.001459   0.000008
    28  H    0.000008  -0.000000  -0.000000  -0.000000  -0.000003  -0.000001
    29  H    0.000002  -0.000000  -0.000000  -0.000000  -0.000000   0.000000
    30  H   -0.000000  -0.000002  -0.000000   0.000000  -0.000000   0.000000
    31  H   -0.007007   0.009940   0.000165   0.000189  -0.000000  -0.000000
    32  H   -0.000000  -0.000000  -0.000000  -0.000000  -0.038984  -0.007007
              19         20         21         22         23         24
     1  N    0.000000   0.000000  -0.000001  -0.064359   0.343491   0.344879
     2  C   -0.000015  -0.000038   0.000801   0.473935  -0.023930  -0.024874
     3  C   -0.000006   0.000000  -0.000003  -0.045066   0.005501  -0.009241
     4  C    0.000108   0.000076  -0.000020  -0.058417  -0.000176   0.000031
     5  C   -0.000924  -0.006248   0.002698  -0.043415  -0.000005  -0.000012
     6  C   -0.002024   0.005488  -0.000036   0.008490  -0.000000  -0.000000
     7  C    0.003463  -0.000464   0.000010  -0.000036   0.000000   0.000000
     8  C   -0.000162  -0.000023  -0.000000   0.000005  -0.000000  -0.000000
     9  C    0.000006   0.000029   0.000000  -0.000000   0.000000   0.000000
    10  N   -0.000000  -0.000000  -0.000000   0.000000  -0.000000  -0.000000
    11  C    0.000003  -0.000212  -0.000000   0.000004  -0.000000  -0.000000
    12  C    0.000090   0.000334   0.000003  -0.000009  -0.000000  -0.000000
    13  C   -0.000001  -0.000597  -0.000001  -0.000114   0.000000   0.000000
    14  F    0.000000  -0.000000   0.000000  -0.000000  -0.000000  -0.000000
    15  F    0.000000   0.001253  -0.000000  -0.000212  -0.000000  -0.000000
    16  F    0.000000   0.000000   0.000000   0.000003  -0.000000  -0.000000
    17  C   -0.046006  -0.035048  -0.044819   0.453158  -0.000033  -0.000129
    18  C    0.273780   0.263670   0.281897  -0.043532  -0.000000   0.000002
    19  F    9.123334  -0.037783  -0.039742   0.000350   0.000000  -0.000000
    20  F   -0.037783   9.125278  -0.038884   0.002096  -0.000000  -0.000000
    21  F   -0.039742  -0.038884   9.108474   0.002618  -0.000002  -0.000000
    22  C    0.000350   0.002096   0.002618   5.115829  -0.009153   0.005347
    23  H    0.000000  -0.000000  -0.000002  -0.009153   0.425271  -0.027746
    24  H   -0.000000  -0.000000  -0.000000   0.005347  -0.027746   0.424523
    25  H   -0.000000  -0.000000  -0.000000   0.004989  -0.000044   0.004328
    26  H    0.000001   0.000001   0.000000   0.000729   0.000003  -0.000004
    27  H    0.001105   0.000019   0.000001  -0.000108   0.000000  -0.000000
    28  H   -0.000003  -0.000000  -0.000000  -0.000000   0.000000   0.000000
    29  H   -0.000000  -0.000000  -0.000000  -0.000000   0.000000  -0.000000
    30  H   -0.000000  -0.000000  -0.000000  -0.000000   0.000000   0.000000
    31  H   -0.000000  -0.000000  -0.000000  -0.000000  -0.000000  -0.000000
    32  H    0.000189   0.000165   0.009940   0.361346   0.004343  -0.000059
              25         26         27         28         29         30
     1  N   -0.006892  -0.000118  -0.000000   0.000000  -0.000000  -0.000000
     2  C   -0.041589   0.003668  -0.000010   0.000000   0.000000   0.000000
     3  C    0.364025  -0.034028  -0.000059  -0.000000  -0.000000  -0.000000
     4  C   -0.030562   0.368017   0.001185  -0.000003   0.000000   0.000000
     5  C    0.003822  -0.042219  -0.003551  -0.000210  -0.000000  -0.000000
     6  C   -0.000210  -0.003551  -0.042219   0.003822  -0.000012  -0.000005
     7  C   -0.000003   0.001185   0.368017  -0.030562   0.000031  -0.000176
     8  C   -0.000000  -0.000059  -0.034028   0.364025  -0.009241   0.005501
     9  C    0.000000  -0.000010   0.003668  -0.041589  -0.024874  -0.023931
    10  N    0.000000  -0.000000  -0.000118  -0.006892   0.344878   0.343491
    11  C   -0.000000  -0.000108   0.000729   0.004989   0.005347  -0.009154
    12  C   -0.000003   0.001459   0.004890   0.000842  -0.000129  -0.000033
    13  C   -0.000001   0.000008  -0.000079   0.000008   0.000002  -0.000000
    14  F   -0.000000   0.000001   0.000000  -0.000000  -0.000000  -0.000002
    15  F   -0.000000   0.000019   0.000001  -0.000000  -0.000000  -0.000000
    16  F   -0.000003   0.001105   0.000001  -0.000000  -0.000000   0.000000
    17  C    0.000842   0.004890   0.001459  -0.000003  -0.000000  -0.000000
    18  C    0.000008  -0.000079   0.000008  -0.000001   0.000000   0.000000
    19  F   -0.000000   0.000001   0.001105  -0.000003  -0.000000  -0.000000
    20  F   -0.000000   0.000001   0.000019  -0.000000  -0.000000  -0.000000
    21  F   -0.000000   0.000000   0.000001  -0.000000  -0.000000  -0.000000
    22  C    0.004989   0.000729  -0.000108  -0.000000  -0.000000  -0.000000
    23  H   -0.000044   0.000003   0.000000   0.000000   0.000000   0.000000
    24  H    0.004328  -0.000004  -0.000000   0.000000  -0.000000   0.000000
    25  H    0.598690  -0.005867   0.000001   0.000000   0.000000   0.000000
    26  H   -0.005867   0.593150   0.000160   0.000001  -0.000000   0.000000
    27  H    0.000001   0.000160   0.593150  -0.005867  -0.000004   0.000003
    28  H    0.000000   0.000001  -0.005867   0.598690   0.004328  -0.000044
    29  H    0.000000  -0.000000  -0.000004   0.004328   0.424524  -0.027746
    30  H    0.000000   0.000000   0.000003  -0.000044  -0.027746   0.425273
    31  H    0.000000   0.000001   0.000016  -0.000182  -0.000059   0.004343
    32  H   -0.000182   0.000016   0.000001   0.000000  -0.000000  -0.000000
              31         32
     1  N   -0.000000  -0.007194
     2  C   -0.000000  -0.034981
     3  C   -0.000000   0.005367
     4  C   -0.000004   0.000504
     5  C   -0.000155   0.003835
     6  C    0.003835  -0.000155
     7  C    0.000504  -0.000004
     8  C    0.005367  -0.000000
     9  C   -0.034982  -0.000000
    10  N   -0.007194  -0.000000
    11  C    0.361346  -0.000000
    12  C   -0.038984  -0.000000
    13  C   -0.007007  -0.000000
    14  F    0.009940  -0.000000
    15  F    0.000165  -0.000000
    16  F    0.000189  -0.000000
    17  C   -0.000000  -0.038984
    18  C   -0.000000  -0.007007
    19  F   -0.000000   0.000189
    20  F   -0.000000   0.000165
    21  F   -0.000000   0.009940
    22  C   -0.000000   0.361346
    23  H   -0.000000   0.004343
    24  H   -0.000000  -0.000059
    25  H    0.000000  -0.000182
    26  H    0.000001   0.000016
    27  H    0.000016   0.000001
    28  H   -0.000182   0.000000
    29  H   -0.000059  -0.000000
    30  H    0.004343  -0.000000
    31  H    0.589137   0.000000
    32  H    0.000000   0.589137
 Mulliken charges:
               1
     1  N   -0.667961
     2  C    0.271932
     3  C   -0.122462
     4  C   -0.107009
     5  C   -0.030960
     6  C   -0.030958
     7  C   -0.107010
     8  C   -0.122461
     9  C    0.271930
    10  N   -0.667960
    11  C   -0.164477
    12  C   -0.043002
    13  C    0.802302
    14  F   -0.282934
    15  F   -0.279111
    16  F   -0.275762
    17  C   -0.043001
    18  C    0.802302
    19  F   -0.275763
    20  F   -0.279111
    21  F   -0.282934
    22  C   -0.164478
    23  H    0.282481
    24  H    0.282956
    25  H    0.108652
    26  H    0.111630
    27  H    0.111630
    28  H    0.108652
    29  H    0.282956
    30  H    0.282481
    31  H    0.113725
    32  H    0.113725
 Sum of Mulliken charges =  -0.00000
 Mulliken charges with hydrogens summed into heavy atoms:
               1
     1  N   -0.102524
     2  C    0.271932
     3  C   -0.013810
     4  C    0.004621
     5  C   -0.030960
     6  C   -0.030958
     7  C    0.004620
     8  C   -0.013809
     9  C    0.271930
    10  N   -0.102524
    11  C   -0.050752
    12  C   -0.043002
    13  C    0.802302
    14  F   -0.282934
    15  F   -0.279111
    16  F   -0.275762
    17  C   -0.043001
    18  C    0.802302
    19  F   -0.275763
    20  F   -0.279111
    21  F   -0.282934
    22  C   -0.050753
 APT charges:
               1
     1  N   -1.345020
     2  C    0.215584
     3  C   -0.413763
     4  C   -0.542678
     5  C   -0.493928
     6  C   -0.493927
     7  C   -0.542677
     8  C   -0.413762
     9  C    0.215590
    10  N   -1.345013
    11  C   -0.479624
    12  C   -0.472284
    13  C    0.025052
    14  F    0.242694
    15  F   -0.172229
    16  F    0.004327
    17  C   -0.472281
    18  C    0.025051
    19  F    0.004329
    20  F   -0.172230
    21  F    0.242694
    22  C   -0.479628
    23  H    0.752974
    24  H    0.891225
    25  H    0.728473
    26  H    0.435370
    27  H    0.435369
    28  H    0.728473
    29  H    0.891221
    30  H    0.752965
    31  H    0.623825
    32  H    0.623827
 Sum of APT charges =  -0.00000
 APT charges with hydrogens summed into heavy atoms:
               1
     1  N    0.299180
     2  C    0.215584
     3  C    0.314710
     4  C   -0.107308
     5  C   -0.493928
     6  C   -0.493927
     7  C   -0.107309
     8  C    0.314711
     9  C    0.215590
    10  N    0.299174
    11  C    0.144201
    12  C   -0.472284
    13  C    0.025052
    14  F    0.242694
    15  F   -0.172229
    16  F    0.004327
    17  C   -0.472281
    18  C    0.025051
    19  F    0.004329
    20  F   -0.172230
    21  F    0.242694
    22  C    0.144199
 Electronic spatial extent (au):  <R**2>=           6024.9514
 Charge=             -0.0000 electrons
 Dipole moment (field-independent basis, Debye):
    X=              0.0000    Y=             -0.0000    Z=             -2.1709  Tot=              2.1709
 Quadrupole moment (field-independent basis, Debye-Ang):
   XX=            -78.2860   YY=           -121.0704   ZZ=           -122.8524
   XY=            -19.4835   XZ=             -0.0002   YZ=              0.0001
 Traceless Quadrupole moment (field-independent basis, Debye-Ang):
   XX=             29.1170   YY=            -13.6675   ZZ=            -15.4494
   XY=            -19.4835   XZ=             -0.0002   YZ=              0.0001
 Octapole moment (field-independent basis, Debye-Ang**2):
  XXX=              0.0013  YYY=              0.0000  ZZZ=             44.1872  XYY=              0.0000
  XXY=             -0.0003  XXZ=             39.9967  XZZ=              0.0006  YZZ=             -0.0001
  YYZ=             -9.7183  XYZ=             25.7730
 Hexadecapole moment (field-independent basis, Debye-Ang**3):
 XXXX=          -3280.9713 YYYY=          -1627.3361 ZZZZ=          -1057.4388 XXXY=           -389.4282
 XXXZ=             -0.0061 YYYX=            -26.5435 YYYZ=              0.0002 ZZZX=             -0.0015
 ZZZY=              0.0004 XXYY=           -863.1220 XXZZ=           -990.5054 YYZZ=           -411.5630
 XXYZ=              0.0008 YYXZ=             -0.0005 ZZXY=            -37.2050
 N-N= 1.948081358925D+03 E-N=-6.831399794999D+03  KE= 1.237885068986D+03
  Exact polarizability:   0.000   0.000   0.000   0.000   0.000   0.000
 Approx polarizability: 353.859 -22.814 218.658   0.000   0.000 194.142
 D2PCM: PCM CHGder 2nd derivatives, FixD1E=F FixD2E=F DoIter=F DoCFld=F I1PDM=0
 Calling FoFJK, ICntrl=    100147 FMM=F ISym2X=0 I1Cent= 0 IOpClX= 0 NMat=1 NMatS=1 NMatT=0.
 ***** Axes restored to original set *****
 -------------------------------------------------------------------
 Center     Atomic                   Forces (Hartrees/Bohr)
 Number     Number              X              Y              Z
 -------------------------------------------------------------------
      1        7           0.000601508    0.004468068    0.003638577
      2        6          -0.009985977   -0.013051455   -0.008487579
      3        6           0.014775297    0.007972611   -0.004706925
      4        6          -0.009410601   -0.001088910    0.001339823
      5        6          -0.008326936    0.001316888   -0.001821725
      6        6           0.008289807   -0.001247514    0.002029019
      7        6           0.008569411    0.002650060    0.003327561
      8        6          -0.013294776   -0.010721018   -0.003509208
      9        6           0.013465245    0.006587668   -0.010833495
     10        7          -0.002182696   -0.001530382    0.005144341
     11        6          -0.013799220    0.013780242    0.007185188
     12        6           0.015743255   -0.007390359    0.000945405
     13        6          -0.002712062    0.010561457    0.005830424
     14        9          -0.000072067   -0.008429669   -0.004950886
     15        9           0.005376872   -0.003012076   -0.004965423
     16        9           0.000767599   -0.005216625    0.001149277
     17        6          -0.014370167    0.004840334   -0.008569590
     18        6          -0.000388678   -0.004801900    0.011387815
     19        9          -0.000536761    0.004787942   -0.002431506
     20        9          -0.003192086   -0.001046342   -0.007166844
     21        9           0.002514481    0.003894043   -0.008607940
     22        6           0.009302847   -0.005432211    0.017773269
     23        1           0.000425493    0.001451969   -0.003220102
     24        1          -0.001148055   -0.002073061    0.002860269
     25        1          -0.001221228    0.000389343    0.000882937
     26        1          -0.000507490   -0.001771096    0.003751651
     27        1          -0.000515617    0.003671737    0.001929489
     28        1           0.000832974    0.000331901    0.001272155
     29        1           0.000400788    0.003460811    0.001287712
     30        1           0.000459558   -0.003095468   -0.001693141
     31        1          -0.002406122   -0.002352938   -0.000087001
     32        1           0.002545405    0.002095947   -0.000683547
 -------------------------------------------------------------------
 Cartesian Forces:  Max     0.017773269 RMS     0.006420715
 FormGI is forming the generalized inverse of G from B-inverse, IUseBI=4.

 GradGradGradGradGradGradGradGradGradGradGradGradGradGradGradGradGradGrad
 Berny optimization.
 Internal  Forces:  Max     0.019433692 RMS     0.004000193
 Search for a local minimum.
 Step number   1 out of a maximum of  169
 All quantities printed in internal units (Hartrees-Bohrs-Radians)
 Mixed Optimization -- RFO/linear search
 Second derivative matrix not updated -- analytic derivatives used.
 ITU=  0
     Eigenvalues ---    0.00336   0.00373   0.00551   0.00561   0.00602
     Eigenvalues ---    0.01320   0.01613   0.01624   0.01716   0.01761
     Eigenvalues ---    0.01832   0.01841   0.01890   0.02071   0.02102
     Eigenvalues ---    0.02147   0.02201   0.02320   0.02409   0.02499
     Eigenvalues ---    0.02635   0.02642   0.02870   0.02897   0.04145
     Eigenvalues ---    0.11418   0.11420   0.11926   0.11926   0.11931
     Eigenvalues ---    0.12341   0.12416   0.12520   0.12612   0.12871
     Eigenvalues ---    0.13501   0.13502   0.15293   0.15298   0.17791
     Eigenvalues ---    0.17951   0.18131   0.18142   0.19071   0.19125
     Eigenvalues ---    0.19236   0.19400   0.21341   0.21364   0.23293
     Eigenvalues ---    0.23381   0.23488   0.24081   0.24129   0.24179
     Eigenvalues ---    0.27177   0.27911   0.32531   0.32540   0.32855
     Eigenvalues ---    0.32999   0.33653   0.34279   0.35076   0.35100
     Eigenvalues ---    0.35292   0.35514   0.35883   0.35908   0.36559
     Eigenvalues ---    0.38066   0.38093   0.39088   0.40686   0.42159
     Eigenvalues ---    0.42493   0.45421   0.45440   0.45813   0.45846
     Eigenvalues ---    0.46071   0.46368   0.46693   0.47326   0.48531
     Eigenvalues ---    0.49135   0.50621   0.51130   0.51382   0.51703
 RFO step:  Lambda=-9.71687946D-03 EMin= 3.35730297D-03
 Linear search not attempted -- first point.
 Iteration  1 RMS(Cart)=  0.04718783 RMS(Int)=  0.00083658
 Iteration  2 RMS(Cart)=  0.00128129 RMS(Int)=  0.00030344
 Iteration  3 RMS(Cart)=  0.00000073 RMS(Int)=  0.00030344
 Variable       Old X    -DE/DX   Delta X   Delta X   Delta X     New X
                                 (Linear)    (Quad)   (Total)
    R1        2.64122  -0.00079   0.00000  -0.01434  -0.01434   2.62689
    R2        1.91908  -0.00284   0.00000  -0.00694  -0.00694   1.91214
    R3        1.91935  -0.00304   0.00000  -0.00722  -0.00722   1.91214
    R4        2.63069   0.01059   0.00000   0.02251   0.02255   2.65324
    R5        2.63743   0.00602   0.00000   0.01787   0.01793   2.65535
    R6        2.64011  -0.00421   0.00000  -0.01180  -0.01182   2.62829
    R7        2.05426  -0.00027   0.00000  -0.00109  -0.00109   2.05317
    R8        2.65518  -0.00270   0.00000  -0.00624  -0.00630   2.64889
    R9        2.05874  -0.00339   0.00000  -0.00795  -0.00795   2.05080
   R10        2.78113   0.01943   0.00000   0.04599   0.04599   2.82713
   R11        2.66689  -0.00111   0.00000  -0.00201  -0.00205   2.66485
   R12        2.65518  -0.00270   0.00000  -0.00624  -0.00630   2.64889
   R13        2.66689  -0.00111   0.00000  -0.00201  -0.00205   2.66485
   R14        2.64011  -0.00421   0.00000  -0.01180  -0.01182   2.62829
   R15        2.05874  -0.00339   0.00000  -0.00795  -0.00795   2.05080
   R16        2.63069   0.01059   0.00000   0.02251   0.02255   2.65324
   R17        2.05426  -0.00027   0.00000  -0.00109  -0.00109   2.05317
   R18        2.64122  -0.00079   0.00000  -0.01434  -0.01434   2.62689
   R19        2.63743   0.00602   0.00000   0.01787   0.01793   2.65535
   R20        1.91936  -0.00304   0.00000  -0.00722  -0.00722   1.91214
   R21        1.91908  -0.00284   0.00000  -0.00694  -0.00694   1.91214
   R22        2.66662  -0.01293   0.00000  -0.03312  -0.03310   2.63352
   R23        2.05876  -0.00305   0.00000  -0.01010  -0.01010   2.04865
   R24        2.85558  -0.00748   0.00000  -0.00634  -0.00634   2.84923
   R25        2.58020  -0.00781   0.00000  -0.02209  -0.02209   2.55811
   R26        2.57419  -0.00678   0.00000  -0.01710  -0.01710   2.55709
   R27        2.57528  -0.00397   0.00000  -0.00748  -0.00748   2.56780
   R28        2.85558  -0.00748   0.00000  -0.00634  -0.00634   2.84923
   R29        2.66662  -0.01293   0.00000  -0.03312  -0.03310   2.63352
   R30        2.57529  -0.00397   0.00000  -0.00749  -0.00749   2.56780
   R31        2.57419  -0.00678   0.00000  -0.01710  -0.01710   2.55709
   R32        2.58020  -0.00781   0.00000  -0.02209  -0.02209   2.55811
   R33        2.05876  -0.00305   0.00000  -0.01010  -0.01010   2.04865
    A1        1.99313   0.00176   0.00000   0.01736   0.01715   2.01028
    A2        1.98902   0.00161   0.00000   0.01895   0.01874   2.00776
    A3        1.95537  -0.00252   0.00000  -0.00973  -0.01004   1.94533
    A4        2.10087   0.00314   0.00000   0.01588   0.01446   2.11533
    A5        2.09892   0.00099   0.00000   0.00796   0.00652   2.10544
    A6        2.06787  -0.00354   0.00000  -0.00765  -0.00903   2.05884
    A7        2.10619  -0.00120   0.00000  -0.00330  -0.00331   2.10288
    A8        2.10006  -0.00074   0.00000  -0.01037  -0.01036   2.08970
    A9        2.07693   0.00194   0.00000   0.01367   0.01367   2.09060
   A10        2.11441   0.00386   0.00000   0.01913   0.01901   2.13343
   A11        2.07148   0.00057   0.00000   0.00615   0.00620   2.07767
   A12        2.09724  -0.00442   0.00000  -0.02520  -0.02516   2.07208
   A13        2.07512   0.00255   0.00000   0.01029   0.01035   2.08546
   A14        2.06944  -0.00595   0.00000  -0.02819  -0.02833   2.04112
   A15        2.13839   0.00339   0.00000   0.01779   0.01785   2.15624
   A16        2.07512   0.00255   0.00000   0.01028   0.01035   2.08546
   A17        2.13839   0.00339   0.00000   0.01779   0.01785   2.15624
   A18        2.06944  -0.00595   0.00000  -0.02819  -0.02833   2.04112
   A19        2.11441   0.00385   0.00000   0.01913   0.01901   2.13343
   A20        2.09724  -0.00442   0.00000  -0.02520  -0.02516   2.07208
   A21        2.07148   0.00057   0.00000   0.00615   0.00620   2.07767
   A22        2.10619  -0.00120   0.00000  -0.00330  -0.00331   2.10288
   A23        2.07693   0.00194   0.00000   0.01367   0.01367   2.09060
   A24        2.10006  -0.00074   0.00000  -0.01037  -0.01036   2.08970
   A25        2.10087   0.00314   0.00000   0.01588   0.01446   2.11533
   A26        2.06787  -0.00354   0.00000  -0.00765  -0.00903   2.05884
   A27        2.09892   0.00099   0.00000   0.00796   0.00652   2.10544
   A28        1.98902   0.00161   0.00000   0.01895   0.01874   2.00776
   A29        1.99312   0.00176   0.00000   0.01736   0.01715   2.01028
   A30        1.95537  -0.00252   0.00000  -0.00973  -0.01003   1.94533
   A31        2.12392  -0.00286   0.00000  -0.01047  -0.01042   2.11350
   A32        2.07665   0.00217   0.00000   0.00688   0.00685   2.08350
   A33        2.08261   0.00069   0.00000   0.00359   0.00356   2.08618
   A34        2.08104   0.00984   0.00000   0.03527   0.03522   2.11626
   A35        2.12438  -0.00359   0.00000  -0.01748  -0.01745   2.10693
   A36        2.07748  -0.00626   0.00000  -0.01775  -0.01773   2.05976
   A37        1.97720  -0.00767   0.00000  -0.01584  -0.01590   1.96131
   A38        1.98148  -0.00409   0.00000  -0.01442  -0.01452   1.96696
   A39        1.96499  -0.00301   0.00000  -0.01060  -0.01070   1.95429
   A40        1.83643   0.00705   0.00000   0.02210   0.02204   1.85847
   A41        1.83811   0.00628   0.00000   0.01735   0.01730   1.85541
   A42        1.85323   0.00327   0.00000   0.00652   0.00640   1.85963
   A43        2.12438  -0.00359   0.00000  -0.01748  -0.01745   2.10693
   A44        2.08104   0.00984   0.00000   0.03527   0.03522   2.11626
   A45        2.07748  -0.00626   0.00000  -0.01775  -0.01773   2.05975
   A46        1.96498  -0.00301   0.00000  -0.01059  -0.01069   1.95429
   A47        1.98148  -0.00409   0.00000  -0.01443  -0.01452   1.96696
   A48        1.97720  -0.00767   0.00000  -0.01584  -0.01590   1.96131
   A49        1.85323   0.00327   0.00000   0.00652   0.00640   1.85963
   A50        1.83811   0.00628   0.00000   0.01735   0.01730   1.85541
   A51        1.83643   0.00705   0.00000   0.02210   0.02204   1.85847
   A52        2.12392  -0.00286   0.00000  -0.01047  -0.01042   2.11350
   A53        2.07665   0.00217   0.00000   0.00688   0.00685   2.08350
   A54        2.08261   0.00069   0.00000   0.00359   0.00356   2.08618
    D1       -2.79946   0.00178   0.00000   0.03610   0.03639  -2.76307
    D2        0.53336  -0.00143   0.00000  -0.06179  -0.06228   0.47107
    D3       -0.52131   0.00135   0.00000   0.05708   0.05757  -0.46374
    D4        2.81151  -0.00186   0.00000  -0.04081  -0.04110   2.77040
    D5       -3.03916  -0.00166   0.00000  -0.03893  -0.03889  -3.07805
    D6        0.10463  -0.00167   0.00000  -0.04074  -0.04064   0.06399
    D7       -0.08544   0.00196   0.00000   0.05887   0.05883  -0.02661
    D8        3.05836   0.00196   0.00000   0.05706   0.05707   3.11543
    D9        3.04379   0.00176   0.00000   0.03717   0.03689   3.08067
   D10       -0.10066   0.00168   0.00000   0.03564   0.03535  -0.06531
   D11        0.08985  -0.00209   0.00000  -0.06140  -0.06115   0.02870
   D12       -3.05460  -0.00218   0.00000  -0.06293  -0.06268  -3.11728
   D13        0.03241  -0.00066   0.00000  -0.02125  -0.02120   0.01121
   D14       -3.12010  -0.00050   0.00000  -0.01298  -0.01286  -3.13297
   D15       -3.11135  -0.00066   0.00000  -0.01949  -0.01947  -3.13083
   D16        0.01932  -0.00050   0.00000  -0.01123  -0.01114   0.00818
   D17        3.13748  -0.00058   0.00000  -0.02106  -0.02102   3.11646
   D18        0.01869  -0.00056   0.00000  -0.01575  -0.01574   0.00296
   D19        0.00697  -0.00077   0.00000  -0.02965  -0.02953  -0.02255
   D20       -3.11182  -0.00075   0.00000  -0.02433  -0.02424  -3.13606
   D21       -1.65818  -0.00058   0.00000  -0.04016  -0.04005  -1.69823
   D22        1.45966  -0.00073   0.00000  -0.04633  -0.04633   1.41333
   D23        1.45967  -0.00073   0.00000  -0.04634  -0.04634   1.41333
   D24       -1.70568  -0.00088   0.00000  -0.05251  -0.05262  -1.75830
   D25        3.10096   0.00027   0.00000   0.01562   0.01564   3.11660
   D26       -0.01496   0.00050   0.00000   0.01394   0.01396  -0.00099
   D27       -0.01696   0.00031   0.00000   0.02128   0.02130   0.00434
   D28       -3.13287   0.00054   0.00000   0.01960   0.01962  -3.11325
   D29        3.13748  -0.00058   0.00000  -0.02106  -0.02101   3.11646
   D30        0.00696  -0.00077   0.00000  -0.02964  -0.02952  -0.02255
   D31        0.01869  -0.00056   0.00000  -0.01574  -0.01573   0.00295
   D32       -3.11182  -0.00075   0.00000  -0.02433  -0.02424  -3.13606
   D33       -3.13286   0.00054   0.00000   0.01959   0.01961  -3.11325
   D34       -0.01694   0.00031   0.00000   0.02127   0.02129   0.00435
   D35       -0.01495   0.00050   0.00000   0.01394   0.01396  -0.00099
   D36        3.10098   0.00027   0.00000   0.01561   0.01563   3.11661
   D37        0.03241  -0.00066   0.00000  -0.02124  -0.02120   0.01121
   D38       -3.11136  -0.00066   0.00000  -0.01949  -0.01947  -3.13083
[...]
   111    C    8  px     Ryd( 3p)     0.00452
   112    C    8  py     Val( 2p)     1.15039
   113    C    8  py     Ryd( 3p)     0.00410
   114    C    8  pz     Val( 2p)     1.13556
   115    C    8  pz     Ryd( 3p)     0.00408
   116    C    8  dxy    Ryd( 3d)     0.00059
   117    C    8  dxz    Ryd( 3d)     0.00054
   118    C    8  dyz    Ryd( 3d)     0.00046
   119    C    8  dx2y2  Ryd( 3d)     0.00045
   120    C    8  dz2    Ryd( 3d)     0.00036

   121    C    9  S      Cor( 1S)     1.99898
   122    C    9  S      Val( 2S)     0.84666
   123    C    9  S      Ryd( 3S)     0.00120
   124    C    9  S      Ryd( 4S)     0.00010
   125    C    9  px     Val( 2p)     0.90936
   126    C    9  px     Ryd( 3p)     0.00580
   127    C    9  py     Val( 2p)     1.03343
   128    C    9  py     Ryd( 3p)     0.00321
   129    C    9  pz     Val( 2p)     1.00366
   130    C    9  pz     Ryd( 3p)     0.00273
   131    C    9  dxy    Ryd( 3d)     0.00112
   132    C    9  dxz    Ryd( 3d)     0.00128
   133    C    9  dyz    Ryd( 3d)     0.00044
   134    C    9  dx2y2  Ryd( 3d)     0.00117
   135    C    9  dz2    Ryd( 3d)     0.00094

   136    N   10  S      Cor( 1S)     1.99948
   137    N   10  S      Val( 2S)     1.36140
   138    N   10  S      Ryd( 3S)     0.00011
   139    N   10  S      Ryd( 4S)     0.00001
   140    N   10  px     Val( 2p)     1.33153
   141    N   10  px     Ryd( 3p)     0.00228
   142    N   10  py     Val( 2p)     1.49198
   143    N   10  py     Ryd( 3p)     0.00231
   144    N   10  pz     Val( 2p)     1.55859
   145    N   10  pz     Ryd( 3p)     0.00289
   146    N   10  dxy    Ryd( 3d)     0.00040
   147    N   10  dxz    Ryd( 3d)     0.00083
   148    N   10  dyz    Ryd( 3d)     0.00041
   149    N   10  dx2y2  Ryd( 3d)     0.00077
   150    N   10  dz2    Ryd( 3d)     0.00071

   151    C   11  S      Cor( 1S)     1.99901
   152    C   11  S      Val( 2S)     0.94478
   153    C   11  S      Ryd( 3S)     0.00070
   154    C   11  S      Ryd( 4S)     0.00005
   155    C   11  px     Val( 2p)     1.11965
   156    C   11  px     Ryd( 3p)     0.00415
   157    C   11  py     Val( 2p)     1.09599
   158    C   11  py     Ryd( 3p)     0.00395
   159    C   11  pz     Val( 2p)     1.09659
   160    C   11  pz     Ryd( 3p)     0.00390
   161    C   11  dxy    Ryd( 3d)     0.00060
   162    C   11  dxz    Ryd( 3d)     0.00061
   163    C   11  dyz    Ryd( 3d)     0.00047
   164    C   11  dx2y2  Ryd( 3d)     0.00051
   165    C   11  dz2    Ryd( 3d)     0.00039

   166    C   12  S      Cor( 1S)     1.99879
   167    C   12  S      Val( 2S)     0.88726
   168    C   12  S      Ryd( 3S)     0.00098
   169    C   12  S      Ryd( 4S)     0.00007
   170    C   12  px     Val( 2p)     1.09715
   171    C   12  px     Ryd( 3p)     0.00420
   172    C   12  py     Val( 2p)     1.10164
   173    C   12  py     Ryd( 3p)     0.00499
   174    C   12  pz     Val( 2p)     1.11045
   175    C   12  pz     Ryd( 3p)     0.00455
   176    C   12  dxy    Ryd( 3d)     0.00066
   177    C   12  dxz    Ryd( 3d)     0.00072
   178    C   12  dyz    Ryd( 3d)     0.00066
   179    C   12  dx2y2  Ryd( 3d)     0.00059
   180    C   12  dz2    Ryd( 3d)     0.00042

   181    C   13  S      Cor( 1S)     1.99905
   182    C   13  S      Val( 2S)     0.79801
   183    C   13  S      Ryd( 3S)     0.00517
   184    C   13  S      Ryd( 4S)     0.00034
   185    C   13  px     Val( 2p)     0.58575
   186    C   13  px     Ryd( 3p)     0.01712
   187    C   13  py     Val( 2p)     0.75083
   188    C   13  py     Ryd( 3p)     0.01493
   189    C   13  pz     Val( 2p)     0.68548
   190    C   13  pz     Ryd( 3p)     0.01571
   191    C   13  dxy    Ryd( 3d)     0.00330
   192    C   13  dxz    Ryd( 3d)     0.00392
   193    C   13  dyz    Ryd( 3d)     0.00325
   194    C   13  dx2y2  Ryd( 3d)     0.00328
   195    C   13  dz2    Ryd( 3d)     0.00321

   196    F   14  S      Cor( 1S)     1.99993
   197    F   14  S      Val( 2S)     1.84149
   198    F   14  S      Ryd( 3S)     0.00073
   199    F   14  S      Ryd( 4S)     0.00004
   200    F   14  px     Val( 2p)     1.78014
   201    F   14  px     Ryd( 3p)     0.00017
   202    F   14  py     Val( 2p)     1.89944
   203    F   14  py     Ryd( 3p)     0.00032
   204    F   14  pz     Val( 2p)     1.84564
   205    F   14  pz     Ryd( 3p)     0.00026
   206    F   14  dxy    Ryd( 3d)     0.00087
   207    F   14  dxz    Ryd( 3d)     0.00103
   208    F   14  dyz    Ryd( 3d)     0.00060
   209    F   14  dx2y2  Ryd( 3d)     0.00089
   210    F   14  dz2    Ryd( 3d)     0.00091

   211    F   15  S      Cor( 1S)     1.99993
   212    F   15  S      Val( 2S)     1.84401
   213    F   15  S      Ryd( 3S)     0.00089
   214    F   15  S      Ryd( 4S)     0.00005
   215    F   15  px     Val( 2p)     1.78277
   216    F   15  px     Ryd( 3p)     0.00027
   217    F   15  py     Val( 2p)     1.92544
   218    F   15  py     Ryd( 3p)     0.00044
   219    F   15  pz     Val( 2p)     1.81269
   220    F   15  pz     Ryd( 3p)     0.00023
   221    F   15  dxy    Ryd( 3d)     0.00081
   222    F   15  dxz    Ryd( 3d)     0.00106
   223    F   15  dyz    Ryd( 3d)     0.00066
   224    F   15  dx2y2  Ryd( 3d)     0.00077
   225    F   15  dz2    Ryd( 3d)     0.00104

   226    F   16  S      Cor( 1S)     1.99993
   227    F   16  S      Val( 2S)     1.84759
   228    F   16  S      Ryd( 3S)     0.00095
   229    F   16  S      Ryd( 4S)     0.00003
   230    F   16  px     Val( 2p)     1.89327
   231    F   16  px     Ryd( 3p)     0.00023
   232    F   16  py     Val( 2p)     1.76873
   233    F   16  py     Ryd( 3p)     0.00034
   234    F   16  pz     Val( 2p)     1.86161
   235    F   16  pz     Ryd( 3p)     0.00030
   236    F   16  dxy    Ryd( 3d)     0.00084
   237    F   16  dxz    Ryd( 3d)     0.00058
   238    F   16  dyz    Ryd( 3d)     0.00105
   239    F   16  dx2y2  Ryd( 3d)     0.00095
   240    F   16  dz2    Ryd( 3d)     0.00079

   241    C   17  S      Cor( 1S)     1.99879
   242    C   17  S      Val( 2S)     0.88726
   243    C   17  S      Ryd( 3S)     0.00098
   244    C   17  S      Ryd( 4S)     0.00007
   245    C   17  px     Val( 2p)     1.09715
   246    C   17  px     Ryd( 3p)     0.00420
   247    C   17  py     Val( 2p)     1.10164
   248    C   17  py     Ryd( 3p)     0.00499
   249    C   17  pz     Val( 2p)     1.11045
   250    C   17  pz     Ryd( 3p)     0.00455
   251    C   17  dxy    Ryd( 3d)     0.00066
   252    C   17  dxz    Ryd( 3d)     0.00072
   253    C   17  dyz    Ryd( 3d)     0.00066
   254    C   17  dx2y2  Ryd( 3d)     0.00059
   255    C   17  dz2    Ryd( 3d)     0.00042

   256    C   18  S      Cor( 1S)     1.99905
   257    C   18  S      Val( 2S)     0.79801
   258    C   18  S      Ryd( 3S)     0.00517
   259    C   18  S      Ryd( 4S)     0.00034
   260    C   18  px     Val( 2p)     0.58575
   261    C   18  px     Ryd( 3p)     0.01712
   262    C   18  py     Val( 2p)     0.75083
   263    C   18  py     Ryd( 3p)     0.01493
   264    C   18  pz     Val( 2p)     0.68548
   265    C   18  pz     Ryd( 3p)     0.01571
   266    C   18  dxy    Ryd( 3d)     0.00330
   267    C   18  dxz    Ryd( 3d)     0.00392
   268    C   18  dyz    Ryd( 3d)     0.00325
   269    C   18  dx2y2  Ryd( 3d)     0.00328
   270    C   18  dz2    Ryd( 3d)     0.00321

   271    F   19  S      Cor( 1S)     1.99993
   272    F   19  S      Val( 2S)     1.84759
   273    F   19  S      Ryd( 3S)     0.00095
   274    F   19  S      Ryd( 4S)     0.00003
   275    F   19  px     Val( 2p)     1.89327
   276    F   19  px     Ryd( 3p)     0.00023
   277    F   19  py     Val( 2p)     1.76873
   278    F   19  py     Ryd( 3p)     0.00034
   279    F   19  pz     Val( 2p)     1.86161
   280    F   19  pz     Ryd( 3p)     0.00030
   281    F   19  dxy    Ryd( 3d)     0.00084
   282    F   19  dxz    Ryd( 3d)     0.00058
   283    F   19  dyz    Ryd( 3d)     0.00105
   284    F   19  dx2y2  Ryd( 3d)     0.00095
   285    F   19  dz2    Ryd( 3d)     0.00079

   286    F   20  S      Cor( 1S)     1.99993
   287    F   20  S      Val( 2S)     1.84401
   288    F   20  S      Ryd( 3S)     0.00089
   289    F   20  S      Ryd( 4S)     0.00005
   290    F   20  px     Val( 2p)     1.78277
   291    F   20  px     Ryd( 3p)     0.00027
   292    F   20  py     Val( 2p)     1.92544
   293    F   20  py     Ryd( 3p)     0.00044
   294    F   20  pz     Val( 2p)     1.81269
   295    F   20  pz     Ryd( 3p)     0.00023
   296    F   20  dxy    Ryd( 3d)     0.00081
   297    F   20  dxz    Ryd( 3d)     0.00106
   298    F   20  dyz    Ryd( 3d)     0.00066
   299    F   20  dx2y2  Ryd( 3d)     0.00077
   300    F   20  dz2    Ryd( 3d)     0.00104

   301    F   21  S      Cor( 1S)     1.99993
   302    F   21  S      Val( 2S)     1.84149
   303    F   21  S      Ryd( 3S)     0.00073
   304    F   21  S      Ryd( 4S)     0.00004
   305    F   21  px     Val( 2p)     1.78014
   306    F   21  px     Ryd( 3p)     0.00017
   307    F   21  py     Val( 2p)     1.89944
   308    F   21  py     Ryd( 3p)     0.00032
   309    F   21  pz     Val( 2p)     1.84564
   310    F   21  pz     Ryd( 3p)     0.00026
   311    F   21  dxy    Ryd( 3d)     0.00087
   312    F   21  dxz    Ryd( 3d)     0.00103
   313    F   21  dyz    Ryd( 3d)     0.00060
   314    F   21  dx2y2  Ryd( 3d)     0.00089
   315    F   21  dz2    Ryd( 3d)     0.00091

   316    C   22  S      Cor( 1S)     1.99901
   317    C   22  S      Val( 2S)     0.94478
   318    C   22  S      Ryd( 3S)     0.00070
   319    C   22  S      Ryd( 4S)     0.00005
   320    C   22  px     Val( 2p)     1.11965
   321    C   22  px     Ryd( 3p)     0.00415
   322    C   22  py     Val( 2p)     1.09599
   323    C   22  py     Ryd( 3p)     0.00395
   324    C   22  pz     Val( 2p)     1.09659
   325    C   22  pz     Ryd( 3p)     0.00390
   326    C   22  dxy    Ryd( 3d)     0.00060
   327    C   22  dxz    Ryd( 3d)     0.00061
   328    C   22  dyz    Ryd( 3d)     0.00047
   329    C   22  dx2y2  Ryd( 3d)     0.00051
   330    C   22  dz2    Ryd( 3d)     0.00039

   331    H   23  S      Val( 1S)     0.56791
   332    H   23  S      Ryd( 2S)     0.00108
   333    H   23  px     Ryd( 2p)     0.00034
   334    H   23  py     Ryd( 2p)     0.00031
   335    H   23  pz     Ryd( 2p)     0.00057

   336    H   24  S      Val( 1S)     0.56856
   337    H   24  S      Ryd( 2S)     0.00135
   338    H   24  px     Ryd( 2p)     0.00024
   339    H   24  py     Ryd( 2p)     0.00062
   340    H   24  pz     Ryd( 2p)     0.00036

   341    H   25  S      Val( 1S)     0.75107
   342    H   25  S      Ryd( 2S)     0.00090
   343    H   25  px     Ryd( 2p)     0.00009
   344    H   25  py     Ryd( 2p)     0.00029
   345    H   25  pz     Ryd( 2p)     0.00024

   346    H   26  S      Val( 1S)     0.74371
   347    H   26  S      Ryd( 2S)     0.00110
   348    H   26  px     Ryd( 2p)     0.00021
   349    H   26  py     Ryd( 2p)     0.00020
   350    H   26  pz     Ryd( 2p)     0.00019

   351    H   27  S      Val( 1S)     0.74371
   352    H   27  S      Ryd( 2S)     0.00110
   353    H   27  px     Ryd( 2p)     0.00021
   354    H   27  py     Ryd( 2p)     0.00020
   355    H   27  pz     Ryd( 2p)     0.00019

   356    H   28  S      Val( 1S)     0.75107
   357    H   28  S      Ryd( 2S)     0.00090
   358    H   28  px     Ryd( 2p)     0.00009
   359    H   28  py     Ryd( 2p)     0.00029
   360    H   28  pz     Ryd( 2p)     0.00024

   361    H   29  S      Val( 1S)     0.56856
   362    H   29  S      Ryd( 2S)     0.00135
   363    H   29  px     Ryd( 2p)     0.00024
   364    H   29  py     Ryd( 2p)     0.00062
   365    H   29  pz     Ryd( 2p)     0.00036

   366    H   30  S      Val( 1S)     0.56791
   367    H   30  S      Ryd( 2S)     0.00108
   368    H   30  px     Ryd( 2p)     0.00034
   369    H   30  py     Ryd( 2p)     0.00031
   370    H   30  pz     Ryd( 2p)     0.00057

   371    H   31  S      Val( 1S)     0.74370
   372    H   31  S      Ryd( 2S)     0.00166
   373    H   31  px     Ryd( 2p)     0.00020
   374    H   31  py     Ryd( 2p)     0.00022
   375    H   31  pz     Ryd( 2p)     0.00022

   376    H   32  S      Val( 1S)     0.74370
   377    H   32  S      Ryd( 2S)     0.00166
   378    H   32  px     Ryd( 2p)     0.00020
   379    H   32  py     Ryd( 2p)     0.00022
   380    H   32  pz     Ryd( 2p)     0.00022

 WARNING:  1 low occupancy (<1.9990e) core orbital  found on  C    2
           1 low occupancy (<1.9990e) core orbital  found on  C    5
           1 low occupancy (<1.9990e) core orbital  found on  C    6
           1 low occupancy (<1.9990e) core orbital  found on  C    9
           1 low occupancy (<1.9990e) core orbital  found on  C   12
           1 low occupancy (<1.9990e) core orbital  found on  C   17


 Summary of Natural Population Analysis:                  
                                                          
                                       Natural Population 
                Natural  -----------------------------------------------
    Atom  No    Charge         Core      Valence    Rydberg      Total
 -----------------------------------------------------------------------
      N    1   -0.75370      1.99948     5.74349    0.01072     7.75370
      C    2    0.18993      1.99898     3.79310    0.01798     5.81007
      C    3   -0.32710      1.99904     4.31227    0.01579     6.32710
      C    4   -0.21241      1.99905     4.19791    0.01545     6.21241
      C    5   -0.01682      1.99897     3.99867    0.01917     6.01682
      C    6   -0.01682      1.99897     3.99867    0.01917     6.01682
      C    7   -0.21241      1.99905     4.19791    0.01545     6.21241
      C    8   -0.32710      1.99904     4.31227    0.01579     6.32710
      C    9    0.18993      1.99898     3.79310    0.01798     5.81007
      N   10   -0.75370      1.99948     5.74349    0.01072     7.75370
      C   11   -0.27136      1.99901     4.25701    0.01534     6.27136
      C   12   -0.21314      1.99879     4.19649    0.01786     6.21314
      C   13    1.11066      1.99905     2.82007    0.07022     4.88934
      F   14   -0.37248      1.99993     7.36672    0.00584     9.37248
      F   15   -0.37108      1.99993     7.36491    0.00624     9.37108
      F   16   -0.37718      1.99993     7.37121    0.00605     9.37718
      C   17   -0.21314      1.99879     4.19649    0.01786     6.21314
      C   18    1.11066      1.99905     2.82007    0.07022     4.88934
      F   19   -0.37718      1.99993     7.37121    0.00605     9.37718
      F   20   -0.37108      1.99993     7.36491    0.00624     9.37108
      F   21   -0.37248      1.99993     7.36672    0.00584     9.37248
      C   22   -0.27136      1.99901     4.25701    0.01534     6.27136
      H   23    0.42979      0.00000     0.56791    0.00230     0.57021
      H   24    0.42887      0.00000     0.56856    0.00257     0.57113
      H   25    0.24741      0.00000     0.75107    0.00152     0.75259
      H   26    0.25458      0.00000     0.74371    0.00171     0.74542
      H   27    0.25458      0.00000     0.74371    0.00171     0.74542
      H   28    0.24741      0.00000     0.75107    0.00152     0.75259
      H   29    0.42887      0.00000     0.56856    0.00257     0.57113
      H   30    0.42979      0.00000     0.56791    0.00230     0.57021
      H   31    0.25401      0.00000     0.74370    0.00229     0.74599
      H   32    0.25401      0.00000     0.74370    0.00229     0.74599
 =======================================================================
   * Total *    0.00000     43.98430   117.59363    0.42207   162.00000

                                 Natural Population      
 --------------------------------------------------------
   Core                      43.98430 ( 99.9643% of  44)
   Valence                  117.59363 ( 99.6556% of 118)
   Natural Minimal Basis    161.57793 ( 99.7395% of 162)
   Natural Rydberg Basis      0.42207 (  0.2605% of 162)
 --------------------------------------------------------

    Atom  No          Natural Electron Configuration
 ----------------------------------------------------------------------------
      N    1      [core]2S( 1.36)2p( 4.38)3p( 0.01)
      C    2      [core]2S( 0.85)2p( 2.95)3p( 0.01)
      C    3      [core]2S( 0.95)2p( 3.36)3p( 0.01)
      C    4      [core]2S( 0.95)2p( 3.25)3p( 0.01)
      C    5      [core]2S( 0.87)2p( 3.13)3p( 0.01)
      C    6      [core]2S( 0.87)2p( 3.13)3p( 0.01)
      C    7      [core]2S( 0.95)2p( 3.25)3p( 0.01)
      C    8      [core]2S( 0.95)2p( 3.36)3p( 0.01)
      C    9      [core]2S( 0.85)2p( 2.95)3p( 0.01)
      N   10      [core]2S( 1.36)2p( 4.38)3p( 0.01)
      C   11      [core]2S( 0.94)2p( 3.31)3p( 0.01)
      C   12      [core]2S( 0.89)2p( 3.31)3p( 0.01)
      C   13      [core]2S( 0.80)2p( 2.02)3S( 0.01)3p( 0.05)3d( 0.02)
      F   14      [core]2S( 1.84)2p( 5.53)
      F   15      [core]2S( 1.84)2p( 5.52)
      F   16      [core]2S( 1.85)2p( 5.52)
      C   17      [core]2S( 0.89)2p( 3.31)3p( 0.01)
      C   18      [core]2S( 0.80)2p( 2.02)3S( 0.01)3p( 0.05)3d( 0.02)
      F   19      [core]2S( 1.85)2p( 5.52)
      F   20      [core]2S( 1.84)2p( 5.52)
      F   21      [core]2S( 1.84)2p( 5.53)
      C   22      [core]2S( 0.94)2p( 3.31)3p( 0.01)
      H   23            1S( 0.57)
      H   24            1S( 0.57)
      H   25            1S( 0.75)
      H   26            1S( 0.74)
      H   27            1S( 0.74)
      H   28            1S( 0.75)
      H   29            1S( 0.57)
      H   30            1S( 0.57)
      H   31            1S( 0.74)
      H   32            1S( 0.74)


 NBO analysis skipped by request.
 1\1\GINC-DRG2-W004\SP\RB3LYP TD-FC\6-31G(d,p)\C14H10F6N2\QDUEZ\21-Jul-
 2024\0\\# TD(NStates=10, Root=1) B3LYP/6-31G** SCRF=(Solvent=water) vo
 lume pop=NPA density=current Geom=AllCheck Guess=Read\\NVKGJHAQGWCWDI-
 UHFFFAOYSA-N_conf_2\\0,1\N,0,-4.7740143525,0.1484380102,-1.406315954\C
 ,0,-3.4376664889,0.1248310152,-1.0294442359\C,0,-2.4457898846,0.729097
 7899,-1.8203906637\C,0,-1.1055622092,0.6399672391,-1.4612318783\C,0,-0
 .6811078998,-0.0443573295,-0.3132426681\C,0,0.783820393,-0.1463915899,
 -0.0152378529\C,0,1.4735399118,-1.3233441764,-0.3399075262\C,0,2.84144
 97099,-1.4638836029,-0.1344301216\C,0,3.5917170265,-0.4109205674,0.415
 9529998\N,0,4.9684435173,-0.5095152825,0.5686568574\C,0,2.9146984067,0
 .7739665926,0.7532103148\C,0,1.5426599895,0.9037324693,0.5422955926\C,
 0,0.8878370374,2.2071460872,0.9257913063\F,0,1.7255678365,3.0261628306
 ,1.6043052095\F,0,-0.1984875518,2.0298778286,1.7134040963\F,0,0.468036
 4694,2.9080331184,-0.1600072042\C,0,-1.6830227169,-0.6430627281,0.4786
 91776\C,0,-1.3233227822,-1.398398946,1.7336149912\F,0,-0.6593156194,-2
 .5528056721,1.4636647129\F,0,-0.5278807873,-0.6809282648,2.5608797069\
 F,0,-2.4134034373,-1.7487729913,2.4560585024\C,0,-3.0299911796,-0.5598
 546256,0.1285975206\H,0,-5.4408673264,0.0117484357,-0.6581773009\H,0,-
 5.0411632367,0.9122453067,-2.0131887975\H,0,-2.7294202591,1.266896021,
 -2.7207900692\H,0,-0.3594262225,1.1164944311,-2.0885241379\H,0,0.91701
 02385,-2.1519921175,-0.7652426492\H,0,3.3358173529,-2.3930451916,-0.40
 39697141\H,0,5.3310577865,-1.4506129094,0.6455393247\H,0,5.3763539798,
 0.1080601804,1.2580754378\H,0,3.4689854697,1.5976011137,1.1882954112\H
 ,0,-3.7765531713,-1.0264124747,0.760954998\\Version=ES64L-G16RevA.03\S
 tate=1-A\HF=-1248.1172519\RMSD=2.628e-09\Dipole=0.176257,-0.3273341,-0
 .9785311\Quadrupole=33.8512364,-18.8769979,-14.9742385,-11.0553795,13.
 0149991,-1.6552854\PG=C01 [X(C14H10F6N2)]\\@


 NECESSARY EVIL: ONE WE LIKE TOO MUCH TO RELINQUISH.
 Job cpu time:       0 days  1 hours 21 minutes 24.2 seconds.
 Elapsed time:       0 days  0 hours 27 minutes 13.8 seconds.
 File lengths (MBytes):  RWF=   1285 Int=      0 D2E=      0 Chk=     74 Scr=      1
 Normal termination of Gaussian 16 at Sun Jul 21 13:24:44 2024.
