 Entering Gaussian System, Link 0=g16
 Initial command:
 /opt/sw/arch/manual/gaussian/G16_A03/g16/l1.exe "/scratch/1380843/Gau-47100.inp" -scrdir="/scratch/1380843/"
 Entering Link 1 = /opt/sw/arch/manual/gaussian/G16_A03/g16/l1.exe PID=     47101.
  
 Copyright (c) 1988,1990,1992,1993,1995,1998,2003,2009,2016,
            Gaussian, Inc.  All Rights Reserved.
  
 This is part of the Gaussian(R) 16 program.  It is based on
 the Gaussian(R) 09 system (copyright 2009, Gaussian, Inc.),
 the Gaussian(R) 03 system (copyright 2003, Gaussian, Inc.),
 the Gaussian(R) 98 system (copyright 1998, Gaussian, Inc.),
 the Gaussian(R) 94 system (copyright 1995, Gaussian, Inc.),
 the Gaussian 92(TM) system (copyright 1992, Gaussian, Inc.),
 the Gaussian 90(TM) system (copyright 1990, Gaussian, Inc.),
 the Gaussian 88(TM) system (copyright 1988, Gaussian, Inc.),
 the Gaussian 86(TM) system (copyright 1986, Carnegie Mellon
 University), and the Gaussian 82(TM) system (copyright 1983,
 Carnegie Mellon University). Gaussian is a federally registered
 trademark of Gaussian, Inc.
  
 This software contains proprietary and confidential information,
 including trade secrets, belonging to Gaussian, Inc.
  
 This software is provided under written license and may be
 used, copied, transmitted, or stored only in accord with that
 written license.
  
 The following legend is applicable only to US Government
 contracts under FAR:
  
                    RESTRICTED RIGHTS LEGEND
  
 Use, reproduction and disclosure by the US Government is
 subject to restrictions as set forth in subparagraphs (a)
 and (c) of the Commercial Computer Software - Restricted
 Rights clause in FAR 52.227-19.
  
 Gaussian, Inc.
 340 Quinnipiac St., Bldg. 40, Wallingford CT 06492
  
  
 ---------------------------------------------------------------
 Warning -- This program may not be used in any manner that
 competes with the business of Gaussian, Inc. or will provide
 assistance to any competitor of Gaussian, Inc.  The licensee
 of this program is prohibited from giving any competitor of
 Gaussian, Inc. access to this program.  By using this program,
 the user acknowledges that Gaussian, Inc. is engaged in the
 business of creating and licensing software in the field of
 computational chemistry and represents and warrants to the
 licensee that it is not a competitor of Gaussian, Inc. and that
 it will not use this program in any manner prohibited above.
 ---------------------------------------------------------------
  

 Cite this work as:
 Gaussian 16, Revision A.03,
 M. J. Frisch, G. W. Trucks, H. B. Schlegel, G. E. Scuseria, 
 M. A. Robb, J. R. Cheeseman, G. Scalmani, V. Barone, 
 G. A. Petersson, H. Nakatsuji, X. Li, M. Caricato, A. V. Marenich, 
 J. Bloino, B. G. Janesko, R. Gomperts, B. Mennucci, H. P. Hratchian, 
 J. V. Ortiz, A. F. Izmaylov, J. L. Sonnenberg, D. Williams-Young, 
 F. Ding, F. Lipparini, F. Egidi, J. Goings, B. Peng, A. Petrone, 
 T. Henderson, D. Ranasinghe, V. G. Zakrzewski, J. Gao, N. Rega, 
 G. Zheng, W. Liang, M. Hada, M. Ehara, K. Toyota, R. Fukuda, 
 J. Hasegawa, M. Ishida, T. Nakajima, Y. Honda, O. Kitao, H. Nakai, 
 T. Vreven, K. Throssell, J. A. Montgomery, Jr., J. E. Peralta, 
 F. Ogliaro, M. J. Bearpark, J. J. Heyd, E. N. Brothers, K. N. Kudin, 
 V. N. Staroverov, T. A. Keith, R. Kobayashi, J. Normand, 
 K. Raghavachari, A. P. Rendell, J. C. Burant, S. S. Iyengar, 
 J. Tomasi, M. Cossi, J. M. Millam, M. Klene, C. Adamo, R. Cammi, 
 J. W. Ochterski, R. L. Martin, K. Morokuma, O. Farkas, 
 J. B. Foresman, and D. J. Fox, Gaussian, Inc., Wallingford CT, 2016.
 
 ******************************************
 Gaussian 16:  ES64L-G16RevA.03 25-Dec-2016
                17-Jul-2024 
 ******************************************
 %nprocshared=8
 Will use up to    8 processors via shared memory.
 %mem=16GB
 %Chk=HYDATEKARGDBKU-UHFFFAOYSA-N_conf_1_0.chk
 -------------------------------------------------------
 # opt=CalcFc B3LYP/6-31G** SCRF=(Solvent=water) scf=xqc
 -------------------------------------------------------
 1/10=4,18=20,19=15,26=3,38=1/1,3;
 2/9=110,12=2,17=6,18=5,40=1/2;
 3/5=1,6=6,7=101,11=2,25=1,30=1,70=2201,71=2,72=1,74=-5,140=1/1,2,3;
 4//1;
 5/5=2,8=3,13=1,38=5,53=1/2,8;
 8/6=4,10=90,11=11/1;
 11/6=1,8=1,9=11,15=111,16=1/1,2,10;
 10/6=1,13=1/2;
 6/7=2,8=2,9=2,10=2,28=1/1;
 7/10=1,18=20,25=1/1,2,3,16;
 1/10=4,18=20,19=15,26=3/3(2);
 2/9=110/2;
 99//99;
 2/9=110/2;
 3/5=1,6=6,7=101,11=2,25=1,30=1,70=2205,71=1,72=1,74=-5/1,2,3;
 4/5=5,16=3,69=1/1;
 5/5=2,8=3,13=1,38=5,53=1/2,8;
 7//1,2,3,16;
 1/18=20,19=15,26=3/3(-5);
 2/9=110/2;
 6/7=2,8=2,9=2,10=2,19=2,28=1/1;
 99/9=1/99;
 ----------------------------------
 HYDATEKARGDBKU-UHFFFAOYSA-N_conf_1
 ----------------------------------
 Symbolic Z-matrix:
 Charge =  0 Multiplicity = 1
 N                     8.92132   1.33123   0.99384 
 C                     7.86535   0.60694   0.42878 
 C                     6.71712   1.26822  -0.01698 
 C                     5.60899   0.54816  -0.47312 
 C                     5.62374  -0.84611  -0.42766 
 O                     4.58316  -1.61891  -0.8889 
 C                     3.31224  -1.28475  -0.48079 
 C                     2.9919   -0.98854   0.84411 
 C                     1.66917  -0.69549   1.19109 
 C                     0.6453   -0.70923   0.22814 
 C                    -0.74758  -0.40355   0.59562 
 C                    -1.38353  -1.08021   1.65065 
 C                    -2.70773  -0.79496   1.99646 
 C                    -3.42153   0.16357   1.28138 
 O                    -4.7103    0.4195    1.69023 
 C                    -5.67563   0.50844   0.71399 
 C                    -6.59269   1.5514    0.82122 
 C                    -7.61733   1.67704  -0.12063 
 C                    -7.71777   0.78203  -1.18957 
 N                    -8.81122   0.84482  -2.06048 
 C                    -6.84183  -0.3062   -1.23837 
 C                    -5.81462  -0.43984  -0.29974 
 C                    -2.80388   0.86683   0.24718 
 C                    -1.47968   0.57711  -0.09617 
 C                     0.98883  -1.03226  -1.09586 
 C                     2.3097   -1.32569  -1.44698 
 C                     6.74901  -1.51624   0.04736 
 C                     7.85261  -0.78897   0.50076 
 H                     9.80653   0.83447   0.99192 
 H                     9.00937   2.27646   0.63435 
 H                     6.67702   2.35403  -0.0198 
 H                     4.74175   1.08212  -0.8508 
 H                     3.75902  -0.98551   1.61355 
 H                     1.44286  -0.44787   2.22629 
 H                    -0.85052  -1.84796   2.2082 
 H                    -3.18185  -1.3268    2.81674 
 H                    -6.51755   2.26055   1.64044 
 H                    -8.33967   2.481    -0.00973 
 H                    -8.6508    0.38964  -2.95333 
 H                    -9.19867   1.77681  -2.16693 
 H                    -6.95477  -1.06581  -2.00704 
 H                    -5.14466  -1.29269  -0.35696 
 H                    -3.33914   1.64416  -0.29089 
 H                    -1.01367   1.13837  -0.90373 
 H                     0.22054  -1.07407  -1.86549 
 H                     2.55379  -1.585    -2.47333 
 H                     6.7613   -2.60191   0.08318 
 H                     8.70603  -1.32434   0.90748 
 

 GradGradGradGradGradGradGradGradGradGradGradGradGradGradGradGradGradGrad
 Berny optimization.
 Initialization pass.
                           ----------------------------
                           !    Initial Parameters    !
                           ! (Angstroms and Degrees)  !
 --------------------------                            --------------------------
 ! Name  Definition              Value          Derivative Info.                !
 --------------------------------------------------------------------------------
 ! R1    R(1,2)                  1.3996         calculate D2E/DX2 analytically  !
 ! R2    R(1,29)                 1.0151         calculate D2E/DX2 analytically  !
 ! R3    R(1,30)                 1.0151         calculate D2E/DX2 analytically  !
 ! R4    R(2,3)                  1.398          calculate D2E/DX2 analytically  !
 ! R5    R(2,28)                 1.3978         calculate D2E/DX2 analytically  !
 ! R6    R(3,4)                  1.398          calculate D2E/DX2 analytically  !
 ! R7    R(3,31)                 1.0866         calculate D2E/DX2 analytically  !
 ! R8    R(4,5)                  1.3951         calculate D2E/DX2 analytically  !
 ! R9    R(4,32)                 1.0862         calculate D2E/DX2 analytically  !
 ! R10   R(5,6)                  1.3758         calculate D2E/DX2 analytically  !
 ! R11   R(5,27)                 1.3932         calculate D2E/DX2 analytically  !
 ! R12   R(6,7)                  1.376          calculate D2E/DX2 analytically  !
 ! R13   R(7,8)                  1.3949         calculate D2E/DX2 analytically  !
 ! R14   R(7,26)                 1.3929         calculate D2E/DX2 analytically  !
 ! R15   R(8,9)                  1.3985         calculate D2E/DX2 analytically  !
 ! R16   R(8,33)                 1.0865         calculate D2E/DX2 analytically  !
 ! R17   R(9,10)                 1.4056         calculate D2E/DX2 analytically  !
 ! R18   R(9,34)                 1.0882         calculate D2E/DX2 analytically  !
 ! R19   R(10,11)                1.4726         calculate D2E/DX2 analytically  !
 ! R20   R(10,25)                1.4055         calculate D2E/DX2 analytically  !
 ! R21   R(11,12)                1.4055         calculate D2E/DX2 analytically  !
 ! R22   R(11,24)                1.4058         calculate D2E/DX2 analytically  !
 ! R23   R(12,13)                1.398          calculate D2E/DX2 analytically  !
 ! R24   R(12,35)                1.0883         calculate D2E/DX2 analytically  !
 ! R25   R(13,14)                1.3927         calculate D2E/DX2 analytically  !
 ! R26   R(13,36)                1.0865         calculate D2E/DX2 analytically  !
 ! R27   R(14,15)                1.3761         calculate D2E/DX2 analytically  !
 ! R28   R(14,23)                1.3949         calculate D2E/DX2 analytically  !
 ! R29   R(15,16)                1.3758         calculate D2E/DX2 analytically  !
 ! R30   R(16,17)                1.3929         calculate D2E/DX2 analytically  !
 ! R31   R(16,22)                1.3951         calculate D2E/DX2 analytically  !
 ! R32   R(17,18)                1.3974         calculate D2E/DX2 analytically  !
 ! R33   R(17,37)                1.0861         calculate D2E/DX2 analytically  !
 ! R34   R(18,19)                1.3978         calculate D2E/DX2 analytically  !
 ! R35   R(18,38)                1.0865         calculate D2E/DX2 analytically  !
 ! R36   R(19,20)                1.3993         calculate D2E/DX2 analytically  !
 ! R37   R(19,21)                1.3978         calculate D2E/DX2 analytically  !
 ! R38   R(20,39)                1.0149         calculate D2E/DX2 analytically  !
 ! R39   R(20,40)                1.0149         calculate D2E/DX2 analytically  !
 ! R40   R(21,22)                1.3979         calculate D2E/DX2 analytically  !
 ! R41   R(21,41)                1.0866         calculate D2E/DX2 analytically  !
 ! R42   R(22,42)                1.086          calculate D2E/DX2 analytically  !
 ! R43   R(23,24)                1.3983         calculate D2E/DX2 analytically  !
 ! R44   R(23,43)                1.0864         calculate D2E/DX2 analytically  !
 ! R45   R(24,44)                1.0883         calculate D2E/DX2 analytically  !
 ! R46   R(25,26)                1.3979         calculate D2E/DX2 analytically  !
 ! R47   R(25,45)                1.0883         calculate D2E/DX2 analytically  !
 ! R48   R(26,46)                1.0864         calculate D2E/DX2 analytically  !
 ! R49   R(27,28)                1.3973         calculate D2E/DX2 analytically  !
 ! R50   R(27,47)                1.0863         calculate D2E/DX2 analytically  !
 ! R51   R(28,48)                1.0864         calculate D2E/DX2 analytically  !
 ! A1    A(2,1,29)             113.8243         calculate D2E/DX2 analytically  !
 ! A2    A(2,1,30)             113.8487         calculate D2E/DX2 analytically  !
 ! A3    A(29,1,30)            112.2952         calculate D2E/DX2 analytically  !
 ! A4    A(1,2,3)              120.2399         calculate D2E/DX2 analytically  !
 ! A5    A(1,2,28)             120.1893         calculate D2E/DX2 analytically  !
 ! A6    A(3,2,28)             118.7705         calculate D2E/DX2 analytically  !
 ! A7    A(2,3,4)              120.7587         calculate D2E/DX2 analytically  !
 ! A8    A(2,3,31)             120.2535         calculate D2E/DX2 analytically  !
 ! A9    A(4,3,31)             118.9864         calculate D2E/DX2 analytically  !
 ! A10   A(3,4,5)              119.7186         calculate D2E/DX2 analytically  !
 ! A11   A(3,4,32)             119.5446         calculate D2E/DX2 analytically  !
 ! A12   A(5,4,32)             120.7343         calculate D2E/DX2 analytically  !
 ! A13   A(4,5,6)              122.8518         calculate D2E/DX2 analytically  !
 ! A14   A(4,5,27)             120.0244         calculate D2E/DX2 analytically  !
 ! A15   A(6,5,27)             117.0671         calculate D2E/DX2 analytically  !
 ! A16   A(5,6,7)              117.5641         calculate D2E/DX2 analytically  !
 ! A17   A(6,7,8)              123.0509         calculate D2E/DX2 analytically  !
 ! A18   A(6,7,26)             116.8649         calculate D2E/DX2 analytically  !
 ! A19   A(8,7,26)             119.986          calculate D2E/DX2 analytically  !
 ! A20   A(7,8,9)              119.825          calculate D2E/DX2 analytically  !
 ! A21   A(7,8,33)             120.736          calculate D2E/DX2 analytically  !
 ! A22   A(9,8,33)             119.4387         calculate D2E/DX2 analytically  !
 ! A23   A(8,9,10)             121.1254         calculate D2E/DX2 analytically  !
 ! A24   A(8,9,34)             118.7114         calculate D2E/DX2 analytically  !
 ! A25   A(10,9,34)            120.162          calculate D2E/DX2 analytically  !
 ! A26   A(9,10,11)            121.0636         calculate D2E/DX2 analytically  !
 ! A27   A(9,10,25)            118.0065         calculate D2E/DX2 analytically  !
 ! A28   A(11,10,25)           120.9286         calculate D2E/DX2 analytically  !
 ! A29   A(10,11,12)           121.0216         calculate D2E/DX2 analytically  !
 ! A30   A(10,11,24)           120.9695         calculate D2E/DX2 analytically  !
 ! A31   A(12,11,24)           118.0086         calculate D2E/DX2 analytically  !
 ! A32   A(11,12,13)           121.0662         calculate D2E/DX2 analytically  !
 ! A33   A(11,12,35)           120.1718         calculate D2E/DX2 analytically  !
 ! A34   A(13,12,35)           118.7589         calculate D2E/DX2 analytically  !
 ! A35   A(12,13,14)           119.9267         calculate D2E/DX2 analytically  !
 ! A36   A(12,13,36)           120.0132         calculate D2E/DX2 analytically  !
 ! A37   A(14,13,36)           120.058          calculate D2E/DX2 analytically  !
 ! A38   A(13,14,15)           117.0947         calculate D2E/DX2 analytically  !
 ! A39   A(13,14,23)           120.0492         calculate D2E/DX2 analytically  !
 ! A40   A(15,14,23)           122.7673         calculate D2E/DX2 analytically  !
 ! A41   A(14,15,16)           117.2796         calculate D2E/DX2 analytically  !
 ! A42   A(15,16,17)           117.1114         calculate D2E/DX2 analytically  !
 ! A43   A(15,16,22)           122.7916         calculate D2E/DX2 analytically  !
 ! A44   A(17,16,22)           119.9538         calculate D2E/DX2 analytically  !
 ! A45   A(16,17,18)           119.8794         calculate D2E/DX2 analytically  !
 ! A46   A(16,17,37)           120.0923         calculate D2E/DX2 analytically  !
 ! A47   A(18,17,37)           120.0259         calculate D2E/DX2 analytically  !
 ! A48   A(17,18,19)           120.7009         calculate D2E/DX2 analytically  !
 ! A49   A(17,18,38)           119.0276         calculate D2E/DX2 analytically  !
 ! A50   A(19,18,38)           120.2714         calculate D2E/DX2 analytically  !
 ! A51   A(18,19,20)           120.2248         calculate D2E/DX2 analytically  !
 ! A52   A(18,19,21)           118.6962         calculate D2E/DX2 analytically  !
 ! A53   A(20,19,21)           120.1904         calculate D2E/DX2 analytically  !
 ! A54   A(19,20,39)           113.8218         calculate D2E/DX2 analytically  !
 ! A55   A(19,20,40)           113.8781         calculate D2E/DX2 analytically  !
 ! A56   A(39,20,40)           112.3281         calculate D2E/DX2 analytically  !
 ! A57   A(19,21,22)           120.762          calculate D2E/DX2 analytically  !
 ! A58   A(19,21,41)           120.2532         calculate D2E/DX2 analytically  !
 ! A59   A(22,21,41)           118.9839         calculate D2E/DX2 analytically  !
 ! A60   A(16,22,21)           119.7458         calculate D2E/DX2 analytically  !
 ! A61   A(16,22,42)           120.7049         calculate D2E/DX2 analytically  !
 ! A62   A(21,22,42)           119.5386         calculate D2E/DX2 analytically  !
 ! A63   A(14,23,24)           119.7962         calculate D2E/DX2 analytically  !
 ! A64   A(14,23,43)           120.6504         calculate D2E/DX2 analytically  !
 ! A65   A(24,23,43)           119.5518         calculate D2E/DX2 analytically  !
 ! A66   A(11,24,23)           121.1228         calculate D2E/DX2 analytically  !
 ! A67   A(11,24,44)           120.1276         calculate D2E/DX2 analytically  !
 ! A68   A(23,24,44)           118.742          calculate D2E/DX2 analytically  !
 ! A69   A(10,25,26)           121.0525         calculate D2E/DX2 analytically  !
 ! A70   A(10,25,45)           120.1646         calculate D2E/DX2 analytically  !
 ! A71   A(26,25,45)           118.775          calculate D2E/DX2 analytically  !
 ! A72   A(7,26,25)            119.9784         calculate D2E/DX2 analytically  !
 ! A73   A(7,26,46)            120.0405         calculate D2E/DX2 analytically  !
 ! A74   A(25,26,46)           119.9811         calculate D2E/DX2 analytically  !
 ! A75   A(5,27,28)            119.882          calculate D2E/DX2 analytically  !
 ! A76   A(5,27,47)            120.0725         calculate D2E/DX2 analytically  !
 ! A77   A(28,27,47)           120.0351         calculate D2E/DX2 analytically  !
 ! A78   A(2,28,27)            120.681          calculate D2E/DX2 analytically  !
 ! A79   A(2,28,48)            120.2794         calculate D2E/DX2 analytically  !
 ! A80   A(27,28,48)           119.039          calculate D2E/DX2 analytically  !
 ! D1    D(29,1,2,3)          -160.2266         calculate D2E/DX2 analytically  !
 ! D2    D(29,1,2,28)           30.1433         calculate D2E/DX2 analytically  !
 ! D3    D(30,1,2,3)           -29.788          calculate D2E/DX2 analytically  !
 ! D4    D(30,1,2,28)          160.5819         calculate D2E/DX2 analytically  !
 ! D5    D(1,2,3,4)           -174.2853         calculate D2E/DX2 analytically  !
 ! D6    D(1,2,3,31)             6.1439         calculate D2E/DX2 analytically  !
 ! D7    D(28,2,3,4)            -4.5095         calculate D2E/DX2 analytically  !
 ! D8    D(28,2,3,31)          175.9197         calculate D2E/DX2 analytically  !
 ! D9    D(1,2,28,27)          174.2565         calculate D2E/DX2 analytically  !
 ! D10   D(1,2,28,48)           -6.0212         calculate D2E/DX2 analytically  !
 ! D11   D(3,2,28,27)            4.4754         calculate D2E/DX2 analytically  !
 ! D12   D(3,2,28,48)         -175.8024         calculate D2E/DX2 analytically  !
 ! D13   D(2,3,4,5)              2.909          calculate D2E/DX2 analytically  !
 ! D14   D(2,3,4,32)          -177.6536         calculate D2E/DX2 analytically  !
 ! D15   D(31,3,4,5)          -177.5148         calculate D2E/DX2 analytically  !
 ! D16   D(31,3,4,32)            1.9226         calculate D2E/DX2 analytically  !
 ! D17   D(3,4,5,6)           -178.3782         calculate D2E/DX2 analytically  !
 ! D18   D(3,4,5,27)            -1.1997         calculate D2E/DX2 analytically  !
 ! D19   D(32,4,5,6)             2.1913         calculate D2E/DX2 analytically  !
 ! D20   D(32,4,5,27)          179.3697         calculate D2E/DX2 analytically  !
 ! D21   D(4,5,6,7)            -48.4641         calculate D2E/DX2 analytically  !
 ! D22   D(27,5,6,7)           134.2792         calculate D2E/DX2 analytically  !
 ! D23   D(4,5,27,28)            1.1716         calculate D2E/DX2 analytically  !
 ! D24   D(4,5,27,47)          179.9944         calculate D2E/DX2 analytically  !
 ! D25   D(6,5,27,28)          178.5098         calculate D2E/DX2 analytically  !
 ! D26   D(6,5,27,47)           -2.6673         calculate D2E/DX2 analytically  !
 ! D27   D(5,6,7,8)            -45.9752         calculate D2E/DX2 analytically  !
 ! D28   D(5,6,7,26)           137.6363         calculate D2E/DX2 analytically  !
 ! D29   D(6,7,8,9)           -178.1195         calculate D2E/DX2 analytically  !
 ! D30   D(6,7,8,33)             1.6891         calculate D2E/DX2 analytically  !
 ! D31   D(26,7,8,9)            -1.8393         calculate D2E/DX2 analytically  !
 ! D32   D(26,7,8,33)          177.9693         calculate D2E/DX2 analytically  !
 ! D33   D(6,7,26,25)          178.3416         calculate D2E/DX2 analytically  !
 ! D34   D(6,7,26,46)           -1.691          calculate D2E/DX2 analytically  !
 ! D35   D(8,7,26,25)            1.8364         calculate D2E/DX2 analytically  !
 ! D36   D(8,7,26,46)         -178.1962         calculate D2E/DX2 analytically  !
 ! D37   D(7,8,9,10)             0.7862         calculate D2E/DX2 analytically  !
 ! D38   D(7,8,9,34)          -178.8151         calculate D2E/DX2 analytically  !
 ! D39   D(33,8,9,10)         -179.025          calculate D2E/DX2 analytically  !
 ! D40   D(33,8,9,34)            1.3737         calculate D2E/DX2 analytically  !
 ! D41   D(8,9,10,11)          179.8538         calculate D2E/DX2 analytically  !
 ! D42   D(8,9,10,25)            0.2637         calculate D2E/DX2 analytically  !
 ! D43   D(34,9,10,11)          -0.5506         calculate D2E/DX2 analytically  !
 ! D44   D(34,9,10,25)         179.8593         calculate D2E/DX2 analytically  !
 ! D45   D(9,10,11,12)         -52.598          calculate D2E/DX2 analytically  !
 ! D46   D(9,10,11,24)         127.2057         calculate D2E/DX2 analytically  !
 ! D47   D(25,10,11,12)        126.9801         calculate D2E/DX2 analytically  !
 ! D48   D(25,10,11,24)        -53.2162         calculate D2E/DX2 analytically  !
 ! D49   D(9,10,25,26)          -0.2693         calculate D2E/DX2 analytically  !
 ! D50   D(9,10,25,45)         178.6968         calculate D2E/DX2 analytically  !
 ! D51   D(11,10,25,26)       -179.86           calculate D2E/DX2 analytically  !
 ! D52   D(11,10,25,45)         -0.8939         calculate D2E/DX2 analytically  !
 ! D53   D(10,11,12,13)       -179.7131         calculate D2E/DX2 analytically  !
 ! D54   D(10,11,12,35)         -0.3608         calculate D2E/DX2 analytically  !
 ! D55   D(24,11,12,13)          0.4775         calculate D2E/DX2 analytically  !
 ! D56   D(24,11,12,35)        179.8298         calculate D2E/DX2 analytically  !
 ! D57   D(10,11,24,23)        179.7858         calculate D2E/DX2 analytically  !
 ! D58   D(10,11,24,44)         -1.232          calculate D2E/DX2 analytically  !
 ! D59   D(12,11,24,23)         -0.4047         calculate D2E/DX2 analytically  !
 ! D60   D(12,11,24,44)        178.5775         calculate D2E/DX2 analytically  !
 ! D61   D(11,12,13,14)          0.6758         calculate D2E/DX2 analytically  !
 ! D62   D(11,12,13,36)       -179.8513         calculate D2E/DX2 analytically  !
 ! D63   D(35,12,13,14)       -178.6855         calculate D2E/DX2 analytically  !
 ! D64   D(35,12,13,36)          0.7874         calculate D2E/DX2 analytically  !
 ! D65   D(12,13,14,15)       -178.5824         calculate D2E/DX2 analytically  !
 ! D66   D(12,13,14,23)         -1.9162         calculate D2E/DX2 analytically  !
 ! D67   D(36,13,14,15)          1.945          calculate D2E/DX2 analytically  !
 ! D68   D(36,13,14,23)        178.6112         calculate D2E/DX2 analytically  !
 ! D69   D(13,14,15,16)       -135.02           calculate D2E/DX2 analytically  !
 ! D70   D(23,14,15,16)         48.412          calculate D2E/DX2 analytically  !
 ! D71   D(13,14,23,24)          1.9857         calculate D2E/DX2 analytically  !
 ! D72   D(13,14,23,43)       -177.554          calculate D2E/DX2 analytically  !
 ! D73   D(15,14,23,24)        178.4558         calculate D2E/DX2 analytically  !
 ! D74   D(15,14,23,43)         -1.0838         calculate D2E/DX2 analytically  !
 ! D75   D(14,15,16,17)       -136.0798         calculate D2E/DX2 analytically  !
 ! D76   D(14,15,16,22)         48.2785         calculate D2E/DX2 analytically  !
 ! D77   D(15,16,17,18)       -178.4445         calculate D2E/DX2 analytically  !
 ! D78   D(15,16,17,37)          0.9841         calculate D2E/DX2 analytically  !
 ! D79   D(22,16,17,18)         -2.6729         calculate D2E/DX2 analytically  !
 ! D80   D(22,16,17,37)        176.7557         calculate D2E/DX2 analytically  !
 ! D81   D(15,16,22,21)        178.2422         calculate D2E/DX2 analytically  !
 ! D82   D(15,16,22,42)         -0.5643         calculate D2E/DX2 analytically  !
 ! D83   D(17,16,22,21)          2.7199         calculate D2E/DX2 analytically  !
 ! D84   D(17,16,22,42)       -176.0866         calculate D2E/DX2 analytically  !
 ! D85   D(16,17,18,19)         -1.3491         calculate D2E/DX2 analytically  !
 ! D86   D(16,17,18,38)        178.4886         calculate D2E/DX2 analytically  !
 ! D87   D(37,17,18,19)        179.2219         calculate D2E/DX2 analytically  !
 ! D88   D(37,17,18,38)         -0.9404         calculate D2E/DX2 analytically  !
 ! D89   D(17,18,19,20)        174.4584         calculate D2E/DX2 analytically  !
 ! D90   D(17,18,19,21)          5.2258         calculate D2E/DX2 analytically  !
 ! D91   D(38,18,19,20)         -5.3773         calculate D2E/DX2 analytically  !
 ! D92   D(38,18,19,21)       -174.6099         calculate D2E/DX2 analytically  !
 ! D93   D(18,19,20,39)        160.5302         calculate D2E/DX2 analytically  !
 ! D94   D(18,19,20,40)         30.018          calculate D2E/DX2 analytically  !
 ! D95   D(21,19,20,39)        -30.3989         calculate D2E/DX2 analytically  !
 ! D96   D(21,19,20,40)       -160.9111         calculate D2E/DX2 analytically  !
 ! D97   D(18,19,21,22)         -5.1778         calculate D2E/DX2 analytically  !
 ! D98   D(18,19,21,41)        174.4781         calculate D2E/DX2 analytically  !
 ! D99   D(20,19,21,22)       -174.4142         calculate D2E/DX2 analytically  !
 ! D100  D(20,19,21,41)          5.2417         calculate D2E/DX2 analytically  !
 ! D101  D(19,21,22,16)          1.252          calculate D2E/DX2 analytically  !
 ! D102  D(19,21,22,42)       -179.9274         calculate D2E/DX2 analytically  !
 ! D103  D(41,21,22,16)       -178.4082         calculate D2E/DX2 analytically  !
 ! D104  D(41,21,22,42)          0.4124         calculate D2E/DX2 analytically  !
 ! D105  D(14,23,24,11)         -0.819          calculate D2E/DX2 analytically  !
 ! D106  D(14,23,24,44)       -179.815          calculate D2E/DX2 analytically  !
 ! D107  D(43,23,24,11)        178.7257         calculate D2E/DX2 analytically  !
 ! D108  D(43,23,24,44)         -0.2703         calculate D2E/DX2 analytically  !
 ! D109  D(10,25,26,7)          -0.7773         calculate D2E/DX2 analytically  !
 ! D110  D(10,25,26,46)        179.2553         calculate D2E/DX2 analytically  !
 ! D111  D(45,25,26,7)        -179.7575         calculate D2E/DX2 analytically  !
 ! D112  D(45,25,26,46)          0.2751         calculate D2E/DX2 analytically  !
 ! D113  D(5,27,28,2)           -2.8483         calculate D2E/DX2 analytically  !
 ! D114  D(5,27,28,48)         177.426          calculate D2E/DX2 analytically  !
 ! D115  D(47,27,28,2)         178.3283         calculate D2E/DX2 analytically  !
 ! D116  D(47,27,28,48)         -1.3973         calculate D2E/DX2 analytically  !
 --------------------------------------------------------------------------------
 Trust Radius=3.00D-01 FncErr=1.00D-07 GrdErr=1.00D-06 EigMax=2.50D+02 EigMin=1.00D-04
 Number of steps in this run=    257 maximum allowed number of steps=    288.
 GradGradGradGradGradGradGradGradGradGradGradGradGradGradGradGradGradGrad

                          Input orientation:                          
 ---------------------------------------------------------------------
 Center     Atomic      Atomic             Coordinates (Angstroms)
 Number     Number       Type             X           Y           Z
 ---------------------------------------------------------------------
      1          7           0        8.921318    1.331228    0.993844
      2          6           0        7.865346    0.606945    0.428778
      3          6           0        6.717118    1.268218   -0.016975
      4          6           0        5.608992    0.548159   -0.473118
      5          6           0        5.623736   -0.846113   -0.427661
      6          8           0        4.583158   -1.618907   -0.888905
      7          6           0        3.312236   -1.284749   -0.480789
      8          6           0        2.991900   -0.988537    0.844113
      9          6           0        1.669168   -0.695490    1.191093
     10          6           0        0.645303   -0.709227    0.228141
     11          6           0       -0.747584   -0.403555    0.595616
     12          6           0       -1.383530   -1.080210    1.650647
     13          6           0       -2.707728   -0.794955    1.996456
     14          6           0       -3.421526    0.163570    1.281376
     15          8           0       -4.710299    0.419499    1.690226
     16          6           0       -5.675629    0.508436    0.713989
     17          6           0       -6.592688    1.551395    0.821221
     18          6           0       -7.617327    1.677039   -0.120633
     19          6           0       -7.717768    0.782034   -1.189567
     20          7           0       -8.811215    0.844817   -2.060484
     21          6           0       -6.841828   -0.306196   -1.238369
     22          6           0       -5.814620   -0.439842   -0.299738
     23          6           0       -2.803881    0.866831    0.247178
     24          6           0       -1.479685    0.577109   -0.096167
     25          6           0        0.988826   -1.032264   -1.095856
     26          6           0        2.309697   -1.325690   -1.446983
     27          6           0        6.749005   -1.516238    0.047357
     28          6           0        7.852609   -0.788969    0.500761
     29          1           0        9.806526    0.834474    0.991917
     30          1           0        9.009367    2.276463    0.634349
     31          1           0        6.677024    2.354031   -0.019802
     32          1           0        4.741750    1.082120   -0.850796
     33          1           0        3.759022   -0.985512    1.613546
     34          1           0        1.442857   -0.447870    2.226291
     35          1           0       -0.850516   -1.847955    2.208196
     36          1           0       -3.181854   -1.326798    2.816741
     37          1           0       -6.517550    2.260545    1.640440
     38          1           0       -8.339669    2.481002   -0.009735
     39          1           0       -8.650802    0.389640   -2.953330
     40          1           0       -9.198670    1.776808   -2.166928
     41          1           0       -6.954774   -1.065812   -2.007037
     42          1           0       -5.144660   -1.292694   -0.356960
     43          1           0       -3.339140    1.644162   -0.290887
     44          1           0       -1.013665    1.138368   -0.903727
     45          1           0        0.220538   -1.074066   -1.865487
     46          1           0        2.553788   -1.584995   -2.473325
     47          1           0        6.761296   -2.601912    0.083180
     48          1           0        8.706025   -1.324336    0.907481
 ---------------------------------------------------------------------
                    Distance matrix (angstroms):
                    1          2          3          4          5
     1  N    0.000000
     2  C    1.399629   0.000000
     3  C    2.425741   1.398000   0.000000
     4  C    3.706302   2.430639   1.398033   0.000000
     5  C    4.199468   2.805295   2.415480   1.395091   0.000000
     6  O    5.573838   4.178931   3.694528   2.433391   1.375776
     7  C    6.362364   5.013645   4.280887   2.938486   2.353350
     8  C    6.368809   5.144759   4.439783   3.308430   2.926475
     9  C    7.532607   6.377310   5.549539   4.454040   4.275705
    10  C    8.558165   7.341770   6.390408   5.168268   5.023307
    11  C    9.831364   8.673610   7.674104   6.515675   6.468128
    12  C   10.603599   9.480567   8.597475   7.487144   7.312725
    13  C   11.864256  10.780205   9.855877   8.778985   8.677111
    14  C   12.401286  11.327709  10.280957   9.207411   9.260510
    15  O   13.679809  12.640144  11.585367  10.544401  10.624477
    16  C   14.622796  13.544337  12.437515  11.346959  11.437387
    17  C   15.516528  14.494162  13.339179  12.311084  12.511945
    18  C   16.579759  15.529331  14.340648  13.279086  13.482815
    19  C   16.790714  15.667902  14.490593  13.348054  13.462062
    20  N   18.000229  16.862998  15.667940  14.510345  14.625087
    21  C   16.004396  14.829504  13.704584  12.503538  12.503562
    22  C   14.898252  13.739286  12.650766  11.467568  11.446284
    23  C   11.758123  10.673937   9.533117   8.449664   8.626374
    24  C   10.485117   9.359811   8.226268   7.098752   7.252175
    25  C    8.536824   7.231739   6.266541   4.922548   4.686527
    26  C    7.531957   6.174042   5.310239   3.917278   3.500267
    27  C    3.704436   2.428910   2.785382   2.415007   1.393176
    28  C    2.424976   1.397827   2.406119   2.787502   2.415182
    29  H    1.015068   2.033980   3.278786   4.455064   4.726025
    30  H    1.015115   2.034290   2.587505   3.971910   4.726610
    31  H    2.666544   2.160010   1.086557   2.146476   3.393624
    32  H    4.575318   3.408805   2.152201   1.086215   2.162181
    33  H    5.692153   4.560865   4.060570   3.182562   2.768233
    34  H    7.785338   6.752188   5.982895   5.063157   4.968078
    35  H   10.347492   9.228170   8.481216   7.392974   7.061683
    36  H   12.524968  11.466575  10.618555   9.571709   9.396575
    37  H   15.480322  14.528256  13.374909  12.427889  12.701937
    38  H   17.328324  16.318913  15.105554  14.089562  14.360399
    39  H   18.034582  16.860279  15.670579  14.474747  14.548832
    40  H   18.398994  17.299911  16.068394  14.954780  15.152838
    41  H   16.334055  15.111825  14.011733  12.759546  12.679180
    42  H   14.372243  13.171418  12.139837  10.910695  10.777884
    43  H   12.331556  11.275382  10.067010   9.016845   9.303404
    44  H   10.116415   8.994155   7.782558   6.662834   6.944055
    45  H    9.469149   8.156748   7.149045   5.797046   5.595879
    46  H    7.814797   6.437348   5.613181   4.229119   3.762349
    47  H    4.578711   3.411030   3.871678   3.400032   2.153562
    48  H    2.665677   2.160034   3.395837   3.873488   3.392905
                    6          7          8          9         10
     6  O    0.000000
     7  C    1.376031   0.000000
     8  C    2.435738   1.394892   0.000000
     9  C    3.697353   2.417041   1.398531   0.000000
    10  C    4.193091   2.818925   2.442120   1.405619   0.000000
    11  C    5.665483   4.291537   3.793111   2.506095   1.472619
    12  C    6.506987   5.160918   4.450088   3.110975   2.505457
    13  C    7.884238   6.528139   5.818171   4.451485   3.791715
    14  C    8.483060   7.109600   6.530741   5.163459   4.290708
    15  O    9.857757   8.484035   7.875426   6.495379   5.665174
    16  C   10.598942   9.242550   8.796813   7.458091   6.455458
    17  C   11.742013  10.384915   9.915447   8.569922   7.605963
    18  C   12.661174  11.329486  10.981426   9.674115   8.607378
    19  C   12.536654  11.244330  11.043901   9.796183   8.612474
    20  N   13.669373  12.410018  12.292737  11.080782   9.852847
    21  C   11.505462  10.229199  10.074946   8.859509   7.640041
    22  C   10.480988   9.167669   8.897429   7.635118   6.487051
    23  C    7.876416   6.524272   6.114720   4.831148   3.792254
    24  C    6.496844   5.155284   4.830160   3.632055   2.505077
    25  C    3.647767   2.416669   2.788852   2.409651   1.405464
    26  C    2.359248   1.392943   2.414166   2.786911   2.440548
    27  C    2.361784   3.484811   3.876742   5.271290   6.159475
    28  C    3.648188   4.671640   4.876906   6.222558   7.212901
    29  H    6.069609   6.988260   7.055803   8.282334   9.321716
    30  H    6.089789   6.810511   6.849389   7.938575   8.890271
    31  H    4.574260   4.977452   5.049679   5.987025   6.769541
    32  H    2.705947   2.789710   3.197235   4.095114   4.599338
    33  H    2.709732   2.162268   1.086514   2.151759   3.419200
    34  H    4.575725   3.394588   2.145290   1.088195   2.167257
    35  H    6.258539   4.987620   4.166951   2.951523   2.730347
    36  H    8.608864   7.283452   6.490062   5.154968   4.661477
    37  H   12.028028  10.662712  10.080690   8.715642   7.881662
    38  H   13.586083  12.254374  11.881549  10.569244   9.537498
    39  H   13.543773  12.330097  12.323653  11.173877   9.886699
    40  H   14.251422  12.989957  12.857819  11.640381  10.431708
    41  H   11.605171  10.382141  10.347528   9.205300   7.929964
    42  H    9.747811   8.457806   8.230351   7.012943   5.848627
    43  H    8.588833   7.270171   6.949920   5.723058   4.656567
    44  H    6.239168   4.976323   4.860372   3.866381   2.728902
    45  H    4.503667   3.394167   3.876815   3.403605   2.167213
    46  H    2.574856   2.153042   3.398985   3.873206   3.421579
    47  H    2.579832   3.734836   4.170174   5.549025   6.403799
    48  H    4.506862   5.569724   5.724335   7.070590   8.112651
                   11         12         13         14         15
    11  C    0.000000
    12  C    1.405482   0.000000
    13  C    2.440842   1.398018   0.000000
    14  C    2.818131   2.415943   1.392702   0.000000
    15  O    4.192696   3.649396   2.361984   1.376080   0.000000
    16  C    5.013120   4.671536   3.485970   2.349860   1.375794
    17  C    6.167493   5.894797   4.688225   3.492001   2.362149
    18  C    7.213546   7.042733   5.890414   4.675570   3.648483
    19  C    7.292185   7.187305   6.143138   4.994572   4.179654
    20  N    8.581110   8.523423   7.510005   6.378156   5.573709
    21  C    6.364966   6.224029   5.271979   4.274139   3.694147
    22  C    5.145661   4.883507   3.879612   2.931028   2.432684
    23  C    2.442058   2.788924   2.414695   1.394857   2.432473
    24  C    1.405787   2.409837   2.787421   2.416482   3.694984
    25  C    2.504291   3.629553   4.825269   5.150967   6.507680
    26  C    3.790714   4.826541   6.108478   6.519874   7.884676
    27  C    7.598520   8.300529   9.682408  10.381920  11.737196
    28  C    8.609347   9.311998  10.665732  11.341199  12.676824
    29  H   10.633862  11.371776  12.659806  13.248218  14.539535
    30  H   10.118403  10.968701  12.189309  12.625769  13.884971
    31  H    7.944044   8.919470  10.102226  10.414985  11.676376
    32  H    5.867889   6.960742   8.192983   8.486988   9.810051
    33  H    4.656646   5.143557   6.480878   7.279492   8.585414
    34  H    2.731135   2.952911   4.171409   4.992890   6.237069
    35  H    2.167326   1.088299   2.145432   3.393423   4.506392
    36  H    3.422198   2.157440   1.086517   2.153133   2.579677
    37  H    6.440621   6.125269   4.896691   3.756541   2.580327
    38  H    8.144132   7.989179   6.817291   5.587986   4.506882
    39  H    8.699714   8.727560   7.824562   6.732694   6.090243
    40  H    9.154589   9.154936   8.128965   6.918723   6.071688
    41  H    6.763253   6.664655   5.842835   4.980851   4.573135
    42  H    4.586093   4.268693   3.424171   2.788197   2.703932
    43  H    3.419824   3.875071   3.402927   2.161239   2.702719
    44  H    2.167108   3.403486   3.875390   3.394510   4.572797
    45  H    2.728347   3.864748   4.854611   4.969821   6.259951
    46  H    4.659749   5.724022   6.948860   7.270463   8.609304
    47  H    7.840832   8.432717   9.827926  10.619484  11.971175
    48  H    9.503464  10.119832  11.477799  12.224204  13.551805
                   16         17         18         19         20
    16  C    0.000000
    17  C    1.392932   0.000000
    18  C    2.415040   1.397412   0.000000
    19  C    2.805123   2.429195   1.397763   0.000000
    20  N    4.200328   3.704772   2.425074   1.399309   0.000000
    21  C    2.415647   2.784713   2.404985   1.397819   2.424704
    22  C    1.395060   2.413911   2.786219   2.430380   3.705423
    23  C    2.931432   3.892712   4.894995   5.120323   6.435359
    24  C    4.273993   5.285228   6.235470   6.336497   7.594837
    25  C    7.075610   8.235887   9.075089   8.894112  10.024707
    26  C    8.473444   9.626777  10.455687  10.249821  11.347342
    27  C   12.606159  13.711674  14.717905  14.700325  15.878855
    28  C   13.591981  14.637165  15.677571  15.740454  16.938484
    29  H   15.488082  16.415765  17.479655  17.659630  18.866308
    30  H   14.791260  15.620011  16.654616  16.892514  18.079958
    31  H   12.511304  13.320541  14.310729  14.527545  15.694829
    32  H   10.549855  11.466705  12.394912  12.467734  13.608913
    33  H    9.594463  10.687449  11.811768  11.945642  13.223444
    34  H    7.339920   8.398885   9.597407   9.853822  11.188989
    35  H    5.573773   6.815557   7.977390   8.100666   9.425783
    36  H    3.742801   4.888751   6.109388   6.408759   7.758411
    37  H    2.153376   1.086121   2.156702   3.411078   4.578430
    38  H    3.392919   2.146299   1.086478   2.159920   2.665526
    39  H    4.723875   4.453397   3.278664   2.033564   1.014935
    40  H    4.724433   3.971270   2.588035   2.034178   1.014918
    41  H    3.393884   3.870390   3.394220   2.159850   2.664533
    42  H    2.161697   3.402020   3.871595   3.408610   4.573246
    43  H    2.785468   3.439617   4.281699   4.552282   5.806379
    44  H    4.974709   5.854189   6.671713   6.719648   7.888349
    45  H    6.627428   7.780199   8.487945   8.180384   9.235405
    46  H    9.069991  10.215136  10.937440  10.618650  11.629176
    47  H   12.835470  14.004412  15.003192  14.923615  16.092804
    48  H   14.499258  15.566884  16.628803  16.690578  17.898820
                   21         22         23         24         25
    21  C    0.000000
    22  C    1.397872   0.000000
    23  C    4.459581   3.327320   0.000000
    24  C    5.553146   4.457274   1.398328   0.000000
    25  C    7.865534   6.875438   4.449150   3.111753   0.000000
    26  C    9.210500   8.252601   5.816014   4.450255   1.397888
    27  C   13.705037  12.614428   9.847669   8.491999   5.892439
    28  C   14.804868  13.695102  10.787342   9.450619   7.051233
    29  H   16.835766  15.726172  12.632421  11.341461   9.251776
    30  H   16.169032  15.099716  11.903352  10.650900   8.847054
    31  H   13.831887  12.803330   9.600553   8.348364   6.706749
    32  H   11.672914  10.679746   7.628135   6.287349   4.314523
    33  H   10.998769   9.778192   6.954842   5.727910   3.875182
    34  H    8.981089   7.684521   4.866222   3.871130   3.403575
    35  H    7.081783   5.737146   3.877021   3.403950   3.868500
    36  H    5.557064   4.174996   3.399636   3.873922   5.726232
    37  H    3.870511   3.398601   4.204159   5.588367   8.641504
    38  H    3.394340   3.871861   5.772045   7.119808  10.027139
    39  H    2.587984   3.971588   6.682622   7.721622   9.919397
    40  H    3.279609   4.455528   6.895600   8.081464  10.621825
    41  H    1.086565   2.146312   5.103578   6.027206   7.995758
    42  H    2.151846   1.086038   3.241570   4.122647   6.183319
    43  H    4.119520   3.235916   1.086398   2.152694   5.151943
    44  H    6.013837   5.089668   2.145504   1.088274   2.959481
    45  H    7.131614   6.267132   4.168639   2.957639   1.088277
    46  H    9.562324   8.721589   6.489777   5.156984   2.156859
    47  H   13.858637  12.766160  10.176035   8.834711   6.097158
    48  H   15.728224  14.597563  11.735210  10.410163   7.978335
                   26         27         28         29         30
    26  C    0.000000
    27  C    4.687944   0.000000
    28  C    5.899631   1.397296   0.000000
    29  H    8.174166   3.970702   2.587392   0.000000
    30  H    7.886255   4.454029   3.279148   1.686016   0.000000
    31  H    5.886488   3.871521   3.395796   3.623039   2.423582
    32  H    3.473883   3.404000   3.873644   5.395265   4.673828
    33  H    3.403396   3.416814   4.246689   6.345950   6.258228
    34  H    3.874909   5.834755   6.646707   8.550967   8.198069
    35  H    4.860046   7.907717   8.932030  11.056551  10.803014
    36  H    6.952444  10.311515  11.287709  13.292821  12.898534
    37  H   10.015666  13.885370  14.734309  16.399077  15.559486
    38  H   11.400246  15.609269  16.527044  18.248254  17.362193
    39  H   11.195712  15.804763  16.902142  18.879508  18.119412
    40  H   11.940952  16.433976  17.448378  19.288955  18.429037
    41  H    9.285021  13.864234  15.020794  17.133184  16.522757
    42  H    7.533703  11.902635  13.035275  15.161869  14.630722
    43  H    6.485826  10.577013  11.480508  13.232903  12.399253
    44  H    4.172702   8.258967   9.181395  10.989193  10.204024
    45  H    2.145471   6.817285   7.995556  10.183244   9.732355
    46  H    1.086369   4.894733   6.128323   8.394281   8.138980
    47  H    4.877179   1.086334   2.156872   4.680596   5.399644
    48  H    6.815901   2.146291   1.086443   2.424602   3.623862
                   31         32         33         34         35
    31  H    0.000000
    32  H    2.460405   0.000000
    33  H    4.726003   3.363604   0.000000
    34  H    6.347604   4.763614   2.455429   0.000000
    35  H    8.904186   7.015426   4.727077   2.687030   0.000000
    36  H   10.899172   9.057439   7.052653   4.744376   2.465171
    37  H   13.298945  11.591668  10.777084   8.428928   7.022635
    38  H   15.017234  13.182860  12.689763  10.453513   8.930090
    39  H   15.729166  13.574263  13.294778  11.375933   9.617309
    40  H   16.030627  14.019633  13.777670  11.725684  10.098133
    41  H   14.194025  11.948187  11.309310   9.424602   7.459350
    42  H   12.375964  10.179622   9.124297   7.126170   5.032694
    43  H   10.044946   8.119739   7.805508   5.794849   4.963220
    44  H    7.836189   5.755933   5.798799   4.283417   4.316110
    45  H    7.539537   5.110782   4.963102   4.316113   4.282635
    46  H    6.207800   3.812254   4.302846   4.961211   5.794400
    47  H    4.957729   4.303832   3.737435   6.125244   7.938755
    48  H    4.301986   4.959642   5.008610   7.433778   9.658857
                   36         37         38         39         40
    36  H    0.000000
    37  H    5.037815   0.000000
    38  H    7.006523   2.468156   0.000000
    39  H    8.133220   5.399423   3.624272   0.000000
    40  H    8.406628   4.681715   2.426366   1.686068   0.000000
    41  H    6.129590   4.955795   4.299656   2.426998   3.625069
    42  H    3.731775   4.301156   4.956757   4.675940   5.397484
    43  H    4.302173   3.769913   5.077858   6.072576   6.153960
    44  H    4.961851   6.166427   7.501482   7.942753   8.306479
    45  H    5.793393   8.295359   9.453014   9.056848   9.845803
    46  H    7.806987  10.677098  11.885665  11.387380  12.227669
    47  H   10.390597  14.226606  15.933732  15.990702  16.701997
    48  H   12.040222  15.657134  17.489356  17.863454  18.429520
                   41         42         43         44         45
    41  H    0.000000
    42  H    2.459826   0.000000
    43  H    4.833419   3.448100   0.000000
    44  H    6.432144   4.824327   2.457485   0.000000
    45  H    7.176712   5.577526   4.747571   2.709816   0.000000
    46  H    9.534134   7.989401   7.065203   4.754689   2.464665
    47  H   13.959197  11.985807  10.963024   8.684106   6.993793
    48  H   15.931788  13.908317  12.463309  10.189100   8.930592
                   46         47         48
    46  H    0.000000
    47  H    5.027223   0.000000
    48  H    7.024800   2.468530   0.000000
 Stoichiometry    C24H20N2O2
 Framework group  C1[X(C24H20N2O2)]
 Deg. of freedom   138
 Full point group                 C1      NOp   1
 Largest Abelian subgroup         C1      NOp   1
 Largest concise Abelian subgroup C1      NOp   1
                         Standard orientation:                         
 ---------------------------------------------------------------------
 Center     Atomic      Atomic             Coordinates (Angstroms)
 Number     Number       Type             X           Y           Z
 ---------------------------------------------------------------------
      1          7           0        8.854067   -1.393754    1.498959
      2          6           0        7.829203   -0.580289    1.002080
      3          6           0        6.631780   -0.444641    1.710730
      4          6           0        5.557495    0.267817    1.169611
      5          6           0        5.657585    0.799042   -0.116492
      6          8           0        4.653749    1.537761   -0.699045
      7          6           0        3.376188    1.029341   -0.646065
      8          6           0        3.073636   -0.300074   -0.940757
      9          6           0        1.745246   -0.735830   -0.903532
     10          6           0        0.699017    0.148537   -0.588786
     11          6           0       -0.699598   -0.311041   -0.553099
     12          6           0       -1.265460   -0.994574   -1.643036
     13          6           0       -2.594874   -1.426061   -1.612516
     14          6           0       -3.383867   -1.167265   -0.494423
     15          8           0       -4.674499   -1.644211   -0.514090
     16          6           0       -5.668869   -0.789947   -0.096632
     17          6           0       -6.644072   -1.315427    0.747826
     18          6           0       -7.698931   -0.507546    1.180675
     19          6           0       -7.773334    0.834745    0.797971
     20          7           0       -8.891185    1.603820    1.140023
     21          6           0       -6.834886    1.325577   -0.114331
     22          6           0       -5.777065    0.523919   -0.552971
     23          6           0       -2.837322   -0.513642    0.609974
     24          6           0       -1.507575   -0.082566    0.574381
     25          6           0        1.026348    1.488127   -0.317341
     26          6           0        2.352796    1.927821   -0.353333
     27          6           0        6.833405    0.640364   -0.846703
     28          6           0        7.902670   -0.072554   -0.298200
     29          1           0        9.767292   -1.188610    1.106150
     30          1           0        8.875368   -1.454293    2.512043
     31          1           0        6.526144   -0.888019    2.697068
     32          1           0        4.649931    0.393482    1.753049
     33          1           0        3.859219   -1.003411   -1.202843
     34          1           0        1.531802   -1.781216   -1.117488
     35          1           0       -0.672536   -1.187968   -2.534908
     36          1           0       -3.014208   -1.955162   -2.463827
     37          1           0       -6.590287   -2.353683    1.062137
     38          1           0       -8.465315   -0.938346    1.819032
     39          1           0       -8.727206    2.604716    1.102463
     40          1           0       -9.336875    1.318349    2.006005
     41          1           0       -6.922014    2.338498   -0.497765
     42          1           0       -5.058581    0.925899   -1.261258
     43          1           0       -3.432551   -0.341947    1.502433
     44          1           0       -1.097769    0.422857    1.446703
     45          1           0        0.241938    2.207572   -0.090527
     46          1           0        2.584920    2.969919   -0.152466
     47          1           0        6.912161    1.053622   -1.848270
     48          1           0        8.797290   -0.224111   -0.895732
 ---------------------------------------------------------------------
 Rotational constants (GHZ):           0.6631045           0.0443982           0.0440385
 Standard basis: 6-31G(d,p) (6D, 7F)
 There are   520 symmetry adapted cartesian basis functions of A   symmetry.
 There are   520 symmetry adapted basis functions of A   symmetry.
   520 basis functions,   924 primitive gaussians,   520 cartesian basis functions
    97 alpha electrons       97 beta electrons
       nuclear repulsion energy      2177.0648934375 Hartrees.
 NAtoms=   48 NActive=   48 NUniq=   48 SFac= 1.00D+00 NAtFMM=   60 NAOKFM=F Big=F
 Integral buffers will be    131072 words long.
 Raffenetti 2 integral format.
 Two-electron integral symmetry is turned on.
 Force inversion solution in PCM.
 ------------------------------------------------------------------------------
 Polarizable Continuum Model (PCM)
 =================================
 Model                : PCM.
 Atomic radii         : UFF (Universal Force Field).
 Polarization charges : Total charges.
 Charge compensation  : None.
 Solution method      : Matrix inversion.
 Cavity type          : Scaled VdW (van der Waals Surface) (Alpha=1.100).
 Cavity algorithm     : GePol (No added spheres)
                        Default sphere list used, NSphG=   48.
                        Lebedev-Laikov grids with approx.  5.0 points / Ang**2.
                        Smoothing algorithm: York/Karplus (Gamma=1.0000).
                        Polarization charges: spherical gaussians, with
                                              point-specific exponents (IZeta= 3).
                        Self-potential: point-specific (ISelfS= 7).
                        Self-field    : sphere-specific E.n sum rule (ISelfD= 2).
 1st derivatives      : Analytical E(r).r(x)/FMM algorithm (CHGder, D1EAlg=3).
                        Cavity 1st derivative terms included.
 2nd derivatives      : Analytical E(r).r(xy)/FMM algorithm (CHGder, D2EAlg=3).
                        Cavity 2nd derivative terms included.
 Solvent              : Water, Eps=  78.355300 Eps(inf)=   1.777849
 ------------------------------------------------------------------------------
 One-electron integrals computed using PRISM.
 NBasis=   520 RedAO= T EigKep=  4.10D-04  NBF=   520
 NBsUse=   520 1.00D-06 EigRej= -1.00D+00 NBFU=   520
 ExpMin= 1.61D-01 ExpMax= 5.48D+03 ExpMxC= 8.25D+02 IAcc=3 IRadAn=         5 AccDes= 0.00D+00
 Harris functional with IExCor=  402 and IRadAn=       5 diagonalized for initial guess.
 HarFok:  IExCor=  402 AccDes= 0.00D+00 IRadAn=         5 IDoV= 1 UseB2=F ITyADJ=14
 ICtDFT=  3500011 ScaDFX=  1.000000  1.000000  1.000000  1.000000
 FoFCou: FMM=F IPFlag=           0 FMFlag=      100000 FMFlg1=           0
         NFxFlg=           0 DoJE=T BraDBF=F KetDBF=T FulRan=T
         wScrn=  0.000000 ICntrl=       500 IOpCl=  0 I1Cent=   200000004 NGrid=           0
         NMat0=    1 NMatS0=      1 NMatT0=    0 NMatD0=    1 NMtDS0=    0 NMtDT0=    0
 Petite list used in FoFCou.
 Requested convergence on RMS density matrix=1.00D-08 within  32 cycles.
 Requested convergence on MAX density matrix=1.00D-06.
 Requested convergence on             energy=1.00D-06.
 No special actions if energy rises.
 Inv3:  Mode=1 IEnd=    40936908.
 Iteration    1 A*A^-1 deviation from unit magnitude is 3.77D-15 for    370.
 Iteration    1 A*A^-1 deviation from orthogonality  is 1.78D-15 for   1719    385.
 Iteration    1 A^-1*A deviation from unit magnitude is 3.55D-15 for    370.
 Iteration    1 A^-1*A deviation from orthogonality  is 1.19D-14 for   3658   3653.
 Error on total polarization charges =  0.01250
 SCF Done:  E(RB3LYP) =  -1186.58625475     A.U. after   12 cycles
            NFock= 12  Conv=0.68D-08     -V/T= 2.0095
 QCSCF skips out because SCF is already converged.
 DoSCS=F DFT=T ScalE2(SS,OS)=  1.000000  1.000000
 Range of M.O.s used for correlation:     1   520
 NBasis=   520 NAE=    97 NBE=    97 NFC=     0 NFV=     0
 NROrb=    520 NOA=    97 NOB=    97 NVA=   423 NVB=   423
 Symmetrizing basis deriv contribution to polar:
 IMax=3 JMax=2 DiffMx= 0.00D+00
 G2DrvN: will do    49 centers at a time, making    1 passes.
 Calling FoFCou, ICntrl=  3107 FMM=F I1Cent=   0 AccDes= 0.00D+00.
 NEqPCM:  Using equilibrium solvation (IEInf=0, Eps=  78.3553, EpsInf=   1.7778)
 G2PCM: DoFxE=T DoFxN=T DoGrad=T DoDP/DQ/DG/TGxP=FFFF NFrqRd=   0 IEInf=0 SqF1=F DoCFld=F IF1Alg=4.
 End of G2Drv F.D. properties file   721 does not exist.
 End of G2Drv F.D. properties file   722 does not exist.
 End of G2Drv F.D. properties file   788 does not exist.
          IDoAtm=111111111111111111111111111111111111111111111111
 NEqPCM:  Using equilibrium solvation (IEInf=0, Eps=  78.3553, EpsInf=   1.7778)
          Differentiating once with respect to nuclear coordinates.
 CalDSu exits because no D1Ps are significant.
          There are   147 degrees of freedom in the 1st order CPHF.  IDoFFX=6 NUNeed=     0.
    141 vectors produced by pass  0 Test12= 4.10D-14 1.00D-09 XBig12= 1.40D-01 8.81D-02.
 AX will form   141 AO Fock derivatives at one time.
    141 vectors produced by pass  1 Test12= 4.10D-14 1.00D-09 XBig12= 2.67D-02 1.89D-02.
    141 vectors produced by pass  2 Test12= 4.10D-14 1.00D-09 XBig12= 2.56D-04 1.64D-03.
    141 vectors produced by pass  3 Test12= 4.10D-14 1.00D-09 XBig12= 7.67D-07 1.10D-04.
    141 vectors produced by pass  4 Test12= 4.10D-14 1.00D-09 XBig12= 1.28D-09 3.77D-06.
    105 vectors produced by pass  5 Test12= 4.10D-14 1.00D-09 XBig12= 1.70D-12 1.26D-07.
     27 vectors produced by pass  6 Test12= 4.10D-14 1.00D-09 XBig12= 2.06D-15 3.30D-09.
 InvSVY:  IOpt=1 It=  1 EMax= 3.89D-16
 Solved reduced A of dimension   837 with   147 vectors.
 End of Minotr F.D. properties file   721 does not exist.
 End of Minotr F.D. properties file   722 does not exist.
 End of Minotr F.D. properties file   788 does not exist.

 **********************************************************************

            Population analysis using the SCF density.

 **********************************************************************

 Orbital symmetries:
       Occupied  (A) (A) (A) (A) (A) (A) (A) (A) (A) (A) (A) (A)
                 (A) (A) (A) (A) (A) (A) (A) (A) (A) (A) (A) (A)
                 (A) (A) (A) (A) (A) (A) (A) (A) (A) (A) (A) (A)
                 (A) (A) (A) (A) (A) (A) (A) (A) (A) (A) (A) (A)
                 (A) (A) (A) (A) (A) (A) (A) (A) (A) (A) (A) (A)
                 (A) (A) (A) (A) (A) (A) (A) (A) (A) (A) (A) (A)
                 (A) (A) (A) (A) (A) (A) (A) (A) (A) (A) (A) (A)
                 (A) (A) (A) (A) (A) (A) (A) (A) (A) (A) (A) (A)
                 (A)
       Virtual   (A) (A) (A) (A) (A) (A) (A) (A) (A) (A) (A) (A)
                 (A) (A) (A) (A) (A) (A) (A) (A) (A) (A) (A) (A)
                 (A) (A) (A) (A) (A) (A) (A) (A) (A) (A) (A) (A)
                 (A) (A) (A) (A) (A) (A) (A) (A) (A) (A) (A) (A)
                 (A) (A) (A) (A) (A) (A) (A) (A) (A) (A) (A) (A)
                 (A) (A) (A) (A) (A) (A) (A) (A) (A) (A) (A) (A)
                 (A) (A) (A) (A) (A) (A) (A) (A) (A) (A) (A) (A)
                 (A) (A) (A) (A) (A) (A) (A) (A) (A) (A) (A) (A)
                 (A) (A) (A) (A) (A) (A) (A) (A) (A) (A) (A) (A)
                 (A) (A) (A) (A) (A) (A) (A) (A) (A) (A) (A) (A)
                 (A) (A) (A) (A) (A) (A) (A) (A) (A) (A) (A) (A)
                 (A) (A) (A) (A) (A) (A) (A) (A) (A) (A) (A) (A)
                 (A) (A) (A) (A) (A) (A) (A) (A) (A) (A) (A) (A)
                 (A) (A) (A) (A) (A) (A) (A) (A) (A) (A) (A) (A)
                 (A) (A) (A) (A) (A) (A) (A) (A) (A) (A) (A) (A)
                 (A) (A) (A) (A) (A) (A) (A) (A) (A) (A) (A) (A)
                 (A) (A) (A) (A) (A) (A) (A) (A) (A) (A) (A) (A)
                 (A) (A) (A) (A) (A) (A) (A) (A) (A) (A) (A) (A)
                 (A) (A) (A) (A) (A) (A) (A) (A) (A) (A) (A) (A)
                 (A) (A) (A) (A) (A) (A) (A) (A) (A) (A) (A) (A)
                 (A) (A) (A) (A) (A) (A) (A) (A) (A) (A) (A) (A)
                 (A) (A) (A) (A) (A) (A) (A) (A) (A) (A) (A) (A)
                 (A) (A) (A) (A) (A) (A) (A) (A) (A) (A) (A) (A)
                 (A) (A) (A) (A) (A) (A) (A) (A) (A) (A) (A) (A)
                 (A) (A) (A) (A) (A) (A) (A) (A) (A) (A) (A) (A)
                 (A) (A) (A) (A) (A) (A) (A) (A) (A) (A) (A) (A)
                 (A) (A) (A) (A) (A) (A) (A) (A) (A) (A) (A) (A)
                 (A) (A) (A) (A) (A) (A) (A) (A) (A) (A) (A) (A)
                 (A) (A) (A) (A) (A) (A) (A) (A) (A) (A) (A) (A)
                 (A) (A) (A) (A) (A) (A) (A) (A) (A) (A) (A) (A)
                 (A) (A) (A) (A) (A) (A) (A) (A) (A) (A) (A) (A)
                 (A) (A) (A) (A) (A) (A) (A) (A) (A) (A) (A) (A)
                 (A) (A) (A) (A) (A) (A) (A) (A) (A) (A) (A) (A)
                 (A) (A) (A) (A) (A) (A) (A) (A) (A) (A) (A) (A)
                 (A) (A) (A) (A) (A) (A) (A) (A) (A) (A) (A) (A)
                 (A) (A) (A)
 The electronic state is 1-A.
 Alpha  occ. eigenvalues --  -19.18549 -19.18511 -14.33521 -14.33514 -10.25153
 Alpha  occ. eigenvalues --  -10.25116 -10.24026 -10.24016 -10.22564 -10.22546
 Alpha  occ. eigenvalues --  -10.19976 -10.19940 -10.19653 -10.19650 -10.19589
 Alpha  occ. eigenvalues --  -10.19585 -10.19408 -10.19403 -10.19196 -10.19194
 Alpha  occ. eigenvalues --  -10.19181 -10.19181 -10.18970 -10.18936 -10.18713
 Alpha  occ. eigenvalues --  -10.18699 -10.18630 -10.18613  -1.07991  -1.07977
 Alpha  occ. eigenvalues --   -0.91384  -0.91379  -0.87102  -0.85301  -0.83759
 Alpha  occ. eigenvalues --   -0.83268  -0.78090  -0.75420  -0.74923  -0.74887
 Alpha  occ. eigenvalues --   -0.74760  -0.74078  -0.72124  -0.70043  -0.64165
 Alpha  occ. eigenvalues --   -0.62898  -0.62263  -0.61909  -0.60826  -0.60711
 Alpha  occ. eigenvalues --   -0.58392  -0.57221  -0.54616  -0.54476  -0.51793
 Alpha  occ. eigenvalues --   -0.51326  -0.51100  -0.50535  -0.50089  -0.48767
 Alpha  occ. eigenvalues --   -0.47050  -0.45471  -0.45317  -0.44712  -0.44473
 Alpha  occ. eigenvalues --   -0.44209  -0.44143  -0.42874  -0.42493  -0.42290
 Alpha  occ. eigenvalues --   -0.42135  -0.41834  -0.40977  -0.40357  -0.39221
 Alpha  occ. eigenvalues --   -0.39169  -0.38783  -0.38196  -0.37403  -0.37017
 Alpha  occ. eigenvalues --   -0.35874  -0.35377  -0.35221  -0.34784  -0.34112
 Alpha  occ. eigenvalues --   -0.33129  -0.32557  -0.29647  -0.29169  -0.25930
 Alpha  occ. eigenvalues --   -0.25746  -0.25449  -0.25210  -0.24979  -0.22282
 Alpha  occ. eigenvalues --   -0.19654  -0.19367
 Alpha virt. eigenvalues --   -0.02112  -0.01620  -0.01247  -0.00215  -0.00036
 Alpha virt. eigenvalues --    0.01352   0.02052   0.02853   0.09009   0.09107
 Alpha virt. eigenvalues --    0.10099   0.10331   0.10773   0.10924   0.13122
 Alpha virt. eigenvalues --    0.13160   0.13446   0.14043   0.15615   0.15959
 Alpha virt. eigenvalues --    0.16302   0.16545   0.16785   0.17150   0.17184
 Alpha virt. eigenvalues --    0.17480   0.17689   0.17830   0.17961   0.18202
 Alpha virt. eigenvalues --    0.18799   0.20135   0.20164   0.20851   0.24364
 Alpha virt. eigenvalues --    0.24661   0.25054   0.25308   0.27648   0.28854
 Alpha virt. eigenvalues --    0.30709   0.32281   0.32836   0.32961   0.33420
 Alpha virt. eigenvalues --    0.33628   0.33928   0.34117   0.34218   0.35192
 Alpha virt. eigenvalues --    0.35300   0.36208   0.36807   0.37494   0.37840
 Alpha virt. eigenvalues --    0.47685   0.47859   0.48369   0.48684   0.49273
 Alpha virt. eigenvalues --    0.50361   0.50607   0.51261   0.52140   0.52508
 Alpha virt. eigenvalues --    0.52855   0.53240   0.53890   0.53965   0.54177
 Alpha virt. eigenvalues --    0.54992   0.55496   0.55927   0.56464   0.56940
 Alpha virt. eigenvalues --    0.57155   0.57497   0.57879   0.58572   0.58671
 Alpha virt. eigenvalues --    0.58898   0.59067   0.59377   0.59586   0.59684
 Alpha virt. eigenvalues --    0.59769   0.60029   0.60581   0.60814   0.61006
 Alpha virt. eigenvalues --    0.61783   0.61819   0.62096   0.62515   0.63320
 Alpha virt. eigenvalues --    0.63639   0.64641   0.64822   0.66178   0.66504
 Alpha virt. eigenvalues --    0.67525   0.67834   0.68991   0.69328   0.69773
 Alpha virt. eigenvalues --    0.70214   0.70540   0.71596   0.73676   0.75151
 Alpha virt. eigenvalues --    0.75956   0.76417   0.77919   0.78119   0.78673
 Alpha virt. eigenvalues --    0.79459   0.80383   0.81252   0.81653   0.81943
 Alpha virt. eigenvalues --    0.82043   0.82079   0.82785   0.83051   0.84174
 Alpha virt. eigenvalues --    0.84348   0.84377   0.84899   0.85719   0.85749
 Alpha virt. eigenvalues --    0.86018   0.86214   0.86728   0.87623   0.88240
 Alpha virt. eigenvalues --    0.89205   0.89555   0.89622   0.90491   0.90827
 Alpha virt. eigenvalues --    0.91564   0.92379   0.93124   0.93333   0.94965
 Alpha virt. eigenvalues --    0.97343   0.98739   0.98996   0.99250   0.99768
 Alpha virt. eigenvalues --    1.00195   1.00269   1.00568   1.02560   1.03931
 Alpha virt. eigenvalues --    1.04473   1.05004   1.05295   1.06288   1.10633
 Alpha virt. eigenvalues --    1.11202   1.12699   1.14274   1.14718   1.15647
 Alpha virt. eigenvalues --    1.15968   1.16323   1.17348   1.17607   1.18080
 Alpha virt. eigenvalues --    1.18667   1.18799   1.19890   1.21630   1.21811
 Alpha virt. eigenvalues --    1.22858   1.24790   1.26212   1.26663   1.29338
 Alpha virt. eigenvalues --    1.29524   1.30251   1.31933   1.33540   1.33678
 Alpha virt. eigenvalues --    1.35159   1.35771   1.36629   1.37972   1.38549
 Alpha virt. eigenvalues --    1.38849   1.39166   1.39806   1.39909   1.40110
 Alpha virt. eigenvalues --    1.40559   1.40838   1.41687   1.42251   1.42814
 Alpha virt. eigenvalues --    1.43534   1.45021   1.45608   1.46487   1.47892
 Alpha virt. eigenvalues --    1.50511   1.50841   1.52054   1.52380   1.64764
 Alpha virt. eigenvalues --    1.68007   1.69035   1.70371   1.72116   1.74143
 Alpha virt. eigenvalues --    1.74500   1.76003   1.76066   1.76164   1.76521
 Alpha virt. eigenvalues --    1.77379   1.78014   1.79376   1.79808   1.80378
 Alpha virt. eigenvalues --    1.80467   1.80877   1.81337   1.85189   1.85281
 Alpha virt. eigenvalues --    1.86203   1.86682   1.87326   1.87791   1.89362
 Alpha virt. eigenvalues --    1.89730   1.90188   1.90526   1.91094   1.91329
 Alpha virt. eigenvalues --    1.91806   1.92209   1.92397   1.92692   1.93125
 Alpha virt. eigenvalues --    1.94306   1.95542   1.96113   1.96732   1.97000
 Alpha virt. eigenvalues --    1.97538   1.97597   1.98735   1.99365   2.00239
 Alpha virt. eigenvalues --    2.01089   2.01523   2.01672   2.01841   2.02608
 Alpha virt. eigenvalues --    2.05971   2.06385   2.06783   2.07407   2.09019
 Alpha virt. eigenvalues --    2.09461   2.13219   2.13597   2.16614   2.16677
 Alpha virt. eigenvalues --    2.17310   2.20895   2.23495   2.23992   2.24229
 Alpha virt. eigenvalues --    2.24910   2.25643   2.26179   2.26251   2.26478
 Alpha virt. eigenvalues --    2.27373   2.27852   2.29323   2.30200   2.30299
 Alpha virt. eigenvalues --    2.31090   2.31709   2.32991   2.33138   2.34292
 Alpha virt. eigenvalues --    2.34998   2.35860   2.36275   2.36463   2.40577
 Alpha virt. eigenvalues --    2.40999   2.41172   2.41289   2.41318   2.41827
 Alpha virt. eigenvalues --    2.42817   2.42937   2.44776   2.44895   2.45475
 Alpha virt. eigenvalues --    2.45635   2.46273   2.46488   2.46931   2.47438
 Alpha virt. eigenvalues --    2.47506   2.48019   2.48924   2.49750   2.50131
 Alpha virt. eigenvalues --    2.50242   2.50676   2.51331   2.52127   2.53976
 Alpha virt. eigenvalues --    2.54953   2.56102   2.56757   2.57154   2.57553
 Alpha virt. eigenvalues --    2.58336   2.59427   2.59532   2.59730   2.59890
 Alpha virt. eigenvalues --    2.63354   2.64442   2.65161   2.65548   2.66680
 Alpha virt. eigenvalues --    2.68950   2.69424   2.70675   2.71097   2.72201
 Alpha virt. eigenvalues --    2.73457   2.74368   2.75430   2.77142   2.78305
 Alpha virt. eigenvalues --    2.79012   2.81169   2.82268   2.82748   2.83854
 Alpha virt. eigenvalues --    2.84295   2.86110   2.89182   2.92554   2.92769
 Alpha virt. eigenvalues --    2.97489   2.98191   2.98466   3.00594   3.03652
 Alpha virt. eigenvalues --    3.05079   3.05209   3.06587   3.07658   3.09520
 Alpha virt. eigenvalues --    3.11452   3.13678   3.18349   3.18408   3.19930
 Alpha virt. eigenvalues --    3.20704   3.24422   3.24750   3.25004   3.25040
 Alpha virt. eigenvalues --    3.28359   3.28444   3.29476   3.32663   3.33529
 Alpha virt. eigenvalues --    3.35815   3.36755   3.37440   3.37704   3.40486
 Alpha virt. eigenvalues --    3.48696   3.48740   3.50150   3.50532   3.54426
 Alpha virt. eigenvalues --    3.54589   3.77457   3.82712   3.83647   3.85592
 Alpha virt. eigenvalues --    4.03716   4.03814   4.13467   4.13505   4.13581
 Alpha virt. eigenvalues --    4.14504   4.14930   4.15287   4.16258   4.16324
 Alpha virt. eigenvalues --    4.17029   4.17589   4.19899   4.22022   4.38411
 Alpha virt. eigenvalues --    4.41750   4.42685   4.44795   4.45053   4.46001
 Alpha virt. eigenvalues --    4.46306   4.49731   4.61316   4.64486   4.79231
 Alpha virt. eigenvalues --    4.84538   4.86128   4.90541
          Condensed to atoms (all electrons):
               1          2          3          4          5          6
     1  N    6.832561   0.297750  -0.070507   0.004706   0.000547   0.000000
     2  C    0.297750   4.580959   0.536400  -0.023685  -0.034529   0.000169
     3  C   -0.070507   0.536400   4.952754   0.495395  -0.020309   0.004419
     4  C    0.004706  -0.023685   0.495395   4.964342   0.495381  -0.055319
     5  C    0.000547  -0.034529  -0.020309   0.495381   4.628279   0.218689
     6  O    0.000000   0.000169   0.004419  -0.055319   0.218689   8.348328
     7  C   -0.000000   0.000063  -0.000185   0.001334  -0.031962   0.233822
     8  C    0.000000   0.000021  -0.000374  -0.000217   0.001895  -0.056080
     9  C   -0.000000   0.000000   0.000001  -0.000360  -0.000139   0.004328
    10  C   -0.000000  -0.000000   0.000000   0.000016   0.000043   0.000070
    11  C    0.000000  -0.000000  -0.000000   0.000000   0.000000  -0.000001
    12  C   -0.000000   0.000000   0.000000  -0.000000   0.000000   0.000000
    13  C    0.000000   0.000000  -0.000000  -0.000000  -0.000000   0.000000
    14  C    0.000000  -0.000000   0.000000   0.000000   0.000000  -0.000000
    15  O    0.000000   0.000000   0.000000   0.000000  -0.000000  -0.000000
    16  C    0.000000   0.000000   0.000000   0.000000  -0.000000  -0.000000
    17  C    0.000000   0.000000   0.000000   0.000000   0.000000   0.000000
    18  C    0.000000   0.000000   0.000000   0.000000   0.000000   0.000000
    19  C    0.000000   0.000000   0.000000   0.000000   0.000000   0.000000
    20  N    0.000000   0.000000   0.000000   0.000000   0.000000   0.000000
    21  C    0.000000   0.000000   0.000000   0.000000   0.000000   0.000000
    22  C    0.000000   0.000000   0.000000   0.000000   0.000000   0.000000
    23  C   -0.000000  -0.000000   0.000000   0.000000   0.000000   0.000000
    24  C   -0.000000   0.000000   0.000000  -0.000000  -0.000000   0.000000
    25  C    0.000000  -0.000000   0.000001  -0.000049  -0.000033   0.004001
    26  C   -0.000000   0.000000  -0.000010   0.000799  -0.001063  -0.053397
    27  C    0.004446  -0.027057  -0.039082  -0.066264   0.543952  -0.052299
    28  C   -0.070137   0.538149  -0.048087  -0.039233  -0.027456   0.004044
    29  H    0.343920  -0.025000   0.005481  -0.000190   0.000004  -0.000000
    30  H    0.344039  -0.025269  -0.009375  -0.000027  -0.000006  -0.000000
    31  H   -0.007208  -0.041497   0.364231  -0.031153   0.003423  -0.000055
    32  H   -0.000104   0.003824  -0.034933   0.364524  -0.041110  -0.006943
    33  H   -0.000000  -0.000045  -0.000225   0.001493   0.007182  -0.007163
    34  H    0.000000  -0.000000  -0.000000   0.000003  -0.000003  -0.000053
    35  H    0.000000   0.000000  -0.000000   0.000000  -0.000000  -0.000000
    36  H    0.000000   0.000000   0.000000  -0.000000   0.000000  -0.000000
    37  H    0.000000   0.000000   0.000000  -0.000000   0.000000   0.000000
    38  H    0.000000   0.000000   0.000000   0.000000   0.000000   0.000000
    39  H    0.000000   0.000000   0.000000   0.000000   0.000000   0.000000
    40  H    0.000000   0.000000   0.000000   0.000000   0.000000   0.000000
    41  H    0.000000   0.000000   0.000000   0.000000   0.000000   0.000000
    42  H    0.000000   0.000000  -0.000000  -0.000000   0.000000  -0.000000
    43  H    0.000000   0.000000  -0.000000  -0.000000  -0.000000  -0.000000
    44  H   -0.000000   0.000000   0.000000  -0.000000   0.000000  -0.000000
    45  H    0.000000  -0.000000  -0.000000   0.000000  -0.000001  -0.000062
    46  H   -0.000000   0.000000  -0.000001  -0.000019   0.000273  -0.000783
    47  H   -0.000102   0.004199   0.000245   0.006556  -0.039764  -0.001069
    48  H   -0.007290  -0.042201   0.005392   0.000403   0.003803  -0.000065
               7          8          9         10         11         12
     1  N   -0.000000   0.000000  -0.000000  -0.000000   0.000000  -0.000000
     2  C    0.000063   0.000021   0.000000  -0.000000  -0.000000   0.000000
     3  C   -0.000185  -0.000374   0.000001   0.000000  -0.000000   0.000000
     4  C    0.001334  -0.000217  -0.000360   0.000016   0.000000  -0.000000
     5  C   -0.031962   0.001895  -0.000139   0.000043   0.000000   0.000000
     6  O    0.233822  -0.056080   0.004328   0.000070  -0.000001   0.000000
     7  C    4.594078   0.488161  -0.017552  -0.029843   0.000646   0.000009
     8  C    0.488161   5.005840   0.468283  -0.029678   0.006083   0.000267
     9  C   -0.017552   0.468283   4.941415   0.526514  -0.049168  -0.006769
    10  C   -0.029843  -0.029678   0.526514   4.839554   0.334456  -0.049357
    11  C    0.000646   0.006083  -0.049168   0.334456   4.838819   0.528374
    12  C    0.000009   0.000267  -0.006769  -0.049357   0.528374   4.936817
    13  C   -0.000000   0.000003   0.000221   0.005900  -0.031753   0.475448
    14  C    0.000000  -0.000000   0.000016   0.000648  -0.029499  -0.023786
    15  O   -0.000000   0.000000   0.000000  -0.000001   0.000073   0.004074
    16  C    0.000000  -0.000000   0.000000   0.000000   0.000045  -0.000033
    17  C   -0.000000   0.000000  -0.000000  -0.000000   0.000000   0.000007
    18  C    0.000000   0.000000   0.000000   0.000000   0.000000  -0.000000
    19  C    0.000000  -0.000000  -0.000000  -0.000000   0.000000   0.000000
    20  N    0.000000   0.000000  -0.000000   0.000000  -0.000000   0.000000
    21  C    0.000000  -0.000000  -0.000000  -0.000000  -0.000000   0.000001
    22  C    0.000000  -0.000000  -0.000000   0.000000   0.000017  -0.000062
    23  C   -0.000000   0.000002  -0.000157   0.006098  -0.030168  -0.041302
    24  C    0.000011  -0.000153   0.003146  -0.049517   0.525721  -0.038631
    25  C   -0.024069  -0.040950  -0.038935   0.527391  -0.049177   0.003049
    26  C    0.539304  -0.065939  -0.041528  -0.031413   0.005902  -0.000145
    27  C   -0.001506   0.000835  -0.000006   0.000000  -0.000000   0.000000
    28  C   -0.000046  -0.000068   0.000001   0.000000   0.000000   0.000000
    29  H    0.000000   0.000000  -0.000000  -0.000000  -0.000000   0.000000
    30  H    0.000000   0.000000   0.000000  -0.000000  -0.000000   0.000000
    31  H   -0.000007   0.000003  -0.000000  -0.000000   0.000000   0.000000
    32  H    0.006287   0.001472  -0.000208  -0.000019  -0.000000   0.000000
    33  H   -0.041253   0.364829  -0.033733   0.003535  -0.000170  -0.000004
    34  H    0.003401  -0.033439   0.365825  -0.042861  -0.006147   0.003690
    35  H   -0.000008  -0.000127   0.003722  -0.006348  -0.043462   0.365724
    36  H   -0.000000  -0.000000  -0.000004  -0.000167   0.003879  -0.033690
    37  H    0.000000   0.000000  -0.000000   0.000000   0.000000  -0.000000
    38  H   -0.000000   0.000000  -0.000000  -0.000000  -0.000000   0.000000
    39  H    0.000000  -0.000000  -0.000000   0.000000   0.000000   0.000000
    40  H    0.000000   0.000000  -0.000000   0.000000   0.000000   0.000000
    41  H   -0.000000   0.000000   0.000000   0.000000  -0.000000  -0.000000
    42  H   -0.000000   0.000000  -0.000000  -0.000001  -0.000019   0.000091
    43  H   -0.000000  -0.000000   0.000001  -0.000172   0.003549   0.000502
    44  H   -0.000007  -0.000018   0.000233  -0.006136  -0.043027   0.005391
    45  H    0.003827   0.000288   0.005649  -0.043570  -0.006263   0.000214
    46  H   -0.039889   0.006437   0.000289   0.003912  -0.000169   0.000001
    47  H    0.000307  -0.000022  -0.000002   0.000000   0.000000  -0.000000
    48  H   -0.000001   0.000000  -0.000000  -0.000000  -0.000000   0.000000
              13         14         15         16         17         18
     1  N    0.000000   0.000000   0.000000   0.000000   0.000000   0.000000
     2  C    0.000000  -0.000000   0.000000   0.000000   0.000000   0.000000
     3  C   -0.000000   0.000000   0.000000   0.000000   0.000000   0.000000
     4  C   -0.000000   0.000000   0.000000   0.000000   0.000000   0.000000
     5  C   -0.000000   0.000000  -0.000000  -0.000000   0.000000   0.000000
     6  O    0.000000  -0.000000  -0.000000  -0.000000   0.000000   0.000000
     7  C   -0.000000   0.000000  -0.000000   0.000000  -0.000000   0.000000
     8  C    0.000003  -0.000000   0.000000  -0.000000   0.000000   0.000000
     9  C    0.000221   0.000016   0.000000   0.000000  -0.000000   0.000000
    10  C    0.005900   0.000648  -0.000001   0.000000  -0.000000   0.000000
    11  C   -0.031753  -0.029499   0.000073   0.000045   0.000000   0.000000
    12  C    0.475448  -0.023786   0.004074  -0.000033   0.000007  -0.000000
    13  C    4.971854   0.539648  -0.053124  -0.001494  -0.000218   0.000007
    14  C    0.539648   4.593806   0.232615  -0.032030  -0.001724   0.000004
    15  O   -0.053124   0.232615   8.347575   0.220990  -0.052743   0.004122
    16  C   -0.001494  -0.032030   0.220990   4.627900   0.542105  -0.026365
    17  C   -0.000218  -0.001724  -0.052743   0.542105   4.934730   0.502387
    18  C    0.000007   0.000004   0.004122  -0.026365   0.502387   4.949776
    19  C    0.000000   0.000018   0.000135  -0.034000  -0.025582   0.536816
    20  N    0.000000  -0.000000  -0.000000   0.000537   0.004550  -0.070285
    21  C   -0.000008  -0.000041   0.004363  -0.022397  -0.039306  -0.048503
    22  C    0.000779   0.001338  -0.055620   0.497742  -0.067090  -0.038137
    23  C   -0.066122   0.490211  -0.056239   0.002007   0.000831  -0.000054
    24  C   -0.041812  -0.017745   0.004388  -0.000175  -0.000009   0.000001
    25  C   -0.000144   0.000016   0.000000   0.000000   0.000000  -0.000000
    26  C    0.000002  -0.000000   0.000000   0.000000  -0.000000  -0.000000
    27  C    0.000000  -0.000000   0.000000   0.000000   0.000000   0.000000
    28  C    0.000000  -0.000000   0.000000   0.000000   0.000000   0.000000
    29  H    0.000000   0.000000   0.000000   0.000000   0.000000   0.000000
    30  H    0.000000   0.000000   0.000000   0.000000   0.000000   0.000000
    31  H    0.000000  -0.000000   0.000000  -0.000000   0.000000   0.000000
[...]
   317    C   22  S      Val( 2S)     0.96613
   318    C   22  S      Ryd( 3S)     0.00078
   319    C   22  S      Ryd( 4S)     0.00005
   320    C   22  px     Val( 2p)     1.07301
   321    C   22  px     Ryd( 3p)     0.00342
   322    C   22  py     Val( 2p)     1.02058
   323    C   22  py     Ryd( 3p)     0.00233
   324    C   22  pz     Val( 2p)     1.18872
   325    C   22  pz     Ryd( 3p)     0.00447
   326    C   22  dxy    Ryd( 3d)     0.00038
   327    C   22  dxz    Ryd( 3d)     0.00065
   328    C   22  dyz    Ryd( 3d)     0.00047
   329    C   22  dx2y2  Ryd( 3d)     0.00065
   330    C   22  dz2    Ryd( 3d)     0.00055

   331    C   23  S      Cor( 1S)     1.99903
   332    C   23  S      Val( 2S)     0.96443
   333    C   23  S      Ryd( 3S)     0.00069
   334    C   23  S      Ryd( 4S)     0.00005
   335    C   23  px     Val( 2p)     1.15395
   336    C   23  px     Ryd( 3p)     0.00354
   337    C   23  py     Val( 2p)     1.11587
   338    C   23  py     Ryd( 3p)     0.00398
   339    C   23  pz     Val( 2p)     1.04120
   340    C   23  pz     Ryd( 3p)     0.00101
   341    C   23  dxy    Ryd( 3d)     0.00060
   342    C   23  dxz    Ryd( 3d)     0.00058
   343    C   23  dyz    Ryd( 3d)     0.00059
   344    C   23  dx2y2  Ryd( 3d)     0.00065
   345    C   23  dz2    Ryd( 3d)     0.00039

   346    C   24  S      Cor( 1S)     1.99908
   347    C   24  S      Val( 2S)     0.94707
   348    C   24  S      Ryd( 3S)     0.00071
   349    C   24  S      Ryd( 4S)     0.00005
   350    C   24  px     Val( 2p)     1.05590
   351    C   24  px     Ryd( 3p)     0.00379
   352    C   24  py     Val( 2p)     1.18360
   353    C   24  py     Ryd( 3p)     0.00482
   354    C   24  pz     Val( 2p)     1.05252
   355    C   24  pz     Ryd( 3p)     0.00301
   356    C   24  dxy    Ryd( 3d)     0.00062
   357    C   24  dxz    Ryd( 3d)     0.00066
   358    C   24  dyz    Ryd( 3d)     0.00037
   359    C   24  dx2y2  Ryd( 3d)     0.00066
   360    C   24  dz2    Ryd( 3d)     0.00035

   361    C   25  S      Cor( 1S)     1.99907
   362    C   25  S      Val( 2S)     0.95332
   363    C   25  S      Ryd( 3S)     0.00061
   364    C   25  S      Ryd( 4S)     0.00005
   365    C   25  px     Val( 2p)     1.13494
   366    C   25  px     Ryd( 3p)     0.00388
   367    C   25  py     Val( 2p)     1.10468
   368    C   25  py     Ryd( 3p)     0.00431
   369    C   25  pz     Val( 2p)     1.00741
   370    C   25  pz     Ryd( 3p)     0.00159
   371    C   25  dxy    Ryd( 3d)     0.00071
   372    C   25  dxz    Ryd( 3d)     0.00060
   373    C   25  dyz    Ryd( 3d)     0.00055
   374    C   25  dx2y2  Ryd( 3d)     0.00061
   375    C   25  dz2    Ryd( 3d)     0.00035

   376    C   26  S      Cor( 1S)     1.99905
   377    C   26  S      Val( 2S)     0.96276
   378    C   26  S      Ryd( 3S)     0.00084
   379    C   26  S      Ryd( 4S)     0.00004
   380    C   26  px     Val( 2p)     1.07132
   381    C   26  px     Ryd( 3p)     0.00510
   382    C   26  py     Val( 2p)     1.18376
   383    C   26  py     Ryd( 3p)     0.00444
   384    C   26  pz     Val( 2p)     1.05762
   385    C   26  pz     Ryd( 3p)     0.00233
   386    C   26  dxy    Ryd( 3d)     0.00074
   387    C   26  dxz    Ryd( 3d)     0.00062
   388    C   26  dyz    Ryd( 3d)     0.00042
   389    C   26  dx2y2  Ryd( 3d)     0.00051
   390    C   26  dz2    Ryd( 3d)     0.00039

   391    C   27  S      Cor( 1S)     1.99899
   392    C   27  S      Val( 2S)     0.96652
   393    C   27  S      Ryd( 3S)     0.00080
   394    C   27  S      Ryd( 4S)     0.00005
   395    C   27  px     Val( 2p)     1.07251
   396    C   27  px     Ryd( 3p)     0.00346
   397    C   27  py     Val( 2p)     1.02039
   398    C   27  py     Ryd( 3p)     0.00236
   399    C   27  pz     Val( 2p)     1.18833
   400    C   27  pz     Ryd( 3p)     0.00445
   401    C   27  dxy    Ryd( 3d)     0.00038
   402    C   27  dxz    Ryd( 3d)     0.00065
   403    C   27  dyz    Ryd( 3d)     0.00047
   404    C   27  dx2y2  Ryd( 3d)     0.00066
   405    C   27  dz2    Ryd( 3d)     0.00055

   406    C   28  S      Cor( 1S)     1.99905
   407    C   28  S      Val( 2S)     0.95538
   408    C   28  S      Ryd( 3S)     0.00063
   409    C   28  S      Ryd( 4S)     0.00004
   410    C   28  px     Val( 2p)     1.09219
   411    C   28  px     Ryd( 3p)     0.00345
   412    C   28  py     Val( 2p)     1.10539
   413    C   28  py     Ryd( 3p)     0.00247
   414    C   28  pz     Val( 2p)     1.12726
   415    C   28  pz     Ryd( 3p)     0.00430
   416    C   28  dxy    Ryd( 3d)     0.00043
   417    C   28  dxz    Ryd( 3d)     0.00055
   418    C   28  dyz    Ryd( 3d)     0.00050
   419    C   28  dx2y2  Ryd( 3d)     0.00044
   420    C   28  dz2    Ryd( 3d)     0.00053

   421    H   29  S      Val( 1S)     0.57829
   422    H   29  S      Ryd( 2S)     0.00115
   423    H   29  px     Ryd( 2p)     0.00038
   424    H   29  py     Ryd( 2p)     0.00042
   425    H   29  pz     Ryd( 2p)     0.00045

   426    H   30  S      Val( 1S)     0.57829
   427    H   30  S      Ryd( 2S)     0.00108
   428    H   30  px     Ryd( 2p)     0.00037
   429    H   30  py     Ryd( 2p)     0.00043
   430    H   30  pz     Ryd( 2p)     0.00045

   431    H   31  S      Val( 1S)     0.74834
   432    H   31  S      Ryd( 2S)     0.00091
   433    H   31  px     Ryd( 2p)     0.00013
   434    H   31  py     Ryd( 2p)     0.00010
   435    H   31  pz     Ryd( 2p)     0.00037

   436    H   32  S      Val( 1S)     0.73993
   437    H   32  S      Ryd( 2S)     0.00098
   438    H   32  px     Ryd( 2p)     0.00015
   439    H   32  py     Ryd( 2p)     0.00021
   440    H   32  pz     Ryd( 2p)     0.00024

   441    H   33  S      Val( 1S)     0.74205
   442    H   33  S      Ryd( 2S)     0.00089
   443    H   33  px     Ryd( 2p)     0.00026
   444    H   33  py     Ryd( 2p)     0.00020
   445    H   33  pz     Ryd( 2p)     0.00014

   446    H   34  S      Val( 1S)     0.75628
   447    H   34  S      Ryd( 2S)     0.00104
   448    H   34  px     Ryd( 2p)     0.00007
   449    H   34  py     Ryd( 2p)     0.00037
   450    H   34  pz     Ryd( 2p)     0.00018

   451    H   35  S      Val( 1S)     0.75273
   452    H   35  S      Ryd( 2S)     0.00111
   453    H   35  px     Ryd( 2p)     0.00024
   454    H   35  py     Ryd( 2p)     0.00021
   455    H   35  pz     Ryd( 2p)     0.00015

   456    H   36  S      Val( 1S)     0.74514
   457    H   36  S      Ryd( 2S)     0.00122
   458    H   36  px     Ryd( 2p)     0.00008
   459    H   36  py     Ryd( 2p)     0.00038
   460    H   36  pz     Ryd( 2p)     0.00014

   461    H   37  S      Val( 1S)     0.74059
   462    H   37  S      Ryd( 2S)     0.00098
   463    H   37  px     Ryd( 2p)     0.00015
   464    H   37  py     Ryd( 2p)     0.00020
   465    H   37  pz     Ryd( 2p)     0.00024

   466    H   38  S      Val( 1S)     0.74916
   467    H   38  S      Ryd( 2S)     0.00091
   468    H   38  px     Ryd( 2p)     0.00013
   469    H   38  py     Ryd( 2p)     0.00010
   470    H   38  pz     Ryd( 2p)     0.00036

   471    H   39  S      Val( 1S)     0.57947
   472    H   39  S      Ryd( 2S)     0.00112
   473    H   39  px     Ryd( 2p)     0.00035
   474    H   39  py     Ryd( 2p)     0.00055
   475    H   39  pz     Ryd( 2p)     0.00035

   476    H   40  S      Val( 1S)     0.57935
   477    H   40  S      Ryd( 2S)     0.00107
   478    H   40  px     Ryd( 2p)     0.00035
   479    H   40  py     Ryd( 2p)     0.00036
   480    H   40  pz     Ryd( 2p)     0.00055

   481    H   41  S      Val( 1S)     0.74933
   482    H   41  S      Ryd( 2S)     0.00089
   483    H   41  px     Ryd( 2p)     0.00014
   484    H   41  py     Ryd( 2p)     0.00019
   485    H   41  pz     Ryd( 2p)     0.00026

   486    H   42  S      Val( 1S)     0.73995
   487    H   42  S      Ryd( 2S)     0.00093
   488    H   42  px     Ryd( 2p)     0.00013
   489    H   42  py     Ryd( 2p)     0.00009
   490    H   42  pz     Ryd( 2p)     0.00036

   491    H   43  S      Val( 1S)     0.74199
   492    H   43  S      Ryd( 2S)     0.00090
   493    H   43  px     Ryd( 2p)     0.00026
   494    H   43  py     Ryd( 2p)     0.00021
   495    H   43  pz     Ryd( 2p)     0.00014

   496    H   44  S      Val( 1S)     0.75612
   497    H   44  S      Ryd( 2S)     0.00104
   498    H   44  px     Ryd( 2p)     0.00007
   499    H   44  py     Ryd( 2p)     0.00038
   500    H   44  pz     Ryd( 2p)     0.00017

   501    H   45  S      Val( 1S)     0.75265
   502    H   45  S      Ryd( 2S)     0.00110
   503    H   45  px     Ryd( 2p)     0.00024
   504    H   45  py     Ryd( 2p)     0.00021
   505    H   45  pz     Ryd( 2p)     0.00015

   506    H   46  S      Val( 1S)     0.74518
   507    H   46  S      Ryd( 2S)     0.00121
   508    H   46  px     Ryd( 2p)     0.00008
   509    H   46  py     Ryd( 2p)     0.00037
   510    H   46  pz     Ryd( 2p)     0.00014

   511    H   47  S      Val( 1S)     0.73911
   512    H   47  S      Ryd( 2S)     0.00093
   513    H   47  px     Ryd( 2p)     0.00014
   514    H   47  py     Ryd( 2p)     0.00009
   515    H   47  pz     Ryd( 2p)     0.00036

   516    H   48  S      Val( 1S)     0.74870
   517    H   48  S      Ryd( 2S)     0.00089
   518    H   48  px     Ryd( 2p)     0.00014
   519    H   48  py     Ryd( 2p)     0.00020
   520    H   48  pz     Ryd( 2p)     0.00025

 WARNING:  1 low occupancy (<1.9990e) core orbital  found on  C    2
           1 low occupancy (<1.9990e) core orbital  found on  C    4
           1 low occupancy (<1.9990e) core orbital  found on  C    5
           1 low occupancy (<1.9990e) core orbital  found on  C    7
           1 low occupancy (<1.9990e) core orbital  found on  C   14
           1 low occupancy (<1.9990e) core orbital  found on  C   16
           1 low occupancy (<1.9990e) core orbital  found on  C   17
           1 low occupancy (<1.9990e) core orbital  found on  C   19
           1 low occupancy (<1.9990e) core orbital  found on  C   22
           1 low occupancy (<1.9990e) core orbital  found on  C   27


 Summary of Natural Population Analysis:                  
                                                          
                                       Natural Population 
                Natural  -----------------------------------------------
    Atom  No    Charge         Core      Valence    Rydberg      Total
 -----------------------------------------------------------------------
      N    1   -0.83524      1.99951     5.82414    0.01159     7.83524
      C    2    0.17026      1.99899     3.81369    0.01706     5.82974
      C    3   -0.27710      1.99905     4.26500    0.01306     6.27710
      C    4   -0.27435      1.99900     4.26093    0.01442     6.27435
      C    5    0.25616      1.99869     3.72252    0.02263     5.74384
      O    6   -0.48902      1.99971     6.47748    0.01182     8.48902
      C    7    0.28460      1.99873     3.69397    0.02269     5.71540
      C    8   -0.28446      1.99903     4.27335    0.01208     6.28446
      C    9   -0.25764      1.99908     4.24337    0.01520     6.25764
      C   10   -0.08157      1.99902     4.06592    0.01663     6.08157
      C   11   -0.08156      1.99902     4.06593    0.01661     6.08156
      C   12   -0.21523      1.99907     4.20283    0.01332     6.21523
      C   13   -0.28744      1.99904     4.27308    0.01532     6.28744
      C   14    0.28584      1.99873     3.69278    0.02264     5.71416
      O   15   -0.49129      1.99971     6.47976    0.01182     8.49129
      C   16    0.25089      1.99869     3.72778    0.02263     5.74911
      C   17   -0.27220      1.99900     4.25896    0.01425     6.27220
      C   18   -0.27983      1.99905     4.26779    0.01299     6.27983
      C   19    0.16827      1.99899     3.81566    0.01708     5.83173
      N   20   -0.84240      1.99951     5.83122    0.01167     7.84240
      C   21   -0.29232      1.99905     4.28008    0.01320     6.29232
      C   22   -0.26120      1.99899     4.24844    0.01376     6.26120
      C   23   -0.28657      1.99903     4.27546    0.01208     6.28657
      C   24   -0.25321      1.99908     4.23909    0.01504     6.25321
      C   25   -0.21268      1.99907     4.20035    0.01326     6.21268
      C   26   -0.28995      1.99905     4.27546    0.01544     6.28995
      C   27   -0.26057      1.99899     4.24776    0.01382     6.26057
      C   28   -0.29260      1.99905     4.28022    0.01333     6.29260
      H   29    0.41931      0.00000     0.57829    0.00240     0.58069
      H   30    0.41938      0.00000     0.57829    0.00233     0.58062
      H   31    0.25015      0.00000     0.74834    0.00151     0.74985
      H   32    0.25850      0.00000     0.73993    0.00157     0.74150
      H   33    0.25645      0.00000     0.74205    0.00150     0.74355
      H   34    0.24207      0.00000     0.75628    0.00166     0.75793
      H   35    0.24555      0.00000     0.75273    0.00172     0.75445
      H   36    0.25305      0.00000     0.74514    0.00181     0.74695
      H   37    0.25784      0.00000     0.74059    0.00157     0.74216
      H   38    0.24933      0.00000     0.74916    0.00151     0.75067
      H   39    0.41816      0.00000     0.57947    0.00237     0.58184
      H   40    0.41832      0.00000     0.57935    0.00233     0.58168
      H   41    0.24919      0.00000     0.74933    0.00148     0.75081
      H   42    0.25853      0.00000     0.73995    0.00152     0.74147
      H   43    0.25651      0.00000     0.74199    0.00150     0.74349
      H   44    0.24223      0.00000     0.75612    0.00165     0.75777
      H   45    0.24565      0.00000     0.75265    0.00170     0.75435
      H   46    0.25302      0.00000     0.74518    0.00180     0.74698
      H   47    0.25937      0.00000     0.73911    0.00151     0.74063
      H   48    0.24981      0.00000     0.74870    0.00149     0.75019
 =======================================================================
   * Total *   -0.00000     55.97393   137.56569    0.46038   194.00000

                                 Natural Population      
 --------------------------------------------------------
   Core                      55.97393 ( 99.9534% of  56)
   Valence                  137.56569 ( 99.6853% of 138)
   Natural Minimal Basis    193.53962 ( 99.7627% of 194)
   Natural Rydberg Basis      0.46038 (  0.2373% of 194)
 --------------------------------------------------------

    Atom  No          Natural Electron Configuration
 ----------------------------------------------------------------------------
      N    1      [core]2S( 1.36)2p( 4.46)3p( 0.01)
      C    2      [core]2S( 0.85)2p( 2.97)3p( 0.01)
      C    3      [core]2S( 0.96)2p( 3.31)3p( 0.01)
      C    4      [core]2S( 0.97)2p( 3.30)3p( 0.01)
      C    5      [core]2S( 0.84)2p( 2.88)3p( 0.02)3d( 0.01)
      O    6      [core]2S( 1.57)2p( 4.91)3p( 0.01)3d( 0.01)
      C    7      [core]2S( 0.84)2p( 2.86)3p( 0.02)3d( 0.01)
      C    8      [core]2S( 0.96)2p( 3.31)3p( 0.01)
      C    9      [core]2S( 0.95)2p( 3.30)3p( 0.01)
      C   10      [core]2S( 0.87)2p( 3.20)3p( 0.01)
      C   11      [core]2S( 0.87)2p( 3.20)3p( 0.01)
      C   12      [core]2S( 0.95)2p( 3.25)3p( 0.01)
      C   13      [core]2S( 0.96)2p( 3.31)3p( 0.01)
      C   14      [core]2S( 0.84)2p( 2.86)3p( 0.02)3d( 0.01)
      O   15      [core]2S( 1.57)2p( 4.91)3p( 0.01)3d( 0.01)
      C   16      [core]2S( 0.84)2p( 2.89)3p( 0.02)3d( 0.01)
      C   17      [core]2S( 0.96)2p( 3.29)3p( 0.01)
      C   18      [core]2S( 0.96)2p( 3.31)3p( 0.01)
      C   19      [core]2S( 0.85)2p( 2.97)3p( 0.01)
      N   20      [core]2S( 1.36)2p( 4.47)3p( 0.01)
      C   21      [core]2S( 0.96)2p( 3.32)3p( 0.01)
      C   22      [core]2S( 0.97)2p( 3.28)3p( 0.01)
      C   23      [core]2S( 0.96)2p( 3.31)3p( 0.01)
      C   24      [core]2S( 0.95)2p( 3.29)3p( 0.01)
      C   25      [core]2S( 0.95)2p( 3.25)3p( 0.01)
      C   26      [core]2S( 0.96)2p( 3.31)3p( 0.01)
      C   27      [core]2S( 0.97)2p( 3.28)3p( 0.01)
      C   28      [core]2S( 0.96)2p( 3.32)3p( 0.01)
      H   29            1S( 0.58)
      H   30            1S( 0.58)
      H   31            1S( 0.75)
      H   32            1S( 0.74)
      H   33            1S( 0.74)
      H   34            1S( 0.76)
      H   35            1S( 0.75)
      H   36            1S( 0.75)
      H   37            1S( 0.74)
      H   38            1S( 0.75)
      H   39            1S( 0.58)
      H   40            1S( 0.58)
      H   41            1S( 0.75)
      H   42            1S( 0.74)
      H   43            1S( 0.74)
      H   44            1S( 0.76)
      H   45            1S( 0.75)
      H   46            1S( 0.75)
      H   47            1S( 0.74)
      H   48            1S( 0.75)


 NBO analysis skipped by request.
 1\1\GINC-DRG2-W002\SP\RB3LYP TD-FC\6-31G(d,p)\C24H20N2O2\QDUEZ\18-Jul-
 2024\0\\# TD(NStates=10, Root=1) B3LYP/6-31G** SCRF=(Solvent=water) vo
 lume pop=NPA density=current Geom=AllCheck Guess=Read\\HYDATEKARGDBKU-
 UHFFFAOYSA-N_conf_1\\0,1\N,0,9.1152659127,0.3732040742,1.876347937\C,0
 ,8.02635956,0.1783699755,1.025746873\C,0,7.464174103,1.2561940188,0.31
 62720875\C,0,6.337024149,1.0740233447,-0.482180656\C,0,5.75470534,-0.1
 882920568,-0.5866543526\O,0,4.6818543007,-0.382432266,-1.4584596433\C,
 0,3.3949134769,-0.3609640342,-0.9676695667\C,0,3.0628656258,-0.0654050
 498,0.3572524899\C,0,1.7226393688,-0.0611217834,0.7444507462\C,0,0.687
 4960633,-0.3500511454,-0.1596669831\C,0,-0.7343532229,-0.3438892993,0.
 2660514131\C,0,-1.1152796089,-0.7735385574,1.551579774\C,0,-2.44563378
 54,-0.7674368549,1.9549649646\C,0,-3.4419009282,-0.3309050278,1.073750
 7791\O,0,-4.7301298583,-0.3543463739,1.561233554\C,0,-5.789718416,-0.0
 035818622,0.7227711481\C,0,-6.2985048892,1.2938417626,0.7607080715\C,0
 ,-7.4090124555,1.6283310355,-0.0113045443\C,0,-8.0283481045,0.67008601
 1,-0.8355487203\N,0,-9.1789554088,0.9865460702,-1.5588464199\C,0,-7.49
 95403861,-0.6345157331,-0.8588573774\C,0,-6.3905865227,-0.9686778022,-
 0.0853210203\C,0,-3.0938959127,0.1001762338,-0.209254699\C,0,-1.753702
 6985,0.0912787361,-0.5964526238\C,0,1.0525313396,-0.6451890128,-1.4870
 386286\C,0,2.3828304245,-0.6500692843,-1.8905619706\C,0,6.299542254,-1
 .2706873206,0.1041822021\C,0,7.4247887211,-1.0888258199,0.9044639426\H
 ,0,9.6736784869,-0.4536677577,2.0460921966\H,0,9.7006490098,1.16439146
 07,1.6404621178\H,0,7.9163064343,2.2412814658,0.392095893\H,0,5.912207
 7262,1.9065632051,-1.0340410349\H,0,3.8382710085,0.1702809189,1.076463
 0956\H,0,1.4808621291,0.1966937306,1.7711866414\H,0,-0.3609647666,-1.1
 407337738,2.2407997421\H,0,-2.7312575274,-1.1085631157,2.9448433903\H,
 0,-5.8258881666,2.0356155797,1.3967573172\H,0,-7.8043719972,2.63977740
 61,0.0243559854\H,0,-9.3415228149,0.4053560881,-2.371328953\H,0,-9.278
 4603409,1.967252693,-1.7880961715\H,0,-7.9665107846,-1.3899842108,-1.4
 847456712\H,0,-5.9906394259,-1.9776020536,-0.104104632\H,0,-3.85645419
 62,0.4498783708,-0.895002908\H,0,-1.498362594,0.454575488,-1.587373226
 6\H,0,0.284717471,-0.8980537402,-2.2118566208\H,0,2.6558197611,-0.8872
 713355,-2.913801313\H,0,5.8473531414,-2.2525962228,0.0061068765\H,0,7.
 8471390044,-1.9353161752,1.4389091892\\Version=ES64L-G16RevA.03\State=
 1-A\HF=-1186.5935284\RMSD=3.034e-09\Dipole=0.9293441,0.6438413,-0.7229
 386\Quadrupole=48.7070187,-22.816062,-25.8909567,-6.6366401,31.3945875
 ,-2.6945596\PG=C01 [X(C24H20N2O2)]\\@


 WERE I TO AWAIT PERFECTION, MY BOOK WOULD NEVER BE FINISHED.
                                    -- HISTORY OF CHINESE WRITING

                                       TAI T'UNG, 13TH CENTURY
 Job cpu time:       0 days  2 hours 18 minutes 31.7 seconds.
 Elapsed time:       0 days  0 hours 46 minutes 31.5 seconds.
 File lengths (MBytes):  RWF=   2139 Int=      0 D2E=      0 Chk=    131 Scr=      1
 Normal termination of Gaussian 16 at Thu Jul 18 00:59:01 2024.
