 Entering Gaussian System, Link 0=g16
 Initial command:
 /opt/sw/arch/manual/gaussian/G16_A03/g16/l1.exe "/scratch/1380842/Gau-69504.inp" -scrdir="/scratch/1380842/"
 Entering Link 1 = /opt/sw/arch/manual/gaussian/G16_A03/g16/l1.exe PID=     69505.
  
 Copyright (c) 1988,1990,1992,1993,1995,1998,2003,2009,2016,
            Gaussian, Inc.  All Rights Reserved.
  
 This is part of the Gaussian(R) 16 program.  It is based on
 the Gaussian(R) 09 system (copyright 2009, Gaussian, Inc.),
 the Gaussian(R) 03 system (copyright 2003, Gaussian, Inc.),
 the Gaussian(R) 98 system (copyright 1998, Gaussian, Inc.),
 the Gaussian(R) 94 system (copyright 1995, Gaussian, Inc.),
 the Gaussian 92(TM) system (copyright 1992, Gaussian, Inc.),
 the Gaussian 90(TM) system (copyright 1990, Gaussian, Inc.),
 the Gaussian 88(TM) system (copyright 1988, Gaussian, Inc.),
 the Gaussian 86(TM) system (copyright 1986, Carnegie Mellon
 University), and the Gaussian 82(TM) system (copyright 1983,
 Carnegie Mellon University). Gaussian is a federally registered
 trademark of Gaussian, Inc.
  
 This software contains proprietary and confidential information,
 including trade secrets, belonging to Gaussian, Inc.
  
 This software is provided under written license and may be
 used, copied, transmitted, or stored only in accord with that
 written license.
  
 The following legend is applicable only to US Government
 contracts under FAR:
  
                    RESTRICTED RIGHTS LEGEND
  
 Use, reproduction and disclosure by the US Government is
 subject to restrictions as set forth in subparagraphs (a)
 and (c) of the Commercial Computer Software - Restricted
 Rights clause in FAR 52.227-19.
  
 Gaussian, Inc.
 340 Quinnipiac St., Bldg. 40, Wallingford CT 06492
  
  
 ---------------------------------------------------------------
 Warning -- This program may not be used in any manner that
 competes with the business of Gaussian, Inc. or will provide
 assistance to any competitor of Gaussian, Inc.  The licensee
 of this program is prohibited from giving any competitor of
 Gaussian, Inc. access to this program.  By using this program,
 the user acknowledges that Gaussian, Inc. is engaged in the
 business of creating and licensing software in the field of
 computational chemistry and represents and warrants to the
 licensee that it is not a competitor of Gaussian, Inc. and that
 it will not use this program in any manner prohibited above.
 ---------------------------------------------------------------
  

 Cite this work as:
 Gaussian 16, Revision A.03,
 M. J. Frisch, G. W. Trucks, H. B. Schlegel, G. E. Scuseria, 
 M. A. Robb, J. R. Cheeseman, G. Scalmani, V. Barone, 
 G. A. Petersson, H. Nakatsuji, X. Li, M. Caricato, A. V. Marenich, 
 J. Bloino, B. G. Janesko, R. Gomperts, B. Mennucci, H. P. Hratchian, 
 J. V. Ortiz, A. F. Izmaylov, J. L. Sonnenberg, D. Williams-Young, 
 F. Ding, F. Lipparini, F. Egidi, J. Goings, B. Peng, A. Petrone, 
 T. Henderson, D. Ranasinghe, V. G. Zakrzewski, J. Gao, N. Rega, 
 G. Zheng, W. Liang, M. Hada, M. Ehara, K. Toyota, R. Fukuda, 
 J. Hasegawa, M. Ishida, T. Nakajima, Y. Honda, O. Kitao, H. Nakai, 
 T. Vreven, K. Throssell, J. A. Montgomery, Jr., J. E. Peralta, 
 F. Ogliaro, M. J. Bearpark, J. J. Heyd, E. N. Brothers, K. N. Kudin, 
 V. N. Staroverov, T. A. Keith, R. Kobayashi, J. Normand, 
 K. Raghavachari, A. P. Rendell, J. C. Burant, S. S. Iyengar, 
 J. Tomasi, M. Cossi, J. M. Millam, M. Klene, C. Adamo, R. Cammi, 
 J. W. Ochterski, R. L. Martin, K. Morokuma, O. Farkas, 
 J. B. Foresman, and D. J. Fox, Gaussian, Inc., Wallingford CT, 2016.
 
 ******************************************
 Gaussian 16:  ES64L-G16RevA.03 25-Dec-2016
                17-Jul-2024 
 ******************************************
 %nprocshared=8
 Will use up to    8 processors via shared memory.
 %mem=16GB
 %Chk=HYDATEKARGDBKU-UHFFFAOYSA-N_conf_0_0.chk
 -------------------------------------------------------
 # opt=CalcFc B3LYP/6-31G** SCRF=(Solvent=water) scf=xqc
 -------------------------------------------------------
 1/10=4,18=20,19=15,26=3,38=1/1,3;
 2/9=110,12=2,17=6,18=5,40=1/2;
 3/5=1,6=6,7=101,11=2,25=1,30=1,70=2201,71=2,72=1,74=-5,140=1/1,2,3;
 4//1;
 5/5=2,8=3,13=1,38=5,53=1/2,8;
 8/6=4,10=90,11=11/1;
 11/6=1,8=1,9=11,15=111,16=1/1,2,10;
 10/6=1,13=1/2;
 6/7=2,8=2,9=2,10=2,28=1/1;
 7/10=1,18=20,25=1/1,2,3,16;
 1/10=4,18=20,19=15,26=3/3(2);
 2/9=110/2;
 99//99;
 2/9=110/2;
 3/5=1,6=6,7=101,11=2,25=1,30=1,70=2205,71=1,72=1,74=-5/1,2,3;
 4/5=5,16=3,69=1/1;
 5/5=2,8=3,13=1,38=5,53=1/2,8;
 7//1,2,3,16;
 1/18=20,19=15,26=3/3(-5);
 2/9=110/2;
 6/7=2,8=2,9=2,10=2,19=2,28=1/1;
 99/9=1/99;
 ----------------------------------
 HYDATEKARGDBKU-UHFFFAOYSA-N_conf_0
 ----------------------------------
 Symbolic Z-matrix:
 Charge =  0 Multiplicity = 1
 N                    -9.02196  -0.89432  -0.80416 
 C                    -7.91871  -0.56325  -0.00929 
 C                    -6.99096   0.384    -0.45269 
 C                    -5.82397   0.63645   0.27428 
 C                    -5.55078  -0.1057    1.42364 
 O                    -4.43806   0.11054   2.20317 
 C                    -3.22272   0.19457   1.56318 
 C                    -2.35976   1.20678   1.97641 
 C                    -1.09617   1.32918   1.39101 
 C                    -0.66848   0.43324   0.3961 
 C                     0.66279   0.56395  -0.21925 
 C                     1.0768    1.77712  -0.79571 
 C                     2.34026   1.9032   -1.3806 
 C                     3.21669   0.82066  -1.38326 
 O                     4.43117   1.00244  -2.00429 
 C                     5.54863   0.51826  -1.36445 
 C                     5.8161    0.76783  -0.01811 
 C                     6.98815   0.27097   0.55941 
 C                     7.92606  -0.42321  -0.21067 
 N                     9.03555  -1.01939   0.3994 
 C                     7.62846  -0.69525  -1.54914 
 C                     6.45903  -0.20233  -2.13422 
 C                     2.81939  -0.40017  -0.83776 
 C                     1.55443  -0.52211  -0.25411 
 C                    -1.54648  -0.59479   0.01134 
 C                    -2.81152  -0.72053   0.594 
 C                    -6.45072  -1.07685   1.85678 
 C                    -7.61514  -1.32277   1.12431 
 H                    -9.78147  -1.33019  -0.2907 
 H                    -9.34322  -0.13513  -1.39657 
 H                    -7.17202   0.94074  -1.36815 
 H                    -5.13492   1.40296  -0.06814 
 H                    -2.66888   1.90225   2.75177 
 H                    -0.43614   2.12516   1.73006 
 H                     0.40601   2.63395  -0.80681 
 H                     2.6387    2.84577  -1.83108 
 H                     5.1188    1.33662   0.59004 
 H                     7.16502   0.43754   1.61855 
 H                     9.7989   -1.21623  -0.24019 
 H                     9.34917  -0.54053   1.2378 
 H                     8.3086   -1.29149  -2.15122 
 H                     6.25139  -0.3978   -3.18233 
 H                     3.48158  -1.26125  -0.86297 
 H                     1.26993  -1.47742   0.183 
 H                    -1.25122  -1.30717  -0.75675 
 H                    -3.46305  -1.53396   0.28665 
 H                    -6.23856  -1.65574   2.75107 
 H                    -8.28669  -2.11216   1.45065 
 

 GradGradGradGradGradGradGradGradGradGradGradGradGradGradGradGradGradGrad
 Berny optimization.
 Initialization pass.
                           ----------------------------
                           !    Initial Parameters    !
                           ! (Angstroms and Degrees)  !
 --------------------------                            --------------------------
 ! Name  Definition              Value          Derivative Info.                !
 --------------------------------------------------------------------------------
 ! R1    R(1,2)                  1.3995         calculate D2E/DX2 analytically  !
 ! R2    R(1,29)                 1.0151         calculate D2E/DX2 analytically  !
 ! R3    R(1,30)                 1.0151         calculate D2E/DX2 analytically  !
 ! R4    R(2,3)                  1.3981         calculate D2E/DX2 analytically  !
 ! R5    R(2,28)                 1.3979         calculate D2E/DX2 analytically  !
 ! R6    R(3,4)                  1.3979         calculate D2E/DX2 analytically  !
 ! R7    R(3,31)                 1.0867         calculate D2E/DX2 analytically  !
 ! R8    R(4,5)                  1.3951         calculate D2E/DX2 analytically  !
 ! R9    R(4,32)                 1.0861         calculate D2E/DX2 analytically  !
 ! R10   R(5,6)                  1.3757         calculate D2E/DX2 analytically  !
 ! R11   R(5,27)                 1.3931         calculate D2E/DX2 analytically  !
 ! R12   R(6,7)                  1.3761         calculate D2E/DX2 analytically  !
 ! R13   R(7,8)                  1.3929         calculate D2E/DX2 analytically  !
 ! R14   R(7,26)                 1.3949         calculate D2E/DX2 analytically  !
 ! R15   R(8,9)                  1.398          calculate D2E/DX2 analytically  !
 ! R16   R(8,33)                 1.0865         calculate D2E/DX2 analytically  !
 ! R17   R(9,10)                 1.4055         calculate D2E/DX2 analytically  !
 ! R18   R(9,34)                 1.0882         calculate D2E/DX2 analytically  !
 ! R19   R(10,11)                1.4724         calculate D2E/DX2 analytically  !
 ! R20   R(10,25)                1.4056         calculate D2E/DX2 analytically  !
 ! R21   R(11,12)                1.4055         calculate D2E/DX2 analytically  !
 ! R22   R(11,24)                1.4056         calculate D2E/DX2 analytically  !
 ! R23   R(12,13)                1.398          calculate D2E/DX2 analytically  !
 ! R24   R(12,35)                1.0882         calculate D2E/DX2 analytically  !
 ! R25   R(13,14)                1.3929         calculate D2E/DX2 analytically  !
 ! R26   R(13,36)                1.0865         calculate D2E/DX2 analytically  !
 ! R27   R(14,15)                1.3761         calculate D2E/DX2 analytically  !
 ! R28   R(14,23)                1.3949         calculate D2E/DX2 analytically  !
 ! R29   R(15,16)                1.3757         calculate D2E/DX2 analytically  !
 ! R30   R(16,17)                1.3952         calculate D2E/DX2 analytically  !
 ! R31   R(16,22)                1.3931         calculate D2E/DX2 analytically  !
 ! R32   R(17,18)                1.3979         calculate D2E/DX2 analytically  !
 ! R33   R(17,37)                1.0861         calculate D2E/DX2 analytically  !
 ! R34   R(18,19)                1.3981         calculate D2E/DX2 analytically  !
 ! R35   R(18,38)                1.0866         calculate D2E/DX2 analytically  !
 ! R36   R(19,20)                1.3995         calculate D2E/DX2 analytically  !
 ! R37   R(19,21)                1.3979         calculate D2E/DX2 analytically  !
 ! R38   R(20,39)                1.0151         calculate D2E/DX2 analytically  !
 ! R39   R(20,40)                1.0152         calculate D2E/DX2 analytically  !
 ! R40   R(21,22)                1.3974         calculate D2E/DX2 analytically  !
 ! R41   R(21,41)                1.0866         calculate D2E/DX2 analytically  !
 ! R42   R(22,42)                1.0862         calculate D2E/DX2 analytically  !
 ! R43   R(23,24)                1.3984         calculate D2E/DX2 analytically  !
 ! R44   R(23,43)                1.0865         calculate D2E/DX2 analytically  !
 ! R45   R(24,44)                1.0884         calculate D2E/DX2 analytically  !
 ! R46   R(25,26)                1.3984         calculate D2E/DX2 analytically  !
 ! R47   R(25,45)                1.0884         calculate D2E/DX2 analytically  !
 ! R48   R(26,46)                1.0866         calculate D2E/DX2 analytically  !
 ! R49   R(27,28)                1.3974         calculate D2E/DX2 analytically  !
 ! R50   R(27,47)                1.0862         calculate D2E/DX2 analytically  !
 ! R51   R(28,48)                1.0866         calculate D2E/DX2 analytically  !
 ! A1    A(2,1,29)             113.8349         calculate D2E/DX2 analytically  !
 ! A2    A(2,1,30)             113.8294         calculate D2E/DX2 analytically  !
 ! A3    A(29,1,30)            112.3032         calculate D2E/DX2 analytically  !
 ! A4    A(1,2,3)              120.2164         calculate D2E/DX2 analytically  !
 ! A5    A(1,2,28)             120.2153         calculate D2E/DX2 analytically  !
 ! A6    A(3,2,28)             118.765          calculate D2E/DX2 analytically  !
 ! A7    A(2,3,4)              120.7577         calculate D2E/DX2 analytically  !
 ! A8    A(2,3,31)             120.2491         calculate D2E/DX2 analytically  !
 ! A9    A(4,3,31)             118.992          calculate D2E/DX2 analytically  !
 ! A10   A(3,4,5)              119.7247         calculate D2E/DX2 analytically  !
 ! A11   A(3,4,32)             119.5466         calculate D2E/DX2 analytically  !
 ! A12   A(5,4,32)             120.7262         calculate D2E/DX2 analytically  !
 ! A13   A(4,5,6)              122.7912         calculate D2E/DX2 analytically  !
 ! A14   A(4,5,27)             120.0321         calculate D2E/DX2 analytically  !
 ! A15   A(6,5,27)             117.1238         calculate D2E/DX2 analytically  !
 ! A16   A(5,6,7)              117.4131         calculate D2E/DX2 analytically  !
 ! A17   A(6,7,8)              116.9728         calculate D2E/DX2 analytically  !
 ! A18   A(6,7,26)             122.9164         calculate D2E/DX2 analytically  !
 ! A19   A(8,7,26)             120.0162         calculate D2E/DX2 analytically  !
 ! A20   A(7,8,9)              119.9597         calculate D2E/DX2 analytically  !
 ! A21   A(7,8,33)             120.0422         calculate D2E/DX2 analytically  !
 ! A22   A(9,8,33)             119.998          calculate D2E/DX2 analytically  !
 ! A23   A(8,9,10)             121.0411         calculate D2E/DX2 analytically  !
 ! A24   A(8,9,34)             118.8031         calculate D2E/DX2 analytically  !
 ! A25   A(10,9,34)            120.1489         calculate D2E/DX2 analytically  !
 ! A26   A(9,10,11)            120.9551         calculate D2E/DX2 analytically  !
 ! A27   A(9,10,25)            118.0275         calculate D2E/DX2 analytically  !
 ! A28   A(11,10,25)           121.0166         calculate D2E/DX2 analytically  !
 ! A29   A(10,11,12)           120.9538         calculate D2E/DX2 analytically  !
 ! A30   A(10,11,24)           121.0178         calculate D2E/DX2 analytically  !
 ! A31   A(12,11,24)           118.0276         calculate D2E/DX2 analytically  !
 ! A32   A(11,12,13)           121.0414         calculate D2E/DX2 analytically  !
 ! A33   A(11,12,35)           120.1476         calculate D2E/DX2 analytically  !
 ! A34   A(13,12,35)           118.804          calculate D2E/DX2 analytically  !
 ! A35   A(12,13,14)           119.9597         calculate D2E/DX2 analytically  !
 ! A36   A(12,13,36)           119.998          calculate D2E/DX2 analytically  !
 ! A37   A(14,13,36)           120.0422         calculate D2E/DX2 analytically  !
 ! A38   A(13,14,15)           116.9694         calculate D2E/DX2 analytically  !
 ! A39   A(13,14,23)           120.0162         calculate D2E/DX2 analytically  !
 ! A40   A(15,14,23)           122.9195         calculate D2E/DX2 analytically  !
 ! A41   A(14,15,16)           117.4182         calculate D2E/DX2 analytically  !
 ! A42   A(15,16,17)           122.7926         calculate D2E/DX2 analytically  !
 ! A43   A(15,16,22)           117.1226         calculate D2E/DX2 analytically  !
 ! A44   A(17,16,22)           120.0318         calculate D2E/DX2 analytically  !
 ! A45   A(16,17,18)           119.725          calculate D2E/DX2 analytically  !
 ! A46   A(16,17,37)           120.727          calculate D2E/DX2 analytically  !
 ! A47   A(18,17,37)           119.5455         calculate D2E/DX2 analytically  !
 ! A48   A(17,18,19)           120.7574         calculate D2E/DX2 analytically  !
 ! A49   A(17,18,38)           118.9901         calculate D2E/DX2 analytically  !
 ! A50   A(19,18,38)           120.2513         calculate D2E/DX2 analytically  !
 ! A51   A(18,19,20)           120.2158         calculate D2E/DX2 analytically  !
 ! A52   A(18,19,21)           118.7649         calculate D2E/DX2 analytically  !
 ! A53   A(20,19,21)           120.2159         calculate D2E/DX2 analytically  !
 ! A54   A(19,20,39)           113.8346         calculate D2E/DX2 analytically  !
 ! A55   A(19,20,40)           113.8267         calculate D2E/DX2 analytically  !
 ! A56   A(39,20,40)           112.3026         calculate D2E/DX2 analytically  !
 ! A57   A(19,21,22)           120.6901         calculate D2E/DX2 analytically  !
 ! A58   A(19,21,41)           120.2714         calculate D2E/DX2 analytically  !
 ! A59   A(22,21,41)           119.038          calculate D2E/DX2 analytically  !
 ! A60   A(16,22,21)           119.8675         calculate D2E/DX2 analytically  !
 ! A61   A(16,22,42)           120.0893         calculate D2E/DX2 analytically  !
 ! A62   A(21,22,42)           120.0321         calculate D2E/DX2 analytically  !
 ! A63   A(14,23,24)           119.8123         calculate D2E/DX2 analytically  !
 ! A64   A(14,23,43)           120.7253         calculate D2E/DX2 analytically  !
 ! A65   A(24,23,43)           119.4622         calculate D2E/DX2 analytically  !
 ! A66   A(11,24,23)           121.1154         calculate D2E/DX2 analytically  !
 ! A67   A(11,24,44)           120.1589         calculate D2E/DX2 analytically  !
 ! A68   A(23,24,44)           118.7244         calculate D2E/DX2 analytically  !
 ! A69   A(10,25,26)           121.1156         calculate D2E/DX2 analytically  !
 ! A70   A(10,25,45)           120.1598         calculate D2E/DX2 analytically  !
 ! A71   A(26,25,45)           118.7233         calculate D2E/DX2 analytically  !
 ! A72   A(7,26,25)            119.8123         calculate D2E/DX2 analytically  !
 ! A73   A(7,26,46)            120.7233         calculate D2E/DX2 analytically  !
 ! A74   A(25,26,46)           119.4643         calculate D2E/DX2 analytically  !
 ! A75   A(5,27,28)            119.8676         calculate D2E/DX2 analytically  !
 ! A76   A(5,27,47)            120.088          calculate D2E/DX2 analytically  !
 ! A77   A(28,27,47)           120.0332         calculate D2E/DX2 analytically  !
 ! A78   A(2,28,27)            120.6897         calculate D2E/DX2 analytically  !
 ! A79   A(2,28,48)            120.2704         calculate D2E/DX2 analytically  !
 ! A80   A(27,28,48)           119.0394         calculate D2E/DX2 analytically  !
 ! D1    D(29,1,2,3)          -160.3631         calculate D2E/DX2 analytically  !
 ! D2    D(29,1,2,28)           30.0263         calculate D2E/DX2 analytically  !
 ! D3    D(30,1,2,3)           -29.9212         calculate D2E/DX2 analytically  !
 ! D4    D(30,1,2,28)          160.4682         calculate D2E/DX2 analytically  !
 ! D5    D(1,2,3,4)           -174.2382         calculate D2E/DX2 analytically  !
 ! D6    D(1,2,3,31)             6.1597         calculate D2E/DX2 analytically  !
 ! D7    D(28,2,3,4)            -4.4783         calculate D2E/DX2 analytically  !
 ! D8    D(28,2,3,31)          175.9196         calculate D2E/DX2 analytically  !
 ! D9    D(1,2,28,27)          174.2259         calculate D2E/DX2 analytically  !
 ! D10   D(1,2,28,48)           -6.0415         calculate D2E/DX2 analytically  !
 ! D11   D(3,2,28,27)            4.4659         calculate D2E/DX2 analytically  !
 ! D12   D(3,2,28,48)         -175.8015         calculate D2E/DX2 analytically  !
 ! D13   D(2,3,4,5)              2.8707         calculate D2E/DX2 analytically  !
 ! D14   D(2,3,4,32)          -177.7008         calculate D2E/DX2 analytically  !
 ! D15   D(31,3,4,5)          -177.5222         calculate D2E/DX2 analytically  !
 ! D16   D(31,3,4,32)            1.9063         calculate D2E/DX2 analytically  !
 ! D17   D(3,4,5,6)           -178.455          calculate D2E/DX2 analytically  !
 ! D18   D(3,4,5,27)            -1.1759         calculate D2E/DX2 analytically  !
 ! D19   D(32,4,5,6)             2.1234         calculate D2E/DX2 analytically  !
 ! D20   D(32,4,5,27)          179.4026         calculate D2E/DX2 analytically  !
 ! D21   D(4,5,6,7)            -48.7513         calculate D2E/DX2 analytically  !
 ! D22   D(27,5,6,7)           133.8953         calculate D2E/DX2 analytically  !
 ! D23   D(4,5,27,28)            1.1684         calculate D2E/DX2 analytically  !
 ! D24   D(4,5,27,47)          179.9514         calculate D2E/DX2 analytically  !
 ! D25   D(6,5,27,28)          178.5986         calculate D2E/DX2 analytically  !
 ! D26   D(6,5,27,47)           -2.6184         calculate D2E/DX2 analytically  !
 ! D27   D(5,6,7,8)            136.5805         calculate D2E/DX2 analytically  !
 ! D28   D(5,6,7,26)           -46.9632         calculate D2E/DX2 analytically  !
 ! D29   D(6,7,8,9)            178.4585         calculate D2E/DX2 analytically  !
 ! D30   D(6,7,8,33)            -1.6674         calculate D2E/DX2 analytically  !
 ! D31   D(26,7,8,9)             1.8939         calculate D2E/DX2 analytically  !
 ! D32   D(26,7,8,33)         -178.232          calculate D2E/DX2 analytically  !
 ! D33   D(6,7,26,25)         -178.2196         calculate D2E/DX2 analytically  !
 ! D34   D(6,7,26,46)            1.637          calculate D2E/DX2 analytically  !
 ! D35   D(8,7,26,25)           -1.8671         calculate D2E/DX2 analytically  !
 ! D36   D(8,7,26,46)          177.9895         calculate D2E/DX2 analytically  !
 ! D37   D(7,8,9,10)            -0.7921         calculate D2E/DX2 analytically  !
 ! D38   D(7,8,9,34)          -179.8364         calculate D2E/DX2 analytically  !
 ! D39   D(33,8,9,10)          179.3337         calculate D2E/DX2 analytically  !
 ! D40   D(33,8,9,34)            0.2895         calculate D2E/DX2 analytically  !
 ! D41   D(8,9,10,11)          179.9975         calculate D2E/DX2 analytically  !
 ! D42   D(8,9,10,25)           -0.3249         calculate D2E/DX2 analytically  !
 ! D43   D(34,9,10,11)          -0.971          calculate D2E/DX2 analytically  !
 ! D44   D(34,9,10,25)         178.7066         calculate D2E/DX2 analytically  !
 ! D45   D(9,10,11,12)         -53.7549         calculate D2E/DX2 analytically  !
 ! D46   D(9,10,11,24)         126.5866         calculate D2E/DX2 analytically  !
 ! D47   D(25,10,11,12)        126.5772         calculate D2E/DX2 analytically  !
 ! D48   D(25,10,11,24)        -53.0813         calculate D2E/DX2 analytically  !
 ! D49   D(9,10,25,26)           0.3495         calculate D2E/DX2 analytically  !
 ! D50   D(9,10,25,45)         179.9232         calculate D2E/DX2 analytically  !
 ! D51   D(11,10,25,26)       -179.9731         calculate D2E/DX2 analytically  !
 ! D52   D(11,10,25,45)         -0.3994         calculate D2E/DX2 analytically  !
 ! D53   D(10,11,12,13)       -179.9906         calculate D2E/DX2 analytically  !
 ! D54   D(10,11,12,35)         -0.9705         calculate D2E/DX2 analytically  !
 ! D55   D(24,11,12,13)         -0.3221         calculate D2E/DX2 analytically  !
 ! D56   D(24,11,12,35)        178.6979         calculate D2E/DX2 analytically  !
 ! D57   D(10,11,24,23)       -179.9866         calculate D2E/DX2 analytically  !
 ! D58   D(10,11,24,44)         -0.4008         calculate D2E/DX2 analytically  !
 ! D59   D(12,11,24,23)          0.3451         calculate D2E/DX2 analytically  !
 ! D60   D(12,11,24,44)        179.9309         calculate D2E/DX2 analytically  !
 ! D61   D(11,12,13,14)         -0.7886         calculate D2E/DX2 analytically  !
 ! D62   D(11,12,13,36)        179.3258         calculate D2E/DX2 analytically  !
 ! D63   D(35,12,13,14)       -179.8216         calculate D2E/DX2 analytically  !
 ! D64   D(35,12,13,36)          0.2928         calculate D2E/DX2 analytically  !
 ! D65   D(12,13,14,15)        178.4469         calculate D2E/DX2 analytically  !
 ! D66   D(12,13,14,23)          1.8857         calculate D2E/DX2 analytically  !
 ! D67   D(36,13,14,15)         -1.6676         calculate D2E/DX2 analytically  !
 ! D68   D(36,13,14,23)       -178.2288         calculate D2E/DX2 analytically  !
 ! D69   D(13,14,15,16)        136.6127         calculate D2E/DX2 analytically  !
 ! D70   D(23,14,15,16)        -46.9346         calculate D2E/DX2 analytically  !
 ! D71   D(13,14,23,24)         -1.8605         calculate D2E/DX2 analytically  !
 ! D72   D(13,14,23,43)        177.9799         calculate D2E/DX2 analytically  !
 ! D73   D(15,14,23,24)       -178.2091         calculate D2E/DX2 analytically  !
 ! D74   D(15,14,23,43)          1.6313         calculate D2E/DX2 analytically  !
 ! D75   D(14,15,16,17)        -48.7431         calculate D2E/DX2 analytically  !
 ! D76   D(14,15,16,22)        133.9049         calculate D2E/DX2 analytically  !
 ! D77   D(15,16,17,18)       -178.4536         calculate D2E/DX2 analytically  !
 ! D78   D(15,16,17,37)          2.1256         calculate D2E/DX2 analytically  !
 ! D79   D(22,16,17,18)         -1.176          calculate D2E/DX2 analytically  !
 ! D80   D(22,16,17,37)        179.4032         calculate D2E/DX2 analytically  !
 ! D81   D(15,16,22,21)        178.5953         calculate D2E/DX2 analytically  !
 ! D82   D(15,16,22,42)         -2.6162         calculate D2E/DX2 analytically  !
 ! D83   D(17,16,22,21)          1.1664         calculate D2E/DX2 analytically  !
 ! D84   D(17,16,22,42)        179.9549         calculate D2E/DX2 analytically  !
 ! D85   D(16,17,18,19)          2.8737         calculate D2E/DX2 analytically  !
 ! D86   D(16,17,18,38)       -177.5208         calculate D2E/DX2 analytically  !
 ! D87   D(37,17,18,19)       -177.6986         calculate D2E/DX2 analytically  !
 ! D88   D(37,17,18,38)          1.9069         calculate D2E/DX2 analytically  !
 ! D89   D(17,18,19,20)       -174.2418         calculate D2E/DX2 analytically  !
 ! D90   D(17,18,19,21)         -4.4819         calculate D2E/DX2 analytically  !
 ! D91   D(38,18,19,20)          6.1577         calculate D2E/DX2 analytically  !
 ! D92   D(38,18,19,21)        175.9175         calculate D2E/DX2 analytically  !
 ! D93   D(18,19,20,39)       -160.352          calculate D2E/DX2 analytically  !
 ! D94   D(18,19,20,40)        -29.9139         calculate D2E/DX2 analytically  !
 ! D95   D(21,19,20,39)         30.0375         calculate D2E/DX2 analytically  !
 ! D96   D(21,19,20,40)        160.4757         calculate D2E/DX2 analytically  !
 ! D97   D(18,19,21,22)          4.4674         calculate D2E/DX2 analytically  !
 ! D98   D(18,19,21,41)       -175.8022         calculate D2E/DX2 analytically  !
 ! D99   D(20,19,21,22)        174.2272         calculate D2E/DX2 analytically  !
 ! D100  D(20,19,21,41)         -6.0424         calculate D2E/DX2 analytically  !
 ! D101  D(19,21,22,16)         -2.8514         calculate D2E/DX2 analytically  !
 ! D102  D(19,21,22,42)        178.3594         calculate D2E/DX2 analytically  !
 ! D103  D(41,21,22,16)        177.4149         calculate D2E/DX2 analytically  !
 ! D104  D(41,21,22,42)         -1.3743         calculate D2E/DX2 analytically  !
 ! D105  D(14,23,24,11)          0.7402         calculate D2E/DX2 analytically  !
 ! D106  D(14,23,24,44)       -178.8514         calculate D2E/DX2 analytically  !
 ! D107  D(43,23,24,11)       -179.1022         calculate D2E/DX2 analytically  !
 ! D108  D(43,23,24,44)          1.3062         calculate D2E/DX2 analytically  !
 ! D109  D(10,25,26,7)           0.7405         calculate D2E/DX2 analytically  !
 ! D110  D(10,25,26,46)       -179.1179         calculate D2E/DX2 analytically  !
 ! D111  D(45,25,26,7)        -178.8392         calculate D2E/DX2 analytically  !
 ! D112  D(45,25,26,46)          1.3024         calculate D2E/DX2 analytically  !
 ! D113  D(5,27,28,2)           -2.8527         calculate D2E/DX2 analytically  !
 ! D114  D(5,27,28,48)         177.4115         calculate D2E/DX2 analytically  !
 ! D115  D(47,27,28,2)         178.3637         calculate D2E/DX2 analytically  !
 ! D116  D(47,27,28,48)         -1.3722         calculate D2E/DX2 analytically  !
 --------------------------------------------------------------------------------
 Trust Radius=3.00D-01 FncErr=1.00D-07 GrdErr=1.00D-06 EigMax=2.50D+02 EigMin=1.00D-04
 Number of steps in this run=    257 maximum allowed number of steps=    288.
 GradGradGradGradGradGradGradGradGradGradGradGradGradGradGradGradGradGrad

                          Input orientation:                          
 ---------------------------------------------------------------------
 Center     Atomic      Atomic             Coordinates (Angstroms)
 Number     Number       Type             X           Y           Z
 ---------------------------------------------------------------------
      1          7           0       -9.021961   -0.894316   -0.804164
      2          6           0       -7.918708   -0.563246   -0.009286
      3          6           0       -6.990965    0.383998   -0.452687
      4          6           0       -5.823967    0.636447    0.274281
      5          6           0       -5.550778   -0.105697    1.423642
      6          8           0       -4.438062    0.110545    2.203171
      7          6           0       -3.222719    0.194568    1.563176
      8          6           0       -2.359763    1.206781    1.976414
      9          6           0       -1.096174    1.329179    1.391006
     10          6           0       -0.668480    0.433238    0.396100
     11          6           0        0.662792    0.563947   -0.219251
     12          6           0        1.076799    1.777118   -0.795706
     13          6           0        2.340259    1.903198   -1.380602
     14          6           0        3.216689    0.820656   -1.383255
     15          8           0        4.431173    1.002443   -2.004290
     16          6           0        5.548630    0.518262   -1.364445
     17          6           0        5.816100    0.767830   -0.018105
     18          6           0        6.988148    0.270970    0.559408
     19          6           0        7.926056   -0.423206   -0.210669
     20          7           0        9.035554   -1.019393    0.399395
     21          6           0        7.628458   -0.695252   -1.549135
     22          6           0        6.459034   -0.202327   -2.134218
     23          6           0        2.819385   -0.400170   -0.837763
     24          6           0        1.554431   -0.522114   -0.254108
     25          6           0       -1.546481   -0.594786    0.011341
     26          6           0       -2.811525   -0.720527    0.593997
     27          6           0       -6.450721   -1.076855    1.856779
     28          6           0       -7.615136   -1.322775    1.124307
     29          1           0       -9.781472   -1.330188   -0.290702
     30          1           0       -9.343222   -0.135133   -1.396571
     31          1           0       -7.172018    0.940743   -1.368153
     32          1           0       -5.134924    1.402964   -0.068144
     33          1           0       -2.668884    1.902245    2.751771
     34          1           0       -0.436138    2.125156    1.730059
     35          1           0        0.406013    2.633945   -0.806811
     36          1           0        2.638697    2.845766   -1.831077
     37          1           0        5.118802    1.336618    0.590043
     38          1           0        7.165018    0.437543    1.618549
     39          1           0        9.798904   -1.216231   -0.240190
     40          1           0        9.349167   -0.540530    1.237797
     41          1           0        8.308604   -1.291493   -2.151215
     42          1           0        6.251393   -0.397798   -3.182328
     43          1           0        3.481576   -1.261246   -0.862968
     44          1           0        1.269925   -1.477422    0.182998
     45          1           0       -1.251216   -1.307170   -0.756752
     46          1           0       -3.463050   -1.533961    0.286648
     47          1           0       -6.238559   -1.655736    2.751066
     48          1           0       -8.286688   -2.112164    1.450651
 ---------------------------------------------------------------------
                    Distance matrix (angstroms):
                    1          2          3          4          5
     1  N    0.000000
     2  C    1.399502   0.000000
     3  C    2.425400   1.398064   0.000000
     4  C    3.705866   2.430558   1.397890   0.000000
     5  C    4.199304   2.805303   2.415482   1.395149   0.000000
     6  O    5.573683   4.178978   3.694005   2.432679   1.375704
     7  C    6.357764   5.009913   4.277764   2.936494   2.351486
     8  C    7.518717   6.162619   5.293915   3.901699   3.494386
     9  C    8.519437   7.217275   6.248290   4.907034   4.680110
    10  C    8.543048   7.329606   6.379395   5.160929   5.018279
    11  C    9.811375   8.657759   7.659430   6.505911   6.461885
    12  C   10.446127   9.328178   8.194343   7.075774   7.238458
    13  C   11.715733  10.640031   9.499512   8.426024   8.612079
    14  C   12.371783  11.304868  10.259280   9.193194   9.252312
    15  O   13.639091  12.607576  11.543620  10.511600  10.612164
    16  C   14.649621  13.578487  12.573415  11.490664  11.461222
    17  C   14.951544  13.799159  12.820183  11.644480  11.491196
    18  C   16.110270  14.941007  14.016159  12.820498  12.574317
    19  C   16.964948  15.846663  14.940805  13.799319  13.579280
    20  N   18.098012  16.965320  16.110396  14.952018  14.650767
    21  C   16.668265  15.623794  14.700153  13.640602  13.523211
    22  C   15.553426  14.538399  13.567379  12.544980  12.526103
    23  C   11.851699  10.771240   9.849171   8.776033   8.675269
    24  C   10.597224   9.476391   8.595595   7.487471   7.312471
    25  C    7.525794   6.372339   5.551193   4.458920   4.274131
    26  C    6.368247   5.145095   4.447836   3.319399   2.927428
    27  C    3.704755   2.429193   2.785604   2.415062   1.393073
    28  C    2.425228   1.397882   2.406154   2.787361   2.415048
    29  H    1.015128   2.034032   3.278964   4.455188   4.726217
    30  H    1.015142   2.033982   2.587186   3.971428   4.726215
    31  H    2.666048   2.160103   1.086656   2.146491   3.393755
    32  H    4.574743   3.408650   2.151988   1.086086   2.162040
    33  H    7.799168   6.423608   5.590529   4.206513   3.755139
    34  H    9.447531   8.138899   7.124729   5.776179   5.588393
    35  H   10.066545   8.953159   7.739700   6.631095   6.925599
    36  H   12.288763  11.242735  10.034473   8.996127   9.293644
    37  H   14.383395  13.188834  12.191851  10.969692  10.798847
    38  H   16.421378  15.204282  14.306807  13.059876  12.728887
    39  H   18.832064  17.731144  16.867293  15.740750  15.479482
    40  H   18.487647  17.312863  16.453339  15.249185  14.907446
    41  H   17.387374  16.384256  15.484478  14.468226  14.362039
    42  H   15.465366  14.521960  13.543345  12.602862  12.672471
    43  H   12.509058  11.453491  10.608924   9.564921   9.388679
    44  H   10.355550   9.235999   8.491836   7.402708   7.067023
    45  H    7.781848   6.750376   5.991429   5.074518   4.968288
    46  H    5.700921   4.569764   4.083058   3.206985   2.773319
    47  H    4.578946   3.411155   3.871778   3.400067   2.153537
    48  H    2.666078   2.160086   3.395941   3.873461   3.392911
                    6          7          8          9         10
     6  O    0.000000
     7  C    1.376122   0.000000
     8  C    2.360611   1.392852   0.000000
     9  C    3.648685   2.416440   1.397977   0.000000
    10  C    4.192779   2.818363   2.440533   1.405515   0.000000
    11  C    5.665017   4.290767   3.790780   2.504489   1.472421
    12  C    6.494954   5.153120   4.451954   3.115152   2.504479
    13  C    7.874178   6.521654   5.817624   4.452008   3.790773
    14  C    8.483038   7.109108   6.521754   5.153242   4.290773
    15  O    9.857056   8.483015   7.874297   6.495102   5.665008
    16  C   10.612641   9.252692   8.612669   7.239027   6.462136
    17  C   10.512561   9.193983   8.427070   7.076739   6.506404
    18  C   11.544955  10.260371   9.500899   8.195586   7.660088
    19  C   12.608844  11.305900  10.641347   9.329354   8.658390
    20  N   13.640700  12.373089  11.717341  10.447535   9.812156
    21  C   12.662150  11.323706  10.761588   9.426662   8.596314
    22  C   11.732755  10.371335   9.831279   8.476666   7.589986
    23  C    7.885344   6.528801   6.109456   4.825936   3.792385
    24  C    6.507569   5.161135   4.825476   3.627588   2.505354
    25  C    3.696330   2.416826   2.787218   2.409957   1.405617
    26  C    2.434286   1.394915   2.414474   2.789076   2.441921
    27  C    2.362350   3.481769   4.686709   5.888728   6.152095
    28  C    3.648582   4.667790   5.894378   7.042787   7.202076
    29  H    6.070185   6.984195   8.164423   9.237683   9.307416
    30  H    6.089261   6.806568   7.870608   8.827718   8.876253
    31  H    4.573631   4.974578   5.866405   6.684289   6.757674
    32  H    2.704596   2.788899   3.452568   4.294889   4.594020
    33  H    2.577042   2.153057   1.086465   2.157199   3.421811
    34  H    4.505318   3.394121   2.145795   1.088202   2.167030
    35  H    6.236394   4.973439   4.175243   2.964689   2.728487
    36  H    8.592853   7.273651   6.493678   5.160534   4.660260
    37  H    9.769294   8.475391   7.607090   6.266380   5.860575
    38  H   11.622400  10.390726   9.562491   8.312285   7.928309
    39  H   14.505915  13.221390  12.594344  11.306752  10.615636
    40  H   13.836312  12.597561  11.861605  10.612465  10.099996
    41  H   13.542669  12.205592  11.708661  10.385812   9.489549
    42  H   11.980254  10.612705  10.165594   8.825224   7.834565
    43  H    8.602540   7.276891   6.947984   5.722455   4.656124
    44  H    6.259701   4.988416   4.857563   3.864546   2.730100
    45  H    4.574609   3.394717   3.875438   3.404003   2.167410
    46  H    2.707048   2.162197   3.403560   3.875472   3.419280
    47  H    2.581032   3.732291   4.882535   6.099476   6.398082
    48  H    4.507620   5.565739   6.813242   7.971818   8.101126
                   11         12         13         14         15
    11  C    0.000000
    12  C    1.405520   0.000000
    13  C    2.440538   1.397973   0.000000
    14  C    2.818368   2.416436   1.392851   0.000000
    15  O    4.192772   3.648646   2.360565   1.376118   0.000000
    16  C    5.018463   4.680326   3.494561   2.351541   1.375698
    17  C    5.161261   4.907576   3.902170   2.936556   2.432694
    18  C    6.379834   6.248909   5.294401   4.277850   3.694012
    19  C    7.330045   7.217757   6.162957   5.010019   4.178967
    20  N    8.543584   8.520007   7.519103   6.357894   5.573675
    21  C    7.202408   7.043047   5.894523   4.667891   3.648557
    22  C    6.152292   5.888825   4.686734   3.481844   2.362324
    23  C    2.441920   2.789079   2.414486   1.394930   2.434332
    24  C    1.405619   2.409965   2.787231   2.416838   3.696357
    25  C    2.505338   3.627513   4.825368   5.161023   6.507400
    26  C    3.792376   4.825823   6.109325   6.528716   7.885201
    27  C    7.589742   8.476107   9.830700  10.370978  11.732303
    28  C    8.595868   9.425790  10.760639  11.323012  12.661292
    29  H   10.614871  11.305416  12.592816  13.220136  14.504372
    30  H   10.099263  10.611060  11.859965  12.596233  13.834643
    31  H    7.927559   8.310848   9.560852  10.389412  11.620779
    32  H    5.860059   6.265369   7.605994   8.474553   9.768280
    33  H    4.660266   5.160465   6.493691   7.273806   8.593054
    34  H    2.728521   2.964726   4.175387   4.973690   6.236711
    35  H    2.167038   1.088223   2.145818   3.394142   4.505293
    36  H    3.421824   2.157203   1.086474   2.153065   2.576976
    37  H    4.594345   4.295595   3.453225   2.788935   2.704639
    38  H    6.758138   6.685020   5.866971   4.974626   4.573618
    39  H    9.307955   9.238174   8.164727   6.984344   6.070182
    40  H    8.876709   8.828289   7.870998   6.806616   6.089217
    41  H    8.101456   7.972000   6.813299   5.565836   4.507572
    42  H    6.398222   6.099397   4.882394   3.732388   2.581017
    43  H    3.419247   3.875453   3.403566   2.162217   2.707146
    44  H    2.167395   3.403997   3.875442   3.394731   4.574653
    45  H    2.730094   3.864454   4.857401   4.988219   6.259410
    46  H    4.656149   5.722322   6.947819   7.276793   8.602354
    47  H    7.834437   8.824882  10.165274  10.612579  11.980087
    48  H    9.489116  10.384966  11.707737  12.204922  13.541838
                   16         17         18         19         20
    16  C    0.000000
    17  C    1.395155   0.000000
    18  C    2.415487   1.397887   0.000000
    19  C    2.805301   2.430548   1.398060   0.000000
    20  N    4.199304   3.705854   2.425389   1.399501   0.000000
    21  C    2.415039   2.787347   2.406146   1.397879   2.425234
    22  C    1.393066   2.415057   2.785605   2.429194   3.704760
    23  C    2.927403   3.319091   4.447595   5.145082   6.368261
    24  C    4.274208   4.458865   5.551223   6.372541   7.526058
    25  C    7.312473   7.487669   8.595918   9.476692  10.597657
    26  C    8.675383   8.776433   9.849764  10.771794  11.852445
    27  C   12.526177  12.545634  13.568456  14.539371  15.554805
    28  C   13.522871  13.640888  14.700852  15.624342  16.669223
    29  H   15.478427  15.740401  16.867322  17.730922  18.832241
    30  H   14.906214  15.248625  16.453098  17.312346  18.487477
    31  H   12.727662  13.059239  14.306446  15.203683  16.421076
    32  H   10.798214  10.969541  12.191970  13.188799  14.383632
    33  H    9.294417   8.997448  10.036224  11.244400  12.290790
    34  H    6.926436   6.632412   7.741347   8.954712  10.068357
    35  H    5.588701   5.776978   7.125637   8.139570   9.448322
    36  H    3.755360   4.207205   5.591217   6.424022   7.799630
    37  H    2.162055   1.086089   2.151976   3.408636   4.574722
    38  H    3.393741   2.146463   1.086650   2.160117   2.666065
    39  H    4.726230   4.455171   3.278944   2.034040   1.015145
    40  H    4.726180   3.971354   2.587112   2.033977   1.015175
    41  H    3.392886   3.873441   3.395935   2.160089   2.666104
    42  H    2.153541   3.400070   3.871775   3.411143   4.578938
    43  H    2.773237   3.206391   4.082510   4.569597   5.700765
    44  H    4.968365   5.074377   5.991380   6.750587   7.782134
    45  H    7.066781   7.402579   8.491757   9.235904  10.355536
    46  H    9.388723   9.565236  10.609417  11.453945  12.509700
    47  H   12.672865  12.603840  13.544790  14.523337  15.467185
    48  H   14.361752  14.468594  15.485292  16.384921  17.388483
                   21         22         23         24         25
    21  C    0.000000
    22  C    1.397444   0.000000
    23  C    4.870350   3.868718   0.000000
    24  C    6.212961   5.262338   1.398439   0.000000
    25  C    9.307238   8.297331   4.451925   3.113101   0.000000
    26  C   10.657716   9.677548   5.818910   4.451990   1.398440
    27  C   14.490313  13.540850   9.677464   8.297351   5.262091
    28  C   15.488972  14.489846  10.657399   9.307096   6.212668
    29  H   17.466897  16.383670  12.646968  11.364727   8.273278
    30  H   16.981606  15.819606  12.178322  10.964206   7.936163
    31  H   14.891720  13.700330  10.094924   8.918069   5.992289
    32  H   13.019208  11.885516   8.192353   6.963331   4.107828
    33  H   11.457751  10.565084   6.950322   5.722694   3.873618
    34  H    9.151258   8.239733   4.854834   3.861001   3.403666
    35  H    7.987384   6.815094   3.877006   3.403683   3.860869
    36  H    6.125031   4.896706   3.399327   3.873639   5.722553
    37  H    3.873365   3.403846   3.215958   4.107581   6.963563
    38  H    3.395912   3.871835   5.061596   5.992201   8.918465
    39  H    2.587584   3.971156   7.052427   8.273653  11.365176
    40  H    3.278988   4.453957   6.853152   7.936247  10.964591
    41  H    1.086555   2.146504   5.714117   7.057607  10.113592
    42  H    2.156874   1.086213   4.156401   5.536369   8.428829
    43  H    4.241204   3.406265   1.086547   2.151956   5.146838
    44  H    6.636492   5.824277   2.145518   1.088402   2.956460
    45  H    8.935935   7.909870   4.171212   2.956454   1.088411
    46  H   11.273646  10.299592   6.482189   5.146977   2.151995
    47  H   14.550203  13.682370   9.823568   8.428930   5.536001
    48  H   16.257252  15.294936  11.467895  10.113460   7.057226
                   26         27         28         29         30
    26  C    0.000000
    27  C    3.868506   0.000000
    28  C    4.870176   1.397446   0.000000
    29  H    7.052272   3.971115   2.587531   0.000000
    30  H    6.853329   4.453952   3.278963   1.686169   0.000000
    31  H    5.061991   3.871841   3.395912   3.623158   2.423313
    32  H    3.216493   3.403843   3.873376   5.395374   4.673353
    33  H    3.399305   4.896768   6.124933   8.384162   8.118279
    34  H    3.876985   6.814994   7.987063  10.166521   9.706744
    35  H    4.854616   8.238905   9.150065  10.943746  10.152005
    36  H    6.950133  10.564315  11.456532  13.193633  12.354794
    37  H    8.192799  11.886267  13.019639  15.162643  14.671838
    38  H   10.095654  13.701770  14.892815  17.145076  16.791096
    39  H   12.647708  16.384963  17.467742  19.580773  19.207472
    40  H   12.179051  15.821101  16.982707  19.207842  18.881463
    41  H   11.468193  15.295351  16.257168  18.185540  17.705751
    42  H    9.823506  13.682011  14.549341  16.318199  15.698724
    43  H    6.482148  10.299589  11.273423  13.275567  12.885197
    44  H    4.171336   7.910144   8.936123  11.062525  10.813680
    45  H    2.145515   5.823954   6.636121   8.543009   8.201439
    46  H    1.086565   3.405941   4.241001   6.348016   6.274262
    47  H    4.155975   1.086216   2.156890   4.680873   5.399450
    48  H    5.713836   2.146527   1.086562   2.424495   3.623753
                   31         32         33         34         35
    31  H    0.000000
    32  H    2.460370   0.000000
    33  H    6.178711   3.779227   0.000000
    34  H    7.508251   5.082685   2.465510   0.000000
    35  H    7.785152   5.723891   4.759610   2.720991   0.000000
    36  H   10.004676   8.100543   7.075532   4.759788   2.465536
    37  H   12.452129  10.275044   8.101917   5.725276   5.083762
    38  H   14.653470  12.452532  10.006757   7.787043   7.509374
    39  H   17.144592  15.162751  13.195548  10.945448  10.167168
    40  H   16.790911  14.672135  12.356893  10.153836   9.707610
    41  H   15.660323  13.868227  12.439634  10.159148   8.925661
    42  H   13.611425  11.941068  10.957878   8.672942   7.000215
    43  H   10.890502   9.053941   7.803985   5.791373   4.963341
    44  H    8.917398   7.027218   5.790938   4.275818   4.316180
    45  H    6.362611   4.785624   4.961841   4.316184   4.275664
    46  H    4.755940   3.398024   4.302912   4.963343   5.791092
    47  H    4.957924   4.303673   5.040021   7.000406   8.672381
    48  H    4.302137   4.959483   7.026245   8.925474  10.157989
                   36         37         38         39         40
    36  H    0.000000
    37  H    3.780247   0.000000
    38  H    6.179565   2.460317   0.000000
    39  H    8.384468   5.395339   3.623153   0.000000
    40  H    8.118829   4.673249   2.423242   1.686203   0.000000
    41  H    7.026182   4.959466   4.302147   2.424598   3.623826
    42  H    5.039658   4.303690   4.957915   4.680902   5.399451
    43  H    4.302932   3.397154   4.755161   6.348111   6.273856
    44  H    4.961853   4.785223   6.362390   8.543465   8.201494
    45  H    5.790723   7.027134   8.917347  11.062561  10.813606
    46  H    7.803723   9.054307  10.891126  13.276217  12.885825
    47  H   10.957428  11.942104  13.613239  16.319957  15.700664
    48  H   12.438442  13.868738  15.661558  18.186541  17.707024
                   41         42         43         44         45
    41  H    0.000000
    42  H    2.468603   0.000000
    43  H    4.996068   3.714413   0.000000
    44  H    7.417959   6.107866   2.456049   0.000000
    45  H    9.661001   7.937224   4.734207   2.695973   0.000000
    46  H   12.023885  10.377624   7.044418   4.734448   2.456080
    47  H   15.355291  13.884757  10.377759   7.937512   6.107362
    48  H   17.001489  15.354457  12.023682   9.661195   7.417446
                   46         47         48
    46  H    0.000000
    47  H    3.713709   0.000000
    48  H    4.995668   2.468651   0.000000
 Stoichiometry    C24H20N2O2
 Framework group  C1[X(C24H20N2O2)]
 Deg. of freedom   138
 Full point group                 C1      NOp   1
 Largest Abelian subgroup         C1      NOp   1
 Largest concise Abelian subgroup C1      NOp   1
                         Standard orientation:                         
 ---------------------------------------------------------------------
 Center     Atomic      Atomic             Coordinates (Angstroms)
 Number     Number       Type             X           Y           Z
 ---------------------------------------------------------------------
      1          7           0       -8.908429    1.587301   -1.079957
      2          6           0       -7.887042    0.755316   -0.607542
      3          6           0       -6.891967    1.268726    0.229607
      4          6           0       -5.802167    0.480854    0.611301
      5          6           0       -5.672778   -0.812770    0.105105
      6          8           0       -4.643497   -1.652938    0.461841
      7          6           0       -3.365305   -1.145515    0.412242
      8          6           0       -2.523682   -1.447877    1.480083
      9          6           0       -1.202274   -0.991570    1.478438
     10          6           0       -0.696153   -0.240685    0.403503
     11          6           0        0.695934    0.239022    0.403767
     12          6           0        1.201740    0.989564    1.479098
     13          6           0        2.523067    1.446095    1.481165
     14          6           0        3.364914    1.144369    0.413322
     15          8           0        4.642914    1.652226    0.463312
     16          6           0        5.672571    0.812852    0.105817
     17          6           0        5.802500   -0.481229    0.610722
     18          6           0        6.892683   -1.268228    0.228332
     19          6           0        7.887626   -0.753507   -0.608161
     20          7           0        8.909467   -1.584543   -1.081263
     21          6           0        7.726301    0.531859   -1.133396
     22          6           0        6.639421    1.325195   -0.756353
     23          6           0        2.878784    0.420721   -0.675642
     24          6           0        1.556216   -0.033640   -0.673885
     25          6           0       -1.556182    0.032503   -0.674215
     26          6           0       -2.878837   -0.421605   -0.676375
     27          6           0       -6.639786   -1.323816   -0.757671
     28          6           0       -7.726257   -0.529602   -1.134047
     29          1           0       -9.729733    1.085670   -1.402931
     30          1           0       -9.144190    2.346339   -0.448457
     31          1           0       -6.959643    2.288482    0.598848
     32          1           0       -5.060005    0.887082    1.292298
     33          1           0       -2.894145   -2.036239    2.314945
     34          1           0       -0.560397   -1.241052    2.321016
     35          1           0        0.559590    1.238751    2.321581
     36          1           0        2.893244    2.034298    2.316277
     37          1           0        5.060462   -0.888496    1.291238
     38          1           0        6.960740   -2.288322    0.596551
     39          1           0        9.730663   -1.082201   -1.403458
     40          1           0        9.145388   -2.344179   -0.450490
     41          1           0        8.449896    0.929796   -1.839553
     42          1           0        6.538819    2.332330   -1.150582
     43          1           0        3.516125    0.207064   -1.529299
     44          1           0        1.200958   -0.612784   -1.524180
     45          1           0       -1.200726    0.612037   -1.524173
     46          1           0       -3.516094   -0.207331   -1.529965
     47          1           0       -6.539548   -2.330584   -1.152938
     48          1           0       -8.449954   -0.926465   -1.840714
 ---------------------------------------------------------------------
 Rotational constants (GHZ):           0.6931076           0.0442679           0.0436780
 Standard basis: 6-31G(d,p) (6D, 7F)
 There are   520 symmetry adapted cartesian basis functions of A   symmetry.
 There are   520 symmetry adapted basis functions of A   symmetry.
   520 basis functions,   924 primitive gaussians,   520 cartesian basis functions
    97 alpha electrons       97 beta electrons
       nuclear repulsion energy      2176.4963002526 Hartrees.
 NAtoms=   48 NActive=   48 NUniq=   48 SFac= 1.00D+00 NAtFMM=   60 NAOKFM=F Big=F
 Integral buffers will be    131072 words long.
 Raffenetti 2 integral format.
 Two-electron integral symmetry is turned on.
 Force inversion solution in PCM.
 ------------------------------------------------------------------------------
 Polarizable Continuum Model (PCM)
 =================================
 Model                : PCM.
 Atomic radii         : UFF (Universal Force Field).
 Polarization charges : Total charges.
 Charge compensation  : None.
 Solution method      : Matrix inversion.
 Cavity type          : Scaled VdW (van der Waals Surface) (Alpha=1.100).
 Cavity algorithm     : GePol (No added spheres)
                        Default sphere list used, NSphG=   48.
                        Lebedev-Laikov grids with approx.  5.0 points / Ang**2.
                        Smoothing algorithm: York/Karplus (Gamma=1.0000).
                        Polarization charges: spherical gaussians, with
                                              point-specific exponents (IZeta= 3).
                        Self-potential: point-specific (ISelfS= 7).
                        Self-field    : sphere-specific E.n sum rule (ISelfD= 2).
 1st derivatives      : Analytical E(r).r(x)/FMM algorithm (CHGder, D1EAlg=3).
                        Cavity 1st derivative terms included.
 2nd derivatives      : Analytical E(r).r(xy)/FMM algorithm (CHGder, D2EAlg=3).
                        Cavity 2nd derivative terms included.
 Solvent              : Water, Eps=  78.355300 Eps(inf)=   1.777849
 ------------------------------------------------------------------------------
 One-electron integrals computed using PRISM.
 NBasis=   520 RedAO= T EigKep=  4.11D-04  NBF=   520
 NBsUse=   520 1.00D-06 EigRej= -1.00D+00 NBFU=   520
 ExpMin= 1.61D-01 ExpMax= 5.48D+03 ExpMxC= 8.25D+02 IAcc=3 IRadAn=         5 AccDes= 0.00D+00
 Harris functional with IExCor=  402 and IRadAn=       5 diagonalized for initial guess.
 HarFok:  IExCor=  402 AccDes= 0.00D+00 IRadAn=         5 IDoV= 1 UseB2=F ITyADJ=14
 ICtDFT=  3500011 ScaDFX=  1.000000  1.000000  1.000000  1.000000
 FoFCou: FMM=F IPFlag=           0 FMFlag=      100000 FMFlg1=           0
         NFxFlg=           0 DoJE=T BraDBF=F KetDBF=T FulRan=T
         wScrn=  0.000000 ICntrl=       500 IOpCl=  0 I1Cent=   200000004 NGrid=           0
         NMat0=    1 NMatS0=      1 NMatT0=    0 NMatD0=    1 NMtDS0=    0 NMtDT0=    0
 Petite list used in FoFCou.
 Requested convergence on RMS density matrix=1.00D-08 within  32 cycles.
 Requested convergence on MAX density matrix=1.00D-06.
 Requested convergence on             energy=1.00D-06.
 No special actions if energy rises.
 Inv3:  Mode=1 IEnd=    40804032.
 Iteration    1 A*A^-1 deviation from unit magnitude is 3.33D-15 for   1628.
 Iteration    1 A*A^-1 deviation from orthogonality  is 2.22D-15 for   3247     69.
 Iteration    1 A^-1*A deviation from unit magnitude is 3.11D-15 for   1106.
 Iteration    1 A^-1*A deviation from orthogonality  is 8.21D-14 for   2893   2888.
 Error on total polarization charges =  0.01247
 SCF Done:  E(RB3LYP) =  -1186.58623221     A.U. after   12 cycles
            NFock= 12  Conv=0.68D-08     -V/T= 2.0095
 QCSCF skips out because SCF is already converged.
 DoSCS=F DFT=T ScalE2(SS,OS)=  1.000000  1.000000
 Range of M.O.s used for correlation:     1   520
 NBasis=   520 NAE=    97 NBE=    97 NFC=     0 NFV=     0
 NROrb=    520 NOA=    97 NOB=    97 NVA=   423 NVB=   423
 Symmetrizing basis deriv contribution to polar:
 IMax=3 JMax=2 DiffMx= 0.00D+00
 G2DrvN: will do    49 centers at a time, making    1 passes.
 Calling FoFCou, ICntrl=  3107 FMM=F I1Cent=   0 AccDes= 0.00D+00.
 NEqPCM:  Using equilibrium solvation (IEInf=0, Eps=  78.3553, EpsInf=   1.7778)
 G2PCM: DoFxE=T DoFxN=T DoGrad=T DoDP/DQ/DG/TGxP=FFFF NFrqRd=   0 IEInf=0 SqF1=F DoCFld=F IF1Alg=4.
 End of G2Drv F.D. properties file   721 does not exist.
 End of G2Drv F.D. properties file   722 does not exist.
 End of G2Drv F.D. properties file   788 does not exist.
          IDoAtm=111111111111111111111111111111111111111111111111
 NEqPCM:  Using equilibrium solvation (IEInf=0, Eps=  78.3553, EpsInf=   1.7778)
          Differentiating once with respect to nuclear coordinates.
 CalDSu exits because no D1Ps are significant.
          There are   147 degrees of freedom in the 1st order CPHF.  IDoFFX=6 NUNeed=     0.
    141 vectors produced by pass  0 Test12= 4.10D-14 1.00D-09 XBig12= 1.27D-01 7.20D-02.
 AX will form   141 AO Fock derivatives at one time.
    141 vectors produced by pass  1 Test12= 4.10D-14 1.00D-09 XBig12= 2.15D-02 2.21D-02.
    141 vectors produced by pass  2 Test12= 4.10D-14 1.00D-09 XBig12= 2.13D-04 1.69D-03.
    141 vectors produced by pass  3 Test12= 4.10D-14 1.00D-09 XBig12= 8.81D-07 8.60D-05.
    141 vectors produced by pass  4 Test12= 4.10D-14 1.00D-09 XBig12= 1.18D-09 3.15D-06.
    104 vectors produced by pass  5 Test12= 4.10D-14 1.00D-09 XBig12= 1.31D-12 1.04D-07.
     22 vectors produced by pass  6 Test12= 4.10D-14 1.00D-09 XBig12= 1.55D-15 2.93D-09.
 InvSVY:  IOpt=1 It=  1 EMax= 5.00D-16
 Solved reduced A of dimension   831 with   147 vectors.
 End of Minotr F.D. properties file   721 does not exist.
 End of Minotr F.D. properties file   722 does not exist.
 End of Minotr F.D. properties file   788 does not exist.

 **********************************************************************

            Population analysis using the SCF density.

 **********************************************************************

 Orbital symmetries:
       Occupied  (A) (A) (A) (A) (A) (A) (A) (A) (A) (A) (A) (A)
                 (A) (A) (A) (A) (A) (A) (A) (A) (A) (A) (A) (A)
                 (A) (A) (A) (A) (A) (A) (A) (A) (A) (A) (A) (A)
                 (A) (A) (A) (A) (A) (A) (A) (A) (A) (A) (A) (A)
                 (A) (A) (A) (A) (A) (A) (A) (A) (A) (A) (A) (A)
                 (A) (A) (A) (A) (A) (A) (A) (A) (A) (A) (A) (A)
                 (A) (A) (A) (A) (A) (A) (A) (A) (A) (A) (A) (A)
                 (A) (A) (A) (A) (A) (A) (A) (A) (A) (A) (A) (A)
                 (A)
       Virtual   (A) (A) (A) (A) (A) (A) (A) (A) (A) (A) (A) (A)
                 (A) (A) (A) (A) (A) (A) (A) (A) (A) (A) (A) (A)
                 (A) (A) (A) (A) (A) (A) (A) (A) (A) (A) (A) (A)
                 (A) (A) (A) (A) (A) (A) (A) (A) (A) (A) (A) (A)
                 (A) (A) (A) (A) (A) (A) (A) (A) (A) (A) (A) (A)
                 (A) (A) (A) (A) (A) (A) (A) (A) (A) (A) (A) (A)
                 (A) (A) (A) (A) (A) (A) (A) (A) (A) (A) (A) (A)
                 (A) (A) (A) (A) (A) (A) (A) (A) (A) (A) (A) (A)
                 (A) (A) (A) (A) (A) (A) (A) (A) (A) (A) (A) (A)
                 (A) (A) (A) (A) (A) (A) (A) (A) (A) (A) (A) (A)
                 (A) (A) (A) (A) (A) (A) (A) (A) (A) (A) (A) (A)
                 (A) (A) (A) (A) (A) (A) (A) (A) (A) (A) (A) (A)
                 (A) (A) (A) (A) (A) (A) (A) (A) (A) (A) (A) (A)
                 (A) (A) (A) (A) (A) (A) (A) (A) (A) (A) (A) (A)
                 (A) (A) (A) (A) (A) (A) (A) (A) (A) (A) (A) (A)
                 (A) (A) (A) (A) (A) (A) (A) (A) (A) (A) (A) (A)
                 (A) (A) (A) (A) (A) (A) (A) (A) (A) (A) (A) (A)
                 (A) (A) (A) (A) (A) (A) (A) (A) (A) (A) (A) (A)
                 (A) (A) (A) (A) (A) (A) (A) (A) (A) (A) (A) (A)
                 (A) (A) (A) (A) (A) (A) (A) (A) (A) (A) (A) (A)
                 (A) (A) (A) (A) (A) (A) (A) (A) (A) (A) (A) (A)
                 (A) (A) (A) (A) (A) (A) (A) (A) (A) (A) (A) (A)
                 (A) (A) (A) (A) (A) (A) (A) (A) (A) (A) (A) (A)
                 (A) (A) (A) (A) (A) (A) (A) (A) (A) (A) (A) (A)
                 (A) (A) (A) (A) (A) (A) (A) (A) (A) (A) (A) (A)
                 (A) (A) (A) (A) (A) (A) (A) (A) (A) (A) (A) (A)
                 (A) (A) (A) (A) (A) (A) (A) (A) (A) (A) (A) (A)
                 (A) (A) (A) (A) (A) (A) (A) (A) (A) (A) (A) (A)
                 (A) (A) (A) (A) (A) (A) (A) (A) (A) (A) (A) (A)
                 (A) (A) (A) (A) (A) (A) (A) (A) (A) (A) (A) (A)
                 (A) (A) (A) (A) (A) (A) (A) (A) (A) (A) (A) (A)
                 (A) (A) (A) (A) (A) (A) (A) (A) (A) (A) (A) (A)
                 (A) (A) (A) (A) (A) (A) (A) (A) (A) (A) (A) (A)
                 (A) (A) (A) (A) (A) (A) (A) (A) (A) (A) (A) (A)
                 (A) (A) (A) (A) (A) (A) (A) (A) (A) (A) (A) (A)
                 (A) (A) (A)
 The electronic state is 1-A.
 Alpha  occ. eigenvalues --  -19.18515 -19.18514 -14.33524 -14.33523 -10.25131
 Alpha  occ. eigenvalues --  -10.25130 -10.24017 -10.24017 -10.22564 -10.22564
 Alpha  occ. eigenvalues --  -10.19964 -10.19933 -10.19648 -10.19647 -10.19580
 Alpha  occ. eigenvalues --  -10.19580 -10.19399 -10.19399 -10.19188 -10.19188
 Alpha  occ. eigenvalues --  -10.19183 -10.19183 -10.18968 -10.18967 -10.18711
 Alpha  occ. eigenvalues --  -10.18711 -10.18631 -10.18631  -1.07976  -1.07976
 Alpha  occ. eigenvalues --   -0.91382  -0.91382  -0.87096  -0.85294  -0.83756
 Alpha  occ. eigenvalues --   -0.83265  -0.78085  -0.75349  -0.75051  -0.74854
 Alpha  occ. eigenvalues --   -0.74775  -0.74013  -0.72137  -0.70036  -0.64205
 Alpha  occ. eigenvalues --   -0.62577  -0.62386  -0.61807  -0.61580  -0.60129
 Alpha  occ. eigenvalues --   -0.58469  -0.57211  -0.54630  -0.54440  -0.51832
 Alpha  occ. eigenvalues --   -0.51322  -0.51102  -0.50556  -0.50134  -0.48545
 Alpha  occ. eigenvalues --   -0.47260  -0.45523  -0.45194  -0.44710  -0.44473
 Alpha  occ. eigenvalues --   -0.44209  -0.44178  -0.42687  -0.42547  -0.42218
 Alpha  occ. eigenvalues --   -0.42155  -0.41805  -0.41136  -0.39985  -0.39390
 Alpha  occ. eigenvalues --   -0.39252  -0.38951  -0.38534  -0.37190  -0.37101
 Alpha  occ. eigenvalues --   -0.35589  -0.35429  -0.35258  -0.34720  -0.33919
 Alpha  occ. eigenvalues --   -0.33163  -0.32544  -0.29671  -0.29247  -0.25910
 Alpha  occ. eigenvalues --   -0.25795  -0.25403  -0.25265  -0.24941  -0.22243
 Alpha  occ. eigenvalues --   -0.19667  -0.19393
 Alpha virt. eigenvalues --   -0.02071  -0.01625  -0.01242  -0.00266   0.00001
 Alpha virt. eigenvalues --    0.01317   0.02036   0.02856   0.09102   0.09120
 Alpha virt. eigenvalues --    0.10070   0.10180   0.10806   0.10968   0.13120
 Alpha virt. eigenvalues --    0.13124   0.13426   0.14119   0.15527   0.15958
 Alpha virt. eigenvalues --    0.16323   0.16576   0.16741   0.17156   0.17169
 Alpha virt. eigenvalues --    0.17460   0.17607   0.17883   0.18065   0.18291
 Alpha virt. eigenvalues --    0.18798   0.20125   0.20175   0.20816   0.24375
 Alpha virt. eigenvalues --    0.24691   0.25037   0.25261   0.27611   0.28795
 Alpha virt. eigenvalues --    0.30774   0.32355   0.32757   0.32895   0.33364
 Alpha virt. eigenvalues --    0.33623   0.33907   0.34044   0.34244   0.35176
 Alpha virt. eigenvalues --    0.35563   0.36163   0.36843   0.37137   0.38221
 Alpha virt. eigenvalues --    0.47593   0.47741   0.48271   0.48766   0.49685
 Alpha virt. eigenvalues --    0.50184   0.50752   0.51148   0.51660   0.52279
 Alpha virt. eigenvalues --    0.52935   0.53443   0.53459   0.53841   0.54463
 Alpha virt. eigenvalues --    0.55074   0.55761   0.55810   0.56483   0.56794
 Alpha virt. eigenvalues --    0.57368   0.57389   0.58159   0.58687   0.58688
 Alpha virt. eigenvalues --    0.58714   0.59062   0.59371   0.59536   0.59632
 Alpha virt. eigenvalues --    0.59735   0.60165   0.60531   0.60861   0.61085
 Alpha virt. eigenvalues --    0.61486   0.61909   0.62174   0.62496   0.63500
 Alpha virt. eigenvalues --    0.63995   0.64210   0.65532   0.65732   0.66245
 Alpha virt. eigenvalues --    0.67358   0.68028   0.68111   0.69495   0.69565
 Alpha virt. eigenvalues --    0.70196   0.70766   0.71813   0.73766   0.75013
 Alpha virt. eigenvalues --    0.75699   0.76042   0.77895   0.78045   0.78479
 Alpha virt. eigenvalues --    0.80342   0.80485   0.81468   0.81481   0.81851
 Alpha virt. eigenvalues --    0.81865   0.82273   0.82397   0.82898   0.84229
 Alpha virt. eigenvalues --    0.84296   0.84851   0.85357   0.85721   0.85992
 Alpha virt. eigenvalues --    0.86064   0.86395   0.86608   0.87534   0.88175
 Alpha virt. eigenvalues --    0.89434   0.89547   0.89748   0.90749   0.90774
 Alpha virt. eigenvalues --    0.91614   0.91706   0.93117   0.93471   0.94293
 Alpha virt. eigenvalues --    0.96903   0.98662   0.99012   0.99269   0.99706
 Alpha virt. eigenvalues --    1.00201   1.00250   1.00352   1.02227   1.04262
 Alpha virt. eigenvalues --    1.04543   1.04937   1.05854   1.06569   1.10349
 Alpha virt. eigenvalues --    1.11200   1.12720   1.13775   1.15010   1.15864
 Alpha virt. eigenvalues --    1.16079   1.16587   1.16635   1.17854   1.18168
 Alpha virt. eigenvalues --    1.18414   1.18963   1.20450   1.21747   1.22002
 Alpha virt. eigenvalues --    1.23015   1.25390   1.26417   1.26800   1.29305
 Alpha virt. eigenvalues --    1.29343   1.29981   1.31235   1.33172   1.34453
 Alpha virt. eigenvalues --    1.34875   1.36027   1.36778   1.38743   1.38873
 Alpha virt. eigenvalues --    1.38916   1.39315   1.39620   1.40008   1.40155
 Alpha virt. eigenvalues --    1.40421   1.40552   1.41165   1.41454   1.42666
 Alpha virt. eigenvalues --    1.43840   1.44697   1.45372   1.47473   1.47828
 Alpha virt. eigenvalues --    1.49696   1.50993   1.52288   1.52423   1.65983
 Alpha virt. eigenvalues --    1.67744   1.68282   1.69044   1.72750   1.74127
 Alpha virt. eigenvalues --    1.74683   1.75813   1.76054   1.76484   1.76852
 Alpha virt. eigenvalues --    1.77723   1.78161   1.79402   1.79664   1.80578
 Alpha virt. eigenvalues --    1.80713   1.80749   1.81419   1.85008   1.85249
 Alpha virt. eigenvalues --    1.86008   1.86596   1.86622   1.87807   1.89145
 Alpha virt. eigenvalues --    1.90187   1.90188   1.90557   1.91215   1.91289
 Alpha virt. eigenvalues --    1.91599   1.92317   1.92496   1.92625   1.92950
 Alpha virt. eigenvalues --    1.94442   1.94715   1.95900   1.96819   1.97190
 Alpha virt. eigenvalues --    1.97556   1.97584   1.99072   1.99200   2.00555
 Alpha virt. eigenvalues --    2.00886   2.01498   2.02049   2.02352   2.02418
 Alpha virt. eigenvalues --    2.05815   2.06529   2.06887   2.07312   2.09023
 Alpha virt. eigenvalues --    2.09044   2.13406   2.13518   2.16599   2.16616
 Alpha virt. eigenvalues --    2.17382   2.21349   2.23452   2.24073   2.24268
 Alpha virt. eigenvalues --    2.24335   2.25610   2.26205   2.26416   2.26835
 Alpha virt. eigenvalues --    2.27478   2.27709   2.28805   2.30176   2.30320
 Alpha virt. eigenvalues --    2.30755   2.31037   2.33082   2.33179   2.34846
 Alpha virt. eigenvalues --    2.35130   2.35805   2.35947   2.36199   2.40679
 Alpha virt. eigenvalues --    2.40918   2.41169   2.41211   2.41348   2.41717
 Alpha virt. eigenvalues --    2.42550   2.43164   2.44766   2.45383   2.45511
 Alpha virt. eigenvalues --    2.45844   2.46102   2.46552   2.46793   2.47707
 Alpha virt. eigenvalues --    2.47873   2.48479   2.49078   2.49224   2.49979
 Alpha virt. eigenvalues --    2.50477   2.50591   2.51575   2.51953   2.54021
 Alpha virt. eigenvalues --    2.54280   2.55213   2.56713   2.56855   2.57957
 Alpha virt. eigenvalues --    2.58565   2.59419   2.59509   2.59720   2.59763
 Alpha virt. eigenvalues --    2.63518   2.64492   2.65255   2.65379   2.67266
 Alpha virt. eigenvalues --    2.68922   2.69765   2.70374   2.70488   2.71947
 Alpha virt. eigenvalues --    2.72613   2.74691   2.76116   2.77145   2.78775
 Alpha virt. eigenvalues --    2.78935   2.81157   2.81380   2.82633   2.84245
 Alpha virt. eigenvalues --    2.84432   2.86022   2.89806   2.91248   2.93499
 Alpha virt. eigenvalues --    2.97236   2.98416   2.98538   3.00772   3.03854
 Alpha virt. eigenvalues --    3.04022   3.05525   3.06310   3.08493   3.09223
 Alpha virt. eigenvalues --    3.11334   3.13718   3.18087   3.18507   3.19845
 Alpha virt. eigenvalues --    3.20630   3.24425   3.24745   3.24995   3.25032
 Alpha virt. eigenvalues --    3.28343   3.28357   3.29539   3.32718   3.33480
 Alpha virt. eigenvalues --    3.36068   3.36465   3.37567   3.37634   3.40425
 Alpha virt. eigenvalues --    3.48733   3.48741   3.50141   3.50514   3.54397
 Alpha virt. eigenvalues --    3.54433   3.77477   3.82706   3.83619   3.85563
 Alpha virt. eigenvalues --    4.03814   4.03822   4.13475   4.13481   4.13628
 Alpha virt. eigenvalues --    4.14245   4.15139   4.15218   4.16313   4.16454
 Alpha virt. eigenvalues --    4.17268   4.17537   4.19791   4.21698   4.38216
 Alpha virt. eigenvalues --    4.42255   4.42397   4.44865   4.45215   4.45899
 Alpha virt. eigenvalues --    4.46159   4.49615   4.61367   4.64239   4.79218
 Alpha virt. eigenvalues --    4.84408   4.85988   4.90512
          Condensed to atoms (all electrons):
               1          2          3          4          5          6
     1  N    6.832585   0.297766  -0.070549   0.004703   0.000547   0.000000
     2  C    0.297766   4.581144   0.536299  -0.023823  -0.034509   0.000170
     3  C   -0.070549   0.536299   4.953051   0.495524  -0.020350   0.004425
     4  C    0.004703  -0.023823   0.495524   4.964281   0.495402  -0.055540
     5  C    0.000547  -0.034509  -0.020350   0.495402   4.628629   0.218872
     6  O    0.000000   0.000170   0.004425  -0.055540   0.218872   8.349128
     7  C   -0.000000   0.000064  -0.000196   0.001559  -0.032111   0.233143
     8  C   -0.000000   0.000000  -0.000010   0.000790  -0.001266  -0.053253
     9  C    0.000000  -0.000000   0.000001  -0.000053  -0.000032   0.004033
    10  C   -0.000000  -0.000000   0.000000   0.000017   0.000044   0.000069
    11  C    0.000000  -0.000000  -0.000000   0.000000   0.000000  -0.000001
    12  C   -0.000000   0.000000   0.000000  -0.000000  -0.000000   0.000000
    13  C   -0.000000  -0.000000   0.000000   0.000000   0.000000   0.000000
    14  C    0.000000  -0.000000   0.000000   0.000000   0.000000  -0.000000
    15  O    0.000000   0.000000   0.000000   0.000000  -0.000000  -0.000000
    16  C    0.000000   0.000000   0.000000  -0.000000   0.000000  -0.000000
    17  C    0.000000   0.000000   0.000000   0.000000  -0.000000   0.000000
    18  C    0.000000   0.000000   0.000000   0.000000   0.000000   0.000000
    19  C    0.000000   0.000000   0.000000   0.000000   0.000000   0.000000
    20  N    0.000000   0.000000   0.000000   0.000000   0.000000   0.000000
    21  C    0.000000   0.000000   0.000000   0.000000   0.000000   0.000000
    22  C    0.000000   0.000000   0.000000   0.000000   0.000000   0.000000
    23  C    0.000000   0.000000  -0.000000  -0.000000  -0.000000   0.000000
    24  C   -0.000000   0.000000   0.000000  -0.000000   0.000000   0.000000
    25  C   -0.000000   0.000000   0.000001  -0.000361  -0.000157   0.004349
    26  C    0.000000   0.000021  -0.000369   0.000012   0.002000  -0.056185
    27  C    0.004446  -0.027110  -0.039078  -0.066425   0.543957  -0.052244
    28  C   -0.070124   0.538273  -0.048074  -0.039201  -0.027423   0.004063
    29  H    0.343918  -0.025022   0.005484  -0.000190   0.000003  -0.000000
    30  H    0.344018  -0.025250  -0.009390  -0.000028  -0.000006  -0.000000
    31  H   -0.007201  -0.041523   0.364204  -0.031103   0.003423  -0.000055
    32  H   -0.000104   0.003833  -0.034990   0.364488  -0.041138  -0.006944
    33  H   -0.000000   0.000000  -0.000001  -0.000020   0.000283  -0.000817
    34  H    0.000000  -0.000000  -0.000000   0.000000  -0.000001  -0.000062
    35  H   -0.000000   0.000000   0.000000  -0.000000   0.000000  -0.000000
    36  H    0.000000   0.000000  -0.000000  -0.000000  -0.000000  -0.000000
    37  H    0.000000   0.000000  -0.000000  -0.000000  -0.000000  -0.000000
    38  H    0.000000   0.000000   0.000000   0.000000   0.000000   0.000000
    39  H    0.000000   0.000000   0.000000   0.000000   0.000000   0.000000
    40  H    0.000000   0.000000   0.000000   0.000000   0.000000   0.000000
    41  H    0.000000   0.000000   0.000000   0.000000   0.000000   0.000000
    42  H    0.000000   0.000000   0.000000  -0.000000   0.000000   0.000000
    43  H    0.000000   0.000000   0.000000  -0.000000   0.000000  -0.000000
    44  H    0.000000   0.000000  -0.000000   0.000000  -0.000000  -0.000000
    45  H    0.000000  -0.000000  -0.000000   0.000003  -0.000003  -0.000054
    46  H   -0.000000  -0.000045  -0.000224   0.001400   0.007086  -0.007128
    47  H   -0.000102   0.004196   0.000244   0.006561  -0.039750  -0.001084
    48  H   -0.007290  -0.042167   0.005389   0.000406   0.003795  -0.000065
               7          8          9         10         11         12
     1  N   -0.000000  -0.000000   0.000000  -0.000000   0.000000  -0.000000
     2  C    0.000064   0.000000  -0.000000  -0.000000  -0.000000   0.000000
     3  C   -0.000196  -0.000010   0.000001   0.000000  -0.000000   0.000000
     4  C    0.001559   0.000790  -0.000053   0.000017   0.000000  -0.000000
     5  C   -0.032111  -0.001266  -0.000032   0.000044   0.000000  -0.000000
     6  O    0.233143  -0.053253   0.004033   0.000069  -0.000001   0.000000
     7  C    4.594557   0.539490  -0.024002  -0.029844   0.000649   0.000012
     8  C    0.539490   4.971583   0.476132  -0.031382   0.005879   0.000236
     9  C   -0.024002   0.476132   4.935497   0.527373  -0.049120  -0.006566
    10  C   -0.029844  -0.031382   0.527373   4.839415   0.334484  -0.049123
    11  C    0.000649   0.005879  -0.049120   0.334484   4.839424   0.527380
    12  C    0.000012   0.000236  -0.006566  -0.049123   0.527380   4.935463
    13  C   -0.000000   0.000001   0.000236   0.005880  -0.031385   0.476159
    14  C    0.000000  -0.000000   0.000012   0.000649  -0.029845  -0.024002
    15  O   -0.000000   0.000000   0.000000  -0.000001   0.000069   0.004032
    16  C    0.000000   0.000000  -0.000000   0.000000   0.000044  -0.000032
    17  C    0.000000   0.000000  -0.000000   0.000000   0.000017  -0.000052
    18  C    0.000000   0.000000   0.000000  -0.000000   0.000000   0.000001
    19  C   -0.000000  -0.000000   0.000000  -0.000000  -0.000000  -0.000000
    20  N    0.000000  -0.000000  -0.000000   0.000000  -0.000000   0.000000
    21  C   -0.000000  -0.000000   0.000000   0.000000   0.000000  -0.000000
    22  C   -0.000000   0.000000   0.000000  -0.000000   0.000000   0.000007
    23  C   -0.000000   0.000002  -0.000149   0.006095  -0.029799  -0.040927
    24  C    0.000010  -0.000145   0.003008  -0.049550   0.526959  -0.038807
    25  C   -0.017637  -0.041548  -0.038806   0.526967  -0.049554   0.003006
    26  C    0.488823  -0.066094  -0.040927  -0.029803   0.006095  -0.000148
    27  C   -0.001639  -0.000210   0.000007   0.000000  -0.000000   0.000000
    28  C   -0.000047   0.000007  -0.000000   0.000000   0.000000   0.000000
    29  H    0.000000  -0.000000  -0.000000  -0.000000  -0.000000   0.000000
    30  H    0.000000   0.000000  -0.000000  -0.000000  -0.000000   0.000000
    31  H   -0.000007  -0.000000  -0.000000  -0.000000   0.000000   0.000000
    32  H    0.006280   0.001039   0.000068  -0.000020  -0.000000   0.000000
    33  H   -0.039858   0.360801  -0.033607   0.003908  -0.000169  -0.000004
    34  H    0.003814  -0.033903   0.366066  -0.043580  -0.006192   0.003647
    35  H   -0.000007  -0.000144   0.003648  -0.006193  -0.043579   0.366063
    36  H   -0.000000  -0.000000  -0.000004  -0.000169   0.003908  -0.033606
    37  H   -0.000000  -0.000000   0.000000  -0.000000  -0.000020   0.000067
    38  H   -0.000000  -0.000000   0.000000   0.000000  -0.000000  -0.000000
    39  H    0.000000  -0.000000   0.000000  -0.000000  -0.000000  -0.000000
    40  H   -0.000000  -0.000000   0.000000  -0.000000  -0.000000  -0.000000
    41  H   -0.000000   0.000000  -0.000000  -0.000000  -0.000000   0.000000
    42  H    0.000000  -0.000000   0.000000   0.000000   0.000000  -0.000000
    43  H    0.000000  -0.000000   0.000001  -0.000171   0.003548   0.000509
    44  H   -0.000008  -0.000015   0.000227  -0.006140  -0.042845   0.005407
    45  H    0.003401   0.000482   0.005406  -0.042843  -0.006140   0.000227
    46  H   -0.041245   0.005222   0.000509   0.003548  -0.000171   0.000001
    47  H    0.000314  -0.000015  -0.000000   0.000000   0.000000   0.000000
    48  H   -0.000001  -0.000000   0.000000  -0.000000  -0.000000  -0.000000
              13         14         15         16         17         18
     1  N   -0.000000   0.000000   0.000000   0.000000   0.000000   0.000000
     2  C   -0.000000  -0.000000   0.000000   0.000000   0.000000   0.000000
     3  C    0.000000   0.000000   0.000000   0.000000   0.000000   0.000000
     4  C    0.000000   0.000000   0.000000  -0.000000   0.000000   0.000000
     5  C    0.000000   0.000000  -0.000000   0.000000  -0.000000   0.000000
     6  O    0.000000  -0.000000  -0.000000  -0.000000   0.000000   0.000000
     7  C   -0.000000   0.000000  -0.000000   0.000000   0.000000   0.000000
     8  C    0.000001  -0.000000   0.000000   0.000000   0.000000   0.000000
     9  C    0.000236   0.000012   0.000000  -0.000000  -0.000000   0.000000
    10  C    0.005880   0.000649  -0.000001   0.000000   0.000000  -0.000000
    11  C   -0.031385  -0.029845   0.000069   0.000044   0.000017   0.000000
    12  C    0.476159  -0.024002   0.004032  -0.000032  -0.000052   0.000001
    13  C    4.971570   0.539485  -0.053257  -0.001260   0.000791  -0.000010
    14  C    0.539485   4.594559   0.233163  -0.032108   0.001553  -0.000196
    15  O   -0.053257   0.233163   8.349101   0.218868  -0.055533   0.004425
    16  C   -0.001260  -0.032108   0.218868   4.628621   0.495398  -0.020348
    17  C    0.000791   0.001553  -0.055533   0.495398   4.964285   0.495523
    18  C   -0.000010  -0.000196   0.004425  -0.020348   0.495523   4.953044
    19  C    0.000000   0.000064   0.000170  -0.034511  -0.023821   0.536300
    20  N   -0.000000  -0.000000   0.000000   0.000547   0.004703  -0.070548
    21  C    0.000007  -0.000047   0.004063  -0.027422  -0.039203  -0.048072
    22  C   -0.000210  -0.001635  -0.052247   0.543958  -0.066422  -0.039077
    23  C   -0.066089   0.488801  -0.056182   0.001998   0.000007  -0.000369
    24  C   -0.041545  -0.017636   0.004348  -0.000157  -0.000361   0.000001
    25  C   -0.000145   0.000010   0.000000   0.000000  -0.000000   0.000000
    26  C    0.000002  -0.000000   0.000000  -0.000000  -0.000000  -0.000000
    27  C    0.000000  -0.000000   0.000000   0.000000   0.000000   0.000000
    28  C   -0.000000  -0.000000   0.000000   0.000000   0.000000   0.000000
    29  H   -0.000000   0.000000   0.000000   0.000000   0.000000   0.000000
    30  H   -0.000000  -0.000000   0.000000   0.000000   0.000000   0.000000
    31  H   -0.000000  -0.000000   0.000000   0.000000   0.000000   0.000000
[...]
   314    C   21  dx2y2  Ryd( 3d)     0.00047
   315    C   21  dz2    Ryd( 3d)     0.00051

   316    C   22  S      Cor( 1S)     1.99900
   317    C   22  S      Val( 2S)     0.96590
   318    C   22  S      Ryd( 3S)     0.00079
   319    C   22  S      Ryd( 4S)     0.00005
   320    C   22  px     Val( 2p)     1.06138
   321    C   22  px     Ryd( 3p)     0.00255
   322    C   22  py     Val( 2p)     1.04428
   323    C   22  py     Ryd( 3p)     0.00349
   324    C   22  pz     Val( 2p)     1.17827
   325    C   22  pz     Ryd( 3p)     0.00433
   326    C   22  dxy    Ryd( 3d)     0.00042
   327    C   22  dxz    Ryd( 3d)     0.00057
   328    C   22  dyz    Ryd( 3d)     0.00056
   329    C   22  dx2y2  Ryd( 3d)     0.00062
   330    C   22  dz2    Ryd( 3d)     0.00053

   331    C   23  S      Cor( 1S)     1.99903
   332    C   23  S      Val( 2S)     0.96513
   333    C   23  S      Ryd( 3S)     0.00069
   334    C   23  S      Ryd( 4S)     0.00005
   335    C   23  px     Val( 2p)     1.11596
   336    C   23  px     Ryd( 3p)     0.00353
   337    C   23  py     Val( 2p)     1.15503
   338    C   23  py     Ryd( 3p)     0.00394
   339    C   23  pz     Val( 2p)     1.03199
   340    C   23  pz     Ryd( 3p)     0.00108
   341    C   23  dxy    Ryd( 3d)     0.00079
   342    C   23  dxz    Ryd( 3d)     0.00068
   343    C   23  dyz    Ryd( 3d)     0.00046
   344    C   23  dx2y2  Ryd( 3d)     0.00048
   345    C   23  dz2    Ryd( 3d)     0.00042

   346    C   24  S      Cor( 1S)     1.99908
   347    C   24  S      Val( 2S)     0.94499
   348    C   24  S      Ryd( 3S)     0.00071
   349    C   24  S      Ryd( 4S)     0.00005
   350    C   24  px     Val( 2p)     1.08123
   351    C   24  px     Ryd( 3p)     0.00384
   352    C   24  py     Val( 2p)     1.15788
   353    C   24  py     Ryd( 3p)     0.00498
   354    C   24  pz     Val( 2p)     1.07667
   355    C   24  pz     Ryd( 3p)     0.00394
   356    C   24  dxy    Ryd( 3d)     0.00067
   357    C   24  dxz    Ryd( 3d)     0.00056
   358    C   24  dyz    Ryd( 3d)     0.00044
   359    C   24  dx2y2  Ryd( 3d)     0.00058
   360    C   24  dz2    Ryd( 3d)     0.00033

   361    C   25  S      Cor( 1S)     1.99908
   362    C   25  S      Val( 2S)     0.94500
   363    C   25  S      Ryd( 3S)     0.00071
   364    C   25  S      Ryd( 4S)     0.00005
   365    C   25  px     Val( 2p)     1.08125
   366    C   25  px     Ryd( 3p)     0.00384
   367    C   25  py     Val( 2p)     1.15791
   368    C   25  py     Ryd( 3p)     0.00498
   369    C   25  pz     Val( 2p)     1.07645
   370    C   25  pz     Ryd( 3p)     0.00394
   371    C   25  dxy    Ryd( 3d)     0.00067
   372    C   25  dxz    Ryd( 3d)     0.00056
   373    C   25  dyz    Ryd( 3d)     0.00044
   374    C   25  dx2y2  Ryd( 3d)     0.00058
   375    C   25  dz2    Ryd( 3d)     0.00033

   376    C   26  S      Cor( 1S)     1.99903
   377    C   26  S      Val( 2S)     0.96513
   378    C   26  S      Ryd( 3S)     0.00069
   379    C   26  S      Ryd( 4S)     0.00005
   380    C   26  px     Val( 2p)     1.11594
   381    C   26  px     Ryd( 3p)     0.00353
   382    C   26  py     Val( 2p)     1.15517
   383    C   26  py     Ryd( 3p)     0.00394
   384    C   26  pz     Val( 2p)     1.03196
   385    C   26  pz     Ryd( 3p)     0.00107
   386    C   26  dxy    Ryd( 3d)     0.00079
   387    C   26  dxz    Ryd( 3d)     0.00068
   388    C   26  dyz    Ryd( 3d)     0.00046
   389    C   26  dx2y2  Ryd( 3d)     0.00048
   390    C   26  dz2    Ryd( 3d)     0.00042

   391    C   27  S      Cor( 1S)     1.99900
   392    C   27  S      Val( 2S)     0.96586
   393    C   27  S      Ryd( 3S)     0.00079
   394    C   27  S      Ryd( 4S)     0.00005
   395    C   27  px     Val( 2p)     1.06130
   396    C   27  px     Ryd( 3p)     0.00255
   397    C   27  py     Val( 2p)     1.04436
   398    C   27  py     Ryd( 3p)     0.00348
   399    C   27  pz     Val( 2p)     1.17836
   400    C   27  pz     Ryd( 3p)     0.00433
   401    C   27  dxy    Ryd( 3d)     0.00042
   402    C   27  dxz    Ryd( 3d)     0.00057
   403    C   27  dyz    Ryd( 3d)     0.00056
   404    C   27  dx2y2  Ryd( 3d)     0.00062
   405    C   27  dz2    Ryd( 3d)     0.00053

   406    C   28  S      Cor( 1S)     1.99905
   407    C   28  S      Val( 2S)     0.95475
   408    C   28  S      Ryd( 3S)     0.00063
   409    C   28  S      Ryd( 4S)     0.00004
   410    C   28  px     Val( 2p)     1.07435
   411    C   28  px     Ryd( 3p)     0.00267
   412    C   28  py     Val( 2p)     1.12137
   413    C   28  py     Ryd( 3p)     0.00335
   414    C   28  pz     Val( 2p)     1.13256
   415    C   28  pz     Ryd( 3p)     0.00422
   416    C   28  dxy    Ryd( 3d)     0.00040
   417    C   28  dxz    Ryd( 3d)     0.00046
   418    C   28  dyz    Ryd( 3d)     0.00059
   419    C   28  dx2y2  Ryd( 3d)     0.00047
   420    C   28  dz2    Ryd( 3d)     0.00051

   421    H   29  S      Val( 1S)     0.57927
   422    H   29  S      Ryd( 2S)     0.00115
   423    H   29  px     Ryd( 2p)     0.00039
   424    H   29  py     Ryd( 2p)     0.00039
   425    H   29  pz     Ryd( 2p)     0.00048

   426    H   30  S      Val( 1S)     0.57924
   427    H   30  S      Ryd( 2S)     0.00109
   428    H   30  px     Ryd( 2p)     0.00050
   429    H   30  py     Ryd( 2p)     0.00033
   430    H   30  pz     Ryd( 2p)     0.00043

   431    H   31  S      Val( 1S)     0.74935
   432    H   31  S      Ryd( 2S)     0.00091
   433    H   31  px     Ryd( 2p)     0.00017
   434    H   31  py     Ryd( 2p)     0.00008
   435    H   31  pz     Ryd( 2p)     0.00035

   436    H   32  S      Val( 1S)     0.74079
   437    H   32  S      Ryd( 2S)     0.00098
   438    H   32  px     Ryd( 2p)     0.00011
   439    H   32  py     Ryd( 2p)     0.00024
   440    H   32  pz     Ryd( 2p)     0.00025

   441    H   33  S      Val( 1S)     0.74448
   442    H   33  S      Ryd( 2S)     0.00119
   443    H   33  px     Ryd( 2p)     0.00015
   444    H   33  py     Ryd( 2p)     0.00030
   445    H   33  pz     Ryd( 2p)     0.00015

   446    H   34  S      Val( 1S)     0.75104
   447    H   34  S      Ryd( 2S)     0.00096
   448    H   34  px     Ryd( 2p)     0.00015
   449    H   34  py     Ryd( 2p)     0.00031
   450    H   34  pz     Ryd( 2p)     0.00014

   451    H   35  S      Val( 1S)     0.75103
   452    H   35  S      Ryd( 2S)     0.00096
   453    H   35  px     Ryd( 2p)     0.00015
   454    H   35  py     Ryd( 2p)     0.00031
   455    H   35  pz     Ryd( 2p)     0.00014

   456    H   36  S      Val( 1S)     0.74448
   457    H   36  S      Ryd( 2S)     0.00119
   458    H   36  px     Ryd( 2p)     0.00015
   459    H   36  py     Ryd( 2p)     0.00030
   460    H   36  pz     Ryd( 2p)     0.00015

   461    H   37  S      Val( 1S)     0.74074
   462    H   37  S      Ryd( 2S)     0.00098
   463    H   37  px     Ryd( 2p)     0.00011
   464    H   37  py     Ryd( 2p)     0.00024
   465    H   37  pz     Ryd( 2p)     0.00025

   466    H   38  S      Val( 1S)     0.74930
   467    H   38  S      Ryd( 2S)     0.00091
   468    H   38  px     Ryd( 2p)     0.00017
   469    H   38  py     Ryd( 2p)     0.00008
   470    H   38  pz     Ryd( 2p)     0.00035

   471    H   39  S      Val( 1S)     0.57920
   472    H   39  S      Ryd( 2S)     0.00115
   473    H   39  px     Ryd( 2p)     0.00039
   474    H   39  py     Ryd( 2p)     0.00039
   475    H   39  pz     Ryd( 2p)     0.00048

   476    H   40  S      Val( 1S)     0.57917
   477    H   40  S      Ryd( 2S)     0.00109
   478    H   40  px     Ryd( 2p)     0.00050
   479    H   40  py     Ryd( 2p)     0.00033
   480    H   40  pz     Ryd( 2p)     0.00043

   481    H   41  S      Val( 1S)     0.74961
   482    H   41  S      Ryd( 2S)     0.00089
   483    H   41  px     Ryd( 2p)     0.00011
   484    H   41  py     Ryd( 2p)     0.00022
   485    H   41  pz     Ryd( 2p)     0.00027

   486    H   42  S      Val( 1S)     0.73992
   487    H   42  S      Ryd( 2S)     0.00094
   488    H   42  px     Ryd( 2p)     0.00016
   489    H   42  py     Ryd( 2p)     0.00008
   490    H   42  pz     Ryd( 2p)     0.00034

   491    H   43  S      Val( 1S)     0.74119
   492    H   43  S      Ryd( 2S)     0.00091
   493    H   43  px     Ryd( 2p)     0.00017
   494    H   43  py     Ryd( 2p)     0.00031
   495    H   43  pz     Ryd( 2p)     0.00013

   496    H   44  S      Val( 1S)     0.75593
   497    H   44  S      Ryd( 2S)     0.00129
   498    H   44  px     Ryd( 2p)     0.00013
   499    H   44  py     Ryd( 2p)     0.00031
   500    H   44  pz     Ryd( 2p)     0.00019

   501    H   45  S      Val( 1S)     0.75592
   502    H   45  S      Ryd( 2S)     0.00129
   503    H   45  px     Ryd( 2p)     0.00013
   504    H   45  py     Ryd( 2p)     0.00031
   505    H   45  pz     Ryd( 2p)     0.00019

   506    H   46  S      Val( 1S)     0.74119
   507    H   46  S      Ryd( 2S)     0.00091
   508    H   46  px     Ryd( 2p)     0.00017
   509    H   46  py     Ryd( 2p)     0.00031
   510    H   46  pz     Ryd( 2p)     0.00013

   511    H   47  S      Val( 1S)     0.73998
   512    H   47  S      Ryd( 2S)     0.00094
   513    H   47  px     Ryd( 2p)     0.00016
   514    H   47  py     Ryd( 2p)     0.00008
   515    H   47  pz     Ryd( 2p)     0.00034

   516    H   48  S      Val( 1S)     0.74966
   517    H   48  S      Ryd( 2S)     0.00089
   518    H   48  px     Ryd( 2p)     0.00011
   519    H   48  py     Ryd( 2p)     0.00022
   520    H   48  pz     Ryd( 2p)     0.00027

 WARNING:  1 low occupancy (<1.9990e) core orbital  found on  C    2
           1 low occupancy (<1.9990e) core orbital  found on  C    4
           1 low occupancy (<1.9990e) core orbital  found on  C    5
           1 low occupancy (<1.9990e) core orbital  found on  C    7
           1 low occupancy (<1.9990e) core orbital  found on  C   14
           1 low occupancy (<1.9990e) core orbital  found on  C   16
           1 low occupancy (<1.9990e) core orbital  found on  C   17
           1 low occupancy (<1.9990e) core orbital  found on  C   19
           1 low occupancy (<1.9990e) core orbital  found on  C   22
           1 low occupancy (<1.9990e) core orbital  found on  C   27


 Summary of Natural Population Analysis:                  
                                                          
                                       Natural Population 
                Natural  -----------------------------------------------
    Atom  No    Charge         Core      Valence    Rydberg      Total
 -----------------------------------------------------------------------
      N    1   -0.84036      1.99951     5.82921    0.01163     7.84036
      C    2    0.16942      1.99899     3.81450    0.01709     5.83058
      C    3   -0.28124      1.99905     4.26909    0.01310     6.28124
      C    4   -0.27549      1.99900     4.26203    0.01446     6.27549
      C    5    0.25183      1.99869     3.72692    0.02257     5.74817
      O    6   -0.48827      1.99971     6.47677    0.01179     8.48827
      C    7    0.29886      1.99873     3.67982    0.02259     5.70114
      C    8   -0.30634      1.99904     4.29125    0.01605     6.30634
      C    9   -0.19511      1.99907     4.18328    0.01275     6.19511
      C   10   -0.07213      1.99902     4.05663    0.01648     6.07213
      C   11   -0.07211      1.99902     4.05661    0.01648     6.07211
      C   12   -0.19506      1.99907     4.18323    0.01275     6.19506
      C   13   -0.30643      1.99904     4.29133    0.01606     6.30643
      C   14    0.29878      1.99873     3.67990    0.02259     5.70122
      O   15   -0.48812      1.99971     6.47662    0.01179     8.48812
      C   16    0.25218      1.99869     3.72656    0.02257     5.74782
      C   17   -0.27560      1.99900     4.26214    0.01447     6.27560
      C   18   -0.28104      1.99905     4.26888    0.01311     6.28104
      C   19    0.16955      1.99899     3.81437    0.01709     5.83045
      N   20   -0.83990      1.99951     5.82876    0.01163     7.83990
      C   21   -0.29543      1.99905     4.28301    0.01337     6.29543
      C   22   -0.26273      1.99900     4.24982    0.01392     6.26273
      C   23   -0.27927      1.99903     4.26812    0.01212     6.27927
      C   24   -0.27595      1.99908     4.26077    0.01610     6.27595
      C   25   -0.27579      1.99908     4.26062    0.01609     6.27579
      C   26   -0.27935      1.99903     4.26820    0.01212     6.27935
      C   27   -0.26279      1.99900     4.24988    0.01391     6.26279
      C   28   -0.29544      1.99905     4.28303    0.01336     6.29544
      H   29    0.41832      0.00000     0.57927    0.00241     0.58168
      H   30    0.41842      0.00000     0.57924    0.00234     0.58158
      H   31    0.24914      0.00000     0.74935    0.00151     0.75086
      H   32    0.25764      0.00000     0.74079    0.00157     0.74236
      H   33    0.25374      0.00000     0.74448    0.00178     0.74626
      H   34    0.24740      0.00000     0.75104    0.00156     0.75260
      H   35    0.24741      0.00000     0.75103    0.00156     0.75259
      H   36    0.25374      0.00000     0.74448    0.00178     0.74626
      H   37    0.25769      0.00000     0.74074    0.00157     0.74231
      H   38    0.24920      0.00000     0.74930    0.00151     0.75080
      H   39    0.41840      0.00000     0.57920    0.00241     0.58160
      H   40    0.41849      0.00000     0.57917    0.00234     0.58151
      H   41    0.24890      0.00000     0.74961    0.00149     0.75110
      H   42    0.25856      0.00000     0.73992    0.00152     0.74144
      H   43    0.25729      0.00000     0.74119    0.00151     0.74271
      H   44    0.24216      0.00000     0.75593    0.00192     0.75784
      H   45    0.24216      0.00000     0.75592    0.00192     0.75784
      H   46    0.25730      0.00000     0.74119    0.00152     0.74270
      H   47    0.25850      0.00000     0.73998    0.00152     0.74150
      H   48    0.24884      0.00000     0.74966    0.00149     0.75116
 =======================================================================
   * Total *    0.00000     55.97392   137.56284    0.46324   194.00000

                                 Natural Population      
 --------------------------------------------------------
   Core                      55.97392 ( 99.9534% of  56)
   Valence                  137.56284 ( 99.6832% of 138)
   Natural Minimal Basis    193.53676 ( 99.7612% of 194)
   Natural Rydberg Basis      0.46324 (  0.2388% of 194)
 --------------------------------------------------------

    Atom  No          Natural Electron Configuration
 ----------------------------------------------------------------------------
      N    1      [core]2S( 1.36)2p( 4.47)3p( 0.01)
      C    2      [core]2S( 0.85)2p( 2.97)3p( 0.01)
      C    3      [core]2S( 0.96)2p( 3.31)3p( 0.01)
      C    4      [core]2S( 0.96)2p( 3.30)3p( 0.01)
      C    5      [core]2S( 0.84)2p( 2.89)3p( 0.02)3d( 0.01)
      O    6      [core]2S( 1.57)2p( 4.90)3p( 0.01)3d( 0.01)
      C    7      [core]2S( 0.84)2p( 2.84)3p( 0.02)3d( 0.01)
      C    8      [core]2S( 0.96)2p( 3.33)3p( 0.01)
      C    9      [core]2S( 0.96)2p( 3.23)3p( 0.01)
      C   10      [core]2S( 0.87)2p( 3.19)3p( 0.01)
      C   11      [core]2S( 0.87)2p( 3.19)3p( 0.01)
      C   12      [core]2S( 0.96)2p( 3.23)3p( 0.01)
      C   13      [core]2S( 0.96)2p( 3.33)3p( 0.01)
      C   14      [core]2S( 0.84)2p( 2.84)3p( 0.02)3d( 0.01)
      O   15      [core]2S( 1.57)2p( 4.90)3p( 0.01)3d( 0.01)
      C   16      [core]2S( 0.84)2p( 2.89)3p( 0.02)3d( 0.01)
      C   17      [core]2S( 0.96)2p( 3.30)3p( 0.01)
      C   18      [core]2S( 0.96)2p( 3.31)3p( 0.01)
      C   19      [core]2S( 0.85)2p( 2.97)3p( 0.01)
      N   20      [core]2S( 1.36)2p( 4.47)3p( 0.01)
      C   21      [core]2S( 0.95)2p( 3.33)3p( 0.01)
      C   22      [core]2S( 0.97)2p( 3.28)3p( 0.01)
      C   23      [core]2S( 0.97)2p( 3.30)3p( 0.01)
      C   24      [core]2S( 0.94)2p( 3.32)3p( 0.01)
      C   25      [core]2S( 0.95)2p( 3.32)3p( 0.01)
      C   26      [core]2S( 0.97)2p( 3.30)3p( 0.01)
      C   27      [core]2S( 0.97)2p( 3.28)3p( 0.01)
      C   28      [core]2S( 0.95)2p( 3.33)3p( 0.01)
      H   29            1S( 0.58)
      H   30            1S( 0.58)
      H   31            1S( 0.75)
      H   32            1S( 0.74)
      H   33            1S( 0.74)
      H   34            1S( 0.75)
      H   35            1S( 0.75)
      H   36            1S( 0.74)
      H   37            1S( 0.74)
      H   38            1S( 0.75)
      H   39            1S( 0.58)
      H   40            1S( 0.58)
      H   41            1S( 0.75)
      H   42            1S( 0.74)
      H   43            1S( 0.74)
      H   44            1S( 0.76)
      H   45            1S( 0.76)
      H   46            1S( 0.74)
      H   47            1S( 0.74)
      H   48            1S( 0.75)


 NBO analysis skipped by request.
 1\1\GINC-DRG2-W011\SP\RB3LYP TD-FC\6-31G(d,p)\C24H20N2O2\QDUEZ\18-Jul-
 2024\0\\# TD(NStates=10, Root=1) B3LYP/6-31G** SCRF=(Solvent=water) vo
 lume pop=NPA density=current Geom=AllCheck Guess=Read\\HYDATEKARGDBKU-
 UHFFFAOYSA-N_conf_0\\0,1\N,0,-8.2766922333,-2.8684912134,-0.3226119501
 \C,0,-7.4510431372,-1.8038213862,0.040692629\C,0,-7.2758996286,-0.7024
 944499,-0.8181049916\C,0,-6.4009658354,0.3293895493,-0.4854129728\C,0,
 -5.6888249685,0.2791064775,0.7120216013\O,0,-4.8839960734,1.358334786,
 1.0811943351\C,0,-3.5308838336,1.3154534955,0.8266211376\C,0,-2.785242
 3267,2.4038247071,1.2947004094\C,0,-1.412764331,2.4501181288,1.0784625
 688\C,0,-0.7414329879,1.4217625138,0.3899617229\C,0,0.7240838401,1.476
 1033545,0.1614666846\C,0,1.3813228111,2.6970683702,-0.0824713112\C,0,2
 .7537390164,2.7530595662,-0.2968355765\C,0,3.5135451433,1.5775254969,-
 0.2762338446\O,0,4.8654581071,1.7302941474,-0.4920135832\C,0,5.6840515
 597,0.6015865956,-0.5601496004\C,0,6.39963598,0.2011919097,0.567289990
 8\C,0,7.2877041363,-0.8690095706,0.4835478043\C,0,7.4727334185,-1.5586
 891318,-0.729380263\N,0,8.3119283658,-2.6715114447,-0.7973075029\C,0,6
 .7428750736,-1.1365248722,-1.8569875291\C,0,5.8572023038,-0.0648881525
 ,-1.7731797911\C,0,2.8884431464,0.3506973897,-0.0370712893\C,0,1.51087
 2586,0.3129086256,0.1798274096\C,0,-1.5141857981,0.3436218626,-0.07139
 18945\C,0,-2.8916011377,0.2794596525,0.1402633619\C,0,-5.8522991765,-0
 .8006749392,1.5797192306\C,0,-6.7248828349,-1.8338723095,1.2465879215\
 H,0,-8.6367701508,-3.4097867379,0.4530513046\H,0,-9.0151243509,-2.6292
 715913,-0.9721115165\H,0,-7.8313458029,-0.6572963403,-1.7508025826\H,0
 ,-6.2756333509,1.1805991838,-1.1471372586\H,0,-3.2933002677,3.19674681
 01,1.8341052091\H,0,-0.8489535041,3.2902462795,1.4723831625\H,0,0.8064
 877891,3.6170224813,-0.1285149412\H,0,3.25091075,3.6976250198,-0.49284
 91413\H,0,6.2666332613,0.7350918408,1.5029165916\H,0,7.8457541652,-1.1
 752876645,1.3640376555\H,0,8.6756506691,-2.8726982598,-1.7200975214\H,
 0,9.0497372396,-2.6884289816,-0.1046948371\H,0,6.8761034903,-1.6511018
 455,-2.8046288494\H,0,5.3059779476,0.2627303469,-2.6490023318\H,0,3.46
 95245207,-0.5633990474,-0.0080464193\H,0,1.0455022662,-0.6452523878,0.
 3907124806\H,0,-1.0378013296,-0.4566096797,-0.6297849212\H,0,-3.461676
 5318,-0.5618143921,-0.2356880626\H,0,-5.3039061161,-0.8244388476,2.516
 1733225\H,0,-6.8506518798,-2.6717798299,1.9267739499\\Version=ES64L-G1
 6RevA.03\State=1-A\HF=-1186.5935647\RMSD=4.762e-09\Dipole=0.0316769,-1
 .861993,-0.3709725\Quadrupole=48.5545371,-22.8713627,-25.6831743,0.686
 289,-1.5871089,0.5766596\PG=C01 [X(C24H20N2O2)]\\@


 YOU CAN WIPE THE SLATE CLEAN, BUT YOU'LL STILL
 HAVE TO EAT A LITTLE CHALK DUST.
 Job cpu time:       0 days  3 hours  0 minutes 50.1 seconds.
 Elapsed time:       0 days  1 hours  0 minutes 25.6 seconds.
 File lengths (MBytes):  RWF=   2143 Int=      0 D2E=      0 Chk=    131 Scr=      1
 Normal termination of Gaussian 16 at Thu Jul 18 01:41:56 2024.
