 Entering Gaussian System, Link 0=g16
 Initial command:
 /opt/sw/arch/manual/gaussian/G16_A03/g16/l1.exe "/scratch/1380846/Gau-47982.inp" -scrdir="/scratch/1380846/"
 Entering Link 1 = /opt/sw/arch/manual/gaussian/G16_A03/g16/l1.exe PID=     47983.
  
 Copyright (c) 1988,1990,1992,1993,1995,1998,2003,2009,2016,
            Gaussian, Inc.  All Rights Reserved.
  
 This is part of the Gaussian(R) 16 program.  It is based on
 the Gaussian(R) 09 system (copyright 2009, Gaussian, Inc.),
 the Gaussian(R) 03 system (copyright 2003, Gaussian, Inc.),
 the Gaussian(R) 98 system (copyright 1998, Gaussian, Inc.),
 the Gaussian(R) 94 system (copyright 1995, Gaussian, Inc.),
 the Gaussian 92(TM) system (copyright 1992, Gaussian, Inc.),
 the Gaussian 90(TM) system (copyright 1990, Gaussian, Inc.),
 the Gaussian 88(TM) system (copyright 1988, Gaussian, Inc.),
 the Gaussian 86(TM) system (copyright 1986, Carnegie Mellon
 University), and the Gaussian 82(TM) system (copyright 1983,
 Carnegie Mellon University). Gaussian is a federally registered
 trademark of Gaussian, Inc.
  
 This software contains proprietary and confidential information,
 including trade secrets, belonging to Gaussian, Inc.
  
 This software is provided under written license and may be
 used, copied, transmitted, or stored only in accord with that
 written license.
  
 The following legend is applicable only to US Government
 contracts under FAR:
  
                    RESTRICTED RIGHTS LEGEND
  
 Use, reproduction and disclosure by the US Government is
 subject to restrictions as set forth in subparagraphs (a)
 and (c) of the Commercial Computer Software - Restricted
 Rights clause in FAR 52.227-19.
  
 Gaussian, Inc.
 340 Quinnipiac St., Bldg. 40, Wallingford CT 06492
  
  
 ---------------------------------------------------------------
 Warning -- This program may not be used in any manner that
 competes with the business of Gaussian, Inc. or will provide
 assistance to any competitor of Gaussian, Inc.  The licensee
 of this program is prohibited from giving any competitor of
 Gaussian, Inc. access to this program.  By using this program,
 the user acknowledges that Gaussian, Inc. is engaged in the
 business of creating and licensing software in the field of
 computational chemistry and represents and warrants to the
 licensee that it is not a competitor of Gaussian, Inc. and that
 it will not use this program in any manner prohibited above.
 ---------------------------------------------------------------
  

 Cite this work as:
 Gaussian 16, Revision A.03,
 M. J. Frisch, G. W. Trucks, H. B. Schlegel, G. E. Scuseria, 
 M. A. Robb, J. R. Cheeseman, G. Scalmani, V. Barone, 
 G. A. Petersson, H. Nakatsuji, X. Li, M. Caricato, A. V. Marenich, 
 J. Bloino, B. G. Janesko, R. Gomperts, B. Mennucci, H. P. Hratchian, 
 J. V. Ortiz, A. F. Izmaylov, J. L. Sonnenberg, D. Williams-Young, 
 F. Ding, F. Lipparini, F. Egidi, J. Goings, B. Peng, A. Petrone, 
 T. Henderson, D. Ranasinghe, V. G. Zakrzewski, J. Gao, N. Rega, 
 G. Zheng, W. Liang, M. Hada, M. Ehara, K. Toyota, R. Fukuda, 
 J. Hasegawa, M. Ishida, T. Nakajima, Y. Honda, O. Kitao, H. Nakai, 
 T. Vreven, K. Throssell, J. A. Montgomery, Jr., J. E. Peralta, 
 F. Ogliaro, M. J. Bearpark, J. J. Heyd, E. N. Brothers, K. N. Kudin, 
 V. N. Staroverov, T. A. Keith, R. Kobayashi, J. Normand, 
 K. Raghavachari, A. P. Rendell, J. C. Burant, S. S. Iyengar, 
 J. Tomasi, M. Cossi, J. M. Millam, M. Klene, C. Adamo, R. Cammi, 
 J. W. Ochterski, R. L. Martin, K. Morokuma, O. Farkas, 
 J. B. Foresman, and D. J. Fox, Gaussian, Inc., Wallingford CT, 2016.
 
 ******************************************
 Gaussian 16:  ES64L-G16RevA.03 25-Dec-2016
                17-Jul-2024 
 ******************************************
 %nprocshared=8
 Will use up to    8 processors via shared memory.
 %mem=16GB
 %Chk=HYDATEKARGDBKU-UHFFFAOYSA-N_conf_4_0.chk
 -------------------------------------------------------
 # opt=CalcFc B3LYP/6-31G** SCRF=(Solvent=water) scf=xqc
 -------------------------------------------------------
 1/10=4,18=20,19=15,26=3,38=1/1,3;
 2/9=110,12=2,17=6,18=5,40=1/2;
 3/5=1,6=6,7=101,11=2,25=1,30=1,70=2201,71=2,72=1,74=-5,140=1/1,2,3;
 4//1;
 5/5=2,8=3,13=1,38=5,53=1/2,8;
 8/6=4,10=90,11=11/1;
 11/6=1,8=1,9=11,15=111,16=1/1,2,10;
 10/6=1,13=1/2;
 6/7=2,8=2,9=2,10=2,28=1/1;
 7/10=1,18=20,25=1/1,2,3,16;
 1/10=4,18=20,19=15,26=3/3(2);
 2/9=110/2;
 99//99;
 2/9=110/2;
 3/5=1,6=6,7=101,11=2,25=1,30=1,70=2205,71=1,72=1,74=-5/1,2,3;
 4/5=5,16=3,69=1/1;
 5/5=2,8=3,13=1,38=5,53=1/2,8;
 7//1,2,3,16;
 1/18=20,19=15,26=3/3(-5);
 2/9=110/2;
 6/7=2,8=2,9=2,10=2,19=2,28=1/1;
 99/9=1/99;
 ----------------------------------
 HYDATEKARGDBKU-UHFFFAOYSA-N_conf_4
 ----------------------------------
 Symbolic Z-matrix:
 Charge =  0 Multiplicity = 1
 N                    -8.94614   1.58074   0.30246 
 C                    -7.87566   0.68889   0.43425 
 C                    -7.88667  -0.52954  -0.25088 
 C                    -6.77344  -1.37378  -0.2227 
 C                    -5.61733  -0.97496   0.44429 
 O                    -4.56518  -1.8611    0.46197 
 C                    -3.3162   -1.36493   0.166 
 C                    -2.2617   -1.78304   0.97414 
 C                    -0.96169  -1.34284   0.70848 
 C                    -0.6924   -0.49065  -0.37635 
 C                     0.67717  -0.02651  -0.65418 
 C                     0.96166   1.34208  -0.80121 
 C                     2.26166   1.78413  -1.06371 
 C                     3.30129   0.86326  -1.16882 
 O                     4.55028   1.36141  -1.46135 
 C                     5.61376   0.85924  -0.74756 
 C                     5.60875   0.75854   0.64395 
 C                     6.7372    0.2682    1.30739 
 C                     7.89409  -0.06752   0.59783 
 N                     8.97346  -0.66929   1.25471 
 C                     7.87226   0.00578  -0.79797 
 C                     6.74839   0.49507  -1.46904 
 C                     3.03933  -0.50172  -1.051 
 C                     1.73765  -0.9395   -0.78743 
 C                    -1.76833  -0.10026  -1.19236 
 C                    -3.0701   -0.53896  -0.93077 
 C                    -5.57987   0.25415   1.10328 
 C                    -6.69792   1.09251   1.07033 
 H                    -9.83724   1.12824   0.12438 
 H                    -9.00432   2.26477   1.05028 
 H                    -8.76638  -0.83531  -0.81057 
 H                    -6.80319  -2.33022  -0.73667 
 H                    -2.44993  -2.44493   1.8149 
 H                    -0.15498  -1.66536   1.36385 
 H                     0.16719   2.07932  -0.70335 
 H                     2.46168   2.84585  -1.17838 
 H                     4.73365   1.04883   1.218 
 H                     6.70609   0.15695   2.38785 
 H                     9.05833  -0.40478   2.2311 
 H                     9.85387  -0.58811   0.75588 
 H                     8.73437  -0.31411  -1.37684 
 H                     6.7529    0.57243  -2.55246 
 H                     3.83528  -1.23174  -1.16999 
 H                     1.55214  -2.00871  -0.70397 
 H                    -1.59547   0.53957  -2.05569 
 H                    -3.87868  -0.23781  -1.59115 
 H                    -4.68758   0.57152   1.63497 
 H                    -6.64205   2.06422   1.55347 
 

 GradGradGradGradGradGradGradGradGradGradGradGradGradGradGradGradGradGrad
 Berny optimization.
 Initialization pass.
                           ----------------------------
                           !    Initial Parameters    !
                           ! (Angstroms and Degrees)  !
 --------------------------                            --------------------------
 ! Name  Definition              Value          Derivative Info.                !
 --------------------------------------------------------------------------------
 ! R1    R(1,2)                  1.3995         calculate D2E/DX2 analytically  !
 ! R2    R(1,29)                 1.0152         calculate D2E/DX2 analytically  !
 ! R3    R(1,30)                 1.0151         calculate D2E/DX2 analytically  !
 ! R4    R(2,3)                  1.3979         calculate D2E/DX2 analytically  !
 ! R5    R(2,28)                 1.3981         calculate D2E/DX2 analytically  !
 ! R6    R(3,4)                  1.3974         calculate D2E/DX2 analytically  !
 ! R7    R(3,31)                 1.0866         calculate D2E/DX2 analytically  !
 ! R8    R(4,5)                  1.393          calculate D2E/DX2 analytically  !
 ! R9    R(4,32)                 1.0862         calculate D2E/DX2 analytically  !
 ! R10   R(5,6)                  1.3757         calculate D2E/DX2 analytically  !
 ! R11   R(5,27)                 1.3951         calculate D2E/DX2 analytically  !
 ! R12   R(6,7)                  1.3761         calculate D2E/DX2 analytically  !
 ! R13   R(7,8)                  1.3928         calculate D2E/DX2 analytically  !
 ! R14   R(7,26)                 1.3949         calculate D2E/DX2 analytically  !
 ! R15   R(8,9)                  1.398          calculate D2E/DX2 analytically  !
 ! R16   R(8,33)                 1.0865         calculate D2E/DX2 analytically  !
 ! R17   R(9,10)                 1.4056         calculate D2E/DX2 analytically  !
 ! R18   R(9,34)                 1.0883         calculate D2E/DX2 analytically  !
 ! R19   R(10,11)                1.4725         calculate D2E/DX2 analytically  !
 ! R20   R(10,25)                1.4057         calculate D2E/DX2 analytically  !
 ! R21   R(11,12)                1.4056         calculate D2E/DX2 analytically  !
 ! R22   R(11,24)                1.4057         calculate D2E/DX2 analytically  !
 ! R23   R(12,13)                1.398          calculate D2E/DX2 analytically  !
 ! R24   R(12,35)                1.0882         calculate D2E/DX2 analytically  !
 ! R25   R(13,14)                1.3928         calculate D2E/DX2 analytically  !
 ! R26   R(13,36)                1.0865         calculate D2E/DX2 analytically  !
 ! R27   R(14,15)                1.3761         calculate D2E/DX2 analytically  !
 ! R28   R(14,23)                1.3949         calculate D2E/DX2 analytically  !
 ! R29   R(15,16)                1.3757         calculate D2E/DX2 analytically  !
 ! R30   R(16,17)                1.3952         calculate D2E/DX2 analytically  !
 ! R31   R(16,22)                1.393          calculate D2E/DX2 analytically  !
 ! R32   R(17,18)                1.3979         calculate D2E/DX2 analytically  !
 ! R33   R(17,37)                1.0861         calculate D2E/DX2 analytically  !
 ! R34   R(18,19)                1.3981         calculate D2E/DX2 analytically  !
 ! R35   R(18,38)                1.0866         calculate D2E/DX2 analytically  !
 ! R36   R(19,20)                1.3995         calculate D2E/DX2 analytically  !
 ! R37   R(19,21)                1.3979         calculate D2E/DX2 analytically  !
 ! R38   R(20,39)                1.0151         calculate D2E/DX2 analytically  !
 ! R39   R(20,40)                1.0152         calculate D2E/DX2 analytically  !
 ! R40   R(21,22)                1.3974         calculate D2E/DX2 analytically  !
 ! R41   R(21,41)                1.0866         calculate D2E/DX2 analytically  !
 ! R42   R(22,42)                1.0862         calculate D2E/DX2 analytically  !
 ! R43   R(23,24)                1.3984         calculate D2E/DX2 analytically  !
 ! R44   R(23,43)                1.0866         calculate D2E/DX2 analytically  !
 ! R45   R(24,44)                1.0884         calculate D2E/DX2 analytically  !
 ! R46   R(25,26)                1.3984         calculate D2E/DX2 analytically  !
 ! R47   R(25,45)                1.0884         calculate D2E/DX2 analytically  !
 ! R48   R(26,46)                1.0865         calculate D2E/DX2 analytically  !
 ! R49   R(27,28)                1.3978         calculate D2E/DX2 analytically  !
 ! R50   R(27,47)                1.0861         calculate D2E/DX2 analytically  !
 ! R51   R(28,48)                1.0866         calculate D2E/DX2 analytically  !
 ! A1    A(2,1,29)             113.8209         calculate D2E/DX2 analytically  !
 ! A2    A(2,1,30)             113.8201         calculate D2E/DX2 analytically  !
 ! A3    A(29,1,30)            112.2885         calculate D2E/DX2 analytically  !
 ! A4    A(1,2,3)              120.2164         calculate D2E/DX2 analytically  !
 ! A5    A(1,2,28)             120.2124         calculate D2E/DX2 analytically  !
 ! A6    A(3,2,28)             118.768          calculate D2E/DX2 analytically  !
 ! A7    A(2,3,4)              120.6915         calculate D2E/DX2 analytically  !
 ! A8    A(2,3,31)             120.2725         calculate D2E/DX2 analytically  !
 ! A9    A(4,3,31)             119.0354         calculate D2E/DX2 analytically  !
 ! A10   A(3,4,5)              119.8573         calculate D2E/DX2 analytically  !
 ! A11   A(3,4,32)             120.0393         calculate D2E/DX2 analytically  !
 ! A12   A(5,4,32)             120.0921         calculate D2E/DX2 analytically  !
 ! A13   A(4,5,6)              117.1601         calculate D2E/DX2 analytically  !
 ! A14   A(4,5,27)             120.0446         calculate D2E/DX2 analytically  !
 ! A15   A(6,5,27)             122.7432         calculate D2E/DX2 analytically  !
 ! A16   A(5,6,7)              117.3308         calculate D2E/DX2 analytically  !
 ! A17   A(6,7,8)              117.0085         calculate D2E/DX2 analytically  !
 ! A18   A(6,7,26)             122.8704         calculate D2E/DX2 analytically  !
 ! A19   A(8,7,26)             120.0268         calculate D2E/DX2 analytically  !
 ! A20   A(7,8,9)              119.9513         calculate D2E/DX2 analytically  !
 ! A21   A(7,8,33)             120.0477         calculate D2E/DX2 analytically  !
 ! A22   A(9,8,33)             119.9994         calculate D2E/DX2 analytically  !
 ! A23   A(8,9,10)             121.0467         calculate D2E/DX2 analytically  !
 ! A24   A(8,9,34)             118.7887         calculate D2E/DX2 analytically  !
 ! A25   A(10,9,34)            120.1626         calculate D2E/DX2 analytically  !
 ! A26   A(9,10,11)            120.9919         calculate D2E/DX2 analytically  !
 ! A27   A(9,10,25)            118.0207         calculate D2E/DX2 analytically  !
 ! A28   A(11,10,25)           120.9866         calculate D2E/DX2 analytically  !
 ! A29   A(10,11,12)           120.9903         calculate D2E/DX2 analytically  !
 ! A30   A(10,11,24)           120.9871         calculate D2E/DX2 analytically  !
 ! A31   A(12,11,24)           118.0216         calculate D2E/DX2 analytically  !
 ! A32   A(11,12,13)           121.0476         calculate D2E/DX2 analytically  !
 ! A33   A(11,12,35)           120.1632         calculate D2E/DX2 analytically  !
 ! A34   A(13,12,35)           118.7873         calculate D2E/DX2 analytically  !
 ! A35   A(12,13,14)           119.9492         calculate D2E/DX2 analytically  !
 ! A36   A(12,13,36)           120.0015         calculate D2E/DX2 analytically  !
 ! A37   A(14,13,36)           120.0479         calculate D2E/DX2 analytically  !
 ! A38   A(13,14,15)           117.0124         calculate D2E/DX2 analytically  !
 ! A39   A(13,14,23)           120.0292         calculate D2E/DX2 analytically  !
 ! A40   A(15,14,23)           122.8637         calculate D2E/DX2 analytically  !
 ! A41   A(14,15,16)           117.3346         calculate D2E/DX2 analytically  !
 ! A42   A(15,16,17)           122.7554         calculate D2E/DX2 analytically  !
 ! A43   A(15,16,22)           117.151          calculate D2E/DX2 analytically  !
 ! A44   A(17,16,22)           120.0412         calculate D2E/DX2 analytically  !
 ! A45   A(16,17,18)           119.722          calculate D2E/DX2 analytically  !
 ! A46   A(16,17,37)           120.7151         calculate D2E/DX2 analytically  !
 ! A47   A(18,17,37)           119.5606         calculate D2E/DX2 analytically  !
 ! A48   A(17,18,19)           120.755          calculate D2E/DX2 analytically  !
 ! A49   A(17,18,38)           118.9942         calculate D2E/DX2 analytically  !
 ! A50   A(19,18,38)           120.2495         calculate D2E/DX2 analytically  !
 ! A51   A(18,19,20)           120.2144         calculate D2E/DX2 analytically  !
 ! A52   A(18,19,21)           118.7679         calculate D2E/DX2 analytically  !
 ! A53   A(20,19,21)           120.2148         calculate D2E/DX2 analytically  !
 ! A54   A(19,20,39)           113.821          calculate D2E/DX2 analytically  !
 ! A55   A(19,20,40)           113.8192         calculate D2E/DX2 analytically  !
 ! A56   A(39,20,40)           112.2894         calculate D2E/DX2 analytically  !
 ! A57   A(19,21,22)           120.6908         calculate D2E/DX2 analytically  !
 ! A58   A(19,21,41)           120.273          calculate D2E/DX2 analytically  !
 ! A59   A(22,21,41)           119.0356         calculate D2E/DX2 analytically  !
 ! A60   A(16,22,21)           119.8599         calculate D2E/DX2 analytically  !
 ! A61   A(16,22,42)           120.0906         calculate D2E/DX2 analytically  !
 ! A62   A(21,22,42)           120.0383         calculate D2E/DX2 analytically  !
 ! A63   A(14,23,24)           119.807          calculate D2E/DX2 analytically  !
 ! A64   A(14,23,43)           120.7066         calculate D2E/DX2 analytically  !
 ! A65   A(24,23,43)           119.4844         calculate D2E/DX2 analytically  !
 ! A66   A(11,24,23)           121.1173         calculate D2E/DX2 analytically  !
 ! A67   A(11,24,44)           120.1453         calculate D2E/DX2 analytically  !
 ! A68   A(23,24,44)           118.7281         calculate D2E/DX2 analytically  !
 ! A69   A(10,25,26)           121.1187         calculate D2E/DX2 analytically  !
 ! A70   A(10,25,45)           120.1441         calculate D2E/DX2 analytically  !
 ! A71   A(26,25,45)           118.7281         calculate D2E/DX2 analytically  !
 ! A72   A(7,26,25)            119.8078         calculate D2E/DX2 analytically  !
 ! A73   A(7,26,46)            120.7106         calculate D2E/DX2 analytically  !
 ! A74   A(25,26,46)           119.4797         calculate D2E/DX2 analytically  !
 ! A75   A(5,27,28)            119.7209         calculate D2E/DX2 analytically  !
 ! A76   A(5,27,47)            120.7128         calculate D2E/DX2 analytically  !
 ! A77   A(28,27,47)           119.564          calculate D2E/DX2 analytically  !
 ! A78   A(2,28,27)            120.7546         calculate D2E/DX2 analytically  !
 ! A79   A(2,28,48)            120.2501         calculate D2E/DX2 analytically  !
 ! A80   A(27,28,48)           118.9941         calculate D2E/DX2 analytically  !
 ! D1    D(29,1,2,3)            29.9909         calculate D2E/DX2 analytically  !
 ! D2    D(29,1,2,28)         -160.3973         calculate D2E/DX2 analytically  !
 ! D3    D(30,1,2,3)           160.3891         calculate D2E/DX2 analytically  !
 ! D4    D(30,1,2,28)          -29.999          calculate D2E/DX2 analytically  !
 ! D5    D(1,2,3,4)            174.2371         calculate D2E/DX2 analytically  !
 ! D6    D(1,2,3,31)            -6.0466         calculate D2E/DX2 analytically  !
 ! D7    D(28,2,3,4)             4.4766         calculate D2E/DX2 analytically  !
 ! D8    D(28,2,3,31)         -175.8071         calculate D2E/DX2 analytically  !
 ! D9    D(1,2,28,27)         -174.2311         calculate D2E/DX2 analytically  !
 ! D10   D(1,2,28,48)            6.1744         calculate D2E/DX2 analytically  !
 ! D11   D(3,2,28,27)           -4.4701         calculate D2E/DX2 analytically  !
 ! D12   D(3,2,28,48)          175.9353         calculate D2E/DX2 analytically  !
 ! D13   D(2,3,4,5)             -2.8686         calculate D2E/DX2 analytically  !
 ! D14   D(2,3,4,32)           178.3493         calculate D2E/DX2 analytically  !
 ! D15   D(31,3,4,5)           177.4117         calculate D2E/DX2 analytically  !
 ! D16   D(31,3,4,32)           -1.3705         calculate D2E/DX2 analytically  !
 ! D17   D(3,4,5,6)            178.6159         calculate D2E/DX2 analytically  !
 ! D18   D(3,4,5,27)             1.1711         calculate D2E/DX2 analytically  !
 ! D19   D(32,4,5,6)            -2.6026         calculate D2E/DX2 analytically  !
 ! D20   D(32,4,5,27)          179.9526         calculate D2E/DX2 analytically  !
 ! D21   D(4,5,6,7)            133.4823         calculate D2E/DX2 analytically  !
 ! D22   D(27,5,6,7)           -49.1475         calculate D2E/DX2 analytically  !
 ! D23   D(4,5,27,28)           -1.1602         calculate D2E/DX2 analytically  !
 ! D24   D(4,5,27,47)          179.39           calculate D2E/DX2 analytically  !
 ! D25   D(6,5,27,28)         -178.4572         calculate D2E/DX2 analytically  !
 ! D26   D(6,5,27,47)            2.0931         calculate D2E/DX2 analytically  !
 ! D27   D(5,6,7,8)            136.211          calculate D2E/DX2 analytically  !
 ! D28   D(5,6,7,26)           -47.324          calculate D2E/DX2 analytically  !
 ! D29   D(6,7,8,9)            178.4365         calculate D2E/DX2 analytically  !
 ! D30   D(6,7,8,33)            -2.0156         calculate D2E/DX2 analytically  !
 ! D31   D(26,7,8,9)             1.8657         calculate D2E/DX2 analytically  !
 ! D32   D(26,7,8,33)         -178.5865         calculate D2E/DX2 analytically  !
 ! D33   D(6,7,26,25)         -178.2689         calculate D2E/DX2 analytically  !
 ! D34   D(6,7,26,46)            1.2303         calculate D2E/DX2 analytically  !
 ! D35   D(8,7,26,25)           -1.9067         calculate D2E/DX2 analytically  !
 ! D36   D(8,7,26,46)          177.5925         calculate D2E/DX2 analytically  !
 ! D37   D(7,8,9,10)            -0.7073         calculate D2E/DX2 analytically  !
 ! D38   D(7,8,9,34)           178.7936         calculate D2E/DX2 analytically  !
 ! D39   D(33,8,9,10)          179.7447         calculate D2E/DX2 analytically  !
 ! D40   D(33,8,9,34)           -0.7544         calculate D2E/DX2 analytically  !
 ! D41   D(8,9,10,11)          179.9314         calculate D2E/DX2 analytically  !
 ! D42   D(8,9,10,25)           -0.3958         calculate D2E/DX2 analytically  !
 ! D43   D(34,9,10,11)           0.4373         calculate D2E/DX2 analytically  !
 ! D44   D(34,9,10,25)        -179.8899         calculate D2E/DX2 analytically  !
 ! D45   D(9,10,11,12)        -127.2426         calculate D2E/DX2 analytically  !
 ! D46   D(9,10,11,24)          53.1055         calculate D2E/DX2 analytically  !
 ! D47   D(25,10,11,12)         53.0943         calculate D2E/DX2 analytically  !
 ! D48   D(25,10,11,24)       -126.5576         calculate D2E/DX2 analytically  !
 ! D49   D(9,10,25,26)           0.3518         calculate D2E/DX2 analytically  !
 ! D50   D(9,10,25,45)        -178.5365         calculate D2E/DX2 analytically  !
 ! D51   D(11,10,25,26)       -179.9754         calculate D2E/DX2 analytically  !
 ! D52   D(11,10,25,45)          1.1363         calculate D2E/DX2 analytically  !
 ! D53   D(10,11,12,13)        179.9381         calculate D2E/DX2 analytically  !
 ! D54   D(10,11,12,35)          0.4404         calculate D2E/DX2 analytically  !
 ! D55   D(24,11,12,13)         -0.3999         calculate D2E/DX2 analytically  !
 ! D56   D(24,11,12,35)       -179.8976         calculate D2E/DX2 analytically  !
 ! D57   D(10,11,24,23)       -179.9876         calculate D2E/DX2 analytically  !
 ! D58   D(10,11,24,44)          1.1321         calculate D2E/DX2 analytically  !
 ! D59   D(12,11,24,23)          0.3504         calculate D2E/DX2 analytically  !
 ! D60   D(12,11,24,44)       -178.5299         calculate D2E/DX2 analytically  !
 ! D61   D(11,12,13,14)         -0.702          calculate D2E/DX2 analytically  !
 ! D62   D(11,12,13,36)        179.7434         calculate D2E/DX2 analytically  !
 ! D63   D(35,12,13,14)        178.8025         calculate D2E/DX2 analytically  !
 ! D64   D(35,12,13,36)         -0.7521         calculate D2E/DX2 analytically  !
 ! D65   D(12,13,14,15)        178.4265         calculate D2E/DX2 analytically  !
 ! D66   D(12,13,14,23)          1.8648         calculate D2E/DX2 analytically  !
 ! D67   D(36,13,14,15)         -2.0191         calculate D2E/DX2 analytically  !
 ! D68   D(36,13,14,23)       -178.5808         calculate D2E/DX2 analytically  !
 ! D69   D(13,14,15,16)        136.1391         calculate D2E/DX2 analytically  !
 ! D70   D(23,14,15,16)        -47.4049         calculate D2E/DX2 analytically  !
 ! D71   D(13,14,23,24)         -1.9111         calculate D2E/DX2 analytically  !
 ! D72   D(13,14,23,43)        177.581          calculate D2E/DX2 analytically  !
 ! D73   D(15,14,23,24)       -178.2641         calculate D2E/DX2 analytically  !
 ! D74   D(15,14,23,43)          1.2281         calculate D2E/DX2 analytically  !
 ! D75   D(14,15,16,17)        -49.0284         calculate D2E/DX2 analytically  !
 ! D76   D(14,15,16,22)        133.6066         calculate D2E/DX2 analytically  !
 ! D77   D(15,16,17,18)       -178.4569         calculate D2E/DX2 analytically  !
 ! D78   D(15,16,17,37)          2.0929         calculate D2E/DX2 analytically  !
 ! D79   D(22,16,17,18)         -1.1655         calculate D2E/DX2 analytically  !
 ! D80   D(22,16,17,37)        179.3843         calculate D2E/DX2 analytically  !
 ! D81   D(15,16,22,21)        178.6108         calculate D2E/DX2 analytically  !
 ! D82   D(15,16,22,42)         -2.6068         calculate D2E/DX2 analytically  !
 ! D83   D(17,16,22,21)          1.1707         calculate D2E/DX2 analytically  !
 ! D84   D(17,16,22,42)        179.9531         calculate D2E/DX2 analytically  !
 ! D85   D(16,17,18,19)          2.8563         calculate D2E/DX2 analytically  !
 ! D86   D(16,17,18,38)       -177.5511         calculate D2E/DX2 analytically  !
 ! D87   D(37,17,18,19)       -177.6871         calculate D2E/DX2 analytically  !
 ! D88   D(37,17,18,38)          1.9055         calculate D2E/DX2 analytically  !
 ! D89   D(17,18,19,20)       -174.2354         calculate D2E/DX2 analytically  !
 ! D90   D(17,18,19,21)         -4.473          calculate D2E/DX2 analytically  !
 ! D91   D(38,18,19,20)          6.1771         calculate D2E/DX2 analytically  !
 ! D92   D(38,18,19,21)        175.9395         calculate D2E/DX2 analytically  !
 ! D93   D(18,19,20,39)        -29.9741         calculate D2E/DX2 analytically  !
 ! D94   D(18,19,20,40)       -160.3729         calculate D2E/DX2 analytically  !
 ! D95   D(21,19,20,39)        160.4124         calculate D2E/DX2 analytically  !
 ! D96   D(21,19,20,40)         30.0135         calculate D2E/DX2 analytically  !
 ! D97   D(18,19,21,22)          4.4736         calculate D2E/DX2 analytically  !
 ! D98   D(18,19,21,41)       -175.8071         calculate D2E/DX2 analytically  !
 ! D99   D(20,19,21,22)        174.2361         calculate D2E/DX2 analytically  !
 ! D100  D(20,19,21,41)         -6.0447         calculate D2E/DX2 analytically  !
 ! D101  D(19,21,22,16)         -2.864          calculate D2E/DX2 analytically  !
 ! D102  D(19,21,22,42)        178.353          calculate D2E/DX2 analytically  !
 ! D103  D(41,21,22,16)        177.4133         calculate D2E/DX2 analytically  !
 ! D104  D(41,21,22,42)         -1.3697         calculate D2E/DX2 analytically  !
 ! D105  D(14,23,24,11)          0.7986         calculate D2E/DX2 analytically  !
 ! D106  D(14,23,24,44)        179.6944         calculate D2E/DX2 analytically  !
 ! D107  D(43,23,24,11)       -178.6998         calculate D2E/DX2 analytically  !
 ! D108  D(43,23,24,44)          0.196          calculate D2E/DX2 analytically  !
 ! D109  D(10,25,26,7)           0.793          calculate D2E/DX2 analytically  !
 ! D110  D(10,25,26,46)       -178.7124         calculate D2E/DX2 analytically  !
 ! D111  D(45,25,26,7)         179.6966         calculate D2E/DX2 analytically  !
 ! D112  D(45,25,26,46)          0.1913         calculate D2E/DX2 analytically  !
 ! D113  D(5,27,28,2)            2.8493         calculate D2E/DX2 analytically  !
 ! D114  D(5,27,28,48)        -177.5511         calculate D2E/DX2 analytically  !
 ! D115  D(47,27,28,2)        -177.6946         calculate D2E/DX2 analytically  !
 ! D116  D(47,27,28,48)          1.905          calculate D2E/DX2 analytically  !
 --------------------------------------------------------------------------------
 Trust Radius=3.00D-01 FncErr=1.00D-07 GrdErr=1.00D-06 EigMax=2.50D+02 EigMin=1.00D-04
 Number of steps in this run=    257 maximum allowed number of steps=    288.
 GradGradGradGradGradGradGradGradGradGradGradGradGradGradGradGradGradGrad

                          Input orientation:                          
 ---------------------------------------------------------------------
 Center     Atomic      Atomic             Coordinates (Angstroms)
 Number     Number       Type             X           Y           Z
 ---------------------------------------------------------------------
      1          7           0       -8.946135    1.580745    0.302463
      2          6           0       -7.875660    0.688889    0.434247
      3          6           0       -7.886669   -0.529543   -0.250885
      4          6           0       -6.773436   -1.373776   -0.222699
      5          6           0       -5.617333   -0.974964    0.444286
      6          8           0       -4.565177   -1.861104    0.461968
      7          6           0       -3.316201   -1.364926    0.165996
      8          6           0       -2.261697   -1.783038    0.974138
      9          6           0       -0.961694   -1.342844    0.708481
     10          6           0       -0.692405   -0.490654   -0.376354
     11          6           0        0.677174   -0.026514   -0.654182
     12          6           0        0.961661    1.342084   -0.801212
     13          6           0        2.261660    1.784131   -1.063714
     14          6           0        3.301290    0.863264   -1.168824
     15          8           0        4.550279    1.361410   -1.461347
     16          6           0        5.613760    0.859240   -0.747557
     17          6           0        5.608747    0.758536    0.643946
     18          6           0        6.737204    0.268201    1.307388
     19          6           0        7.894088   -0.067519    0.597827
     20          7           0        8.973461   -0.669292    1.254706
     21          6           0        7.872265    0.005782   -0.797974
     22          6           0        6.748388    0.495068   -1.469036
     23          6           0        3.039331   -0.501723   -1.051004
     24          6           0        1.737655   -0.939497   -0.787430
     25          6           0       -1.768331   -0.100259   -1.192363
     26          6           0       -3.070101   -0.538962   -0.930775
     27          6           0       -5.579874    0.254150    1.103279
     28          6           0       -6.697923    1.092510    1.070334
     29          1           0       -9.837241    1.128243    0.124385
     30          1           0       -9.004316    2.264770    1.050284
     31          1           0       -8.766377   -0.835311   -0.810568
     32          1           0       -6.803193   -2.330223   -0.736672
     33          1           0       -2.449929   -2.444927    1.814897
     34          1           0       -0.154976   -1.665362    1.363847
     35          1           0        0.167187    2.079319   -0.703347
     36          1           0        2.461677    2.845850   -1.178385
     37          1           0        4.733654    1.048827    1.217999
     38          1           0        6.706087    0.156947    2.387852
     39          1           0        9.058326   -0.404782    2.231104
     40          1           0        9.853875   -0.588109    0.755875
     41          1           0        8.734369   -0.314112   -1.376836
     42          1           0        6.752904    0.572428   -2.552461
     43          1           0        3.835279   -1.231744   -1.169993
     44          1           0        1.552139   -2.008714   -0.703973
     45          1           0       -1.595473    0.539574   -2.055692
     46          1           0       -3.878684   -0.237814   -1.591147
     47          1           0       -4.687582    0.571522    1.634972
     48          1           0       -6.642049    2.064221    1.553466
 ---------------------------------------------------------------------
                    Distance matrix (angstroms):
                    1          2          3          4          5
     1  N    0.000000
     2  C    1.399532   0.000000
     3  C    2.425278   1.397892   0.000000
     4  C    3.704809   2.429210   1.397430   0.000000
     5  C    4.199129   2.805093   2.414859   1.393016   0.000000
     6  O    5.573559   4.178819   3.648770   2.362766   1.375714
     7  C    6.355451   5.007872   4.664851   3.479028   2.350474
     8  C    7.513181   6.157799   5.891709   4.685692   3.491994
     9  C    8.512551   7.211524   7.038261   5.885949   4.677618
    10  C    8.536718   7.324449   7.195463   6.146744   5.016266
    11  C    9.803394   8.651442   8.588079   7.583725   6.459645
    12  C    9.971935   8.947138   9.060838   8.218412   7.085418
    13  C   11.292585  10.305760  10.440419   9.607946   8.483230
    14  C   12.356330  11.292672  11.311629  10.363378   9.247867
    15  O   13.612947  12.587673  12.637982  11.715033  10.605207
    16  C   14.615529  13.542162  13.580758  12.597796  11.442126
    17  C   14.582087  13.486218  13.586248  12.594296  11.360888
    18  C   15.770218  14.644970  14.728281  13.695789  12.446887
    19  C   16.923272  15.788726  15.810316  14.748418  13.542730
    20  N   18.085391  16.923672  16.927797  15.831733  14.616480
    21  C   16.927790  15.810824  15.777512  14.721776  13.582133
    22  C   15.831455  14.748655  14.721366  13.707139  12.598923
    23  C   12.240096  11.079736  10.955293   9.886201   8.797595
    24  C   11.030995   9.826493   9.647982   8.540854   7.457495
    25  C    7.522044   6.369308   6.205217   5.254823   4.273002
    26  C    6.367245   5.144346   4.864325   3.861732   2.927333
    27  C    3.705789   2.430480   2.787335   2.415150   1.395133
    28  C    2.425378   1.398064   2.406199   2.785714   2.415380
    29  H    1.015155   2.033924   2.587241   3.970827   4.725827
    30  H    1.015141   2.033905   3.278774   4.453799   4.725967
    31  H    2.666172   2.160122   1.086566   2.146473   3.392733
    32  H    4.579047   3.411198   2.156933   1.086207   2.153521
    33  H    7.790647   6.416038   6.123258   4.898150   3.751242
    34  H    9.431237   8.124999   7.979757   6.812207   5.582077
    35  H    9.182204   8.241044   8.477941   7.767054   6.641263
    36  H   11.572881  10.682397  10.924367  10.198328   9.083066
    37  H   13.720706  12.638774  12.803180  11.847267  10.575315
    38  H   15.854593  14.721647  14.845293  13.815051  12.526985
    39  H   18.215998  17.064134  17.126257  16.050071  14.795026
    40  H   18.930132  17.778374  17.769184  16.674602  15.479180
    41  H   17.860872  16.738551  16.660524  15.586755  14.481870
    42  H   15.988344  14.930803  14.860306  13.862806  12.821766
    43  H   13.169767  11.975329  11.778875  10.651872   9.592899
    44  H   11.140507   9.871981   9.564745   8.363611   7.334063
    45  H    7.789555   6.757428   6.631703   5.816534   4.971828
    46  H    5.707187   4.575677   4.236196   3.397447   2.776559
    47  H    4.574865   3.408718   3.873365   3.403809   2.161895
    48  H    2.666003   2.160089   3.395934   3.871930   3.393666
                    6          7          8          9         10
     6  O    0.000000
     7  C    1.376130   0.000000
     8  C    2.361024   1.392799   0.000000
     9  C    3.648898   2.416295   1.397981   0.000000
    10  C    4.192766   2.818298   2.440648   1.405565   0.000000
    11  C    5.665136   4.290814   3.791275   2.505088   1.472536
    12  C    6.511680   5.153979   4.827866   3.631433   2.505068
    13  C    7.888038   6.522367   6.110506   4.827904   3.791254
    14  C    8.483099   7.108991   6.522424   5.154049   4.290769
    15  O    9.857752   8.483080   7.888102   6.511758   5.665075
    16  C   10.605376   9.248011   8.483436   7.085607   6.459700
    17  C   10.507348   9.186524   8.277229   6.898599   6.504307
    18  C   11.532237  10.248943   9.235738   7.888421   7.655712
    19  C   12.588435  11.293375  10.306531   8.947825   8.651932
    20  N   13.614094  12.357386  11.293711   9.972930   9.804143
    21  C   12.639726  11.313260  10.442099   9.062396   8.589399
    22  C   11.716530  10.364789   9.609396   8.219785   7.584919
    23  C    7.871820   6.528322   5.817548   4.451008   3.792246
    24  C    6.491228   5.160568   4.450786   3.112382   2.505121
    25  C    3.695907   2.416696   2.787271   2.409956   1.405666
    26  C    2.433730   1.394879   2.414526   2.789045   2.441958
    27  C    2.432116   2.936686   3.895781   4.902433   5.160562
    28  C    3.693582   4.277016   5.287545   6.242292   6.376956
    29  H    6.069993   6.981518   8.160056   9.231619   9.300516
    30  H    6.088917   6.805242   7.864697   8.821309   8.872177
    31  H    4.507958   5.562247   6.811331   7.967320   8.092982
    32  H    2.581768   3.729038   4.883797   6.098073   6.391837
    33  H    2.577895   2.153068   1.086464   2.157217   3.421937
    34  H    4.505727   3.393884   2.145692   1.088263   2.167271
    35  H    6.267389   4.975196   4.861197   3.870250   2.729575
    36  H    8.615268   7.274742   6.954870   5.729301   4.660873
    37  H    9.772796   8.469538   7.550752   6.198119   5.861234
    38  H   11.611329  10.377813   9.283495   7.991528   7.924512
    39  H   13.814867  12.582347  11.472683  10.178366  10.093708
    40  H   14.478120  13.206146  12.176312  10.841974  10.607330
    41  H   13.514892  12.194292  11.340118   9.970981   9.481360
    42  H   11.962768  10.608026   9.962337   8.591684   7.829317
    43  H    8.580621   7.276418   6.486473   5.152859   4.656071
    44  H    6.229187   4.987188   4.172809   2.959353   2.729436
    45  H    4.573949   3.394690   3.875339   3.403796   2.167275
    46  H    2.705850   2.162018   3.403389   3.875334   3.419361
    47  H    2.703441   2.790772   3.444644   4.290154   4.597291
    48  H    4.573067   4.974474   5.858712   6.677464   6.756468
                   11         12         13         14         15
    11  C    0.000000
    12  C    1.405564   0.000000
    13  C    2.440644   1.397966   0.000000
    14  C    2.818252   2.416251   1.392794   0.000000
    15  O    4.192706   3.648880   2.361055   1.376115   0.000000
    16  C    5.016289   4.677397   3.491699   2.350532   1.375742
    17  C    5.159637   4.901471   3.894989   2.936233   2.432298
    18  C    6.376407   6.241499   5.286839   4.276825   3.693730
    19  C    7.324825   7.211299   6.157400   5.008115   4.178888
    20  N    8.537294   8.512424   7.512831   6.355765   5.573620
    21  C    7.196600   7.038619   5.891692   4.665471   3.648751
    22  C    6.147818   5.886394   4.685798   3.479681   2.362688
    23  C    2.441941   2.789038   2.414552   1.394881   2.433641
    24  C    1.405672   2.409973   2.787304   2.416684   3.695834
    25  C    2.505109   3.112268   4.450652   5.160425   6.491044
    26  C    3.792253   4.450868   5.817397   6.528210   7.871665
    27  C    6.505236   6.899447   8.278065   9.187412  10.508251
    28  C    7.656254   7.888866   9.236158  10.249421  11.532726
    29  H   10.606251  10.840607  12.174776  13.204681  14.476520
    30  H   10.093882  10.178413  11.472673  12.582393  13.814898
    31  H    9.479413   9.968744  11.337687  12.191886  13.512306
    32  H    7.827501   8.589701   9.960242  10.605927  11.960545
    33  H    4.660885   5.729261   6.954883   7.274836   8.615387
    34  H    2.729604   3.870283   4.861294   4.975353   6.267574
    35  H    2.167264   1.088247   2.145650   3.393827   4.505713
    36  H    3.421945   2.157225   1.086464   2.153065   2.577962
    37  H    4.595263   4.288489   3.443492   2.789807   2.703744
    38  H    6.755399   6.676309   5.857812   4.974079   4.573245
    39  H    8.871959   8.820570   7.863958   6.805212   6.089016
    40  H    9.301370   9.231556   8.159667   6.981928   6.069995
    41  H    8.094648   7.968018   6.811507   5.563077   4.507896
    42  H    6.393488   6.098995   4.884247   3.729970   2.581585
    43  H    3.419396   3.875341   3.403392   2.161991   2.705653
    44  H    2.167294   3.403817   3.875372   3.394683   4.573859
    45  H    2.729398   2.959168   4.172579   4.986943   6.228878
    46  H    4.656007   5.152574   6.486160   7.276177   8.580313
    47  H    5.863316   6.200218   7.552832   8.471626   9.774926
    48  H    7.925649   7.992647   9.284617  10.378976  11.612547
                   16         17         18         19         20
    16  C    0.000000
    17  C    1.395151   0.000000
    18  C    2.415419   1.397855   0.000000
    19  C    2.805145   2.430489   1.398058   0.000000
    20  N    4.199173   3.705809   2.425389   1.399523   0.000000
    21  C    2.414907   2.787344   2.406195   1.397895   2.425253
    22  C    1.393030   2.415137   2.785699   2.429209   3.704788
    23  C    2.927795   3.326110   4.452983   5.145469   6.368538
    24  C    4.273317   4.462904   5.553583   6.370318   7.523312
    25  C    7.457464   7.650545   8.872916   9.826912  11.031683
    26  C    8.797613   8.915473  10.091785  11.080268  12.240944
    27  C   11.361742  11.209400  12.318777  13.487276  14.583389
    28  C   12.447357  12.318583  13.462478  14.645673  15.771183
    29  H   15.477923  15.459146  16.638852  17.777909  18.930168
    30  H   14.795132  14.696104  15.869715  17.064594  18.216777
    31  H   14.479773  14.536167  15.686443  16.737509  17.860425
    32  H   12.820044  12.864789  13.938161  14.930198  15.988342
    33  H    9.083324   8.750747   9.592812  10.683259  11.574132
    34  H    6.641533   6.293969   7.158491   8.241803   9.183269
    35  H    5.581730   5.759362   7.105514   8.124468   9.430763
    36  H    3.750715   4.193068   5.577049   6.415118   7.789704
    37  H    2.161930   1.086091   2.152111   3.408693   4.574849
    38  H    3.393697   2.146455   1.086622   2.160074   2.666022
    39  H    4.726013   3.971394   2.587231   2.033909   1.015145
    40  H    4.725854   4.455008   3.278883   2.033902   1.015161
    41  H    3.392778   3.873454   3.396000   2.160133   2.666146
    42  H    2.153506   3.400110   3.871851   3.411180   4.579002
    43  H    2.777348   3.224404   4.099807   4.577613   5.709328
    44  H    4.972306   5.092213   6.009560   6.758938   7.791437
    45  H    7.333925   7.696544   8.989853   9.872259  11.141026
    46  H    9.592793   9.797944  11.016108  11.975758  13.170523
    47  H   10.577186  10.345603  11.433505  12.640509  13.722547
    48  H   12.528031  12.353706  13.501505  14.722664  15.855772
                   21         22         23         24         25
    21  C    0.000000
    22  C    1.397435   0.000000
    23  C    4.866090   3.863347   0.000000
    24  C    6.207021   5.256426   1.398384   0.000000
    25  C    9.649242   8.541983   4.826466   3.627703   0.000000
    26  C   10.956722   9.887450   6.110729   4.826541   1.398390
    27  C   13.588101  12.596067   8.916444   7.651523   4.463568
    28  C   14.729628  13.697030  10.092362   8.873518   5.553681
    29  H   17.768997  16.674021  13.032438  11.793438   8.267427
    30  H   17.127115  16.050748  12.534685  11.359334   7.936139
    31  H   16.659892  15.585616  11.812867  10.504574   7.046894
    32  H   14.860341  13.862322  10.015862   8.653484   5.525417
    33  H   10.926150  10.199844   6.490101   5.155025   3.873713
    34  H    8.479551   7.768469   4.170031   2.955828   3.403919
    35  H    7.979771   6.812367   3.877094   3.403923   2.955660
    36  H    6.122513   4.897606   3.399435   3.873746   5.154873
    37  H    3.873367   3.403815   3.228515   4.117182   7.028943
    38  H    3.395925   3.871911   5.069978   5.997493   9.203252
    39  H    3.278813   4.453827   6.856378   7.936604  11.359109
    40  H    2.587263   3.970837   7.050552   8.269117  11.794461
    41  H    1.086571   2.146483   5.707435   7.049292  10.506496
    42  H    2.156915   1.086193   4.147143   5.527565   8.655277
    43  H    4.238764   3.399634   1.086564   2.152159   5.716748
    44  H    6.634080   5.818526   2.145505   1.088396   3.860861
    45  H    9.565817   8.364578   4.855421   3.860814   1.088395
    46  H   11.780207  10.653013   6.944086   5.716781   2.152101
    47  H   12.805820  11.849983   8.250545   7.030994   4.119118
    48  H   14.846944  13.816713  10.348741   9.204431   5.998139
                   26         27         28         29         30
    26  C    0.000000
    27  C    3.326464   0.000000
    28  C    4.452778   1.397843   0.000000
    29  H    7.048909   4.455047   3.278935   0.000000
    30  H    6.855685   3.971423   2.587285   1.686045   0.000000
    31  H    5.705246   3.873440   3.395996   2.424135   3.623518
    32  H    4.145150   3.400134   3.871880   4.680583   5.399270
    33  H    3.399416   4.193802   5.577928   8.378410   8.107149
    34  H    3.877115   5.760377   7.106487  10.153165   9.687883
    35  H    4.169790   6.294748   7.158874  10.083564   9.339491
    36  H    6.489902   8.751539   9.593186  12.486423  11.695026
    37  H    8.248448  10.344734  11.432614  14.612093  13.792696
    38  H   10.347533  12.353316  13.501060  16.725681  15.907507
    39  H   12.534521  14.696363  15.869740  19.074351  18.296991
    40  H   13.033663  15.460618  16.639873  19.775862  19.075036
    41  H   11.815035  14.538619  15.688303  18.687930  18.088739
    42  H   10.017809  12.867135  13.939867  16.813904  16.252193
    43  H    6.944167   9.799018  11.016786  13.934947  13.491125
    44  H    4.855587   7.697554   8.990511  11.842494  11.522970
    45  H    2.145508   5.092741   6.009390   8.545525   8.216711
    46  H    1.086549   3.224284   4.098946   6.349296   6.285872
    47  H    3.229934   1.086098   2.152142   5.395443   4.673665
    48  H    5.070189   2.146448   1.086628   3.623200   2.423576
                   31         32         33         34         35
    31  H    0.000000
    32  H    2.468667   0.000000
    33  H    7.027193   5.047234   0.000000
    34  H    8.920387   7.003785   2.465356   0.000000
    35  H    9.397613   8.248113   5.801694   4.289489   0.000000
    36  H   11.821820  10.621895   7.815109   5.801797   2.465343
    37  H   13.780997  12.179390   8.010397   5.593460   5.060247
    38  H   15.830717  14.087204   9.535757   7.172418   7.483865
    39  H   18.087486  16.251240  11.695099   9.339493   9.686801
    40  H   18.687660  16.814297  12.488110  10.084999  10.152656
    41  H   17.517660  15.680891  11.824384   9.399876   8.920689
    42  H   15.680051  13.981783  10.624048   8.250089   7.004399
    43  H   12.613012  10.703808   7.062947   4.746630   4.963446
    44  H   10.385568   8.361580   4.748847   2.703334   4.316261
    45  H    7.406923   6.090640   4.961733   4.316250   2.703076
    46  H    4.985564   3.696087   4.302770   4.963455   4.746195
    47  H    4.959477   4.303560   3.760110   5.061786   5.595531
    48  H    4.302175   4.958007   6.162355   7.485176   7.173502
                   36         37         38         39         40
    36  H    0.000000
    37  H    3.759498   0.000000
    38  H    6.161433   2.460589   0.000000
    39  H    8.105985   4.673559   2.423455   0.000000
    40  H    8.377233   5.395349   3.623124   1.686063   0.000000
    41  H    7.026479   4.959485   4.302173   3.623589   2.424217
    42  H    5.046896   4.303568   4.957974   5.399296   4.680593
    43  H    4.302746   3.422074   4.777893   6.287411   6.351908
    44  H    4.961765   4.812958   6.388478   8.217670   8.547987
    45  H    4.748583   7.143825   9.423767  11.522667  11.843317
    46  H    7.062544   9.149815  11.314842  13.490875  13.936083
    47  H    8.012455   9.442529  11.426040  13.793423  14.614086
    48  H    9.536864  11.425855  13.509501  15.907763  16.726820
                   41         42         43         44         45
    41  H    0.000000
    42  H    2.468653   0.000000
    43  H    4.988578   3.698485   0.000000
    44  H    7.410050   6.093206   2.456335   0.000000
    45  H   10.387264   8.363209   5.780579   4.269471   0.000000
    46  H   12.615104  10.705666   7.789127   5.780745   2.456254
    47  H   13.784197  12.182746   9.151981   7.145796   4.814889
    48  H   15.832794  14.089317  11.316139   9.424943   6.388935
                   46         47         48
    46  H    0.000000
    47  H    3.423037   0.000000
    48  H    4.777462   2.460637   0.000000
 Stoichiometry    C24H20N2O2
 Framework group  C1[X(C24H20N2O2)]
 Deg. of freedom   138
 Full point group                 C1      NOp   1
 Largest Abelian subgroup         C1      NOp   1
 Largest concise Abelian subgroup C1      NOp   1
                         Standard orientation:                         
 ---------------------------------------------------------------------
 Center     Atomic      Atomic             Coordinates (Angstroms)
 Number     Number       Type             X           Y           Z
 ---------------------------------------------------------------------
      1          7           0        8.901699   -1.588859    1.008558
      2          6           0        7.863107   -0.700049    0.708499
      3          6           0        7.888142    0.035812   -0.479771
      4          6           0        6.802051    0.834807   -0.846956
      5          6           0        5.656857    0.855404   -0.054111
      6          8           0        4.632691    1.683467   -0.451583
      7          6           0        3.360536    1.158728   -0.453648
      8          6           0        2.345760    1.958120    0.067016
      9          6           0        1.025280    1.499120    0.065189
     10          6           0        0.695633    0.241755   -0.469581
     11          6           0       -0.695464   -0.241165   -0.469526
     12          6           0       -1.025213   -1.498010    0.066397
     13          6           0       -2.345641   -1.957113    0.068229
     14          6           0       -3.360247   -1.158344   -0.453707
     15          8           0       -4.632361   -1.683144   -0.451802
     16          6           0       -5.656668   -0.855267   -0.054209
     17          6           0       -5.603462   -0.096848    1.115584
     18          6           0       -6.694668    0.699125    1.475717
     19          6           0       -7.863477    0.699382    0.708611
     20          7           0       -8.902541    1.587679    1.008511
     21          6           0       -7.889196   -0.038244   -0.478552
     22          6           0       -6.802781   -0.836779   -0.845799
     23          6           0       -3.054061    0.082207   -1.013148
     24          6           0       -1.732049    0.538017   -1.012001
     25          6           0        1.732381   -0.538063   -1.010815
     26          6           0        3.054450   -0.082402   -1.011857
     27          6           0        5.604232    0.098704    1.116799
     28          6           0        6.695154   -0.697645    1.476914
     29          1           0        9.799632   -1.315821    0.621641
     30          1           0        8.963740   -1.829656    1.992773
     31          1           0        8.757923   -0.002979   -1.129849
     32          1           0        6.843571    1.423051   -1.759145
     33          1           0        2.580832    2.934699    0.481066
     34          1           0        0.250239    2.130879    0.494732
     35          1           0       -0.250289   -2.129306    0.496795
     36          1           0       -2.580811   -2.933296    0.483158
     37          1           0       -4.719219   -0.110869    1.746069
     38          1           0       -6.625173    1.315816    2.367686
     39          1           0       -8.963487    1.830178    1.992381
     40          1           0       -9.800721    1.313031    0.623292
     41          1           0       -8.759737   -0.001173   -1.127721
     42          1           0       -6.844789   -1.426342   -1.757098
     43          1           0       -3.831357    0.697072   -1.458540
     44          1           0       -1.512157    1.506327   -1.457679
     45          1           0        1.512592   -1.506855   -1.455492
     46          1           0        3.831828   -0.697948   -1.456125
     47          1           0        4.720624    0.114376    1.748147
     48          1           0        6.626086   -1.313019    2.369833
 ---------------------------------------------------------------------
 Rotational constants (GHZ):           0.7100390           0.0444512           0.0436850
 Standard basis: 6-31G(d,p) (6D, 7F)
 There are   520 symmetry adapted cartesian basis functions of A   symmetry.
 There are   520 symmetry adapted basis functions of A   symmetry.
   520 basis functions,   924 primitive gaussians,   520 cartesian basis functions
    97 alpha electrons       97 beta electrons
       nuclear repulsion energy      2177.6349245685 Hartrees.
 NAtoms=   48 NActive=   48 NUniq=   48 SFac= 1.00D+00 NAtFMM=   60 NAOKFM=F Big=F
 Integral buffers will be    131072 words long.
 Raffenetti 2 integral format.
 Two-electron integral symmetry is turned on.
 Force inversion solution in PCM.
 ------------------------------------------------------------------------------
 Polarizable Continuum Model (PCM)
 =================================
 Model                : PCM.
 Atomic radii         : UFF (Universal Force Field).
 Polarization charges : Total charges.
 Charge compensation  : None.
 Solution method      : Matrix inversion.
 Cavity type          : Scaled VdW (van der Waals Surface) (Alpha=1.100).
 Cavity algorithm     : GePol (No added spheres)
                        Default sphere list used, NSphG=   48.
                        Lebedev-Laikov grids with approx.  5.0 points / Ang**2.
                        Smoothing algorithm: York/Karplus (Gamma=1.0000).
                        Polarization charges: spherical gaussians, with
                                              point-specific exponents (IZeta= 3).
                        Self-potential: point-specific (ISelfS= 7).
                        Self-field    : sphere-specific E.n sum rule (ISelfD= 2).
 1st derivatives      : Analytical E(r).r(x)/FMM algorithm (CHGder, D1EAlg=3).
                        Cavity 1st derivative terms included.
 2nd derivatives      : Analytical E(r).r(xy)/FMM algorithm (CHGder, D2EAlg=3).
                        Cavity 2nd derivative terms included.
 Solvent              : Water, Eps=  78.355300 Eps(inf)=   1.777849
 ------------------------------------------------------------------------------
 One-electron integrals computed using PRISM.
 NBasis=   520 RedAO= T EigKep=  4.11D-04  NBF=   520
 NBsUse=   520 1.00D-06 EigRej= -1.00D+00 NBFU=   520
 ExpMin= 1.61D-01 ExpMax= 5.48D+03 ExpMxC= 8.25D+02 IAcc=3 IRadAn=         5 AccDes= 0.00D+00
 Harris functional with IExCor=  402 and IRadAn=       5 diagonalized for initial guess.
 HarFok:  IExCor=  402 AccDes= 0.00D+00 IRadAn=         5 IDoV= 1 UseB2=F ITyADJ=14
 ICtDFT=  3500011 ScaDFX=  1.000000  1.000000  1.000000  1.000000
 FoFCou: FMM=F IPFlag=           0 FMFlag=      100000 FMFlg1=           0
         NFxFlg=           0 DoJE=T BraDBF=F KetDBF=T FulRan=T
         wScrn=  0.000000 ICntrl=       500 IOpCl=  0 I1Cent=   200000004 NGrid=           0
         NMat0=    1 NMatS0=      1 NMatT0=    0 NMatD0=    1 NMtDS0=    0 NMtDT0=    0
 Petite list used in FoFCou.
 Requested convergence on RMS density matrix=1.00D-08 within  32 cycles.
 Requested convergence on MAX density matrix=1.00D-06.
 Requested convergence on             energy=1.00D-06.
 No special actions if energy rises.
 Inv3:  Mode=1 IEnd=    41359107.
 Iteration    1 A*A^-1 deviation from unit magnitude is 2.89D-15 for     69.
 Iteration    1 A*A^-1 deviation from orthogonality  is 1.78D-15 for   2666    842.
 Iteration    1 A^-1*A deviation from unit magnitude is 3.00D-15 for    904.
 Iteration    1 A^-1*A deviation from orthogonality  is 1.78D-15 for   1875    921.
 Error on total polarization charges =  0.01260
 SCF Done:  E(RB3LYP) =  -1186.58634490     A.U. after   12 cycles
            NFock= 12  Conv=0.68D-08     -V/T= 2.0095
 QCSCF skips out because SCF is already converged.
 DoSCS=F DFT=T ScalE2(SS,OS)=  1.000000  1.000000
 Range of M.O.s used for correlation:     1   520
 NBasis=   520 NAE=    97 NBE=    97 NFC=     0 NFV=     0
 NROrb=    520 NOA=    97 NOB=    97 NVA=   423 NVB=   423
 Symmetrizing basis deriv contribution to polar:
 IMax=3 JMax=2 DiffMx= 0.00D+00
 G2DrvN: will do    49 centers at a time, making    1 passes.
 Calling FoFCou, ICntrl=  3107 FMM=F I1Cent=   0 AccDes= 0.00D+00.
 NEqPCM:  Using equilibrium solvation (IEInf=0, Eps=  78.3553, EpsInf=   1.7778)
 G2PCM: DoFxE=T DoFxN=T DoGrad=T DoDP/DQ/DG/TGxP=FFFF NFrqRd=   0 IEInf=0 SqF1=F DoCFld=F IF1Alg=4.
 End of G2Drv F.D. properties file   721 does not exist.
 End of G2Drv F.D. properties file   722 does not exist.
 End of G2Drv F.D. properties file   788 does not exist.
          IDoAtm=111111111111111111111111111111111111111111111111
 NEqPCM:  Using equilibrium solvation (IEInf=0, Eps=  78.3553, EpsInf=   1.7778)
          Differentiating once with respect to nuclear coordinates.
 CalDSu exits because no D1Ps are significant.
          There are   147 degrees of freedom in the 1st order CPHF.  IDoFFX=6 NUNeed=     0.
    141 vectors produced by pass  0 Test12= 4.10D-14 1.00D-09 XBig12= 1.28D-01 7.72D-02.
 AX will form   141 AO Fock derivatives at one time.
    141 vectors produced by pass  1 Test12= 4.10D-14 1.00D-09 XBig12= 2.21D-02 2.34D-02.
    141 vectors produced by pass  2 Test12= 4.10D-14 1.00D-09 XBig12= 1.82D-04 1.97D-03.
    141 vectors produced by pass  3 Test12= 4.10D-14 1.00D-09 XBig12= 7.26D-07 8.83D-05.
    141 vectors produced by pass  4 Test12= 4.10D-14 1.00D-09 XBig12= 1.07D-09 3.85D-06.
    100 vectors produced by pass  5 Test12= 4.10D-14 1.00D-09 XBig12= 1.43D-12 1.30D-07.
     23 vectors produced by pass  6 Test12= 4.10D-14 1.00D-09 XBig12= 1.70D-15 3.17D-09.
 InvSVY:  IOpt=1 It=  1 EMax= 6.11D-16
 Solved reduced A of dimension   828 with   147 vectors.
 End of Minotr F.D. properties file   721 does not exist.
 End of Minotr F.D. properties file   722 does not exist.
 End of Minotr F.D. properties file   788 does not exist.

 **********************************************************************

            Population analysis using the SCF density.

 **********************************************************************

 Orbital symmetries:
       Occupied  (A) (A) (A) (A) (A) (A) (A) (A) (A) (A) (A) (A)
                 (A) (A) (A) (A) (A) (A) (A) (A) (A) (A) (A) (A)
                 (A) (A) (A) (A) (A) (A) (A) (A) (A) (A) (A) (A)
                 (A) (A) (A) (A) (A) (A) (A) (A) (A) (A) (A) (A)
                 (A) (A) (A) (A) (A) (A) (A) (A) (A) (A) (A) (A)
                 (A) (A) (A) (A) (A) (A) (A) (A) (A) (A) (A) (A)
                 (A) (A) (A) (A) (A) (A) (A) (A) (A) (A) (A) (A)
                 (A) (A) (A) (A) (A) (A) (A) (A) (A) (A) (A) (A)
                 (A)
       Virtual   (A) (A) (A) (A) (A) (A) (A) (A) (A) (A) (A) (A)
                 (A) (A) (A) (A) (A) (A) (A) (A) (A) (A) (A) (A)
                 (A) (A) (A) (A) (A) (A) (A) (A) (A) (A) (A) (A)
                 (A) (A) (A) (A) (A) (A) (A) (A) (A) (A) (A) (A)
                 (A) (A) (A) (A) (A) (A) (A) (A) (A) (A) (A) (A)
                 (A) (A) (A) (A) (A) (A) (A) (A) (A) (A) (A) (A)
                 (A) (A) (A) (A) (A) (A) (A) (A) (A) (A) (A) (A)
                 (A) (A) (A) (A) (A) (A) (A) (A) (A) (A) (A) (A)
                 (A) (A) (A) (A) (A) (A) (A) (A) (A) (A) (A) (A)
                 (A) (A) (A) (A) (A) (A) (A) (A) (A) (A) (A) (A)
                 (A) (A) (A) (A) (A) (A) (A) (A) (A) (A) (A) (A)
                 (A) (A) (A) (A) (A) (A) (A) (A) (A) (A) (A) (A)
                 (A) (A) (A) (A) (A) (A) (A) (A) (A) (A) (A) (A)
                 (A) (A) (A) (A) (A) (A) (A) (A) (A) (A) (A) (A)
                 (A) (A) (A) (A) (A) (A) (A) (A) (A) (A) (A) (A)
                 (A) (A) (A) (A) (A) (A) (A) (A) (A) (A) (A) (A)
                 (A) (A) (A) (A) (A) (A) (A) (A) (A) (A) (A) (A)
                 (A) (A) (A) (A) (A) (A) (A) (A) (A) (A) (A) (A)
                 (A) (A) (A) (A) (A) (A) (A) (A) (A) (A) (A) (A)
                 (A) (A) (A) (A) (A) (A) (A) (A) (A) (A) (A) (A)
                 (A) (A) (A) (A) (A) (A) (A) (A) (A) (A) (A) (A)
                 (A) (A) (A) (A) (A) (A) (A) (A) (A) (A) (A) (A)
                 (A) (A) (A) (A) (A) (A) (A) (A) (A) (A) (A) (A)
                 (A) (A) (A) (A) (A) (A) (A) (A) (A) (A) (A) (A)
                 (A) (A) (A) (A) (A) (A) (A) (A) (A) (A) (A) (A)
                 (A) (A) (A) (A) (A) (A) (A) (A) (A) (A) (A) (A)
                 (A) (A) (A) (A) (A) (A) (A) (A) (A) (A) (A) (A)
                 (A) (A) (A) (A) (A) (A) (A) (A) (A) (A) (A) (A)
                 (A) (A) (A) (A) (A) (A) (A) (A) (A) (A) (A) (A)
                 (A) (A) (A) (A) (A) (A) (A) (A) (A) (A) (A) (A)
                 (A) (A) (A) (A) (A) (A) (A) (A) (A) (A) (A) (A)
                 (A) (A) (A) (A) (A) (A) (A) (A) (A) (A) (A) (A)
                 (A) (A) (A) (A) (A) (A) (A) (A) (A) (A) (A) (A)
                 (A) (A) (A) (A) (A) (A) (A) (A) (A) (A) (A) (A)
                 (A) (A) (A) (A) (A) (A) (A) (A) (A) (A) (A) (A)
                 (A) (A) (A)
 The electronic state is 1-A.
 Alpha  occ. eigenvalues --  -19.18505 -19.18505 -14.33526 -14.33525 -10.25129
 Alpha  occ. eigenvalues --  -10.25128 -10.24010 -10.24008 -10.22567 -10.22565
 Alpha  occ. eigenvalues --  -10.19968 -10.19936 -10.19650 -10.19650 -10.19587
 Alpha  occ. eigenvalues --  -10.19586 -10.19401 -10.19400 -10.19188 -10.19187
 Alpha  occ. eigenvalues --  -10.19186 -10.19186 -10.18968 -10.18967 -10.18712
 Alpha  occ. eigenvalues --  -10.18711 -10.18631 -10.18631  -1.07973  -1.07973
 Alpha  occ. eigenvalues --   -0.91385  -0.91384  -0.87097  -0.85295  -0.83754
 Alpha  occ. eigenvalues --   -0.83265  -0.78082  -0.75415  -0.74921  -0.74882
 Alpha  occ. eigenvalues --   -0.74771  -0.74072  -0.72115  -0.70039  -0.64152
 Alpha  occ. eigenvalues --   -0.62889  -0.62250  -0.61915  -0.60829  -0.60721
 Alpha  occ. eigenvalues --   -0.58391  -0.57220  -0.54605  -0.54468  -0.51792
 Alpha  occ. eigenvalues --   -0.51325  -0.51101  -0.50558  -0.50094  -0.48758
 Alpha  occ. eigenvalues --   -0.47026  -0.45429  -0.45400  -0.44710  -0.44461
 Alpha  occ. eigenvalues --   -0.44209  -0.44163  -0.42824  -0.42482  -0.42272
 Alpha  occ. eigenvalues --   -0.42180  -0.41840  -0.41018  -0.40289  -0.39424
 Alpha  occ. eigenvalues --   -0.39112  -0.38707  -0.38394  -0.37237  -0.36624
 Alpha  occ. eigenvalues --   -0.36195  -0.35343  -0.35262  -0.34546  -0.34432
 Alpha  occ. eigenvalues --   -0.32902  -0.32543  -0.29634  -0.29234  -0.25933
 Alpha  occ. eigenvalues --   -0.25746  -0.25444  -0.25220  -0.24925  -0.22291
 Alpha  occ. eigenvalues --   -0.19677  -0.19412
 Alpha virt. eigenvalues --   -0.02110  -0.01639  -0.01229  -0.00223  -0.00059
 Alpha virt. eigenvalues --    0.01375   0.02056   0.02843   0.09100   0.09119
 Alpha virt. eigenvalues --    0.10022   0.10203   0.10880   0.10916   0.13121
 Alpha virt. eigenvalues --    0.13121   0.13492   0.13994   0.15710   0.15875
 Alpha virt. eigenvalues --    0.16208   0.16524   0.16713   0.17166   0.17180
 Alpha virt. eigenvalues --    0.17507   0.17596   0.17884   0.18066   0.18290
 Alpha virt. eigenvalues --    0.18822   0.20148   0.20171   0.20845   0.24385
 Alpha virt. eigenvalues --    0.24665   0.25021   0.25246   0.27630   0.28860
 Alpha virt. eigenvalues --    0.30711   0.32320   0.32784   0.33034   0.33397
 Alpha virt. eigenvalues --    0.33647   0.33851   0.34130   0.34279   0.35201
 Alpha virt. eigenvalues --    0.35281   0.36134   0.36846   0.37517   0.37870
 Alpha virt. eigenvalues --    0.47740   0.47854   0.48304   0.48826   0.49034
 Alpha virt. eigenvalues --    0.50532   0.50584   0.51015   0.51715   0.52636
 Alpha virt. eigenvalues --    0.52845   0.53267   0.53882   0.54011   0.54339
 Alpha virt. eigenvalues --    0.54623   0.55851   0.55940   0.56441   0.56909
 Alpha virt. eigenvalues --    0.57221   0.57240   0.57872   0.58642   0.58702
 Alpha virt. eigenvalues --    0.58900   0.59016   0.59349   0.59474   0.59555
 Alpha virt. eigenvalues --    0.59812   0.60421   0.60480   0.60859   0.61052
 Alpha virt. eigenvalues --    0.61670   0.62016   0.62143   0.62430   0.63154
 Alpha virt. eigenvalues --    0.63718   0.64900   0.65184   0.65455   0.66854
 Alpha virt. eigenvalues --    0.67390   0.67968   0.68959   0.69165   0.69924
 Alpha virt. eigenvalues --    0.69972   0.70963   0.71410   0.73630   0.75024
 Alpha virt. eigenvalues --    0.75679   0.75960   0.77549   0.78579   0.78812
 Alpha virt. eigenvalues --    0.80203   0.80454   0.81145   0.81669   0.81748
 Alpha virt. eigenvalues --    0.81825   0.82105   0.82593   0.83438   0.84148
 Alpha virt. eigenvalues --    0.84429   0.84509   0.84605   0.85690   0.85997
 Alpha virt. eigenvalues --    0.86190   0.86198   0.86509   0.87675   0.88326
 Alpha virt. eigenvalues --    0.89428   0.89538   0.89717   0.89898   0.90733
 Alpha virt. eigenvalues --    0.91347   0.92172   0.92797   0.93352   0.95007
 Alpha virt. eigenvalues --    0.97205   0.98879   0.98921   0.99531   0.99872
 Alpha virt. eigenvalues --    1.00106   1.00416   1.01281   1.02670   1.03128
 Alpha virt. eigenvalues --    1.04342   1.05458   1.05752   1.05803   1.10754
 Alpha virt. eigenvalues --    1.11308   1.12320   1.14037   1.14908   1.15864
 Alpha virt. eigenvalues --    1.16034   1.16763   1.17144   1.17989   1.18037
 Alpha virt. eigenvalues --    1.18512   1.19460   1.19776   1.21439   1.21520
 Alpha virt. eigenvalues --    1.23196   1.25837   1.26376   1.27184   1.29293
 Alpha virt. eigenvalues --    1.29299   1.29729   1.30794   1.33205   1.33771
 Alpha virt. eigenvalues --    1.35571   1.35691   1.36962   1.38108   1.38753
 Alpha virt. eigenvalues --    1.39059   1.39430   1.39470   1.40122   1.40159
 Alpha virt. eigenvalues --    1.40652   1.40684   1.41645   1.41678   1.43195
 Alpha virt. eigenvalues --    1.43340   1.44552   1.46016   1.46701   1.47736
 Alpha virt. eigenvalues --    1.49978   1.50836   1.52085   1.52415   1.64419
 Alpha virt. eigenvalues --    1.68027   1.68586   1.70753   1.72356   1.74206
 Alpha virt. eigenvalues --    1.74626   1.75673   1.75952   1.76497   1.76571
 Alpha virt. eigenvalues --    1.77689   1.77802   1.79466   1.79952   1.80394
 Alpha virt. eigenvalues --    1.80445   1.80703   1.81315   1.84897   1.84934
 Alpha virt. eigenvalues --    1.85981   1.86497   1.86732   1.87789   1.89697
 Alpha virt. eigenvalues --    1.89863   1.90285   1.90652   1.91218   1.91246
 Alpha virt. eigenvalues --    1.91953   1.92078   1.92715   1.93035   1.93312
 Alpha virt. eigenvalues --    1.94701   1.95593   1.96152   1.96488   1.97214
 Alpha virt. eigenvalues --    1.97500   1.97667   1.98589   1.98767   2.00238
 Alpha virt. eigenvalues --    2.00337   2.01650   2.01680   2.02051   2.03059
 Alpha virt. eigenvalues --    2.06068   2.06352   2.06764   2.07550   2.09069
 Alpha virt. eigenvalues --    2.09088   2.13343   2.13346   2.16604   2.16621
 Alpha virt. eigenvalues --    2.17253   2.20378   2.23476   2.24120   2.24525
 Alpha virt. eigenvalues --    2.24586   2.25697   2.26160   2.26495   2.26507
 Alpha virt. eigenvalues --    2.27604   2.27767   2.30015   2.30131   2.30177
 Alpha virt. eigenvalues --    2.30476   2.31019   2.33036   2.33084   2.34844
 Alpha virt. eigenvalues --    2.35058   2.35832   2.35842   2.36495   2.40671
 Alpha virt. eigenvalues --    2.40997   2.41174   2.41227   2.41534   2.41811
 Alpha virt. eigenvalues --    2.42411   2.42976   2.44290   2.45162   2.45359
 Alpha virt. eigenvalues --    2.45646   2.46035   2.46913   2.47023   2.47606
 Alpha virt. eigenvalues --    2.47647   2.48788   2.48975   2.49497   2.49879
 Alpha virt. eigenvalues --    2.50702   2.50981   2.51125   2.52173   2.53570
 Alpha virt. eigenvalues --    2.54996   2.55285   2.56664   2.56991   2.57838
 Alpha virt. eigenvalues --    2.58178   2.59411   2.59459   2.59645   2.59750
 Alpha virt. eigenvalues --    2.63349   2.64080   2.64902   2.65297   2.67501
 Alpha virt. eigenvalues --    2.69197   2.69592   2.71129   2.71490   2.71831
 Alpha virt. eigenvalues --    2.72380   2.74714   2.76114   2.76954   2.77996
 Alpha virt. eigenvalues --    2.78883   2.81100   2.82496   2.82712   2.83646
 Alpha virt. eigenvalues --    2.84160   2.86128   2.88853   2.92608   2.92704
 Alpha virt. eigenvalues --    2.97690   2.98407   2.98568   3.00601   3.03676
 Alpha virt. eigenvalues --    3.05130   3.05276   3.06631   3.07705   3.09418
 Alpha virt. eigenvalues --    3.11354   3.13487   3.18255   3.18301   3.19852
 Alpha virt. eigenvalues --    3.20609   3.24418   3.24743   3.25003   3.25025
 Alpha virt. eigenvalues --    3.28338   3.28345   3.29566   3.32665   3.33520
 Alpha virt. eigenvalues --    3.35789   3.36668   3.37428   3.37679   3.40428
 Alpha virt. eigenvalues --    3.48732   3.48739   3.50153   3.50531   3.54389
 Alpha virt. eigenvalues --    3.54419   3.77474   3.82724   3.83613   3.85550
 Alpha virt. eigenvalues --    4.03817   4.03820   4.13449   4.13483   4.13572
 Alpha virt. eigenvalues --    4.14468   4.14946   4.15301   4.16251   4.16270
 Alpha virt. eigenvalues --    4.17100   4.17265   4.20048   4.21898   4.38341
 Alpha virt. eigenvalues --    4.41755   4.42694   4.44902   4.45082   4.45958
 Alpha virt. eigenvalues --    4.46229   4.49610   4.60979   4.64302   4.79201
 Alpha virt. eigenvalues --    4.84425   4.85966   4.90468
          Condensed to atoms (all electrons):
               1          2          3          4          5          6
     1  N    6.832530   0.297797  -0.070101   0.004446   0.000547   0.000000
     2  C    0.297797   4.580984   0.538334  -0.027120  -0.034500   0.000170
     3  C   -0.070101   0.538334   4.948004   0.504601  -0.027369   0.004078
     4  C    0.004446  -0.027120   0.504601   4.929990   0.543921  -0.052178
     5  C    0.000547  -0.034500  -0.027369   0.543921   4.628321   0.218616
     6  O    0.000000   0.000170   0.004078  -0.052178   0.218616   8.349441
     7  C   -0.000000   0.000066  -0.000051  -0.001720  -0.032031   0.233038
     8  C   -0.000000   0.000000   0.000007  -0.000210  -0.001238  -0.053206
     9  C    0.000000  -0.000000  -0.000000   0.000007  -0.000039   0.004045
    10  C   -0.000000  -0.000000   0.000000   0.000000   0.000042   0.000074
    11  C    0.000000  -0.000000   0.000000  -0.000000   0.000000  -0.000001
    12  C   -0.000000  -0.000000  -0.000000   0.000000   0.000000   0.000000
    13  C    0.000000  -0.000000  -0.000000  -0.000000   0.000000   0.000000
    14  C    0.000000   0.000000   0.000000  -0.000000   0.000000  -0.000000
    15  O    0.000000   0.000000   0.000000   0.000000  -0.000000  -0.000000
    16  C    0.000000   0.000000   0.000000   0.000000  -0.000000  -0.000000
    17  C    0.000000   0.000000   0.000000   0.000000  -0.000000  -0.000000
    18  C    0.000000   0.000000   0.000000   0.000000  -0.000000   0.000000
    19  C    0.000000   0.000000   0.000000   0.000000   0.000000   0.000000
    20  N    0.000000   0.000000   0.000000   0.000000   0.000000   0.000000
    21  C    0.000000   0.000000   0.000000   0.000000   0.000000   0.000000
    22  C    0.000000   0.000000   0.000000   0.000000   0.000000   0.000000
    23  C    0.000000   0.000000   0.000000   0.000000  -0.000000   0.000000
    24  C    0.000000  -0.000000   0.000000  -0.000000   0.000000   0.000000
    25  C   -0.000000   0.000000   0.000001  -0.000005  -0.000147   0.004346
    26  C    0.000000   0.000020  -0.000072   0.000808   0.002086  -0.056269
    27  C    0.004700  -0.023841  -0.039255  -0.066381   0.495760  -0.055580
    28  C   -0.070563   0.536288  -0.048033  -0.039119  -0.020304   0.004437
    29  H    0.343899  -0.025031  -0.009398  -0.000074   0.000003  -0.000000
    30  H    0.343984  -0.025238   0.005426  -0.000183  -0.000006  -0.000000
    31  H   -0.007290  -0.042133   0.364039  -0.031402   0.003788  -0.000065
    32  H   -0.000102   0.004195  -0.035288   0.360815  -0.039723  -0.001092
    33  H   -0.000000   0.000000  -0.000000  -0.000014   0.000298  -0.000830
    34  H    0.000000  -0.000000   0.000000  -0.000000  -0.000001  -0.000063
    35  H    0.000000  -0.000000  -0.000000  -0.000000   0.000000  -0.000000
    36  H   -0.000000   0.000000   0.000000  -0.000000  -0.000000  -0.000000
    37  H    0.000000   0.000000   0.000000  -0.000000   0.000000   0.000000
    38  H    0.000000   0.000000   0.000000   0.000000   0.000000   0.000000
    39  H    0.000000   0.000000   0.000000   0.000000   0.000000   0.000000
    40  H    0.000000   0.000000   0.000000   0.000000   0.000000   0.000000
    41  H    0.000000   0.000000   0.000000   0.000000   0.000000   0.000000
    42  H    0.000000   0.000000   0.000000   0.000000   0.000000   0.000000
    43  H    0.000000  -0.000000  -0.000000   0.000000   0.000000  -0.000000
    44  H    0.000000   0.000000   0.000000  -0.000000   0.000000  -0.000000
    45  H    0.000000  -0.000000  -0.000000  -0.000000  -0.000002  -0.000054
    46  H   -0.000000  -0.000044   0.000103   0.001297   0.006968  -0.007062
    47  H   -0.000104   0.003837   0.000475   0.005417  -0.041088  -0.006935
    48  H   -0.007198  -0.041529   0.005112   0.000614   0.003424  -0.000055
               7          8          9         10         11         12
     1  N   -0.000000  -0.000000   0.000000  -0.000000   0.000000  -0.000000
     2  C    0.000066   0.000000  -0.000000  -0.000000  -0.000000  -0.000000
     3  C   -0.000051   0.000007  -0.000000   0.000000   0.000000  -0.000000
     4  C   -0.001720  -0.000210   0.000007   0.000000  -0.000000   0.000000
     5  C   -0.032031  -0.001238  -0.000039   0.000042   0.000000   0.000000
     6  O    0.233038  -0.053206   0.004045   0.000074  -0.000001   0.000000
     7  C    4.594324   0.539481  -0.023817  -0.029550   0.000643   0.000015
     8  C    0.539481   4.971630   0.475929  -0.031697   0.005934  -0.000150
     9  C   -0.023817   0.475929   4.936206   0.527742  -0.049202   0.003161
    10  C   -0.029550  -0.031697   0.527742   4.839630   0.334192  -0.049207
    11  C    0.000643   0.005934  -0.049202   0.334192   4.839632   0.527756
    12  C    0.000015  -0.000150   0.003161  -0.049207   0.527756   4.936260
    13  C   -0.000000   0.000001  -0.000150   0.005934  -0.031700   0.475868
    14  C    0.000000  -0.000000   0.000015   0.000643  -0.029546  -0.023822
    15  O   -0.000000   0.000000   0.000000  -0.000001   0.000074   0.004047
    16  C    0.000000   0.000000   0.000000   0.000000   0.000042  -0.000039
    17  C    0.000000   0.000000  -0.000000   0.000000   0.000018  -0.000056
    18  C   -0.000000   0.000000   0.000000  -0.000000  -0.000000   0.000001
    19  C    0.000000  -0.000000  -0.000000  -0.000000  -0.000000  -0.000000
    20  N    0.000000   0.000000  -0.000000   0.000000  -0.000000   0.000000
    21  C    0.000000  -0.000000  -0.000000   0.000000   0.000000  -0.000000
    22  C   -0.000000  -0.000000   0.000000  -0.000000   0.000000   0.000007
    23  C   -0.000000   0.000003   0.000239   0.006089  -0.030289  -0.041457
    24  C    0.000016   0.000231  -0.006541  -0.049478   0.526615  -0.038403
    25  C   -0.017810  -0.041901  -0.038403   0.526632  -0.049486  -0.006543
    26  C    0.489114  -0.065717  -0.041463  -0.030282   0.006091   0.000239
    27  C    0.001524   0.000753  -0.000055   0.000018   0.000000  -0.000000
    28  C   -0.000212  -0.000010   0.000001  -0.000000  -0.000000   0.000000
    29  H    0.000000  -0.000000  -0.000000  -0.000000  -0.000000   0.000000
    30  H    0.000000   0.000000  -0.000000  -0.000000  -0.000000  -0.000000
    31  H   -0.000001  -0.000000   0.000000  -0.000000  -0.000000   0.000000
    32  H    0.000316  -0.000015  -0.000000   0.000000   0.000000  -0.000000
    33  H   -0.039750   0.360838  -0.033683   0.003887  -0.000167   0.000001
    34  H    0.003784  -0.033762   0.365912  -0.043611  -0.006322   0.000254
    35  H   -0.000005  -0.000022   0.000254  -0.006322  -0.043610   0.365909
    36  H   -0.000000  -0.000000   0.000001  -0.000167   0.003886  -0.033681
    37  H   -0.000000  -0.000000   0.000000  -0.000000  -0.000020   0.000078
    38  H   -0.000000  -0.000000  -0.000000   0.000000  -0.000000  -0.000000
    39  H   -0.000000  -0.000000  -0.000000  -0.000000  -0.000000  -0.000000
    40  H    0.000000  -0.000000   0.000000  -0.000000  -0.000000  -0.000000
    41  H   -0.000000   0.000000   0.000000  -0.000000  -0.000000   0.000000
    42  H    0.000000  -0.000000  -0.000000   0.000000   0.000000  -0.000000
    43  H   -0.000000  -0.000000  -0.000004  -0.000172   0.003549   0.000506
    44  H   -0.000005  -0.000135   0.003700  -0.006094  -0.042965   0.005388
    45  H    0.003380   0.000480   0.005389  -0.042965  -0.006096   0.003701
    46  H   -0.041179   0.005238   0.000507   0.003549  -0.000172  -0.000004
    47  H    0.006261   0.001053   0.000078  -0.000020  -0.000000   0.000000
    48  H   -0.000007  -0.000000  -0.000000  -0.000000   0.000000  -0.000000
              13         14         15         16         17         18
     1  N    0.000000   0.000000   0.000000   0.000000   0.000000   0.000000
     2  C   -0.000000   0.000000   0.000000   0.000000   0.000000   0.000000
     3  C   -0.000000   0.000000   0.000000   0.000000   0.000000   0.000000
     4  C   -0.000000  -0.000000   0.000000   0.000000   0.000000   0.000000
     5  C    0.000000   0.000000  -0.000000  -0.000000  -0.000000  -0.000000
     6  O    0.000000  -0.000000  -0.000000  -0.000000  -0.000000   0.000000
     7  C   -0.000000   0.000000  -0.000000   0.000000   0.000000  -0.000000
     8  C    0.000001  -0.000000   0.000000   0.000000   0.000000   0.000000
     9  C   -0.000150   0.000015   0.000000   0.000000  -0.000000   0.000000
    10  C    0.005934   0.000643  -0.000001   0.000000   0.000000  -0.000000
    11  C   -0.031700  -0.029546   0.000074   0.000042   0.000018  -0.000000
    12  C    0.475868  -0.023822   0.004047  -0.000039  -0.000056   0.000001
    13  C    4.971643   0.539506  -0.053201  -0.001245   0.000755  -0.000010
    14  C    0.539506   4.594301   0.232937  -0.032020   0.001533  -0.000212
    15  O   -0.053201   0.232937   8.349437   0.218719  -0.055590   0.004434
    16  C   -0.001245  -0.032020   0.218719   4.628310   0.495658  -0.020292
    17  C    0.000755   0.001533  -0.055590   0.495658   4.964073   0.495440
    18  C   -0.000010  -0.000212   0.004434  -0.020292   0.495440   4.953200
    19  C    0.000000   0.000065   0.000170  -0.034505  -0.023826   0.536308
    20  N   -0.000000  -0.000000   0.000000   0.000547   0.004701  -0.070561
    21  C    0.000007  -0.000051   0.004074  -0.027367  -0.039262  -0.048038
    22  C   -0.000211  -0.001702  -0.052189   0.543906  -0.066367  -0.039115
    23  C   -0.065723   0.489192  -0.056248   0.002062   0.000185  -0.000365
    24  C   -0.041900  -0.017818   0.004347  -0.000147  -0.000354   0.000001
    25  C    0.000232   0.000016   0.000000   0.000000  -0.000000  -0.000000
    26  C    0.000003  -0.000000   0.000000  -0.000000  -0.000000  -0.000000
    27  C    0.000000   0.000000  -0.000000  -0.000000  -0.000000  -0.000000
    28  C    0.000000  -0.000000   0.000000  -0.000000  -0.000000   0.000000
    29  H   -0.000000   0.000000   0.000000   0.000000   0.000000   0.000000
    30  H   -0.000000  -0.000000   0.000000   0.000000   0.000000   0.000000
    31  H    0.000000  -0.000000   0.000000   0.000000   0.000000   0.000000
[...]
   314    C   21  dx2y2  Ryd( 3d)     0.00050
   315    C   21  dz2    Ryd( 3d)     0.00055

   316    C   22  S      Cor( 1S)     1.99900
   317    C   22  S      Val( 2S)     0.96506
   318    C   22  S      Ryd( 3S)     0.00078
   319    C   22  S      Ryd( 4S)     0.00005
   320    C   22  px     Val( 2p)     1.07881
   321    C   22  px     Ryd( 3p)     0.00361
   322    C   22  py     Val( 2p)     1.08164
   323    C   22  py     Ryd( 3p)     0.00274
   324    C   22  pz     Val( 2p)     1.13449
   325    C   22  pz     Ryd( 3p)     0.00453
   326    C   22  dxy    Ryd( 3d)     0.00046
   327    C   22  dxz    Ryd( 3d)     0.00055
   328    C   22  dyz    Ryd( 3d)     0.00057
   329    C   22  dx2y2  Ryd( 3d)     0.00049
   330    C   22  dz2    Ryd( 3d)     0.00056

   331    C   23  S      Cor( 1S)     1.99903
   332    C   23  S      Val( 2S)     0.96444
   333    C   23  S      Ryd( 3S)     0.00069
   334    C   23  S      Ryd( 4S)     0.00005
   335    C   23  px     Val( 2p)     1.15382
   336    C   23  px     Ryd( 3p)     0.00354
   337    C   23  py     Val( 2p)     1.11466
   338    C   23  py     Ryd( 3p)     0.00395
   339    C   23  pz     Val( 2p)     1.04171
   340    C   23  pz     Ryd( 3p)     0.00103
   341    C   23  dxy    Ryd( 3d)     0.00060
   342    C   23  dxz    Ryd( 3d)     0.00059
   343    C   23  dyz    Ryd( 3d)     0.00059
   344    C   23  dx2y2  Ryd( 3d)     0.00065
   345    C   23  dz2    Ryd( 3d)     0.00039

   346    C   24  S      Cor( 1S)     1.99908
   347    C   24  S      Val( 2S)     0.94682
   348    C   24  S      Ryd( 3S)     0.00071
   349    C   24  S      Ryd( 4S)     0.00005
   350    C   24  px     Val( 2p)     1.05585
   351    C   24  px     Ryd( 3p)     0.00379
   352    C   24  py     Val( 2p)     1.18281
   353    C   24  py     Ryd( 3p)     0.00481
   354    C   24  pz     Val( 2p)     1.05582
   355    C   24  pz     Ryd( 3p)     0.00308
   356    C   24  dxy    Ryd( 3d)     0.00062
   357    C   24  dxz    Ryd( 3d)     0.00066
   358    C   24  dyz    Ryd( 3d)     0.00038
   359    C   24  dx2y2  Ryd( 3d)     0.00066
   360    C   24  dz2    Ryd( 3d)     0.00035

   361    C   25  S      Cor( 1S)     1.99908
   362    C   25  S      Val( 2S)     0.94679
   363    C   25  S      Ryd( 3S)     0.00071
   364    C   25  S      Ryd( 4S)     0.00005
   365    C   25  px     Val( 2p)     1.05583
   366    C   25  px     Ryd( 3p)     0.00379
   367    C   25  py     Val( 2p)     1.18276
   368    C   25  py     Ryd( 3p)     0.00481
   369    C   25  pz     Val( 2p)     1.05619
   370    C   25  pz     Ryd( 3p)     0.00309
   371    C   25  dxy    Ryd( 3d)     0.00062
   372    C   25  dxz    Ryd( 3d)     0.00066
   373    C   25  dyz    Ryd( 3d)     0.00038
   374    C   25  dx2y2  Ryd( 3d)     0.00066
   375    C   25  dz2    Ryd( 3d)     0.00035

   376    C   26  S      Cor( 1S)     1.99903
   377    C   26  S      Val( 2S)     0.96444
   378    C   26  S      Ryd( 3S)     0.00069
   379    C   26  S      Ryd( 4S)     0.00005
   380    C   26  px     Val( 2p)     1.15382
   381    C   26  px     Ryd( 3p)     0.00354
   382    C   26  py     Val( 2p)     1.11453
   383    C   26  py     Ryd( 3p)     0.00394
   384    C   26  pz     Val( 2p)     1.04170
   385    C   26  pz     Ryd( 3p)     0.00103
   386    C   26  dxy    Ryd( 3d)     0.00060
   387    C   26  dxz    Ryd( 3d)     0.00059
   388    C   26  dyz    Ryd( 3d)     0.00059
   389    C   26  dx2y2  Ryd( 3d)     0.00065
   390    C   26  dz2    Ryd( 3d)     0.00039

   391    C   27  S      Cor( 1S)     1.99899
   392    C   27  S      Val( 2S)     0.96638
   393    C   27  S      Ryd( 3S)     0.00080
   394    C   27  S      Ryd( 4S)     0.00005
   395    C   27  px     Val( 2p)     1.07234
   396    C   27  px     Ryd( 3p)     0.00345
   397    C   27  py     Val( 2p)     1.02085
   398    C   27  py     Ryd( 3p)     0.00233
   399    C   27  pz     Val( 2p)     1.18841
   400    C   27  pz     Ryd( 3p)     0.00446
   401    C   27  dxy    Ryd( 3d)     0.00038
   402    C   27  dxz    Ryd( 3d)     0.00065
   403    C   27  dyz    Ryd( 3d)     0.00047
   404    C   27  dx2y2  Ryd( 3d)     0.00066
   405    C   27  dz2    Ryd( 3d)     0.00055

   406    C   28  S      Cor( 1S)     1.99905
   407    C   28  S      Val( 2S)     0.95530
   408    C   28  S      Ryd( 3S)     0.00063
   409    C   28  S      Ryd( 4S)     0.00004
   410    C   28  px     Val( 2p)     1.09221
   411    C   28  px     Ryd( 3p)     0.00343
   412    C   28  py     Val( 2p)     1.10430
   413    C   28  py     Ryd( 3p)     0.00243
   414    C   28  pz     Val( 2p)     1.12830
   415    C   28  pz     Ryd( 3p)     0.00430
   416    C   28  dxy    Ryd( 3d)     0.00043
   417    C   28  dxz    Ryd( 3d)     0.00055
   418    C   28  dyz    Ryd( 3d)     0.00050
   419    C   28  dx2y2  Ryd( 3d)     0.00044
   420    C   28  dz2    Ryd( 3d)     0.00053

   421    H   29  S      Val( 1S)     0.57872
   422    H   29  S      Ryd( 2S)     0.00108
   423    H   29  px     Ryd( 2p)     0.00037
   424    H   29  py     Ryd( 2p)     0.00044
   425    H   29  pz     Ryd( 2p)     0.00045

   426    H   30  S      Val( 1S)     0.57872
   427    H   30  S      Ryd( 2S)     0.00114
   428    H   30  px     Ryd( 2p)     0.00038
   429    H   30  py     Ryd( 2p)     0.00043
   430    H   30  pz     Ryd( 2p)     0.00045

   431    H   31  S      Val( 1S)     0.74863
   432    H   31  S      Ryd( 2S)     0.00091
   433    H   31  px     Ryd( 2p)     0.00013
   434    H   31  py     Ryd( 2p)     0.00010
   435    H   31  pz     Ryd( 2p)     0.00037

   436    H   32  S      Val( 1S)     0.74019
   437    H   32  S      Ryd( 2S)     0.00098
   438    H   32  px     Ryd( 2p)     0.00015
   439    H   32  py     Ryd( 2p)     0.00020
   440    H   32  pz     Ryd( 2p)     0.00024

   441    H   33  S      Val( 1S)     0.74527
   442    H   33  S      Ryd( 2S)     0.00122
   443    H   33  px     Ryd( 2p)     0.00008
   444    H   33  py     Ryd( 2p)     0.00037
   445    H   33  pz     Ryd( 2p)     0.00014

   446    H   34  S      Val( 1S)     0.75277
   447    H   34  S      Ryd( 2S)     0.00110
   448    H   34  px     Ryd( 2p)     0.00024
   449    H   34  py     Ryd( 2p)     0.00021
   450    H   34  pz     Ryd( 2p)     0.00015

   451    H   35  S      Val( 1S)     0.75278
   452    H   35  S      Ryd( 2S)     0.00110
   453    H   35  px     Ryd( 2p)     0.00024
   454    H   35  py     Ryd( 2p)     0.00021
   455    H   35  pz     Ryd( 2p)     0.00015

   456    H   36  S      Val( 1S)     0.74527
   457    H   36  S      Ryd( 2S)     0.00122
   458    H   36  px     Ryd( 2p)     0.00008
   459    H   36  py     Ryd( 2p)     0.00037
   460    H   36  pz     Ryd( 2p)     0.00014

   461    H   37  S      Val( 1S)     0.73949
   462    H   37  S      Ryd( 2S)     0.00093
   463    H   37  px     Ryd( 2p)     0.00014
   464    H   37  py     Ryd( 2p)     0.00009
   465    H   37  pz     Ryd( 2p)     0.00036

   466    H   38  S      Val( 1S)     0.74903
   467    H   38  S      Ryd( 2S)     0.00089
   468    H   38  px     Ryd( 2p)     0.00014
   469    H   38  py     Ryd( 2p)     0.00020
   470    H   38  pz     Ryd( 2p)     0.00026

   471    H   39  S      Val( 1S)     0.57880
   472    H   39  S      Ryd( 2S)     0.00114
   473    H   39  px     Ryd( 2p)     0.00038
   474    H   39  py     Ryd( 2p)     0.00043
   475    H   39  pz     Ryd( 2p)     0.00045

   476    H   40  S      Val( 1S)     0.57880
   477    H   40  S      Ryd( 2S)     0.00108
   478    H   40  px     Ryd( 2p)     0.00037
   479    H   40  py     Ryd( 2p)     0.00044
   480    H   40  pz     Ryd( 2p)     0.00045

   481    H   41  S      Val( 1S)     0.74869
   482    H   41  S      Ryd( 2S)     0.00091
   483    H   41  px     Ryd( 2p)     0.00013
   484    H   41  py     Ryd( 2p)     0.00010
   485    H   41  pz     Ryd( 2p)     0.00037

   486    H   42  S      Val( 1S)     0.74024
   487    H   42  S      Ryd( 2S)     0.00098
   488    H   42  px     Ryd( 2p)     0.00015
   489    H   42  py     Ryd( 2p)     0.00020
   490    H   42  pz     Ryd( 2p)     0.00024

   491    H   43  S      Val( 1S)     0.74210
   492    H   43  S      Ryd( 2S)     0.00090
   493    H   43  px     Ryd( 2p)     0.00026
   494    H   43  py     Ryd( 2p)     0.00021
   495    H   43  pz     Ryd( 2p)     0.00014

   496    H   44  S      Val( 1S)     0.75627
   497    H   44  S      Ryd( 2S)     0.00103
   498    H   44  px     Ryd( 2p)     0.00007
   499    H   44  py     Ryd( 2p)     0.00037
   500    H   44  pz     Ryd( 2p)     0.00017

   501    H   45  S      Val( 1S)     0.75628
   502    H   45  S      Ryd( 2S)     0.00104
   503    H   45  px     Ryd( 2p)     0.00007
   504    H   45  py     Ryd( 2p)     0.00037
   505    H   45  pz     Ryd( 2p)     0.00017

   506    H   46  S      Val( 1S)     0.74211
   507    H   46  S      Ryd( 2S)     0.00090
   508    H   46  px     Ryd( 2p)     0.00026
   509    H   46  py     Ryd( 2p)     0.00021
   510    H   46  pz     Ryd( 2p)     0.00014

   511    H   47  S      Val( 1S)     0.73943
   512    H   47  S      Ryd( 2S)     0.00093
   513    H   47  px     Ryd( 2p)     0.00014
   514    H   47  py     Ryd( 2p)     0.00009
   515    H   47  pz     Ryd( 2p)     0.00036

   516    H   48  S      Val( 1S)     0.74898
   517    H   48  S      Ryd( 2S)     0.00089
   518    H   48  px     Ryd( 2p)     0.00014
   519    H   48  py     Ryd( 2p)     0.00020
   520    H   48  pz     Ryd( 2p)     0.00026

 WARNING:  1 low occupancy (<1.9990e) core orbital  found on  C    2
           1 low occupancy (<1.9990e) core orbital  found on  C    4
           1 low occupancy (<1.9990e) core orbital  found on  C    5
           1 low occupancy (<1.9990e) core orbital  found on  C    7
           1 low occupancy (<1.9990e) core orbital  found on  C   14
           1 low occupancy (<1.9990e) core orbital  found on  C   16
           1 low occupancy (<1.9990e) core orbital  found on  C   17
           1 low occupancy (<1.9990e) core orbital  found on  C   19
           1 low occupancy (<1.9990e) core orbital  found on  C   22
           1 low occupancy (<1.9990e) core orbital  found on  C   27


 Summary of Natural Population Analysis:                  
                                                          
                                       Natural Population 
                Natural  -----------------------------------------------
    Atom  No    Charge         Core      Valence    Rydberg      Total
 -----------------------------------------------------------------------
      N    1   -0.83787      1.99951     5.82674    0.01161     7.83787
      C    2    0.16949      1.99899     3.81446    0.01706     5.83051
      C    3   -0.27808      1.99905     4.26601    0.01303     6.27808
      C    4   -0.27347      1.99900     4.26011    0.01436     6.27347
      C    5    0.25428      1.99869     3.72439    0.02263     5.74572
      O    6   -0.49026      1.99971     6.47874    0.01182     8.49026
      C    7    0.28468      1.99873     3.69392    0.02267     5.71532
      C    8   -0.28895      1.99904     4.27452    0.01538     6.28895
      C    9   -0.21404      1.99907     4.20169    0.01328     6.21404
      C   10   -0.08192      1.99902     4.06628    0.01662     6.08192
      C   11   -0.08193      1.99902     4.06629    0.01662     6.08193
      C   12   -0.21420      1.99907     4.20185    0.01328     6.21420
      C   13   -0.28879      1.99904     4.27438    0.01537     6.28879
      C   14    0.28476      1.99873     3.69384    0.02267     5.71524
      O   15   -0.49042      1.99971     6.47890    0.01181     8.49042
      C   16    0.25391      1.99869     3.72476    0.02263     5.74609
      C   17   -0.26081      1.99899     4.24803    0.01379     6.26081
      C   18   -0.29244      1.99905     4.28012    0.01327     6.29244
      C   19    0.16935      1.99899     3.81460    0.01707     5.83065
      N   20   -0.83835      1.99951     5.82722    0.01162     7.83835
      C   21   -0.27828      1.99905     4.26621    0.01302     6.27828
      C   22   -0.27333      1.99900     4.25999    0.01435     6.27333
      C   23   -0.28574      1.99903     4.27463    0.01208     6.28574
      C   24   -0.25547      1.99908     4.24128    0.01510     6.25547
      C   25   -0.25575      1.99908     4.24156    0.01511     6.25575
      C   26   -0.28560      1.99903     4.27449    0.01208     6.28560
      C   27   -0.26077      1.99899     4.24798    0.01379     6.26077
      C   28   -0.29244      1.99905     4.28012    0.01328     6.29244
      H   29    0.41895      0.00000     0.57872    0.00233     0.58105
      H   30    0.41888      0.00000     0.57872    0.00240     0.58112
      H   31    0.24986      0.00000     0.74863    0.00151     0.75014
      H   32    0.25823      0.00000     0.74019    0.00157     0.74177
      H   33    0.25292      0.00000     0.74527    0.00181     0.74708
      H   34    0.24552      0.00000     0.75277    0.00171     0.75448
      H   35    0.24551      0.00000     0.75278    0.00171     0.75449
      H   36    0.25292      0.00000     0.74527    0.00181     0.74708
      H   37    0.25899      0.00000     0.73949    0.00152     0.74101
      H   38    0.24948      0.00000     0.74903    0.00149     0.75052
      H   39    0.41881      0.00000     0.57880    0.00240     0.58119
      H   40    0.41887      0.00000     0.57880    0.00233     0.58113
      H   41    0.24980      0.00000     0.74869    0.00151     0.75020
      H   42    0.25819      0.00000     0.74024    0.00157     0.74181
      H   43    0.25640      0.00000     0.74210    0.00150     0.74360
      H   44    0.24208      0.00000     0.75627    0.00165     0.75792
      H   45    0.24207      0.00000     0.75628    0.00165     0.75793
      H   46    0.25639      0.00000     0.74211    0.00150     0.74361
      H   47    0.25905      0.00000     0.73943    0.00152     0.74095
      H   48    0.24953      0.00000     0.74898    0.00149     0.75047
 =======================================================================
   * Total *   -0.00000     55.97393   137.56566    0.46041   194.00000

                                 Natural Population      
 --------------------------------------------------------
   Core                      55.97393 ( 99.9534% of  56)
   Valence                  137.56566 ( 99.6853% of 138)
   Natural Minimal Basis    193.53959 ( 99.7627% of 194)
   Natural Rydberg Basis      0.46041 (  0.2373% of 194)
 --------------------------------------------------------

    Atom  No          Natural Electron Configuration
 ----------------------------------------------------------------------------
      N    1      [core]2S( 1.36)2p( 4.46)3p( 0.01)
      C    2      [core]2S( 0.85)2p( 2.97)3p( 0.01)
      C    3      [core]2S( 0.96)2p( 3.31)3p( 0.01)
      C    4      [core]2S( 0.97)2p( 3.30)3p( 0.01)
      C    5      [core]2S( 0.84)2p( 2.89)3p( 0.02)3d( 0.01)
      O    6      [core]2S( 1.57)2p( 4.91)3p( 0.01)3d( 0.01)
      C    7      [core]2S( 0.84)2p( 2.86)3p( 0.02)3d( 0.01)
      C    8      [core]2S( 0.96)2p( 3.31)3p( 0.01)
      C    9      [core]2S( 0.95)2p( 3.25)3p( 0.01)
      C   10      [core]2S( 0.87)2p( 3.20)3p( 0.01)
      C   11      [core]2S( 0.87)2p( 3.20)3p( 0.01)
      C   12      [core]2S( 0.95)2p( 3.25)3p( 0.01)
      C   13      [core]2S( 0.96)2p( 3.31)3p( 0.01)
      C   14      [core]2S( 0.84)2p( 2.86)3p( 0.02)3d( 0.01)
      O   15      [core]2S( 1.57)2p( 4.91)3p( 0.01)3d( 0.01)
      C   16      [core]2S( 0.84)2p( 2.89)3p( 0.02)3d( 0.01)
      C   17      [core]2S( 0.97)2p( 3.28)3p( 0.01)
      C   18      [core]2S( 0.96)2p( 3.32)3p( 0.01)
      C   19      [core]2S( 0.85)2p( 2.97)3p( 0.01)
      N   20      [core]2S( 1.36)2p( 4.46)3p( 0.01)
      C   21      [core]2S( 0.96)2p( 3.31)3p( 0.01)
      C   22      [core]2S( 0.97)2p( 3.29)3p( 0.01)
      C   23      [core]2S( 0.96)2p( 3.31)3p( 0.01)
      C   24      [core]2S( 0.95)2p( 3.29)3p( 0.01)
      C   25      [core]2S( 0.95)2p( 3.29)3p( 0.01)
      C   26      [core]2S( 0.96)2p( 3.31)3p( 0.01)
      C   27      [core]2S( 0.97)2p( 3.28)3p( 0.01)
      C   28      [core]2S( 0.96)2p( 3.32)3p( 0.01)
      H   29            1S( 0.58)
      H   30            1S( 0.58)
      H   31            1S( 0.75)
      H   32            1S( 0.74)
      H   33            1S( 0.75)
      H   34            1S( 0.75)
      H   35            1S( 0.75)
      H   36            1S( 0.75)
      H   37            1S( 0.74)
      H   38            1S( 0.75)
      H   39            1S( 0.58)
      H   40            1S( 0.58)
      H   41            1S( 0.75)
      H   42            1S( 0.74)
      H   43            1S( 0.74)
      H   44            1S( 0.76)
      H   45            1S( 0.76)
      H   46            1S( 0.74)
      H   47            1S( 0.74)
      H   48            1S( 0.75)


 NBO analysis skipped by request.
 1\1\GINC-DRG2-W001\SP\RB3LYP TD-FC\6-31G(d,p)\C24H20N2O2\QDUEZ\18-Jul-
 2024\0\\# TD(NStates=10, Root=1) B3LYP/6-31G** SCRF=(Solvent=water) vo
 lume pop=NPA density=current Geom=AllCheck Guess=Read\\HYDATEKARGDBKU-
 UHFFFAOYSA-N_conf_4\\0,1\N,0,-9.2186929057,0.7799579239,-1.1272720535\
 C,0,-8.0820682872,0.2296523369,-0.533609879\C,0,-7.4611351051,-0.90783
 86015,-1.0828726736\C,0,-6.2894139441,-1.4184394916,-0.5283415024\C,0,
 -5.720341101,-0.8023501176,0.5852439927\O,0,-4.5983391139,-1.371774084
 9,1.1899140393\C,0,-3.3439433236,-0.8930145842,0.8819226447\C,0,-2.280
 1232727,-1.4620450654,1.5919475919\C,0,-0.9773005135,-1.0455022803,1.3
 435421718\C,0,-0.6916469901,-0.0569344996,0.3826071934\C,0,0.701124288
 5,0.383329772,0.1194253913\C,0,0.9967997431,1.7213359628,-0.2039585191
 \C,0,2.2996144809,2.1375596485,-0.4529384195\C,0,3.3534081092,1.218886
 0712,-0.3808196162\O,0,4.6084536464,1.719476033,-0.6488802288\C,0,5.72
 28550522,0.8883487298,-0.5219804991\C,0,6.3546386564,0.7493221006,0.71
 38015642\C,0,7.5174501348,-0.0101155324,0.8180777084\C,0,8.0700934753,
 -0.6417339103,-0.3124041869\N,0,9.1991227378,-1.4534735323,-0.19599291
 36\C,0,7.420036582,-0.4846030607,-1.5509028292\C,0,6.2555177761,0.2732
 943776,-1.6540013155\C,0,3.0904425644,-0.1158616709,-0.0609540164\C,0,
 1.7767710667,-0.5174675976,0.1822149308\C,0,-1.7772994734,0.4949000213
 ,-0.3168456135\C,0,-3.091024449,0.0912505882,-0.0773879873\C,0,-6.3228
 461217,0.322855236,1.1478728857\C,0,-7.4928333883,0.8352654346,0.59261
 75864\H,0,-9.7765201636,0.1256813598,-1.6611678231\H,0,-9.798718821,1.
 3280268858,-0.5047446641\H,0,-7.902612398,-1.3932924832,-1.9488990355\
 H,0,-5.8189675267,-2.3008974586,-0.9503476987\H,0,-2.4920679955,-2.218
 4775886,2.3407440278\H,0,-0.1690581272,-1.4803536077,1.9236257574\H,0,
 0.1971227997,2.4549126326,-0.2390316496\H,0,2.5195562716,3.1728442339,
 -0.6929770765\H,0,5.9399977383,1.2429177798,1.5871142217\H,0,8.0074956
 116,-0.1137733866,1.7822722043\H,0,9.8019570001,-1.2312968435,0.586041
 6241\H,0,9.7344107902,-1.5591965125,-1.0483908463\H,0,7.833112868,-0.9
 595093177,-2.4365672264\H,0,5.7625915978,0.398522335,-2.6128984863\H,0
 ,3.8979687547,-0.8367546312,-0.0132643507\H,0,1.5873509292,-1.56358510
 65,0.4032824664\H,0,-1.596467214,1.2415707155,-1.0842404139\H,0,-3.906
 6363986,0.5299973974,-0.6398275334\H,0,-5.8798704273,0.7878284459,2.02
 29792532\H,0,-7.9599656134,1.7105549437,1.0355817465\\Version=ES64L-G1
 6RevA.03\State=1-A\HF=-1186.5935456\RMSD=5.272e-09\Dipole=-0.0273201,-
 0.1863692,-0.3413861\Quadrupole=68.505544,-36.687603,-31.817941,-12.38
 79202,5.2479107,4.1594388\PG=C01 [X(C24H20N2O2)]\\@


 THE LENGTH OF A MEETING IS PROPORTIONAL TO THE
 SQUARE OF THE PARTICIPANTS.
 Job cpu time:       0 days  2 hours  4 minutes 53.0 seconds.
 Elapsed time:       0 days  0 hours 41 minutes 43.9 seconds.
 File lengths (MBytes):  RWF=   2139 Int=      0 D2E=      0 Chk=    131 Scr=      1
 Normal termination of Gaussian 16 at Thu Jul 18 01:13:17 2024.
