 Entering Gaussian System, Link 0=g16
 Initial command:
 /opt/sw/arch/manual/gaussian/G16_A03/g16/l1.exe "/scratch/1030834.jesse.materianova.be/Gau-41854.inp" -scrdir="/scratch/1030834.jesse.materianova.be/"
 Entering Link 1 = /opt/sw/arch/manual/gaussian/G16_A03/g16/l1.exe PID=     41855.
  
 Copyright (c) 1988,1990,1992,1993,1995,1998,2003,2009,2016,
            Gaussian, Inc.  All Rights Reserved.
  
 This is part of the Gaussian(R) 16 program.  It is based on
 the Gaussian(R) 09 system (copyright 2009, Gaussian, Inc.),
 the Gaussian(R) 03 system (copyright 2003, Gaussian, Inc.),
 the Gaussian(R) 98 system (copyright 1998, Gaussian, Inc.),
 the Gaussian(R) 94 system (copyright 1995, Gaussian, Inc.),
 the Gaussian 92(TM) system (copyright 1992, Gaussian, Inc.),
 the Gaussian 90(TM) system (copyright 1990, Gaussian, Inc.),
 the Gaussian 88(TM) system (copyright 1988, Gaussian, Inc.),
 the Gaussian 86(TM) system (copyright 1986, Carnegie Mellon
 University), and the Gaussian 82(TM) system (copyright 1983,
 Carnegie Mellon University). Gaussian is a federally registered
 trademark of Gaussian, Inc.
  
 This software contains proprietary and confidential information,
 including trade secrets, belonging to Gaussian, Inc.
  
 This software is provided under written license and may be
 used, copied, transmitted, or stored only in accord with that
 written license.
  
 The following legend is applicable only to US Government
 contracts under FAR:
  
                    RESTRICTED RIGHTS LEGEND
  
 Use, reproduction and disclosure by the US Government is
 subject to restrictions as set forth in subparagraphs (a)
 and (c) of the Commercial Computer Software - Restricted
 Rights clause in FAR 52.227-19.
  
 Gaussian, Inc.
 340 Quinnipiac St., Bldg. 40, Wallingford CT 06492
  
  
 ---------------------------------------------------------------
 Warning -- This program may not be used in any manner that
 competes with the business of Gaussian, Inc. or will provide
 assistance to any competitor of Gaussian, Inc.  The licensee
 of this program is prohibited from giving any competitor of
 Gaussian, Inc. access to this program.  By using this program,
 the user acknowledges that Gaussian, Inc. is engaged in the
 business of creating and licensing software in the field of
 computational chemistry and represents and warrants to the
 licensee that it is not a competitor of Gaussian, Inc. and that
 it will not use this program in any manner prohibited above.
 ---------------------------------------------------------------
  

 Cite this work as:
 Gaussian 16, Revision A.03,
 M. J. Frisch, G. W. Trucks, H. B. Schlegel, G. E. Scuseria, 
 M. A. Robb, J. R. Cheeseman, G. Scalmani, V. Barone, 
 G. A. Petersson, H. Nakatsuji, X. Li, M. Caricato, A. V. Marenich, 
 J. Bloino, B. G. Janesko, R. Gomperts, B. Mennucci, H. P. Hratchian, 
 J. V. Ortiz, A. F. Izmaylov, J. L. Sonnenberg, D. Williams-Young, 
 F. Ding, F. Lipparini, F. Egidi, J. Goings, B. Peng, A. Petrone, 
 T. Henderson, D. Ranasinghe, V. G. Zakrzewski, J. Gao, N. Rega, 
 G. Zheng, W. Liang, M. Hada, M. Ehara, K. Toyota, R. Fukuda, 
 J. Hasegawa, M. Ishida, T. Nakajima, Y. Honda, O. Kitao, H. Nakai, 
 T. Vreven, K. Throssell, J. A. Montgomery, Jr., J. E. Peralta, 
 F. Ogliaro, M. J. Bearpark, J. J. Heyd, E. N. Brothers, K. N. Kudin, 
 V. N. Staroverov, T. A. Keith, R. Kobayashi, J. Normand, 
 K. Raghavachari, A. P. Rendell, J. C. Burant, S. S. Iyengar, 
 J. Tomasi, M. Cossi, J. M. Millam, M. Klene, C. Adamo, R. Cammi, 
 J. W. Ochterski, R. L. Martin, K. Morokuma, O. Farkas, 
 J. B. Foresman, and D. J. Fox, Gaussian, Inc., Wallingford CT, 2016.
 
 ******************************************
 Gaussian 16:  EM64L-G16RevA.03 25-Dec-2016
                 9-Jul-2024 
 ******************************************
 %nprocshared=3
 Will use up to    3 processors via shared memory.
 %mem=6GB
 %Chk=VHRGRCVQAFMJIZ-UHFFFAOYSA-N_conf_3_0.chk
 -------------------------------------------------------
 # opt=CalcFc B3LYP/6-31G** SCRF=(Solvent=water) scf=xqc
 -------------------------------------------------------
 1/10=4,18=20,19=15,26=3,38=1/1,3;
 2/9=110,12=2,17=6,18=5,40=1/2;
 3/5=1,6=6,7=101,11=2,25=1,30=1,70=2201,71=2,72=1,74=-5,140=1/1,2,3;
 4//1;
 5/5=2,8=3,13=1,38=5,53=1/2,8;
 8/6=4,10=90,11=11/1;
 11/6=1,8=1,9=11,15=111,16=1/1,2,10;
 10/6=1,13=1/2;
 6/7=2,8=2,9=2,10=2,28=1/1;
 7/10=1,18=20,25=1/1,2,3,16;
 1/10=4,18=20,19=15,26=3/3(2);
 2/9=110/2;
 99//99;
 2/9=110/2;
 3/5=1,6=6,7=101,11=2,25=1,30=1,70=2205,71=1,72=1,74=-5/1,2,3;
 4/5=5,16=3,69=1/1;
 5/5=2,8=3,13=1,38=5,53=1/2,8;
 7//1,2,3,16;
 1/18=20,19=15,26=3/3(-5);
 2/9=110/2;
 6/7=2,8=2,9=2,10=2,19=2,28=1/1;
 99/9=1/99;
 ----------------------------------
 VHRGRCVQAFMJIZ-UHFFFAOYSA-N_conf_3
 ----------------------------------
 Symbolic Z-matrix:
 Charge =  0 Multiplicity = 1
 N                     3.35293  -0.20671  -0.70832 
 C                     2.37123   0.57111   0.03753 
 C                     0.95945   0.06366  -0.25658 
 C                    -0.08864   0.87642   0.50797 
 C                    -1.53026   0.48699   0.1654 
 C                    -1.89731  -0.92743   0.61564 
 N                    -3.30362  -1.21207   0.34764 
 H                     4.29085   0.11071  -0.46651 
 H                     3.30244  -1.18548  -0.42806 
 H                     2.58543   0.49581   1.10929 
 H                     2.46044   1.62474  -0.24784 
 H                     0.75888   0.12945  -1.33334 
 H                     0.88886  -0.99393   0.02307 
 H                     0.04219   1.93994   0.27205 
 H                     0.07462   0.77033   1.58738 
 H                    -1.69018   0.5904   -0.91523 
 H                    -2.20022   1.20689   0.65313 
 H                    -1.71001  -1.04478   1.6883 
 H                    -1.28998  -1.67227   0.09267 
 H                    -3.48894  -1.10232  -0.64904 
 H                    -3.88817  -0.52145   0.81727 
 

 GradGradGradGradGradGradGradGradGradGradGradGradGradGradGradGradGradGrad
 Berny optimization.
 Initialization pass.
                           ----------------------------
                           !    Initial Parameters    !
                           ! (Angstroms and Degrees)  !
 --------------------------                            --------------------------
 ! Name  Definition              Value          Derivative Info.                !
 --------------------------------------------------------------------------------
 ! R1    R(1,2)                  1.4577         calculate D2E/DX2 analytically  !
 ! R2    R(1,8)                  1.0193         calculate D2E/DX2 analytically  !
 ! R3    R(1,9)                  1.0194         calculate D2E/DX2 analytically  !
 ! R4    R(2,3)                  1.5288         calculate D2E/DX2 analytically  !
 ! R5    R(2,10)                 1.0955         calculate D2E/DX2 analytically  !
 ! R6    R(2,11)                 1.0952         calculate D2E/DX2 analytically  !
 ! R7    R(3,4)                  1.5309         calculate D2E/DX2 analytically  !
 ! R8    R(3,12)                 1.0972         calculate D2E/DX2 analytically  !
 ! R9    R(3,13)                 1.0962         calculate D2E/DX2 analytically  !
 ! R10   R(4,5)                  1.5321         calculate D2E/DX2 analytically  !
 ! R11   R(4,14)                 1.0972         calculate D2E/DX2 analytically  !
 ! R12   R(4,15)                 1.0968         calculate D2E/DX2 analytically  !
 ! R13   R(5,6)                  1.5291         calculate D2E/DX2 analytically  !
 ! R14   R(5,16)                 1.0973         calculate D2E/DX2 analytically  !
 ! R15   R(5,17)                 1.0977         calculate D2E/DX2 analytically  !
 ! R16   R(6,7)                  1.4596         calculate D2E/DX2 analytically  !
 ! R17   R(6,18)                 1.0952         calculate D2E/DX2 analytically  !
 ! R18   R(6,19)                 1.0941         calculate D2E/DX2 analytically  !
 ! R19   R(7,20)                 1.0197         calculate D2E/DX2 analytically  !
 ! R20   R(7,21)                 1.0194         calculate D2E/DX2 analytically  !
 ! A1    A(2,1,8)              109.3991         calculate D2E/DX2 analytically  !
 ! A2    A(2,1,9)              109.7735         calculate D2E/DX2 analytically  !
 ! A3    A(8,1,9)              106.2228         calculate D2E/DX2 analytically  !
 ! A4    A(1,2,3)              110.2649         calculate D2E/DX2 analytically  !
 ! A5    A(1,2,10)             109.4016         calculate D2E/DX2 analytically  !
 ! A6    A(1,2,11)             108.9743         calculate D2E/DX2 analytically  !
 ! A7    A(3,2,10)             110.2401         calculate D2E/DX2 analytically  !
 ! A8    A(3,2,11)             110.1459         calculate D2E/DX2 analytically  !
 ! A9    A(10,2,11)            107.764          calculate D2E/DX2 analytically  !
 ! A10   A(2,3,4)              111.0962         calculate D2E/DX2 analytically  !
 ! A11   A(2,3,12)             109.7366         calculate D2E/DX2 analytically  !
 ! A12   A(2,3,13)             109.3067         calculate D2E/DX2 analytically  !
 ! A13   A(4,3,12)             109.4581         calculate D2E/DX2 analytically  !
 ! A14   A(4,3,13)             109.9198         calculate D2E/DX2 analytically  !
 ! A15   A(12,3,13)            107.2424         calculate D2E/DX2 analytically  !
 ! A16   A(3,4,5)              113.4272         calculate D2E/DX2 analytically  !
 ! A17   A(3,4,14)             109.001          calculate D2E/DX2 analytically  !
 ! A18   A(3,4,15)             109.769          calculate D2E/DX2 analytically  !
 ! A19   A(5,4,14)             108.0896         calculate D2E/DX2 analytically  !
 ! A20   A(5,4,15)             109.6046         calculate D2E/DX2 analytically  !
 ! A21   A(14,4,15)            106.7151         calculate D2E/DX2 analytically  !
 ! A22   A(4,5,6)              113.2762         calculate D2E/DX2 analytically  !
 ! A23   A(4,5,16)             109.4748         calculate D2E/DX2 analytically  !
 ! A24   A(4,5,17)             107.9529         calculate D2E/DX2 analytically  !
 ! A25   A(6,5,16)             110.0094         calculate D2E/DX2 analytically  !
 ! A26   A(6,5,17)             109.2267         calculate D2E/DX2 analytically  !
 ! A27   A(16,5,17)            106.6674         calculate D2E/DX2 analytically  !
 ! A28   A(5,6,7)              110.9529         calculate D2E/DX2 analytically  !
 ! A29   A(5,6,18)             110.2708         calculate D2E/DX2 analytically  !
 ! A30   A(5,6,19)             110.8381         calculate D2E/DX2 analytically  !
 ! A31   A(7,6,18)             108.8869         calculate D2E/DX2 analytically  !
 ! A32   A(7,6,19)             108.3175         calculate D2E/DX2 analytically  !
 ! A33   A(18,6,19)            107.4743         calculate D2E/DX2 analytically  !
 ! A34   A(6,7,20)             109.4859         calculate D2E/DX2 analytically  !
 ! A35   A(6,7,21)             109.619          calculate D2E/DX2 analytically  !
 ! A36   A(20,7,21)            105.8528         calculate D2E/DX2 analytically  !
 ! D1    D(8,1,2,3)           -177.1332         calculate D2E/DX2 analytically  !
 ! D2    D(8,1,2,10)           -55.7327         calculate D2E/DX2 analytically  !
 ! D3    D(8,1,2,11)            61.8574         calculate D2E/DX2 analytically  !
 ! D4    D(9,1,2,3)            -60.9439         calculate D2E/DX2 analytically  !
 ! D5    D(9,1,2,10)            60.4566         calculate D2E/DX2 analytically  !
 ! D6    D(9,1,2,11)           178.0467         calculate D2E/DX2 analytically  !
 ! D7    D(1,2,3,4)           -179.4827         calculate D2E/DX2 analytically  !
 ! D8    D(1,2,3,12)           -58.3017         calculate D2E/DX2 analytically  !
 ! D9    D(1,2,3,13)            59.0446         calculate D2E/DX2 analytically  !
 ! D10   D(10,2,3,4)            59.6167         calculate D2E/DX2 analytically  !
 ! D11   D(10,2,3,12)         -179.2023         calculate D2E/DX2 analytically  !
 ! D12   D(10,2,3,13)          -61.856          calculate D2E/DX2 analytically  !
 ! D13   D(11,2,3,4)           -59.1755         calculate D2E/DX2 analytically  !
 ! D14   D(11,2,3,12)           62.0054         calculate D2E/DX2 analytically  !
 ! D15   D(11,2,3,13)          179.3517         calculate D2E/DX2 analytically  !
 ! D16   D(2,3,4,5)            175.3362         calculate D2E/DX2 analytically  !
 ! D17   D(2,3,4,14)            54.8648         calculate D2E/DX2 analytically  !
 ! D18   D(2,3,4,15)           -61.6865         calculate D2E/DX2 analytically  !
 ! D19   D(12,3,4,5)            53.9919         calculate D2E/DX2 analytically  !
 ! D20   D(12,3,4,14)          -66.4794         calculate D2E/DX2 analytically  !
 ! D21   D(12,3,4,15)          176.9692         calculate D2E/DX2 analytically  !
 ! D22   D(13,3,4,5)           -63.5505         calculate D2E/DX2 analytically  !
 ! D23   D(13,3,4,14)          175.9781         calculate D2E/DX2 analytically  !
 ! D24   D(13,3,4,15)           59.4268         calculate D2E/DX2 analytically  !
 ! D25   D(3,4,5,6)             66.4474         calculate D2E/DX2 analytically  !
 ! D26   D(3,4,5,16)           -56.7289         calculate D2E/DX2 analytically  !
 ! D27   D(3,4,5,17)          -172.474          calculate D2E/DX2 analytically  !
 ! D28   D(14,4,5,6)          -172.5669         calculate D2E/DX2 analytically  !
 ! D29   D(14,4,5,16)           64.2569         calculate D2E/DX2 analytically  !
 ! D30   D(14,4,5,17)          -51.4883         calculate D2E/DX2 analytically  !
 ! D31   D(15,4,5,6)           -56.6204         calculate D2E/DX2 analytically  !
 ! D32   D(15,4,5,16)         -179.7966         calculate D2E/DX2 analytically  !
 ! D33   D(15,4,5,17)           64.4582         calculate D2E/DX2 analytically  !
 ! D34   D(4,5,6,7)            176.1042         calculate D2E/DX2 analytically  !
 ! D35   D(4,5,6,18)            55.3783         calculate D2E/DX2 analytically  !
 ! D36   D(4,5,6,19)           -63.5088         calculate D2E/DX2 analytically  !
 ! D37   D(16,5,6,7)           -61.0147         calculate D2E/DX2 analytically  !
 ! D38   D(16,5,6,18)          178.2594         calculate D2E/DX2 analytically  !
 ! D39   D(16,5,6,19)           59.3724         calculate D2E/DX2 analytically  !
 ! D40   D(17,5,6,7)            55.7466         calculate D2E/DX2 analytically  !
 ! D41   D(17,5,6,18)          -64.9792         calculate D2E/DX2 analytically  !
 ! D42   D(17,5,6,19)          176.1337         calculate D2E/DX2 analytically  !
 ! D43   D(5,6,7,20)            58.268          calculate D2E/DX2 analytically  !
 ! D44   D(5,6,7,21)           -57.4378         calculate D2E/DX2 analytically  !
 ! D45   D(18,6,7,20)          179.8088         calculate D2E/DX2 analytically  !
 ! D46   D(18,6,7,21)           64.1029         calculate D2E/DX2 analytically  !
 ! D47   D(19,6,7,20)          -63.6035         calculate D2E/DX2 analytically  !
 ! D48   D(19,6,7,21)         -179.3094         calculate D2E/DX2 analytically  !
 --------------------------------------------------------------------------------
 Trust Radius=3.00D-01 FncErr=1.00D-07 GrdErr=1.00D-06 EigMax=2.50D+02 EigMin=1.00D-04
 Number of steps in this run=    114 maximum allowed number of steps=    126.
 GradGradGradGradGradGradGradGradGradGradGradGradGradGradGradGradGradGrad

                          Input orientation:                          
 ---------------------------------------------------------------------
 Center     Atomic      Atomic             Coordinates (Angstroms)
 Number     Number       Type             X           Y           Z
 ---------------------------------------------------------------------
      1          7           0        3.352934   -0.206708   -0.708316
      2          6           0        2.371232    0.571107    0.037531
      3          6           0        0.959452    0.063663   -0.256583
      4          6           0       -0.088643    0.876423    0.507974
      5          6           0       -1.530256    0.486989    0.165398
      6          6           0       -1.897308   -0.927432    0.615639
      7          7           0       -3.303625   -1.212071    0.347637
      8          1           0        4.290849    0.110707   -0.466510
      9          1           0        3.302440   -1.185484   -0.428057
     10          1           0        2.585435    0.495805    1.109287
     11          1           0        2.460438    1.624739   -0.247837
     12          1           0        0.758885    0.129446   -1.333336
     13          1           0        0.888859   -0.993926    0.023072
     14          1           0        0.042188    1.939937    0.272051
     15          1           0        0.074622    0.770335    1.587383
     16          1           0       -1.690178    0.590395   -0.915227
     17          1           0       -2.200216    1.206888    0.653127
     18          1           0       -1.710015   -1.044776    1.688303
     19          1           0       -1.289983   -1.672270    0.092669
     20          1           0       -3.488940   -1.102320   -0.649037
     21          1           0       -3.888168   -0.521447    0.817272
 ---------------------------------------------------------------------
                    Distance matrix (angstroms):
                    1          2          3          4          5
     1  N    0.000000
     2  C    1.457746   0.000000
     3  C    2.450698   1.528767   0.000000
     4  C    3.807490   2.522998   1.530891   0.000000
     5  C    5.009006   3.904489   2.560453   1.532079   0.000000
     6  C    5.462357   4.560730   3.147081   2.556708   1.529062
     7  N    6.814365   5.956500   4.490702   3.837138   2.462692
     8  H    1.019268   2.037389   3.338336   4.551471   5.867381
     9  H    1.019361   2.041944   2.660708   4.077628   5.148233
    10  H    2.094340   1.095543   2.167065   2.767153   4.222548
    11  H    2.088729   1.095232   2.165640   2.762071   4.170237
    12  H    2.689376   2.161944   1.097246   2.160254   2.759385
    13  H    2.688179   2.155682   1.096213   2.165373   2.839979
    14  H    4.065739   2.711667   2.154351   1.097196   2.143598
    15  H    4.119730   2.777796   2.163913   1.096829   2.162859
    16  H    5.109909   4.171711   2.780611   2.161534   1.097278
    17  H    5.889758   4.656319   3.481097   2.142199   1.097716
    18  H    5.663885   4.689638   3.483859   2.777234   2.167454
    19  H    4.934179   4.294214   2.862760   2.848074   2.173803
    20  H    6.900498   6.132972   4.615379   4.100746   2.650594
    21  H    7.406756   6.401700   4.999494   4.060308   2.646060
                    6          7          8          9         10
     6  C    0.000000
     7  N    1.459648   0.000000
     8  H    6.367265   7.751684   0.000000
     9  H    5.309734   6.651503   1.630503   0.000000
    10  H    4.729088   6.178833   2.353694   2.388359   0.000000
    11  H    5.123389   6.451860   2.385480   2.939184   1.769718
    12  H    3.459892   4.596664   3.636827   3.003039   3.071955
    13  H    2.849260   4.210683   3.610185   2.462841   2.505500
    14  H    3.478721   4.597318   4.684300   4.570300   3.042134
    15  H    2.777626   4.108461   4.736049   4.278555   2.570627
    16  H    2.165700   2.728905   6.016987   5.321402   4.731646
    17  H    2.156033   2.676228   6.677509   6.096853   4.859647
    18  H    1.095197   2.089250   6.479871   5.442746   4.599949
    19  H    1.094132   2.081237   5.885352   4.647414   4.555537
    20  H    2.040412   1.019679   7.875904   6.795483   6.522556
    21  H    2.041814   1.019416   8.303255   7.327799   6.559543
                   11         12         13         14         15
    11  H    0.000000
    12  H    2.511870   0.000000
    13  H    3.066049   1.765984   0.000000
    14  H    2.493504   2.523647   3.063721   0.000000
    15  H    3.128922   3.067499   2.494527   1.760431   0.000000
    16  H    4.329306   2.526895   3.168898   2.496395   3.067565
    17  H    4.765294   3.723330   3.844858   2.389761   2.497659
    18  H    5.316731   4.074870   3.087025   3.739585   2.547497
    19  H    5.005184   3.078559   2.283056   3.854204   3.172165
    20  H    6.556898   4.475436   4.430418   4.751063   4.605147
    21  H    6.785674   5.161771   4.865591   4.669409   4.238570
                   16         17         18         19         20
    16  H    0.000000
    17  H    1.760664   0.000000
    18  H    3.074500   2.526238   0.000000
    19  H    2.509116   3.071186   1.765283   0.000000
    20  H    2.484288   2.947691   2.937864   2.389641   0.000000
    21  H    3.011463   2.421419   2.403523   2.932577   1.626917
                   21
    21  H    0.000000
 Stoichiometry    C5H14N2
 Framework group  C1[X(C5H14N2)]
 Deg. of freedom    57
 Full point group                 C1      NOp   1
 Largest Abelian subgroup         C1      NOp   1
 Largest concise Abelian subgroup C1      NOp   1
                         Standard orientation:                         
 ---------------------------------------------------------------------
 Center     Atomic      Atomic             Coordinates (Angstroms)
 Number     Number       Type             X           Y           Z
 ---------------------------------------------------------------------
      1          7           0        3.376879   -0.745693   -0.202114
      2          6           0        2.438556    0.302409    0.180058
      3          6           0        1.015452   -0.090434   -0.216899
      4          6           0        0.015051    1.003766    0.164614
      5          6           0       -1.412862    0.716089   -0.310331
      6          6           0       -2.048209   -0.490447    0.381505
      7          7           0       -3.435050   -0.663173   -0.039694
      8          1           0        4.313291   -0.492262    0.110633
      9          1           0        3.140620   -1.612465    0.279534
     10          1           0        2.498407    0.467871    1.261379
     11          1           0        2.724915    1.235345   -0.317095
     12          1           0        0.968138   -0.267900   -1.298665
     13          1           0        0.747455   -1.030790    0.278674
     14          1           0        0.337323    1.953416   -0.280519
     15          1           0        0.019277    1.147538    1.251971
     16          1           0       -1.414070    0.569041   -1.397710
     17          1           0       -2.021377    1.608041   -0.112567
     18          1           0       -2.021305   -0.362013    1.468813
     19          1           0       -1.500338   -1.407614    0.145357
     20          1           0       -3.470998   -0.780475   -1.051965
     21          1           0       -3.962058    0.186028    0.161125
 ---------------------------------------------------------------------
 Rotational constants (GHZ):           7.4120048           0.8670915           0.8145284
 Standard basis: 6-31G(d,p) (6D, 7F)
 There are   175 symmetry adapted cartesian basis functions of A   symmetry.
 There are   175 symmetry adapted basis functions of A   symmetry.
   175 basis functions,   294 primitive gaussians,   175 cartesian basis functions
    29 alpha electrons       29 beta electrons
       nuclear repulsion energy       315.4698058251 Hartrees.
 NAtoms=   21 NActive=   21 NUniq=   21 SFac= 1.00D+00 NAtFMM=   60 NAOKFM=F Big=F
 Integral buffers will be    131072 words long.
 Raffenetti 2 integral format.
 Two-electron integral symmetry is turned on.
 Force inversion solution in PCM.
 ------------------------------------------------------------------------------
 Polarizable Continuum Model (PCM)
 =================================
 Model                : PCM.
 Atomic radii         : UFF (Universal Force Field).
 Polarization charges : Total charges.
 Charge compensation  : None.
 Solution method      : Matrix inversion.
 Cavity type          : Scaled VdW (van der Waals Surface) (Alpha=1.100).
 Cavity algorithm     : GePol (No added spheres)
                        Default sphere list used, NSphG=   21.
                        Lebedev-Laikov grids with approx.  5.0 points / Ang**2.
                        Smoothing algorithm: York/Karplus (Gamma=1.0000).
                        Polarization charges: spherical gaussians, with
                                              point-specific exponents (IZeta= 3).
                        Self-potential: point-specific (ISelfS= 7).
                        Self-field    : sphere-specific E.n sum rule (ISelfD= 2).
 1st derivatives      : Analytical E(r).r(x)/FMM algorithm (CHGder, D1EAlg=3).
                        Cavity 1st derivative terms included.
 2nd derivatives      : Analytical E(r).r(xy)/FMM algorithm (CHGder, D2EAlg=3).
                        Cavity 2nd derivative terms included.
 Solvent              : Water, Eps=  78.355300 Eps(inf)=   1.777849
 ------------------------------------------------------------------------------
 One-electron integrals computed using PRISM.
 NBasis=   175 RedAO= T EigKep=  2.88D-03  NBF=   175
 NBsUse=   175 1.00D-06 EigRej= -1.00D+00 NBFU=   175
 ExpMin= 1.61D-01 ExpMax= 4.17D+03 ExpMxC= 6.27D+02 IAcc=3 IRadAn=         5 AccDes= 0.00D+00
 Harris functional with IExCor=  402 and IRadAn=       5 diagonalized for initial guess.
 HarFok:  IExCor=  402 AccDes= 0.00D+00 IRadAn=         5 IDoV= 1 UseB2=F ITyADJ=14
 ICtDFT=  3500011 ScaDFX=  1.000000  1.000000  1.000000  1.000000
 FoFCou: FMM=F IPFlag=           0 FMFlag=      100000 FMFlg1=           0
         NFxFlg=           0 DoJE=T BraDBF=F KetDBF=T FulRan=T
         wScrn=  0.000000 ICntrl=       500 IOpCl=  0 I1Cent=   200000004 NGrid=           0
         NMat0=    1 NMatS0=      1 NMatT0=    0 NMatD0=    1 NMtDS0=    0 NMtDT0=    0
 Petite list used in FoFCou.
 Keep R1 ints in memory in canonical form, NReq=121590815.
 Requested convergence on RMS density matrix=1.00D-08 within  32 cycles.
 Requested convergence on MAX density matrix=1.00D-06.
 Requested convergence on             energy=1.00D-06.
 No special actions if energy rises.
 Inv3:  Mode=1 IEnd=     6642432.
 Iteration    1 A*A^-1 deviation from unit magnitude is 6.44D-15 for    790.
 Iteration    1 A*A^-1 deviation from orthogonality  is 4.50D-15 for   1028    169.
 Iteration    1 A^-1*A deviation from unit magnitude is 7.77D-15 for    790.
 Iteration    1 A^-1*A deviation from orthogonality  is 1.92D-15 for   1463   1207.
 Error on total polarization charges =  0.00843
 SCF Done:  E(RB3LYP) =  -308.481994567     A.U. after   11 cycles
            NFock= 11  Conv=0.21D-08     -V/T= 2.0095
 QCSCF skips out because SCF is already converged.
 DoSCS=F DFT=T ScalE2(SS,OS)=  1.000000  1.000000
 Range of M.O.s used for correlation:     1   175
 NBasis=   175 NAE=    29 NBE=    29 NFC=     0 NFV=     0
 NROrb=    175 NOA=    29 NOB=    29 NVA=   146 NVB=   146
 Symmetrizing basis deriv contribution to polar:
 IMax=3 JMax=2 DiffMx= 0.00D+00
 G2DrvN: will do    22 centers at a time, making    1 passes.
 Calling FoFCou, ICntrl=  3107 FMM=F I1Cent=   0 AccDes= 0.00D+00.
 NEqPCM:  Using equilibrium solvation (IEInf=0, Eps=  78.3553, EpsInf=   1.7778)
 G2PCM: DoFxE=T DoFxN=T DoGrad=T DoDP/DQ/DG/TGxP=FFFF NFrqRd=   0 IEInf=0 SqF1=F DoCFld=F IF1Alg=4.
 End of G2Drv F.D. properties file   721 does not exist.
 End of G2Drv F.D. properties file   722 does not exist.
 End of G2Drv F.D. properties file   788 does not exist.
          IDoAtm=111111111111111111111
 NEqPCM:  Using equilibrium solvation (IEInf=0, Eps=  78.3553, EpsInf=   1.7778)
          Differentiating once with respect to nuclear coordinates.
 Keep R1 ints in memory in canonical form, NReq=124996703.
          There are    66 degrees of freedom in the 1st order CPHF.  IDoFFX=6 NUNeed=     0.
     60 vectors produced by pass  0 Test12= 6.42D-15 1.52D-09 XBig12= 7.03D-02 7.10D-02.
 AX will form    60 AO Fock derivatives at one time.
     60 vectors produced by pass  1 Test12= 6.42D-15 1.52D-09 XBig12= 3.03D-03 1.14D-02.
     60 vectors produced by pass  2 Test12= 6.42D-15 1.52D-09 XBig12= 4.42D-05 1.10D-03.
     60 vectors produced by pass  3 Test12= 6.42D-15 1.52D-09 XBig12= 1.44D-07 4.00D-05.
     60 vectors produced by pass  4 Test12= 6.42D-15 1.52D-09 XBig12= 1.22D-10 1.23D-06.
     21 vectors produced by pass  5 Test12= 6.42D-15 1.52D-09 XBig12= 6.16D-14 2.53D-08.
 InvSVY:  IOpt=1 It=  1 EMax= 4.44D-16
 Solved reduced A of dimension   321 with    66 vectors.
 End of Minotr F.D. properties file   721 does not exist.
 End of Minotr F.D. properties file   722 does not exist.
 End of Minotr F.D. properties file   788 does not exist.

 **********************************************************************

            Population analysis using the SCF density.

 **********************************************************************

 Orbital symmetries:
       Occupied  (A) (A) (A) (A) (A) (A) (A) (A) (A) (A) (A) (A)
                 (A) (A) (A) (A) (A) (A) (A) (A) (A) (A) (A) (A)
                 (A) (A) (A) (A) (A)
       Virtual   (A) (A) (A) (A) (A) (A) (A) (A) (A) (A) (A) (A)
                 (A) (A) (A) (A) (A) (A) (A) (A) (A) (A) (A) (A)
                 (A) (A) (A) (A) (A) (A) (A) (A) (A) (A) (A) (A)
                 (A) (A) (A) (A) (A) (A) (A) (A) (A) (A) (A) (A)
                 (A) (A) (A) (A) (A) (A) (A) (A) (A) (A) (A) (A)
                 (A) (A) (A) (A) (A) (A) (A) (A) (A) (A) (A) (A)
                 (A) (A) (A) (A) (A) (A) (A) (A) (A) (A) (A) (A)
                 (A) (A) (A) (A) (A) (A) (A) (A) (A) (A) (A) (A)
                 (A) (A) (A) (A) (A) (A) (A) (A) (A) (A) (A) (A)
                 (A) (A) (A) (A) (A) (A) (A) (A) (A) (A) (A) (A)
                 (A) (A) (A) (A) (A) (A) (A) (A) (A) (A) (A) (A)
                 (A) (A) (A) (A) (A) (A) (A) (A) (A) (A) (A) (A)
                 (A) (A)
 The electronic state is 1-A.
 Alpha  occ. eigenvalues --  -14.30497 -14.30397 -10.19836 -10.19767 -10.17325
 Alpha  occ. eigenvalues --  -10.17295 -10.17068  -0.87597  -0.87349  -0.78365
 Alpha  occ. eigenvalues --   -0.71255  -0.64080  -0.59779  -0.56659  -0.49374
 Alpha  occ. eigenvalues --   -0.47853  -0.46037  -0.44154  -0.42078  -0.41196
 Alpha  occ. eigenvalues --   -0.39483  -0.36990  -0.36145  -0.34873  -0.32490
 Alpha  occ. eigenvalues --   -0.32352  -0.31352  -0.22957  -0.22670
 Alpha virt. eigenvalues --    0.08985   0.08988   0.10304   0.11836   0.12555
 Alpha virt. eigenvalues --    0.14938   0.16122   0.16396   0.18095   0.18786
 Alpha virt. eigenvalues --    0.20141   0.20724   0.20977   0.21901   0.22703
 Alpha virt. eigenvalues --    0.25760   0.25978   0.27732   0.28671   0.31473
 Alpha virt. eigenvalues --    0.50973   0.52392   0.53772   0.55256   0.55524
 Alpha virt. eigenvalues --    0.59095   0.60197   0.64831   0.66475   0.67283
 Alpha virt. eigenvalues --    0.67977   0.69020   0.72774   0.73423   0.74822
 Alpha virt. eigenvalues --    0.76871   0.79163   0.80483   0.82322   0.83499
 Alpha virt. eigenvalues --    0.86088   0.86684   0.88299   0.89806   0.90171
 Alpha virt. eigenvalues --    0.91025   0.92760   0.93055   0.93677   0.95129
 Alpha virt. eigenvalues --    0.97146   0.97762   1.00524   1.02436   1.08195
 Alpha virt. eigenvalues --    1.14088   1.23219   1.27525   1.30946   1.34229
 Alpha virt. eigenvalues --    1.39605   1.41329   1.43387   1.49314   1.56546
 Alpha virt. eigenvalues --    1.59839   1.61520   1.66326   1.70867   1.73225
 Alpha virt. eigenvalues --    1.74450   1.78679   1.80112   1.84255   1.86251
 Alpha virt. eigenvalues --    1.87204   1.89687   1.91431   1.95561   1.97934
 Alpha virt. eigenvalues --    1.99679   2.07822   2.08673   2.09189   2.10957
 Alpha virt. eigenvalues --    2.14418   2.14894   2.16556   2.21801   2.23209
 Alpha virt. eigenvalues --    2.23872   2.25321   2.26078   2.27352   2.29430
 Alpha virt. eigenvalues --    2.29890   2.32392   2.34500   2.37473   2.39384
 Alpha virt. eigenvalues --    2.41634   2.43581   2.49696   2.54872   2.55312
 Alpha virt. eigenvalues --    2.57430   2.61088   2.63131   2.65508   2.69230
 Alpha virt. eigenvalues --    2.73551   2.73968   2.76990   2.77939   2.80439
 Alpha virt. eigenvalues --    2.84808   2.85674   2.88594   2.91391   2.92251
 Alpha virt. eigenvalues --    2.93452   2.93896   2.97471   2.98443   3.00199
 Alpha virt. eigenvalues --    3.23137   3.26023   3.28257   3.30178   3.31486
 Alpha virt. eigenvalues --    3.32846   3.34870   3.38623   3.41111   3.48753
 Alpha virt. eigenvalues --    3.52743   3.57487   3.58623   3.60018   3.99516
 Alpha virt. eigenvalues --    4.01924   4.30534   4.42023   4.53610   4.64527
 Alpha virt. eigenvalues --    4.75133
          Condensed to atoms (all electrons):
               1          2          3          4          5          6
     1  N    6.826707   0.290389  -0.053934   0.003379  -0.000089  -0.000001
     2  C    0.290389   4.794024   0.375445  -0.035463   0.003629   0.000188
     3  C   -0.053934   0.375445   4.934942   0.362847  -0.039947  -0.005269
     4  C    0.003379  -0.035463   0.362847   4.949416   0.323595  -0.039325
     5  C   -0.000089   0.003629  -0.039947   0.323595   5.002475   0.388300
     6  C   -0.000001   0.000188  -0.005269  -0.039325   0.388300   4.793321
     7  N   -0.000000  -0.000001   0.000058   0.006188  -0.070566   0.316175
     8  H    0.336479  -0.032349   0.005865  -0.000243   0.000002   0.000000
     9  H    0.340876  -0.038154  -0.006276  -0.000127  -0.000001  -0.000002
    10  H   -0.053829   0.387156  -0.048822   0.000705   0.000069  -0.000018
    11  H   -0.041851   0.385484  -0.031339  -0.005160  -0.000058   0.000002
    12  H    0.005332  -0.037606   0.374823  -0.036625  -0.003721  -0.000878
    13  H   -0.003072  -0.038133   0.386172  -0.038086  -0.003836   0.001949
    14  H    0.000065  -0.005909  -0.040744   0.373242  -0.027404   0.004493
    15  H   -0.000008  -0.003855  -0.039854   0.384005  -0.039758  -0.007991
    16  H   -0.000003   0.000058  -0.007904  -0.033233   0.377382  -0.039900
    17  H    0.000001  -0.000146   0.004756  -0.028791   0.373447  -0.040416
    18  H   -0.000000  -0.000028  -0.000757  -0.000942  -0.047484   0.386880
    19  H    0.000005  -0.000106   0.002864  -0.002034  -0.045182   0.387981
    20  H    0.000000  -0.000000  -0.000025   0.000131  -0.002540  -0.045911
    21  H    0.000000   0.000000   0.000009   0.000059  -0.002835  -0.046483
               7          8          9         10         11         12
     1  N   -0.000000   0.336479   0.340876  -0.053829  -0.041851   0.005332
     2  C   -0.000001  -0.032349  -0.038154   0.387156   0.385484  -0.037606
     3  C    0.000058   0.005865  -0.006276  -0.048822  -0.031339   0.374823
     4  C    0.006188  -0.000243  -0.000127   0.000705  -0.005160  -0.036625
     5  C   -0.070566   0.000002  -0.000001   0.000069  -0.000058  -0.003721
     6  C    0.316175   0.000000  -0.000002  -0.000018   0.000002  -0.000878
     7  N    6.770217   0.000000   0.000000  -0.000000   0.000000  -0.000013
     8  H    0.000000   0.482285  -0.032192  -0.004107  -0.003283  -0.000088
     9  H    0.000000  -0.032192   0.481903  -0.005258   0.006677  -0.000718
    10  H   -0.000000  -0.004107  -0.005258   0.688342  -0.049864   0.006888
    11  H    0.000000  -0.003283   0.006677  -0.049864   0.636202  -0.007412
    12  H   -0.000013  -0.000088  -0.000718   0.006888  -0.007412   0.639666
    13  H   -0.000060   0.000003   0.005881  -0.007695   0.005853  -0.041267
    14  H   -0.000185   0.000001   0.000017  -0.000644   0.005706  -0.005389
    15  H    0.000088   0.000002   0.000001   0.004928  -0.000544   0.006075
    16  H   -0.000551   0.000000   0.000001   0.000003   0.000009   0.005646
    17  H   -0.001834  -0.000000  -0.000000   0.000008  -0.000006   0.000090
    18  H   -0.036769   0.000000   0.000000  -0.000001   0.000001   0.000080
    19  H   -0.036293  -0.000000  -0.000005   0.000016  -0.000002   0.000579
    20  H    0.347752  -0.000000  -0.000000  -0.000000   0.000000   0.000003
    21  H    0.347551  -0.000000  -0.000000   0.000000  -0.000000   0.000001
              13         14         15         16         17         18
     1  N   -0.003072   0.000065  -0.000008  -0.000003   0.000001  -0.000000
     2  C   -0.038133  -0.005909  -0.003855   0.000058  -0.000146  -0.000028
     3  C    0.386172  -0.040744  -0.039854  -0.007904   0.004756  -0.000757
     4  C   -0.038086   0.373242   0.384005  -0.033233  -0.028791  -0.000942
     5  C   -0.003836  -0.027404  -0.039758   0.377382   0.373447  -0.047484
     6  C    0.001949   0.004493  -0.007991  -0.039900  -0.040416   0.386880
     7  N   -0.000060  -0.000185   0.000088  -0.000551  -0.001834  -0.036769
     8  H    0.000003   0.000001   0.000002   0.000000  -0.000000   0.000000
     9  H    0.005881   0.000017   0.000001   0.000001  -0.000000   0.000000
    10  H   -0.007695  -0.000644   0.004928   0.000003   0.000008  -0.000001
    11  H    0.005853   0.005706  -0.000544   0.000009  -0.000006   0.000001
    12  H   -0.041267  -0.005389   0.006075   0.005646   0.000090   0.000080
    13  H    0.633230   0.006038  -0.006341  -0.000185  -0.000058   0.000380
    14  H    0.006038   0.650262  -0.039127  -0.003651  -0.005496  -0.000071
    15  H   -0.006341  -0.039127   0.641270   0.006016  -0.002940   0.005848
    16  H   -0.000185  -0.003651   0.006016   0.639246  -0.039046   0.005909
    17  H   -0.000058  -0.005496  -0.002940  -0.039046   0.646500  -0.005504
    18  H    0.000380  -0.000071   0.005848   0.005909  -0.005504   0.627544
    19  H    0.001345  -0.000133  -0.000087  -0.006106   0.005894  -0.038153
    20  H    0.000012   0.000001   0.000019   0.005591  -0.000389   0.006560
    21  H   -0.000002  -0.000012   0.000010  -0.000455   0.006549  -0.005476
              19         20         21
     1  N    0.000005   0.000000   0.000000
     2  C   -0.000106  -0.000000   0.000000
     3  C    0.002864  -0.000025   0.000009
     4  C   -0.002034   0.000131   0.000059
     5  C   -0.045182  -0.002540  -0.002835
     6  C    0.387981  -0.045911  -0.046483
     7  N   -0.036293   0.347752   0.347551
     8  H   -0.000000  -0.000000  -0.000000
     9  H   -0.000005  -0.000000  -0.000000
    10  H    0.000016  -0.000000   0.000000
    11  H   -0.000002   0.000000  -0.000000
    12  H    0.000579   0.000003   0.000001
    13  H    0.001345   0.000012  -0.000002
    14  H   -0.000133   0.000001  -0.000012
    15  H   -0.000087   0.000019   0.000010
    16  H   -0.006106   0.005591  -0.000455
    17  H    0.005894  -0.000389   0.006549
    18  H   -0.038153   0.006560  -0.005476
    19  H    0.622044  -0.005671   0.006571
    20  H   -0.005671   0.481389  -0.034451
    21  H    0.006571  -0.034451   0.481954
 Mulliken charges:
               1
     1  N   -0.650446
     2  C   -0.044622
     3  C   -0.172912
     4  C   -0.183538
     5  C   -0.185477
     6  C   -0.053095
     7  N   -0.641759
     8  H    0.247624
     9  H    0.247375
    10  H    0.082124
    11  H    0.099585
    12  H    0.094534
    13  H    0.097872
    14  H    0.088939
    15  H    0.092244
    16  H    0.091174
    17  H    0.087381
    18  H    0.101984
    19  H    0.106475
    20  H    0.247528
    21  H    0.247011
 Sum of Mulliken charges =  -0.00000
 Mulliken charges with hydrogens summed into heavy atoms:
               1
     1  N   -0.155448
     2  C    0.137087
     3  C    0.019495
     4  C   -0.002355
     5  C   -0.006922
     6  C    0.155364
     7  N   -0.147221
 APT charges:
               1
     1  N   -1.444487
     2  C   -0.570594
     3  C   -0.534268
     4  C   -0.710058
     5  C   -0.710125
     6  C   -0.463731
     7  N   -1.168838
     8  H    0.877551
     9  H    0.387234
    10  H    0.346036
    11  H    0.405465
    12  H    0.295753
    13  H    0.246009
    14  H    0.381744
    15  H    0.316853
    16  H    0.297735
    17  H    0.428082
    18  H    0.338116
    19  H    0.210493
    20  H    0.457753
    21  H    0.613278
 Sum of APT charges =  -0.00000
 APT charges with hydrogens summed into heavy atoms:
               1
     1  N   -0.179702
     2  C    0.180908
     3  C    0.007494
     4  C   -0.011462
     5  C    0.015692
     6  C    0.084878
     7  N   -0.097808
 Electronic spatial extent (au):  <R**2>=           1436.2620
 Charge=             -0.0000 electrons
 Dipole moment (field-independent basis, Debye):
    X=              0.6761    Y=              1.4342    Z=              0.7960  Tot=              1.7741
 Quadrupole moment (field-independent basis, Debye-Ang):
   XX=            -47.8884   YY=            -46.8129   ZZ=            -46.1959
   XY=             -5.5194   XZ=              8.8210   YZ=             -0.6934
 Traceless Quadrupole moment (field-independent basis, Debye-Ang):
   XX=             -0.9227   YY=              0.1528   ZZ=              0.7698
   XY=             -5.5194   XZ=              8.8210   YZ=             -0.6934
 Octapole moment (field-independent basis, Debye-Ang**2):
  XXX=             33.5117  YYY=             -3.0525  ZZZ=             -0.0681  XYY=             10.0574
  XXY=             25.4513  XXZ=              8.1145  XZZ=             -8.7513  YZZ=             -0.5288
  YYZ=              0.4628  XYZ=            -11.5459
 Hexadecapole moment (field-independent basis, Debye-Ang**3):
 XXXX=          -1477.7485 YYYY=           -205.8338 ZZZZ=           -102.1760 XXXY=           -103.3057
 XXXZ=            119.6653 YYYX=            -22.8229 YYYZ=             -2.9524 ZZZX=             12.3118
 ZZZY=              0.8111 XXYY=           -310.9498 XXZZ=           -278.9927 YYZZ=            -53.9361
 XXYZ=             -3.5443 YYXZ=             11.1584 ZZXY=              5.5424
 N-N= 3.154698058251D+02 E-N=-1.346156883360D+03  KE= 3.055750248865D+02
  Exact polarizability:   0.000   0.000   0.000   0.000   0.000   0.000
 Approx polarizability:  93.141  -1.527  89.753   0.996   0.890  87.780
 D2PCM: PCM CHGder 2nd derivatives, FixD1E=F FixD2E=F DoIter=F DoCFld=F I1PDM=0
 Calling FoFJK, ICntrl=    100147 FMM=F ISym2X=0 I1Cent= 0 IOpClX= 0 NMat=1 NMatS=1 NMatT=0.
 ***** Axes restored to original set *****
 -------------------------------------------------------------------
 Center     Atomic                   Forces (Hartrees/Bohr)
 Number     Number              X              Y              Z
 -------------------------------------------------------------------
      1        7           0.008555961   -0.001374946   -0.012663347
      2        6           0.001213042   -0.009383340    0.000243030
      3        6           0.001173571    0.007452283    0.005347979
      4        6          -0.002258012    0.001749138   -0.005049495
      5        6           0.011266757    0.003341124    0.007176891
      6        6          -0.007885957    0.009010896   -0.007085615
      7        7          -0.010181618   -0.012810252    0.002013835
      8        1          -0.000782156   -0.002064270   -0.000140282
      9        1           0.000589071    0.001801358    0.001579102
     10        1          -0.006017066    0.005026272    0.007054935
     11        1           0.000015069    0.000852813   -0.000357244
     12        1           0.001594236   -0.000563236   -0.000451917
     13        1           0.001106077   -0.001027921   -0.000701502
     14        1           0.002014531    0.000777584    0.000897626
     15        1           0.000109086    0.000329079    0.001111273
     16        1          -0.000899333   -0.001230960   -0.000811568
     17        1          -0.002552724   -0.001702975    0.000012306
     18        1           0.000584755   -0.000310763    0.001101944
     19        1           0.000544874   -0.000862156    0.000406931
     20        1           0.000483937    0.000902837    0.001625215
     21        1           0.001325900    0.000087436   -0.001310097
 -------------------------------------------------------------------
 Cartesian Forces:  Max     0.012810252 RMS     0.004467504
 FormGI is forming the generalized inverse of G from B-inverse, IUseBI=4.

 GradGradGradGradGradGradGradGradGradGradGradGradGradGradGradGradGradGrad
 Berny optimization.
 Internal  Forces:  Max     0.018962329 RMS     0.003563486
 Search for a local minimum.
 Step number   1 out of a maximum of  114
 All quantities printed in internal units (Hartrees-Bohrs-Radians)
 Mixed Optimization -- RFO/linear search
 Second derivative matrix not updated -- analytic derivatives used.
 ITU=  0
     Eigenvalues ---    0.00153   0.00225   0.00253   0.00280   0.00306
     Eigenvalues ---    0.00373   0.03238   0.03272   0.03367   0.03661
     Eigenvalues ---    0.03928   0.04001   0.04026   0.04175   0.04633
     Eigenvalues ---    0.04673   0.05160   0.05297   0.06674   0.06939
     Eigenvalues ---    0.07282   0.08130   0.08250   0.09668   0.10532
     Eigenvalues ---    0.12044   0.13145   0.13625   0.14643   0.15038
     Eigenvalues ---    0.16277   0.17526   0.18646   0.19260   0.21741
     Eigenvalues ---    0.24282   0.24810   0.27622   0.28273   0.30328
     Eigenvalues ---    0.31832   0.32364   0.32659   0.32715   0.32926
     Eigenvalues ---    0.33294   0.33317   0.33373   0.33644   0.33867
     Eigenvalues ---    0.34421   0.38231   0.38412   0.43910   0.43934
     Eigenvalues ---    0.44099   0.44203
 RFO step:  Lambda=-5.42281881D-03 EMin= 1.53305742D-03
 Linear search not attempted -- first point.
 Iteration  1 RMS(Cart)=  0.03510074 RMS(Int)=  0.00047617
 Iteration  2 RMS(Cart)=  0.00058972 RMS(Int)=  0.00021658
 Iteration  3 RMS(Cart)=  0.00000036 RMS(Int)=  0.00021658
 Variable       Old X    -DE/DX   Delta X   Delta X   Delta X     New X
                                 (Linear)    (Quad)   (Total)
    R1        2.75474   0.01225   0.00000   0.02489   0.02489   2.77963
    R2        1.92614  -0.00140   0.00000  -0.00154  -0.00154   1.92460
    R3        1.92631  -0.00132   0.00000   0.00002   0.00002   1.92633
    R4        2.88895   0.00077   0.00000   0.00160   0.00160   2.89055
    R5        2.07028   0.00538   0.00000   0.01567   0.01567   2.08595
    R6        2.06969   0.00092   0.00000   0.00431   0.00431   2.07400
    R7        2.89297   0.00476   0.00000   0.00771   0.00771   2.90067
    R8        2.07350   0.00012   0.00000   0.00147   0.00147   2.07496
    R9        2.07154   0.00074   0.00000   0.00412   0.00412   2.07566
   R10        2.89521   0.00709   0.00000   0.01006   0.01006   2.90527
   R11        2.07340   0.00080   0.00000   0.00172   0.00172   2.07512
   R12        2.07271   0.00108   0.00000   0.00450   0.00450   2.07721
   R13        2.88951   0.00636   0.00000   0.01356   0.01356   2.90307
   R14        2.07355   0.00081   0.00000   0.00422   0.00422   2.07777
   R15        2.07438   0.00045   0.00000   0.00196   0.00196   2.07635
   R16        2.75833   0.00994   0.00000   0.01960   0.01960   2.77793
   R17        2.06962   0.00121   0.00000   0.00530   0.00530   2.07493
   R18        2.06761   0.00070   0.00000   0.00370   0.00370   2.07131
   R19        1.92691  -0.00158   0.00000  -0.00046  -0.00046   1.92645
   R20        1.92642  -0.00131   0.00000   0.00024   0.00024   1.92666
    A1        1.90937   0.00183   0.00000  -0.00550  -0.00566   1.90371
    A2        1.91591  -0.00232   0.00000  -0.02020  -0.02037   1.89554
    A3        1.85394  -0.00091   0.00000  -0.01973  -0.02009   1.83384
    A4        1.92449   0.00283   0.00000   0.01131   0.01104   1.93553
    A5        1.90942   0.00619   0.00000   0.06398   0.06411   1.97353
    A6        1.90196  -0.00264   0.00000  -0.01793  -0.01772   1.88424
    A7        1.92405  -0.00516   0.00000  -0.02265  -0.02368   1.90037
    A8        1.92241  -0.00074   0.00000  -0.01370  -0.01394   1.90847
    A9        1.88084  -0.00048   0.00000  -0.02113  -0.02145   1.85939
   A10        1.93899   0.00676   0.00000   0.02978   0.02973   1.96872
   A11        1.91526  -0.00305   0.00000  -0.01672  -0.01698   1.89828
   A12        1.90776  -0.00262   0.00000  -0.01134  -0.01158   1.89618
   A13        1.91040  -0.00089   0.00000   0.00630   0.00642   1.91683
   A14        1.91846  -0.00121   0.00000   0.00251   0.00257   1.92103
   A15        1.87173   0.00077   0.00000  -0.01214  -0.01235   1.85938
   A16        1.97968   0.00506   0.00000   0.01927   0.01922   1.99890
   A17        1.90243  -0.00244   0.00000  -0.00578  -0.00597   1.89645
   A18        1.91583  -0.00126   0.00000  -0.00583  -0.00582   1.91001
   A19        1.88652   0.00014   0.00000   0.00861   0.00857   1.89508
   A20        1.91296  -0.00203   0.00000  -0.00706  -0.00701   1.90595
   A21        1.86253   0.00027   0.00000  -0.01081  -0.01084   1.85169
   A22        1.97704   0.00832   0.00000   0.02470   0.02471   2.00176
   A23        1.91070  -0.00212   0.00000   0.00081   0.00098   1.91167
   A24        1.88413  -0.00023   0.00000   0.01559   0.01572   1.89985
   A25        1.92003  -0.00331   0.00000  -0.01801  -0.01816   1.90186
   A26        1.90637  -0.00428   0.00000  -0.01914  -0.01952   1.88685
   A27        1.86170   0.00129   0.00000  -0.00515  -0.00547   1.85623
   A28        1.93649   0.01896   0.00000   0.07088   0.07073   2.00723
   A29        1.92459  -0.00529   0.00000  -0.01800  -0.01815   1.90644
   A30        1.93449  -0.00455   0.00000  -0.01187  -0.01224   1.92225
   A31        1.90043  -0.00581   0.00000  -0.01610  -0.01614   1.88429
   A32        1.89050  -0.00606   0.00000  -0.01341  -0.01374   1.87676
   A33        1.87578   0.00214   0.00000  -0.01430  -0.01478   1.86100
   A34        1.91089  -0.00087   0.00000  -0.01339  -0.01357   1.89732
   A35        1.91321  -0.00128   0.00000  -0.01557  -0.01574   1.89747
   A36        1.84748  -0.00005   0.00000  -0.01539  -0.01578   1.83170
    D1       -3.09156   0.00043   0.00000  -0.01756  -0.01808  -3.10964
    D2       -0.97272  -0.00017   0.00000   0.00295   0.00337  -0.96935
    D3        1.07961   0.00126   0.00000   0.00374   0.00353   1.08314
    D4       -1.06367  -0.00094   0.00000  -0.05600  -0.05631  -1.11998
    D5        1.05517  -0.00154   0.00000  -0.03549  -0.03486   1.02031
    D6        3.10750  -0.00010   0.00000  -0.03470  -0.03470   3.07280
    D7       -3.13256   0.00261   0.00000   0.02465   0.02454  -3.10803
    D8       -1.01756   0.00387   0.00000   0.04082   0.04054  -0.97702
    D9        1.03052   0.00150   0.00000   0.00980   0.00977   1.04029
   D10        1.04051  -0.00360   0.00000  -0.04787  -0.04751   0.99299
   D11       -3.12767  -0.00234   0.00000  -0.03170  -0.03151   3.12400
   D12       -1.07959  -0.00471   0.00000  -0.06272  -0.06228  -1.14187
   D13       -1.03281   0.00066   0.00000   0.00079   0.00064  -1.03217
   D14        1.08220   0.00192   0.00000   0.01697   0.01664   1.09884
   D15        3.13028  -0.00045   0.00000  -0.01406  -0.01412   3.11615
   D16        3.06019   0.00048   0.00000   0.01050   0.01051   3.07070
   D17        0.95757  -0.00129   0.00000  -0.00898  -0.00893   0.94864
   D18       -1.07663   0.00049   0.00000   0.01062   0.01062  -1.06601
   D19        0.94234   0.00051   0.00000   0.00793   0.00783   0.95017
   D20       -1.16029  -0.00126   0.00000  -0.01155  -0.01161  -1.17189
   D21        3.08870   0.00052   0.00000   0.00806   0.00794   3.09664
   D22       -1.10917   0.00082   0.00000   0.01747   0.01753  -1.09164
   D23        3.07140  -0.00096   0.00000  -0.00201  -0.00191   3.06949
   D24        1.03719   0.00082   0.00000   0.01760   0.01764   1.05483
   D25        1.15973   0.00018   0.00000  -0.00200  -0.00213   1.15759
   D26       -0.99011   0.00020   0.00000   0.00335   0.00325  -0.98685
   D27       -3.01024  -0.00008   0.00000   0.00047   0.00053  -3.00971
   D28       -3.01186   0.00044   0.00000   0.00909   0.00908  -3.00278
   D29        1.12149   0.00046   0.00000   0.01445   0.01447   1.13596
   D30       -0.89864   0.00018   0.00000   0.01156   0.01174  -0.88690
   D31       -0.98821  -0.00025   0.00000  -0.00277  -0.00285  -0.99106
   D32       -3.13804  -0.00023   0.00000   0.00258   0.00254  -3.13551
   D33        1.12501  -0.00051   0.00000  -0.00030  -0.00019   1.12482
   D34        3.07360   0.00042   0.00000   0.00906   0.00896   3.08256
   D35        0.96653  -0.00123   0.00000  -0.00533  -0.00526   0.96128
   D36       -1.10844   0.00237   0.00000   0.03143   0.03136  -1.07707
   D37       -1.06491   0.00110   0.00000   0.01422   0.01400  -1.05091
   D38        3.11121  -0.00054   0.00000  -0.00016  -0.00022   3.11099
   D39        1.03624   0.00305   0.00000   0.03660   0.03640   1.07264
   D40        0.97296  -0.00174   0.00000  -0.01352  -0.01339   0.95957
   D41       -1.13410  -0.00339   0.00000  -0.02790  -0.02761  -1.16171
   D42        3.07411   0.00021   0.00000   0.00886   0.00901   3.08312
   D43        1.01697  -0.00038   0.00000  -0.01001  -0.00986   1.00711
   D44       -1.00248   0.00090   0.00000   0.02485   0.02477  -0.97771
   D45        3.13826   0.00127   0.00000   0.00207   0.00211   3.14037
   D46        1.11881   0.00255   0.00000   0.03693   0.03675   1.15556
   D47       -1.11009  -0.00266   0.00000  -0.03098  -0.03084  -1.14093
   D48       -3.12954  -0.00138   0.00000   0.00388   0.00380  -3.12574
         Item               Value     Threshold  Converged?
 Maximum Force            0.018962     0.000450     NO 
 RMS     Force            0.003563     0.000300     NO 
 Maximum Displacement     0.102067     0.001800     NO 
 RMS     Displacement     0.034768     0.001200     NO 
 Predicted change in Energy=-2.828394D-03
 GradGradGradGradGradGradGradGradGradGradGradGradGradGradGradGradGradGrad

                          Input orientation:                          
 ---------------------------------------------------------------------
 Center     Atomic      Atomic             Coordinates (Angstroms)
 Number     Number       Type             X           Y           Z
 ---------------------------------------------------------------------
      1          7           0        3.386450   -0.212474   -0.737764
      2          6           0        2.404931    0.557343    0.041723
      3          6           0        0.981387    0.078925   -0.248714
      4          6           0       -0.083162    0.885559    0.507732
      5          6           0       -1.533379    0.502875    0.170036
      6          6           0       -1.942558   -0.911501    0.608378
      7          7           0       -3.349572   -1.256639    0.359086
      8          1           0        4.323993    0.107260   -0.501056
      9          1           0        3.353189   -1.184720   -0.433216
     10          1           0        2.582990    0.509027    1.130030
     11          1           0        2.499084    1.612920   -0.243629
     12          1           0        0.800247    0.144897   -1.329680
     13          1           0        0.907399   -0.984443    0.016316
     14          1           0        0.058685    1.951209    0.283894
     15          1           0        0.076615    0.777597    1.589896
     16          1           0       -1.697389    0.603000   -0.912553
     17          1           0       -2.211482    1.219753    0.653281
     18          1           0       -1.751035   -1.026551    1.683410
     19          1           0       -1.323920   -1.658549    0.097869
     20          1           0       -3.540295   -1.152431   -0.636913
     21          1           0       -3.942180   -0.563058    0.814313
 ---------------------------------------------------------------------
                    Distance matrix (angstroms):
                    1          2          3          4          5
     1  N    0.000000
     2  C    1.470917   0.000000
     3  C    2.471520   1.529613   0.000000
     4  C    3.846446   2.552548   1.534971   0.000000
     5  C    5.053765   3.940776   2.584402   1.537404   0.000000
     6  C    5.540674   4.623772   3.203905   2.587838   1.536239
     7  N    6.904155   6.041983   4.572784   3.909033   2.535781
     8  H    1.018454   2.044501   3.352238   4.587638   5.908949
     9  H    1.019372   2.039496   2.693749   4.120673   5.204847
    10  H    2.157491   1.103835   2.156630   2.763585   4.226833
    11  H    2.088935   1.097512   2.157909   2.785964   4.202865
    12  H    2.677036   2.150784   1.098022   2.169118   2.796981
    13  H    2.703751   2.149501   1.098393   2.172466   2.862366
    14  H    4.098698   2.739777   2.154182   1.098104   2.155296
    15  H    4.165723   2.804712   2.165004   1.099211   2.164152
    16  H    5.151793   4.212097   2.809124   2.168588   1.099510
    17  H    5.943325   4.703622   3.508489   2.159308   1.098755
    18  H    5.737469   4.740877   3.524388   2.796459   2.162595
    19  H    4.997699   4.337933   2.907469   2.860062   2.172748
    20  H    6.990957   6.223310   4.702397   4.173174   2.723769
    21  H    7.499378   6.491380   5.077763   4.133340   2.711758
                    6          7          8          9         10
     6  C    0.000000
     7  N    1.470019   0.000000
     8  H    6.445028   7.841152   0.000000
     9  H    5.404119   6.749809   1.617491   0.000000
    10  H    4.771855   6.237565   2.419288   2.430169   0.000000
    11  H    5.179460   6.542508   2.379827   2.931251   1.764245
    12  H    3.520657   4.694383   3.620059   3.014804   3.059565
    13  H    2.911720   4.279414   3.623894   2.494810   2.505676
    14  H    3.507901   4.681042   4.712659   4.604569   3.027862
    15  H    2.809536   4.170344   4.781386   4.321991   2.562327
    16  H    2.160336   2.793748   6.055752   5.379038   4.743693
    17  H    2.148622   2.741225   6.729232   6.158533   4.870254
    18  H    1.098003   2.088563   6.554646   5.527949   4.631198
    19  H    1.096091   2.081594   5.947749   4.730952   4.585595
    20  H    2.039990   1.019435   7.965696   6.896568   6.586133
    21  H    2.040173   1.019544   8.396972   7.427328   6.620187
                   11         12         13         14         15
    11  H    0.000000
    12  H    2.494123   0.000000
    13  H    3.057340   1.760283   0.000000
    14  H    2.519577   2.533041   3.067566   0.000000
    15  H    3.150863   3.073740   2.504224   1.755941   0.000000
    16  H    4.367813   2.573332   3.188682   2.516536   3.072430
    17  H    4.811285   3.762706   3.871901   2.413531   2.511600
    18  H    5.361324   4.118257   3.138191   3.755101   2.569825
    19  H    5.043262   3.130878   2.332349   3.869956   3.181580
    20  H    6.654017   4.582934   4.498545   4.840777   4.665375
    21  H    6.880698   5.252477   4.932827   4.754977   4.306925
                   16         17         18         19         20
    16  H    0.000000
    17  H    1.759691   0.000000
    18  H    3.065507   2.513773   0.000000
    19  H    2.505002   3.062821   1.759485   0.000000
    20  H    2.560042   3.009585   2.932780   2.389221   0.000000
    21  H    3.062816   2.489912   2.402347   2.927230   1.617075
                   21
    21  H    0.000000
 Stoichiometry    C5H14N2
 Framework group  C1[X(C5H14N2)]
 Deg. of freedom    57
 Full point group                 C1      NOp   1
 Largest Abelian subgroup         C1      NOp   1
 Largest concise Abelian subgroup C1      NOp   1
                         Standard orientation:                         
 ---------------------------------------------------------------------
 Center     Atomic      Atomic             Coordinates (Angstroms)
 Number     Number       Type             X           Y           Z
 ---------------------------------------------------------------------
      1          7           0        3.412573   -0.766296   -0.208592
      2          6           0        2.469119    0.287696    0.194637
      3          6           0        1.038853   -0.077924   -0.205835
      4          6           0        0.022817    1.015273    0.152950
      5          6           0       -1.412537    0.732535   -0.319734
      6          6           0       -2.089957   -0.463865    0.365656
      7          7           0       -3.488726   -0.693021   -0.024071
      8          1           0        4.349332   -0.509400    0.097571
      9          1           0        3.189346   -1.617110    0.306581
     10          1           0        2.493839    0.499220    1.277734
     11          1           0        2.762398    1.216199   -0.311724
     12          1           0        1.012897   -0.270265   -1.286567
     13          1           0        0.766766   -1.021486    0.286227
     14          1           0        0.356328    1.963581   -0.288996
     15          1           0        0.021182    1.170154    1.241193
     16          1           0       -1.416208    0.570525   -1.407237
     17          1           0       -2.028408    1.624063   -0.137678
     18          1           0       -2.060675   -0.321354    1.453978
     19          1           0       -1.533436   -1.384316    0.154778
     20          1           0       -3.529229   -0.825778   -1.034014
     21          1           0       -4.020835    0.158899    0.150750
 ---------------------------------------------------------------------
 Rotational constants (GHZ):           7.2923029           0.8452878           0.7935386
 Standard basis: 6-31G(d,p) (6D, 7F)
 There are   175 symmetry adapted cartesian basis functions of A   symmetry.
 There are   175 symmetry adapted basis functions of A   symmetry.
   175 basis functions,   294 primitive gaussians,   175 cartesian basis functions
    29 alpha electrons       29 beta electrons
       nuclear repulsion energy       313.0144310481 Hartrees.
 NAtoms=   21 NActive=   21 NUniq=   21 SFac= 1.00D+00 NAtFMM=   60 NAOKFM=F Big=F
 Integral buffers will be    131072 words long.
 Raffenetti 2 integral format.
 Two-electron integral symmetry is turned on.
 ------------------------------------------------------------------------------
 Polarizable Continuum Model (PCM)
 =================================
 Model                : PCM.
 Atomic radii         : UFF (Universal Force Field).
 Polarization charges : Total charges.
 Charge compensation  : None.
 Solution method      : Matrix inversion.
 Cavity type          : Scaled VdW (van der Waals Surface) (Alpha=1.100).
 Cavity algorithm     : GePol (No added spheres)
                        Default sphere list used, NSphG=   21.
                        Lebedev-Laikov grids with approx.  5.0 points / Ang**2.
                        Smoothing algorithm: York/Karplus (Gamma=1.0000).
                        Polarization charges: spherical gaussians, with
                                              point-specific exponents (IZeta= 3).
                        Self-potential: point-specific (ISelfS= 7).
                        Self-field    : sphere-specific E.n sum rule (ISelfD= 2).
 1st derivatives      : Analytical E(r).r(x)/FMM algorithm (CHGder, D1EAlg=3).
                        Cavity 1st derivative terms included.
 Solvent              : Water, Eps=  78.355300 Eps(inf)=   1.777849
 ------------------------------------------------------------------------------
 One-electron integrals computed using PRISM.
 NBasis=   175 RedAO= T EigKep=  3.09D-03  NBF=   175
 NBsUse=   175 1.00D-06 EigRej= -1.00D+00 NBFU=   175
 Initial guess from the checkpoint file:  "VHRGRCVQAFMJIZ-UHFFFAOYSA-N_conf_3_0.chk"
 B after Tr=     0.000000   -0.000000    0.000000
         Rot=    0.999989    0.004579    0.000536    0.000862 Ang=   0.54 deg.
 ExpMin= 1.61D-01 ExpMax= 4.17D+03 ExpMxC= 6.27D+02 IAcc=2 IRadAn=         4 AccDes= 0.00D+00
 Harris functional with IExCor=  402 and IRadAn=       4 diagonalized for initial guess.
 HarFok:  IExCor=  402 AccDes= 0.00D+00 IRadAn=         4 IDoV= 1 UseB2=F ITyADJ=14
 ICtDFT=  3500011 ScaDFX=  1.000000  1.000000  1.000000  1.000000
 FoFCou: FMM=F IPFlag=           0 FMFlag=      100000 FMFlg1=           0
         NFxFlg=           0 DoJE=T BraDBF=F KetDBF=T FulRan=T
         wScrn=  0.000000 ICntrl=       500 IOpCl=  0 I1Cent=   200000004 NGrid=           0
         NMat0=    1 NMatS0=      1 NMatT0=    0 NMatD0=    1 NMtDS0=    0 NMtDT0=    0
 Petite list used in FoFCou.
 Keep R1 ints in memory in canonical form, NReq=121590815.
 Requested convergence on RMS density matrix=1.00D-08 within  32 cycles.
 Requested convergence on MAX density matrix=1.00D-06.
 Requested convergence on             energy=1.00D-06.
 No special actions if energy rises.
 Inv3:  Mode=1 IEnd=     6804108.
 Iteration    1 A*A^-1 deviation from unit magnitude is 7.11D-15 for    819.
 Iteration    1 A*A^-1 deviation from orthogonality  is 2.39D-15 for   1299    307.
 Iteration    1 A^-1*A deviation from unit magnitude is 6.88D-15 for    819.
 Iteration    1 A^-1*A deviation from orthogonality  is 2.52D-15 for   1439    987.
 Error on total polarization charges =  0.00846
 SCF Done:  E(RB3LYP) =  -308.484895164     A.U. after    9 cycles
            NFock=  9  Conv=0.37D-08     -V/T= 2.0099
 QCSCF skips out because SCF is already converged.
 D1PCM: PCM CHGder 1st derivatives, ID1Alg=3 FixD1E=F DoIter=F DoCFld=F I1PDM=0.
 Calling FoFJK, ICntrl=      2127 FMM=F ISym2X=0 I1Cent= 0 IOpClX= 0 NMat=1 NMatS=1 NMatT=0.
 ***** Axes restored to original set *****
 -------------------------------------------------------------------
 Center     Atomic                   Forces (Hartrees/Bohr)
 Number     Number              X              Y              Z
 -------------------------------------------------------------------
      1        7           0.000176756   -0.000261211   -0.001073315
      2        6           0.000065164   -0.000870783    0.000684761
      3        6           0.000094952    0.000684672    0.000213345
      4        6          -0.000105222   -0.000072605   -0.000582547
      5        6           0.000876345    0.000252009    0.000669928
      6        6          -0.000615216    0.001023443   -0.000823184
      7        7          -0.000776306   -0.001184489    0.000322593
      8        1           0.000033276    0.000003154   -0.000043895
      9        1           0.000271491    0.000067436    0.000214105
     10        1          -0.000340398    0.000612176    0.000322629
     11        1           0.000091585    0.000052962    0.000027231
     12        1           0.000004890   -0.000112026   -0.000029554
     13        1          -0.000018917   -0.000087546   -0.000273259
     14        1           0.000059816    0.000068377    0.000199456
     15        1           0.000052347    0.000102749    0.000033207
     16        1          -0.000073604    0.000031354    0.000013581
     17        1          -0.000044909    0.000025442   -0.000135344
     18        1           0.000185833   -0.000284411   -0.000014547
     19        1           0.000166164   -0.000164482    0.000397403
     20        1          -0.000075342    0.000064121    0.000048833
     21        1          -0.000028707    0.000049657   -0.000171427
 -------------------------------------------------------------------
 Cartesian Forces:  Max     0.001184489 RMS     0.000401357

 GradGradGradGradGradGradGradGradGradGradGradGradGradGradGradGradGradGrad
 Berny optimization.
 Using GEDIIS/GDIIS optimizer.
 FormGI is forming the generalized inverse of G from B-inverse, IUseBI=4.
 Internal  Forces:  Max     0.001666181 RMS     0.000285064
 Search for a local minimum.
 Step number   2 out of a maximum of  114
 All quantities printed in internal units (Hartrees-Bohrs-Radians)
 Mixed Optimization -- En-DIIS/RFO-DIIS
 Update second derivatives using D2CorX and points    1    2
 DE= -2.90D-03 DEPred=-2.83D-03 R= 1.03D+00
 TightC=F SS=  1.41D+00  RLast= 2.08D-01 DXNew= 5.0454D-01 6.2318D-01
 Trust test= 1.03D+00 RLast= 2.08D-01 DXMaxT set to 5.05D-01
 ITU=  1  0
 Use linear search instead of GDIIS.
     Eigenvalues ---    0.00153   0.00225   0.00253   0.00280   0.00306
     Eigenvalues ---    0.00373   0.03241   0.03280   0.03368   0.03660
     Eigenvalues ---    0.03928   0.03999   0.04025   0.04174   0.04639
     Eigenvalues ---    0.04648   0.05152   0.05275   0.06674   0.06958
     Eigenvalues ---    0.07283   0.08128   0.08269   0.09662   0.10529
     Eigenvalues ---    0.12045   0.13137   0.13631   0.14636   0.15029
     Eigenvalues ---    0.16307   0.17501   0.18642   0.19161   0.21729
     Eigenvalues ---    0.24304   0.24583   0.27600   0.28247   0.30207
     Eigenvalues ---    0.31830   0.32359   0.32659   0.32716   0.32926
     Eigenvalues ---    0.33292   0.33304   0.33356   0.33627   0.33872
     Eigenvalues ---    0.34306   0.37394   0.38254   0.43913   0.43932
     Eigenvalues ---    0.44099   0.44202
 RFO step:  Lambda=-6.93372355D-05 EMin= 1.53303955D-03
 Quartic linear search produced a step of  0.09449.
 Iteration  1 RMS(Cart)=  0.01876104 RMS(Int)=  0.00023805
 Iteration  2 RMS(Cart)=  0.00029615 RMS(Int)=  0.00002297
 Iteration  3 RMS(Cart)=  0.00000007 RMS(Int)=  0.00002297
 Variable       Old X    -DE/DX   Delta X   Delta X   Delta X     New X
                                 (Linear)    (Quad)   (Total)
    R1        2.77963   0.00090   0.00235  -0.00027   0.00209   2.78172
    R2        1.92460   0.00002  -0.00015   0.00048   0.00034   1.92494
    R3        1.92633  -0.00001   0.00000   0.00020   0.00020   1.92654
    R4        2.89055   0.00018   0.00015   0.00039   0.00054   2.89109
    R5        2.08595   0.00024   0.00148  -0.00077   0.00071   2.08666
    R6        2.07400   0.00005   0.00041  -0.00026   0.00015   2.07414
    R7        2.90067   0.00019   0.00073  -0.00081  -0.00008   2.90059
    R8        2.07496   0.00002   0.00014  -0.00015  -0.00001   2.07495
    R9        2.07566   0.00002   0.00039  -0.00013   0.00026   2.07592
   R10        2.90527   0.00034   0.00095  -0.00036   0.00060   2.90587
   R11        2.07512   0.00003   0.00016  -0.00001   0.00015   2.07527
   R12        2.07721   0.00003   0.00043  -0.00006   0.00036   2.07757
   R13        2.90307   0.00069   0.00128  -0.00016   0.00113   2.90420
   R14        2.07777   0.00000   0.00040  -0.00022   0.00018   2.07796
   R15        2.07635  -0.00002   0.00019  -0.00014   0.00005   2.07640
   R16        2.77793   0.00106   0.00185   0.00015   0.00200   2.77993
   R17        2.07493   0.00005   0.00050  -0.00001   0.00049   2.07541
   R18        2.07131   0.00002   0.00035  -0.00009   0.00026   2.07157
   R19        1.92645  -0.00003  -0.00004   0.00025   0.00020   1.92666
   R20        1.92666  -0.00003   0.00002   0.00023   0.00025   1.92691
    A1        1.90371   0.00002  -0.00053  -0.00132  -0.00187   1.90184
    A2        1.89554   0.00002  -0.00192   0.00190  -0.00004   1.89550
    A3        1.83384  -0.00012  -0.00190  -0.00068  -0.00262   1.83123
    A4        1.93553   0.00000   0.00104  -0.00042   0.00059   1.93612
    A5        1.97353   0.00047   0.00606   0.00018   0.00624   1.97977
    A6        1.88424  -0.00016  -0.00167  -0.00178  -0.00343   1.88081
    A7        1.90037  -0.00008  -0.00224   0.00372   0.00137   1.90174
    A8        1.90847  -0.00008  -0.00132  -0.00031  -0.00165   1.90682
    A9        1.85939  -0.00017  -0.00203  -0.00153  -0.00358   1.85581
   A10        1.96872   0.00028   0.00281  -0.00119   0.00161   1.97033
   A11        1.89828  -0.00008  -0.00160   0.00104  -0.00059   1.89770
   A12        1.89618  -0.00008  -0.00109   0.00158   0.00046   1.89664
   A13        1.91683  -0.00004   0.00061  -0.00022   0.00040   1.91723
   A14        1.92103  -0.00004   0.00024   0.00083   0.00108   1.92211
   A15        1.85938  -0.00006  -0.00117  -0.00209  -0.00328   1.85610
   A16        1.99890   0.00033   0.00182   0.00037   0.00218   2.00108
   A17        1.89645  -0.00009  -0.00056   0.00074   0.00015   1.89660
   A18        1.91001  -0.00009  -0.00055   0.00013  -0.00042   1.90958
   A19        1.89508  -0.00001   0.00081   0.00004   0.00085   1.89593
   A20        1.90595  -0.00012  -0.00066   0.00023  -0.00042   1.90552
   A21        1.85169  -0.00004  -0.00102  -0.00168  -0.00271   1.84898
   A22        2.00176   0.00039   0.00234  -0.00189   0.00044   2.00220
   A23        1.91167  -0.00014   0.00009  -0.00019  -0.00008   1.91159
   A24        1.89985  -0.00004   0.00148  -0.00044   0.00105   1.90090
   A25        1.90186  -0.00011  -0.00172   0.00157  -0.00016   1.90171
   A26        1.88685  -0.00012  -0.00184   0.00236   0.00048   1.88733
   A27        1.85623  -0.00000  -0.00052  -0.00138  -0.00192   1.85430
   A28        2.00723   0.00167   0.00668   0.00146   0.00812   2.01535
   A29        1.90644  -0.00039  -0.00172   0.00030  -0.00144   1.90500
   A30        1.92225  -0.00032  -0.00116   0.00137   0.00017   1.92242
   A31        1.88429  -0.00052  -0.00153   0.00018  -0.00135   1.88294
   A32        1.87676  -0.00052  -0.00130   0.00069  -0.00065   1.87611
   A33        1.86100  -0.00004  -0.00140  -0.00451  -0.00596   1.85504
   A34        1.89732   0.00006  -0.00128   0.00084  -0.00046   1.89686
   A35        1.89747   0.00005  -0.00149   0.00103  -0.00048   1.89699
   A36        1.83170  -0.00012  -0.00149  -0.00084  -0.00237   1.82933
    D1       -3.10964  -0.00020  -0.00171  -0.05151  -0.05327   3.12027
    D2       -0.96935   0.00004   0.00032  -0.04683  -0.04646  -1.01581
    D3        1.08314  -0.00000   0.00033  -0.04977  -0.04946   1.03368
    D4       -1.11998  -0.00032  -0.00532  -0.05200  -0.05735  -1.17734
    D5        1.02031  -0.00009  -0.00329  -0.04732  -0.05054   0.96977
    D6        3.07280  -0.00013  -0.00328  -0.05026  -0.05354   3.01926
    D7       -3.10803   0.00022   0.00232  -0.01434  -0.01203  -3.12006
    D8       -0.97702   0.00030   0.00383  -0.01466  -0.01086  -0.98788
    D9        1.04029   0.00014   0.00092  -0.01573  -0.01481   1.02548
   D10        0.99299  -0.00031  -0.00449  -0.01691  -0.02137   0.97163
   D11        3.12400  -0.00023  -0.00298  -0.01723  -0.02019   3.10381
   D12       -1.14187  -0.00040  -0.00589  -0.01830  -0.02414  -1.16602
   D13       -1.03217  -0.00002   0.00006  -0.01699  -0.01694  -1.04911
   D14        1.09884   0.00006   0.00157  -0.01731  -0.01577   1.08307
   D15        3.11615  -0.00010  -0.00133  -0.01838  -0.01972   3.09643
   D16        3.07070   0.00007   0.00099   0.01412   0.01512   3.08582
   D17        0.94864  -0.00007  -0.00084   0.01327   0.01243   0.96107
   D18       -1.06601   0.00008   0.00100   0.01480   0.01580  -1.05021
   D19        0.95017   0.00001   0.00074   0.01375   0.01448   0.96465
   D20       -1.17189  -0.00013  -0.00110   0.01289   0.01179  -1.16010
   D21        3.09664   0.00002   0.00075   0.01442   0.01516   3.11180
   D22       -1.09164   0.00013   0.00166   0.01594   0.01760  -1.07404
   D23        3.06949  -0.00001  -0.00018   0.01508   0.01491   3.08440
   D24        1.05483   0.00014   0.00167   0.01661   0.01828   1.07312
   D25        1.15759  -0.00002  -0.00020   0.01811   0.01790   1.17549
   D26       -0.98685  -0.00004   0.00031   0.01755   0.01785  -0.96900
   D27       -3.00971   0.00006   0.00005   0.01955   0.01960  -2.99011
   D28       -3.00278   0.00008   0.00086   0.01934   0.02020  -2.98258
   D29        1.13596   0.00005   0.00137   0.01878   0.02015   1.15611
   D30       -0.88690   0.00015   0.00111   0.02078   0.02191  -0.86499
   D31       -0.99106  -0.00004  -0.00027   0.01750   0.01722  -0.97384
   D32       -3.13551  -0.00006   0.00024   0.01694   0.01717  -3.11834
   D33        1.12482   0.00004  -0.00002   0.01894   0.01893   1.14374
   D34        3.08256   0.00004   0.00085   0.01365   0.01448   3.09705
   D35        0.96128  -0.00015  -0.00050   0.01217   0.01168   0.97296
   D36       -1.07707   0.00031   0.00296   0.01667   0.01963  -1.05744
   D37       -1.05091   0.00005   0.00132   0.01327   0.01457  -1.03633
   D38        3.11099  -0.00014  -0.00002   0.01180   0.01177   3.12276
   D39        1.07264   0.00032   0.00344   0.01630   0.01972   1.09237
   D40        0.95957  -0.00008  -0.00127   0.01373   0.01248   0.97205
   D41       -1.16171  -0.00026  -0.00261   0.01226   0.00967  -1.15204
   D42        3.08312   0.00019   0.00085   0.01676   0.01763   3.10075
   D43        1.00711   0.00001  -0.00093   0.00930   0.00838   1.01549
   D44       -0.97771   0.00010   0.00234   0.00932   0.01165  -0.96605
   D45        3.14037   0.00025   0.00020   0.01081   0.01101  -3.13181
   D46        1.15556   0.00033   0.00347   0.01083   0.01428   1.16984
   D47       -1.14093  -0.00032  -0.00291   0.00599   0.00309  -1.13783
   D48       -3.12574  -0.00023   0.00036   0.00602   0.00637  -3.11937
         Item               Value     Threshold  Converged?
 Maximum Force            0.001666     0.000450     NO 
 RMS     Force            0.000285     0.000300     YES
 Maximum Displacement     0.074306     0.001800     NO 
 RMS     Displacement     0.018751     0.001200     NO 
 Predicted change in Energy=-5.027396D-05
 GradGradGradGradGradGradGradGradGradGradGradGradGradGradGradGradGradGrad

                          Input orientation:                          
 ---------------------------------------------------------------------
 Center     Atomic      Atomic             Coordinates (Angstroms)
 Number     Number       Type             X           Y           Z
 ---------------------------------------------------------------------
      1          7           0        3.387166   -0.223068   -0.738226
      2          6           0        2.406686    0.548359    0.043061
      3          6           0        0.980217    0.087052   -0.261845
      4          6           0       -0.082297    0.883736    0.507801
      5          6           0       -1.534768    0.505336    0.173550
      6          6           0       -1.950382   -0.905239    0.620094
      7          7           0       -3.353573   -1.263062    0.361083
      8          1           0        4.322547    0.121195   -0.528088
      9          1           0        3.381505   -1.187001   -0.406354
     10          1           0        2.575257    0.496541    1.133097
     11          1           0        2.512852    1.604619   -0.235767
     12          1           0        0.803861    0.176918   -1.341876
     13          1           0        0.897746   -0.982023   -0.023004
     14          1           0        0.059032    1.952342    0.297770
     15          1           0        0.082648    0.763993    1.588144
     16          1           0       -1.699339    0.600202   -0.909525
     17          1           0       -2.210177    1.228291    0.651545
     18          1           0       -1.769127   -1.009835    1.698234
     19          1           0       -1.322390   -1.657290    0.128405
     20          1           0       -3.532760   -1.179056   -0.639069
     21          1           0       -3.954703   -0.562008    0.793410
 ---------------------------------------------------------------------
                    Distance matrix (angstroms):
                    1          2          3          4          5
     1  N    0.000000
     2  C    1.472021   0.000000
     3  C    2.473159   1.529897   0.000000
     4  C    3.848996   2.554115   1.534926   0.000000
     5  C    5.058393   3.943849   2.586442   1.537719   0.000000
     6  C    5.549758   4.629251   3.217277   2.588973   1.536835
     7  N    6.908518   6.046732   4.581766   3.915547   2.543708
     8  H    1.018633   2.044310   3.353091   4.588811   5.911684
     9  H    1.019479   2.040519   2.722183   4.137821   5.231638
    10  H    2.163072   1.104210   2.158170   2.757446   4.220559
    11  H    2.087421   1.097589   2.157003   2.794167   4.214166
    12  H    2.682880   2.150597   1.098018   2.169372   2.805987
    13  H    2.699030   2.150194   1.098530   2.173314   2.857971
    14  H    4.108792   2.747276   2.154312   1.098183   2.156259
    15  H    4.160063   2.799096   2.164796   1.099403   2.164258
    16  H    5.155545   4.215395   2.804075   2.168878   1.099607
    17  H    5.947113   4.706165   3.509320   2.160383   1.098781
[...]
    19  H   -0.134534  -0.000000  -0.000010  -0.000046  -0.000002   0.001095
    20  H   -0.844533   0.000000  -0.000000  -0.000000  -0.000000   0.000077
    21  H   -0.840794   0.000000  -0.000000  -0.000000  -0.000000   0.000011
              13         14         15         16         17         18
     1  N   -0.003074  -0.000000  -0.000005  -0.000007   0.000000  -0.000001
     2  C   -0.039830  -0.003992  -0.003906   0.000548   0.000028   0.000120
     3  C    0.385440  -0.039288  -0.039820  -0.007159   0.004496   0.000104
     4  C   -0.036815   0.386781   0.381497  -0.004621   0.004284   0.002325
     5  C   -0.004969  -0.033582  -0.037489   0.143820   0.125798  -0.029851
     6  C    0.003721   0.003807  -0.008529  -0.074175  -0.073091   0.160213
     7  N    0.000018  -0.000053  -0.000048  -0.066887  -0.074668  -0.131555
     8  H    0.000014   0.000003   0.000002   0.000000  -0.000000   0.000000
     9  H    0.005606   0.000015   0.000001  -0.000001  -0.000000  -0.000000
    10  H   -0.006737  -0.000812   0.005283  -0.000034  -0.000021  -0.000051
    11  H    0.006015   0.005189  -0.000502  -0.000010  -0.000008  -0.000000
    12  H   -0.040815  -0.005257   0.005852   0.007164   0.000316   0.000156
    13  H    0.630977   0.005613  -0.005742  -0.000598  -0.000148  -0.000030
    14  H    0.005613   0.606781  -0.036164  -0.001982  -0.003787   0.000125
    15  H   -0.005742  -0.036164   0.623643   0.005796  -0.002211   0.005461
    16  H   -0.000598  -0.001982   0.005796   0.775212   0.036175   0.016598
    17  H   -0.000148  -0.003787  -0.002211   0.036175   0.790282   0.022307
    18  H   -0.000030   0.000125   0.005461   0.016598   0.022307   0.720743
    19  H    0.000513   0.000056  -0.000102   0.021347   0.017174   0.029465
    20  H   -0.000040   0.000014   0.000030   0.063536   0.027898   0.037133
    21  H   -0.000017   0.000010   0.000032   0.025688   0.072293   0.066633
              19         20         21
     1  N   -0.000002  -0.000000  -0.000000
     2  C    0.000271   0.000003   0.000001
     3  C    0.004251   0.000076   0.000054
     4  C    0.001729   0.002045   0.002212
     5  C   -0.028395  -0.049887  -0.053198
     6  C    0.157121   0.011951   0.013370
     7  N   -0.134534  -0.844533  -0.840794
     8  H   -0.000000   0.000000   0.000000
     9  H   -0.000010  -0.000000  -0.000000
    10  H   -0.000046  -0.000000  -0.000000
    11  H   -0.000002  -0.000000  -0.000000
    12  H    0.001095   0.000077   0.000011
    13  H    0.000513  -0.000040  -0.000017
    14  H    0.000056   0.000014   0.000010
    15  H   -0.000102   0.000030   0.000032
    16  H    0.021347   0.063536   0.025688
    17  H    0.017174   0.027898   0.072293
    18  H    0.029465   0.037133   0.066633
    19  H    0.722870   0.069433   0.037781
    20  H    0.069433   1.326588   0.403052
    21  H    0.037781   0.403052   1.320077
 Mulliken charges:
               1
     1  N   -0.642365
     2  C   -0.052822
     3  C   -0.171994
     4  C   -0.188490
     5  C   -0.138575
     6  C   -0.094246
     7  N   -0.036844
     8  H    0.250624
     9  H    0.248289
    10  H    0.082652
    11  H    0.102322
    12  H    0.099128
    13  H    0.100897
    14  H    0.116525
    15  H    0.106922
    16  H    0.059588
    17  H    0.052883
    18  H    0.100105
    19  H    0.099985
    20  H   -0.047377
    21  H   -0.047207
 Sum of Mulliken charges =  -0.00000
 Mulliken charges with hydrogens summed into heavy atoms:
               1
     1  N   -0.143452
     2  C    0.132151
     3  C    0.028032
     4  C    0.034957
     5  C   -0.026103
     6  C    0.105843
     7  N   -0.131427
 Electronic spatial extent (au):  <R**2>=           1478.7629
 Charge=             -0.0000 electrons
 Dipole moment (field-independent basis, Debye):
    X=              1.8443    Y=             -0.0646    Z=              2.5260  Tot=              3.1282
 Quadrupole moment (field-independent basis, Debye-Ang):
   XX=            -51.6025   YY=            -46.9880   ZZ=            -50.4214
   XY=              2.4120   XZ=              3.4874   YZ=             -3.2885
 Traceless Quadrupole moment (field-independent basis, Debye-Ang):
   XX=             -1.9319   YY=              2.6826   ZZ=             -0.7507
   XY=              2.4120   XZ=              3.4874   YZ=             -3.2885
 Octapole moment (field-independent basis, Debye-Ang**2):
  XXX=             67.5414  YYY=             -4.1786  ZZZ=              6.3136  XYY=             11.1500
  XXY=             -6.8415  XXZ=             25.7087  XZZ=              5.7361  YZZ=              1.3137
  YYZ=              3.5550  XYZ=             -3.6583
 Hexadecapole moment (field-independent basis, Debye-Ang**3):
 XXXX=          -1673.7571 YYYY=           -212.7072 ZZZZ=           -121.0229 XXXY=             25.0599
 XXXZ=             50.2779 YYYX=             -9.3398 YYYZ=             -9.4581 ZZZX=             -7.3802
 ZZZY=             -5.1047 XXYY=           -319.1553 XXZZ=           -337.0023 YYZZ=            -59.1674
 XXYZ=            -33.6858 YYXZ=              2.7328 ZZXY=              0.2347
 N-N= 3.127433982078D+02 E-N=-1.339150672940D+03  KE= 3.056353079393D+02
 Evaluate density.
 Using the total density.
 Monte-Carlo method of calculating molar volume:
 based on  0.001 e/bohr**3 density envelope.
 Number of points per bohr**3 =   20 CutOff= 1.00D-04
 Using the CI density.
 There are       351 points.  Will hold       351 in memory.
 LenV=   805212739 MDV=   805306368.
 Box volume = 5438.873 fraction occupied=0.228
 Integrated density= 6.9236063668748159D+01 error= 1.1236063668748159D+01
 Molar volume = 1239.629 bohr**3/mol (110.623 cm**3/mol)
 Recommended a0 for SCRF calculation =  4.38 angstrom (  8.28 bohr)
 ******************************Gaussian NBO Version 3.1******************************
             N A T U R A L   A T O M I C   O R B I T A L   A N D
          N A T U R A L   B O N D   O R B I T A L   A N A L Y S I S
 ******************************Gaussian NBO Version 3.1******************************
       /RESON  / : Allow strongly delocalized NBO set

 Analyzing the CI density

 Job title: VHRGRCVQAFMJIZ-UHFFFAOYSA-N_conf_3                              

 Storage needed:     93394 in NPA ( 805303953 available)
 GSVD:  LWork=       16183 too small for GESVD, short by       11954 words or       11954 for optimal perf.


 NATURAL POPULATIONS:  Natural atomic orbital occupancies 
                                                          
   NAO  Atom  No  lang   Type(AO)    Occupancy
 --------------------------------------------
     1    N    1  S      Cor( 1S)     1.99968
     2    N    1  S      Val( 2S)     1.44870
     3    N    1  S      Ryd( 3S)     0.00050
     4    N    1  S      Ryd( 4S)     0.00001
     5    N    1  px     Val( 2p)     1.33146
     6    N    1  px     Ryd( 3p)     0.00206
     7    N    1  py     Val( 2p)     1.32819
     8    N    1  py     Ryd( 3p)     0.00223
     9    N    1  pz     Val( 2p)     1.80185
    10    N    1  pz     Ryd( 3p)     0.00540
    11    N    1  dxy    Ryd( 3d)     0.00027
    12    N    1  dxz    Ryd( 3d)     0.00111
    13    N    1  dyz    Ryd( 3d)     0.00140
    14    N    1  dx2y2  Ryd( 3d)     0.00045
    15    N    1  dz2    Ryd( 3d)     0.00137

    16    C    2  S      Cor( 1S)     1.99936
    17    C    2  S      Val( 2S)     1.02213
    18    C    2  S      Ryd( 3S)     0.00211
    19    C    2  S      Ryd( 4S)     0.00004
    20    C    2  px     Val( 2p)     0.97214
    21    C    2  px     Ryd( 3p)     0.00187
    22    C    2  py     Val( 2p)     1.05442
    23    C    2  py     Ryd( 3p)     0.00164
    24    C    2  pz     Val( 2p)     1.19775
    25    C    2  pz     Ryd( 3p)     0.00282
    26    C    2  dxy    Ryd( 3d)     0.00107
    27    C    2  dxz    Ryd( 3d)     0.00071
    28    C    2  dyz    Ryd( 3d)     0.00101
    29    C    2  dx2y2  Ryd( 3d)     0.00093
    30    C    2  dz2    Ryd( 3d)     0.00113

    31    C    3  S      Cor( 1S)     1.99933
    32    C    3  S      Val( 2S)     1.03950
    33    C    3  S      Ryd( 3S)     0.00103
    34    C    3  S      Ryd( 4S)     0.00002
    35    C    3  px     Val( 2p)     1.04647
    36    C    3  px     Ryd( 3p)     0.00344
    37    C    3  py     Val( 2p)     1.15517
    38    C    3  py     Ryd( 3p)     0.00227
    39    C    3  pz     Val( 2p)     1.22483
    40    C    3  pz     Ryd( 3p)     0.00273
    41    C    3  dxy    Ryd( 3d)     0.00060
    42    C    3  dxz    Ryd( 3d)     0.00039
    43    C    3  dyz    Ryd( 3d)     0.00051
    44    C    3  dx2y2  Ryd( 3d)     0.00069
    45    C    3  dz2    Ryd( 3d)     0.00095

    46    C    4  S      Cor( 1S)     1.99931
    47    C    4  S      Val( 2S)     1.03480
    48    C    4  S      Ryd( 3S)     0.00071
    49    C    4  S      Ryd( 4S)     0.00002
    50    C    4  px     Val( 2p)     1.02984
    51    C    4  px     Ryd( 3p)     0.00250
    52    C    4  py     Val( 2p)     1.16092
    53    C    4  py     Ryd( 3p)     0.00265
    54    C    4  pz     Val( 2p)     1.22629
    55    C    4  pz     Ryd( 3p)     0.00306
    56    C    4  dxy    Ryd( 3d)     0.00066
    57    C    4  dxz    Ryd( 3d)     0.00033
    58    C    4  dyz    Ryd( 3d)     0.00044
    59    C    4  dx2y2  Ryd( 3d)     0.00070
    60    C    4  dz2    Ryd( 3d)     0.00100

    61    C    5  S      Cor( 1S)     1.99926
    62    C    5  S      Val( 2S)     1.05442
    63    C    5  S      Ryd( 3S)     0.00100
    64    C    5  S      Ryd( 4S)     0.00003
    65    C    5  px     Val( 2p)     1.07381
    66    C    5  px     Ryd( 3p)     0.00300
    67    C    5  py     Val( 2p)     1.12264
    68    C    5  py     Ryd( 3p)     0.00659
    69    C    5  pz     Val( 2p)     1.20424
    70    C    5  pz     Ryd( 3p)     0.00331
    71    C    5  dxy    Ryd( 3d)     0.00086
    72    C    5  dxz    Ryd( 3d)     0.00041
    73    C    5  dyz    Ryd( 3d)     0.00039
    74    C    5  dx2y2  Ryd( 3d)     0.00049
    75    C    5  dz2    Ryd( 3d)     0.00099

    76    C    6  S      Cor( 1S)     1.99936
    77    C    6  S      Val( 2S)     1.05476
    78    C    6  S      Ryd( 3S)     0.00208
    79    C    6  S      Ryd( 4S)     0.00004
    80    C    6  px     Val( 2p)     0.92970
    81    C    6  px     Ryd( 3p)     0.01035
    82    C    6  py     Val( 2p)     1.15517
    83    C    6  py     Ryd( 3p)     0.00182
    84    C    6  pz     Val( 2p)     1.20866
    85    C    6  pz     Ryd( 3p)     0.00374
    86    C    6  dxy    Ryd( 3d)     0.00088
    87    C    6  dxz    Ryd( 3d)     0.00066
    88    C    6  dyz    Ryd( 3d)     0.00047
    89    C    6  dx2y2  Ryd( 3d)     0.00122
    90    C    6  dz2    Ryd( 3d)     0.00127

    91    N    7  S      Cor( 1S)     1.99937
    92    N    7  S      Val( 2S)     1.50797
    93    N    7  S      Ryd( 3S)     0.01994
    94    N    7  S      Ryd( 4S)     0.00001
    95    N    7  px     Val( 2p)     1.24783
    96    N    7  px     Ryd( 3p)     0.00083
    97    N    7  py     Val( 2p)     1.25071
    98    N    7  py     Ryd( 3p)     0.00264
    99    N    7  pz     Val( 2p)     1.35883
   100    N    7  pz     Ryd( 3p)     0.00455
   101    N    7  dxy    Ryd( 3d)     0.00058
   102    N    7  dxz    Ryd( 3d)     0.00023
   103    N    7  dyz    Ryd( 3d)     0.00000
   104    N    7  dx2y2  Ryd( 3d)     0.00046
   105    N    7  dz2    Ryd( 3d)     0.00099

   106    H    8  S      Val( 1S)     0.60745
   107    H    8  S      Ryd( 2S)     0.00187
   108    H    8  px     Ryd( 2p)     0.00052
   109    H    8  py     Ryd( 2p)     0.00031
   110    H    8  pz     Ryd( 2p)     0.00058

   111    H    9  S      Val( 1S)     0.61452
   112    H    9  S      Ryd( 2S)     0.00219
   113    H    9  px     Ryd( 2p)     0.00031
   114    H    9  py     Ryd( 2p)     0.00048
   115    H    9  pz     Ryd( 2p)     0.00064

   116    H   10  S      Val( 1S)     0.79403
   117    H   10  S      Ryd( 2S)     0.00264
   118    H   10  px     Ryd( 2p)     0.00010
   119    H   10  py     Ryd( 2p)     0.00008
   120    H   10  pz     Ryd( 2p)     0.00039

   121    H   11  S      Val( 1S)     0.77357
   122    H   11  S      Ryd( 2S)     0.00166
   123    H   11  px     Ryd( 2p)     0.00010
   124    H   11  py     Ryd( 2p)     0.00030
   125    H   11  pz     Ryd( 2p)     0.00016

   126    H   12  S      Val( 1S)     0.76117
   127    H   12  S      Ryd( 2S)     0.00280
   128    H   12  px     Ryd( 2p)     0.00009
   129    H   12  py     Ryd( 2p)     0.00009
   130    H   12  pz     Ryd( 2p)     0.00035

   131    H   13  S      Val( 1S)     0.76832
   132    H   13  S      Ryd( 2S)     0.00157
   133    H   13  px     Ryd( 2p)     0.00012
   134    H   13  py     Ryd( 2p)     0.00030
   135    H   13  pz     Ryd( 2p)     0.00014

   136    H   14  S      Val( 1S)     0.74314
   137    H   14  S      Ryd( 2S)     0.00125
   138    H   14  px     Ryd( 2p)     0.00012
   139    H   14  py     Ryd( 2p)     0.00031
   140    H   14  pz     Ryd( 2p)     0.00013

   141    H   15  S      Val( 1S)     0.75910
   142    H   15  S      Ryd( 2S)     0.00174
   143    H   15  px     Ryd( 2p)     0.00010
   144    H   15  py     Ryd( 2p)     0.00010
   145    H   15  pz     Ryd( 2p)     0.00036

   146    H   16  S      Val( 1S)     0.76677
   147    H   16  S      Ryd( 2S)     0.02380
   148    H   16  px     Ryd( 2p)     0.00008
   149    H   16  py     Ryd( 2p)     0.00012
   150    H   16  pz     Ryd( 2p)     0.00035

   151    H   17  S      Val( 1S)     0.76224
   152    H   17  S      Ryd( 2S)     0.02517
   153    H   17  px     Ryd( 2p)     0.00018
   154    H   17  py     Ryd( 2p)     0.00027
   155    H   17  pz     Ryd( 2p)     0.00010

   156    H   18  S      Val( 1S)     0.75022
   157    H   18  S      Ryd( 2S)     0.01871
   158    H   18  px     Ryd( 2p)     0.00008
   159    H   18  py     Ryd( 2p)     0.00008
   160    H   18  pz     Ryd( 2p)     0.00037

   161    H   19  S      Val( 1S)     0.75244
   162    H   19  S      Ryd( 2S)     0.01856
   163    H   19  px     Ryd( 2p)     0.00016
   164    H   19  py     Ryd( 2p)     0.00028
   165    H   19  pz     Ryd( 2p)     0.00009

   166    H   20  S      Val( 1S)     0.74915
   167    H   20  S      Ryd( 2S)     0.08737
   168    H   20  px     Ryd( 2p)     0.00025
   169    H   20  py     Ryd( 2p)     0.00015
   170    H   20  pz     Ryd( 2p)     0.00076

   171    H   21  S      Val( 1S)     0.74979
   172    H   21  S      Ryd( 2S)     0.08704
   173    H   21  px     Ryd( 2p)     0.00032
   174    H   21  py     Ryd( 2p)     0.00063
   175    H   21  pz     Ryd( 2p)     0.00021


 Summary of Natural Population Analysis:                  
                                                          
                                       Natural Population 
                Natural  -----------------------------------------------
    Atom  No    Charge         Core      Valence    Rydberg      Total
 -----------------------------------------------------------------------
      N    1   -0.92468      1.99968     5.91020    0.01479     7.92468
      C    2   -0.25914      1.99936     4.24644    0.01335     6.25914
      C    3   -0.47792      1.99933     4.46597    0.01262     6.47792
      C    4   -0.46324      1.99931     4.45185    0.01208     6.46324
      C    5   -0.47144      1.99926     4.45511    0.01708     6.47144
      C    6   -0.37015      1.99936     4.34828    0.02251     6.37015
      N    7   -0.39492      1.99937     5.36534    0.03021     7.39492
      H    8    0.38927      0.00000     0.60745    0.00328     0.61073
      H    9    0.38187      0.00000     0.61452    0.00361     0.61813
      H   10    0.20276      0.00000     0.79403    0.00321     0.79724
      H   11    0.22421      0.00000     0.77357    0.00222     0.77579
      H   12    0.23549      0.00000     0.76117    0.00334     0.76451
      H   13    0.22956      0.00000     0.76832    0.00213     0.77044
      H   14    0.25505      0.00000     0.74314    0.00181     0.74495
      H   15    0.23861      0.00000     0.75910    0.00230     0.76139
      H   16    0.20888      0.00000     0.76677    0.02435     0.79112
      H   17    0.21204      0.00000     0.76224    0.02573     0.78796
      H   18    0.23053      0.00000     0.75022    0.01924     0.76947
      H   19    0.22847      0.00000     0.75244    0.01909     0.77153
      H   20    0.16233      0.00000     0.74915    0.08852     0.83767
      H   21    0.16201      0.00000     0.74979    0.08819     0.83799
 =======================================================================
   * Total *   -0.00040     13.99565    43.59508    0.40968    58.00040

                                 Natural Population      
 --------------------------------------------------------
   Core                      13.99565 ( 99.9689% of  14)
   Valence                   43.59508 ( 99.0797% of  44)
   Natural Minimal Basis     57.59073 ( 99.2944% of  58)
   Natural Rydberg Basis      0.40968 (  0.7063% of  58)
 --------------------------------------------------------

    Atom  No          Natural Electron Configuration
 ----------------------------------------------------------------------------
      N    1      [core]2S( 1.45)2p( 4.46)3p( 0.01)
      C    2      [core]2S( 1.02)2p( 3.22)3p( 0.01)
      C    3      [core]2S( 1.04)2p( 3.43)3p( 0.01)
      C    4      [core]2S( 1.03)2p( 3.42)3p( 0.01)
      C    5      [core]2S( 1.05)2p( 3.40)3p( 0.01)
      C    6      [core]2S( 1.05)2p( 3.29)3p( 0.02)
      N    7      [core]2S( 1.51)2p( 3.86)3S( 0.02)3p( 0.01)
      H    8            1S( 0.61)
      H    9            1S( 0.61)
      H   10            1S( 0.79)
      H   11            1S( 0.77)
      H   12            1S( 0.76)
      H   13            1S( 0.77)
      H   14            1S( 0.74)
      H   15            1S( 0.76)
      H   16            1S( 0.77)2S( 0.02)
      H   17            1S( 0.76)2S( 0.03)
      H   18            1S( 0.75)2S( 0.02)
      H   19            1S( 0.75)2S( 0.02)
      H   20            1S( 0.75)2S( 0.09)
      H   21            1S( 0.75)2S( 0.09)


 NBO analysis skipped by request.
 1\1\GINC-CN33\SP\RB3LYP TD-FC\6-31G(d,p)\C5H14N2\QDUEZ\09-Jul-2024\0\\
 # TD(NStates=10, Root=1) B3LYP/6-31G** SCRF=(Solvent=water) volume pop
 =NPA density=current Geom=AllCheck Guess=Read\\VHRGRCVQAFMJIZ-UHFFFAOY
 SA-N_conf_3\\0,1\N,0,3.3874576568,-0.2221022919,-0.7384849481\C,0,2.40
 68472281,0.5486810382,0.043487133\C,0,0.9803819241,0.0872693166,-0.261
 4175665\C,0,-0.0823133287,0.8843560188,0.5075659231\C,0,-1.5347147201,
 0.5058036257,0.1730710466\C,0,-1.9501575527,-0.9047755111,0.6200613063
 \N,0,-3.3530965049,-1.2640492873,0.3610966133\H,0,4.3231875117,0.11884
 00145,-0.5248896614\H,0,3.3783194966,-1.1877026389,-0.4118200912\H,0,2
 .575927099,0.4960511489,1.1333489394\H,0,2.5124042373,1.6052600721,-0.
 2345474507\H,0,0.8041911409,0.1765361793,-1.3415252356\H,0,0.897848804
 9,-0.981621385,-0.0217879118\H,0,0.0589615963,1.9528853685,0.297182102
 6\H,0,0.0822970587,0.7649479089,1.5880099218\H,0,-1.6988542832,0.60034
 51922,-0.9101070882\H,0,-2.2101849124,1.228922366,0.6506353608\H,0,-1.
 7690947033,-1.0087791797,1.6982843962\H,0,-1.3215805868,-1.6567743895,
 0.1289916005\H,0,-3.5326856888,-1.1797944223,-0.6389454519\H,0,-3.9551
 414735,-0.564299144,0.7942300767\\Version=EM64L-G16RevA.03\State=1-A\H
 F=-308.4849467\RMSD=1.150e-09\Dipole=0.8782468,-0.1458387,0.8497896\Qu
 adrupole=-0.8393519,3.2179874,-2.3786355,0.2461745,3.0588772,-1.147116
 2\PG=C01 [X(C5H14N2)]\\@


 THE REASON MAN'S BEST FRIEND IS A DOG IS BECAUSE
 HE WAGS HIS TAIL INSTEAD OF HIS TONGUE.
 Job cpu time:       0 days  0 hours 43 minutes 31.2 seconds.
 Elapsed time:       0 days  0 hours 22 minutes  0.4 seconds.
 File lengths (MBytes):  RWF=    307 Int=      0 D2E=      0 Chk=     19 Scr=      1
 Normal termination of Gaussian 16 at Tue Jul  9 19:21:57 2024.
