 Entering Gaussian System, Link 0=g16
 Initial command:
 /opt/sw/arch/manual/gaussian/G16_A03/g16/l1.exe "/scratch/1032048.jesse.materianova.be/Gau-45152.inp" -scrdir="/scratch/1032048.jesse.materianova.be/"
 Entering Link 1 = /opt/sw/arch/manual/gaussian/G16_A03/g16/l1.exe PID=     45153.
  
 Copyright (c) 1988,1990,1992,1993,1995,1998,2003,2009,2016,
            Gaussian, Inc.  All Rights Reserved.
  
 This is part of the Gaussian(R) 16 program.  It is based on
 the Gaussian(R) 09 system (copyright 2009, Gaussian, Inc.),
 the Gaussian(R) 03 system (copyright 2003, Gaussian, Inc.),
 the Gaussian(R) 98 system (copyright 1998, Gaussian, Inc.),
 the Gaussian(R) 94 system (copyright 1995, Gaussian, Inc.),
 the Gaussian 92(TM) system (copyright 1992, Gaussian, Inc.),
 the Gaussian 90(TM) system (copyright 1990, Gaussian, Inc.),
 the Gaussian 88(TM) system (copyright 1988, Gaussian, Inc.),
 the Gaussian 86(TM) system (copyright 1986, Carnegie Mellon
 University), and the Gaussian 82(TM) system (copyright 1983,
 Carnegie Mellon University). Gaussian is a federally registered
 trademark of Gaussian, Inc.
  
 This software contains proprietary and confidential information,
 including trade secrets, belonging to Gaussian, Inc.
  
 This software is provided under written license and may be
 used, copied, transmitted, or stored only in accord with that
 written license.
  
 The following legend is applicable only to US Government
 contracts under FAR:
  
                    RESTRICTED RIGHTS LEGEND
  
 Use, reproduction and disclosure by the US Government is
 subject to restrictions as set forth in subparagraphs (a)
 and (c) of the Commercial Computer Software - Restricted
 Rights clause in FAR 52.227-19.
  
 Gaussian, Inc.
 340 Quinnipiac St., Bldg. 40, Wallingford CT 06492
  
  
 ---------------------------------------------------------------
 Warning -- This program may not be used in any manner that
 competes with the business of Gaussian, Inc. or will provide
 assistance to any competitor of Gaussian, Inc.  The licensee
 of this program is prohibited from giving any competitor of
 Gaussian, Inc. access to this program.  By using this program,
 the user acknowledges that Gaussian, Inc. is engaged in the
 business of creating and licensing software in the field of
 computational chemistry and represents and warrants to the
 licensee that it is not a competitor of Gaussian, Inc. and that
 it will not use this program in any manner prohibited above.
 ---------------------------------------------------------------
  

 Cite this work as:
 Gaussian 16, Revision A.03,
 M. J. Frisch, G. W. Trucks, H. B. Schlegel, G. E. Scuseria, 
 M. A. Robb, J. R. Cheeseman, G. Scalmani, V. Barone, 
 G. A. Petersson, H. Nakatsuji, X. Li, M. Caricato, A. V. Marenich, 
 J. Bloino, B. G. Janesko, R. Gomperts, B. Mennucci, H. P. Hratchian, 
 J. V. Ortiz, A. F. Izmaylov, J. L. Sonnenberg, D. Williams-Young, 
 F. Ding, F. Lipparini, F. Egidi, J. Goings, B. Peng, A. Petrone, 
 T. Henderson, D. Ranasinghe, V. G. Zakrzewski, J. Gao, N. Rega, 
 G. Zheng, W. Liang, M. Hada, M. Ehara, K. Toyota, R. Fukuda, 
 J. Hasegawa, M. Ishida, T. Nakajima, Y. Honda, O. Kitao, H. Nakai, 
 T. Vreven, K. Throssell, J. A. Montgomery, Jr., J. E. Peralta, 
 F. Ogliaro, M. J. Bearpark, J. J. Heyd, E. N. Brothers, K. N. Kudin, 
 V. N. Staroverov, T. A. Keith, R. Kobayashi, J. Normand, 
 K. Raghavachari, A. P. Rendell, J. C. Burant, S. S. Iyengar, 
 J. Tomasi, M. Cossi, J. M. Millam, M. Klene, C. Adamo, R. Cammi, 
 J. W. Ochterski, R. L. Martin, K. Morokuma, O. Farkas, 
 J. B. Foresman, and D. J. Fox, Gaussian, Inc., Wallingford CT, 2016.
 
 ******************************************
 Gaussian 16:  EM64L-G16RevA.03 25-Dec-2016
                11-Jul-2024 
 ******************************************
 %nprocshared=4
 Will use up to    4 processors via shared memory.
 %mem=8GB
 %Chk=HFACYLZERDEVSX-UHFFFAOYSA-N_conf_2_0.chk
 -------------------------------------------------------
 # opt=CalcFc B3LYP/6-31G** SCRF=(Solvent=water) scf=xqc
 -------------------------------------------------------
 1/10=4,18=20,19=15,26=3,38=1/1,3;
 2/9=110,12=2,17=6,18=5,40=1/2;
 3/5=1,6=6,7=101,11=2,25=1,30=1,70=2201,71=2,72=1,74=-5,140=1/1,2,3;
 4//1;
 5/5=2,8=3,13=1,38=5,53=1/2,8;
 8/6=4,10=90,11=11/1;
 11/6=1,8=1,9=11,15=111,16=1/1,2,10;
 10/6=1,13=1/2;
 6/7=2,8=2,9=2,10=2,28=1/1;
 7/10=1,18=20,25=1/1,2,3,16;
 1/10=4,18=20,19=15,26=3/3(2);
 2/9=110/2;
 99//99;
 2/9=110/2;
 3/5=1,6=6,7=101,11=2,25=1,30=1,70=2205,71=1,72=1,74=-5/1,2,3;
 4/5=5,16=3,69=1/1;
 5/5=2,8=3,13=1,38=5,53=1/2,8;
 7//1,2,3,16;
 1/18=20,19=15,26=3/3(-5);
 2/9=110/2;
 6/7=2,8=2,9=2,10=2,19=2,28=1/1;
 99/9=1/99;
 ----------------------------------
 HFACYLZERDEVSX-UHFFFAOYSA-N_conf_2
 ----------------------------------
 Symbolic Z-matrix:
 Charge =  0 Multiplicity = 1
 N                     4.95754  -0.04176   0.31959 
 C                     3.56056   0.03334   0.29634 
 C                     2.79404  -0.86045   1.04413 
 C                     1.39798  -0.86992   0.93788 
 C                     0.73419  -0.01418   0.04634 
 C                    -0.73293  -0.02424  -0.06827 
 C                    -1.5501    0.13384   1.06087 
 C                    -2.94578   0.12349   0.94959 
 C                    -3.56154  -0.00366  -0.29557 
 N                    -4.95181  -0.13232  -0.38675 
 C                    -2.75838  -0.22348  -1.4146 
 C                    -1.36238  -0.21213  -1.30772 
 C                     1.51815   0.83723  -0.74626 
 C                     2.91392   0.84483  -0.63591 
 H                     5.33395  -0.39152   1.19495 
 H                     5.41827   0.80961   0.01443 
 H                     3.27495  -1.56334   1.71891 
 H                     0.83118  -1.57496   1.54255 
 H                    -1.10415   0.26618   2.04436 
 H                    -3.5461    0.21971   1.85013 
 H                    -5.45599   0.33707   0.35871 
 H                    -5.32406   0.09097  -1.30427 
 H                    -3.21007  -0.40848  -2.38537 
 H                    -0.7669   -0.37889  -2.20302 
 H                     1.04584   1.50605  -1.46268 
 H                     3.48961   1.49699  -1.28697 
 

 GradGradGradGradGradGradGradGradGradGradGradGradGradGradGradGradGradGrad
 Berny optimization.
 Initialization pass.
                           ----------------------------
                           !    Initial Parameters    !
                           ! (Angstroms and Degrees)  !
 --------------------------                            --------------------------
 ! Name  Definition              Value          Derivative Info.                !
 --------------------------------------------------------------------------------
 ! R1    R(1,2)                  1.3992         calculate D2E/DX2 analytically  !
 ! R2    R(1,15)                 1.015          calculate D2E/DX2 analytically  !
 ! R3    R(1,16)                 1.015          calculate D2E/DX2 analytically  !
 ! R4    R(2,3)                  1.3949         calculate D2E/DX2 analytically  !
 ! R5    R(2,14)                 1.3949         calculate D2E/DX2 analytically  !
 ! R6    R(3,4)                  1.4001         calculate D2E/DX2 analytically  !
 ! R7    R(3,17)                 1.0866         calculate D2E/DX2 analytically  !
 ! R8    R(4,5)                  1.4028         calculate D2E/DX2 analytically  !
 ! R9    R(4,18)                 1.0881         calculate D2E/DX2 analytically  !
 ! R10   R(5,6)                  1.4716         calculate D2E/DX2 analytically  !
 ! R11   R(5,13)                 1.4028         calculate D2E/DX2 analytically  !
 ! R12   R(6,7)                  1.4028         calculate D2E/DX2 analytically  !
 ! R13   R(6,12)                 1.4028         calculate D2E/DX2 analytically  !
 ! R14   R(7,8)                  1.4001         calculate D2E/DX2 analytically  !
 ! R15   R(7,19)                 1.088          calculate D2E/DX2 analytically  !
 ! R16   R(8,9)                  1.3949         calculate D2E/DX2 analytically  !
 ! R17   R(8,20)                 1.0866         calculate D2E/DX2 analytically  !
 ! R18   R(9,10)                 1.3992         calculate D2E/DX2 analytically  !
 ! R19   R(9,11)                 1.3949         calculate D2E/DX2 analytically  !
 ! R20   R(10,21)                1.015          calculate D2E/DX2 analytically  !
 ! R21   R(10,22)                1.015          calculate D2E/DX2 analytically  !
 ! R22   R(11,12)                1.4001         calculate D2E/DX2 analytically  !
 ! R23   R(11,23)                1.0866         calculate D2E/DX2 analytically  !
 ! R24   R(12,24)                1.0881         calculate D2E/DX2 analytically  !
 ! R25   R(13,14)                1.4001         calculate D2E/DX2 analytically  !
 ! R26   R(13,25)                1.088          calculate D2E/DX2 analytically  !
 ! R27   R(14,26)                1.0866         calculate D2E/DX2 analytically  !
 ! A1    A(2,1,15)             113.7709         calculate D2E/DX2 analytically  !
 ! A2    A(2,1,16)             113.7772         calculate D2E/DX2 analytically  !
 ! A3    A(15,1,16)            112.3326         calculate D2E/DX2 analytically  !
 ! A4    A(1,2,3)              120.3555         calculate D2E/DX2 analytically  !
 ! A5    A(1,2,14)             120.3429         calculate D2E/DX2 analytically  !
 ! A6    A(3,2,14)             118.4455         calculate D2E/DX2 analytically  !
 ! A7    A(2,3,4)              120.7696         calculate D2E/DX2 analytically  !
 ! A8    A(2,3,17)             120.2798         calculate D2E/DX2 analytically  !
 ! A9    A(4,3,17)             118.9506         calculate D2E/DX2 analytically  !
 ! A10   A(3,4,5)              121.0598         calculate D2E/DX2 analytically  !
 ! A11   A(3,4,18)             118.79           calculate D2E/DX2 analytically  !
 ! A12   A(5,4,18)             120.1304         calculate D2E/DX2 analytically  !
 ! A13   A(4,5,6)              121.1367         calculate D2E/DX2 analytically  !
 ! A14   A(4,5,13)             117.7051         calculate D2E/DX2 analytically  !
 ! A15   A(6,5,13)             121.1516         calculate D2E/DX2 analytically  !
 ! A16   A(5,6,7)              121.1516         calculate D2E/DX2 analytically  !
 ! A17   A(5,6,12)             121.1367         calculate D2E/DX2 analytically  !
 ! A18   A(7,6,12)             117.7051         calculate D2E/DX2 analytically  !
 ! A19   A(6,7,8)              121.0568         calculate D2E/DX2 analytically  !
 ! A20   A(6,7,19)             120.1711         calculate D2E/DX2 analytically  !
 ! A21   A(8,7,19)             118.7721         calculate D2E/DX2 analytically  !
 ! A22   A(7,8,9)              120.7732         calculate D2E/DX2 analytically  !
 ! A23   A(7,8,20)             118.9605         calculate D2E/DX2 analytically  !
 ! A24   A(9,8,20)             120.266          calculate D2E/DX2 analytically  !
 ! A25   A(8,9,10)             120.3429         calculate D2E/DX2 analytically  !
 ! A26   A(8,9,11)             118.4455         calculate D2E/DX2 analytically  !
 ! A27   A(10,9,11)            120.3555         calculate D2E/DX2 analytically  !
 ! A28   A(9,10,21)            113.7774         calculate D2E/DX2 analytically  !
 ! A29   A(9,10,22)            113.7711         calculate D2E/DX2 analytically  !
 ! A30   A(21,10,22)           112.3328         calculate D2E/DX2 analytically  !
 ! A31   A(9,11,12)            120.7696         calculate D2E/DX2 analytically  !
 ! A32   A(9,11,23)            120.2798         calculate D2E/DX2 analytically  !
 ! A33   A(12,11,23)           118.9505         calculate D2E/DX2 analytically  !
 ! A34   A(6,12,11)            121.0598         calculate D2E/DX2 analytically  !
 ! A35   A(6,12,24)            120.1304         calculate D2E/DX2 analytically  !
 ! A36   A(11,12,24)           118.79           calculate D2E/DX2 analytically  !
 ! A37   A(5,13,14)            121.0568         calculate D2E/DX2 analytically  !
 ! A38   A(5,13,25)            120.1711         calculate D2E/DX2 analytically  !
 ! A39   A(14,13,25)           118.7721         calculate D2E/DX2 analytically  !
 ! A40   A(2,14,13)            120.7732         calculate D2E/DX2 analytically  !
 ! A41   A(2,14,26)            120.266          calculate D2E/DX2 analytically  !
 ! A42   A(13,14,26)           118.9605         calculate D2E/DX2 analytically  !
 ! D1    D(15,1,2,3)           -30.1223         calculate D2E/DX2 analytically  !
 ! D2    D(15,1,2,14)          160.6341         calculate D2E/DX2 analytically  !
 ! D3    D(16,1,2,3)          -160.4959         calculate D2E/DX2 analytically  !
 ! D4    D(16,1,2,14)           30.2605         calculate D2E/DX2 analytically  !
 ! D5    D(1,2,3,4)           -174.3848         calculate D2E/DX2 analytically  !
 ! D6    D(1,2,3,17)             5.5051         calculate D2E/DX2 analytically  !
 ! D7    D(14,2,3,4)            -4.9401         calculate D2E/DX2 analytically  !
 ! D8    D(14,2,3,17)          174.9498         calculate D2E/DX2 analytically  !
 ! D9    D(1,2,14,13)          174.3093         calculate D2E/DX2 analytically  !
 ! D10   D(1,2,14,26)           -5.9008         calculate D2E/DX2 analytically  !
 ! D11   D(3,2,14,13)            4.8632         calculate D2E/DX2 analytically  !
 ! D12   D(3,2,14,26)         -175.3469         calculate D2E/DX2 analytically  !
 ! D13   D(2,3,4,5)              2.1367         calculate D2E/DX2 analytically  !
 ! D14   D(2,3,4,18)          -179.4804         calculate D2E/DX2 analytically  !
 ! D15   D(17,3,4,5)          -177.7547         calculate D2E/DX2 analytically  !
 ! D16   D(17,3,4,18)            0.6282         calculate D2E/DX2 analytically  !
 ! D17   D(3,4,5,6)            179.9005         calculate D2E/DX2 analytically  !
 ! D18   D(3,4,5,13)             0.8265         calculate D2E/DX2 analytically  !
 ! D19   D(18,4,5,6)             1.5392         calculate D2E/DX2 analytically  !
 ! D20   D(18,4,5,13)         -177.5349         calculate D2E/DX2 analytically  !
 ! D21   D(4,5,6,7)             53.6023         calculate D2E/DX2 analytically  !
 ! D22   D(4,5,6,12)          -125.44           calculate D2E/DX2 analytically  !
 ! D23   D(13,5,6,7)          -127.3557         calculate D2E/DX2 analytically  !
 ! D24   D(13,5,6,12)           53.6021         calculate D2E/DX2 analytically  !
 ! D25   D(4,5,13,14)           -0.9036         calculate D2E/DX2 analytically  !
 ! D26   D(4,5,13,25)          179.0206         calculate D2E/DX2 analytically  !
 ! D27   D(6,5,13,14)         -179.9775         calculate D2E/DX2 analytically  !
 ! D28   D(6,5,13,25)           -0.0533         calculate D2E/DX2 analytically  !
 ! D29   D(5,6,7,8)           -179.9777         calculate D2E/DX2 analytically  !
 ! D30   D(5,6,7,19)            -0.0535         calculate D2E/DX2 analytically  !
 ! D31   D(12,6,7,8)            -0.9037         calculate D2E/DX2 analytically  !
 ! D32   D(12,6,7,19)          179.0205         calculate D2E/DX2 analytically  !
 ! D33   D(5,6,12,11)          179.9007         calculate D2E/DX2 analytically  !
 ! D34   D(5,6,12,24)            1.5393         calculate D2E/DX2 analytically  !
 ! D35   D(7,6,12,11)            0.8265         calculate D2E/DX2 analytically  !
 ! D36   D(7,6,12,24)         -177.5349         calculate D2E/DX2 analytically  !
 ! D37   D(6,7,8,9)             -1.9802         calculate D2E/DX2 analytically  !
 ! D38   D(6,7,8,20)           178.2272         calculate D2E/DX2 analytically  !
 ! D39   D(19,7,8,9)           178.0945         calculate D2E/DX2 analytically  !
 ! D40   D(19,7,8,20)           -1.6981         calculate D2E/DX2 analytically  !
 ! D41   D(7,8,9,10)           174.3093         calculate D2E/DX2 analytically  !
 ! D42   D(7,8,9,11)             4.8632         calculate D2E/DX2 analytically  !
 ! D43   D(20,8,9,10)           -5.9008         calculate D2E/DX2 analytically  !
 ! D44   D(20,8,9,11)         -175.3469         calculate D2E/DX2 analytically  !
 ! D45   D(8,9,10,21)           30.2604         calculate D2E/DX2 analytically  !
 ! D46   D(8,9,10,22)          160.6346         calculate D2E/DX2 analytically  !
 ! D47   D(11,9,10,21)        -160.496          calculate D2E/DX2 analytically  !
 ! D48   D(11,9,10,22)         -30.1219         calculate D2E/DX2 analytically  !
 ! D49   D(8,9,11,12)           -4.9402         calculate D2E/DX2 analytically  !
 ! D50   D(8,9,11,23)          174.9498         calculate D2E/DX2 analytically  !
 ! D51   D(10,9,11,12)        -174.3849         calculate D2E/DX2 analytically  !
 ! D52   D(10,9,11,23)           5.5052         calculate D2E/DX2 analytically  !
 ! D53   D(9,11,12,6)            2.1368         calculate D2E/DX2 analytically  !
 ! D54   D(9,11,12,24)        -179.4803         calculate D2E/DX2 analytically  !
 ! D55   D(23,11,12,6)        -177.7547         calculate D2E/DX2 analytically  !
 ! D56   D(23,11,12,24)          0.6283         calculate D2E/DX2 analytically  !
 ! D57   D(5,13,14,2)           -1.9803         calculate D2E/DX2 analytically  !
 ! D58   D(5,13,14,26)         178.2271         calculate D2E/DX2 analytically  !
 ! D59   D(25,13,14,2)         178.0945         calculate D2E/DX2 analytically  !
 ! D60   D(25,13,14,26)         -1.6982         calculate D2E/DX2 analytically  !
 --------------------------------------------------------------------------------
 Trust Radius=3.00D-01 FncErr=1.00D-07 GrdErr=1.00D-06 EigMax=2.50D+02 EigMin=1.00D-04
 Number of steps in this run=    139 maximum allowed number of steps=    156.
 GradGradGradGradGradGradGradGradGradGradGradGradGradGradGradGradGradGrad

                          Input orientation:                          
 ---------------------------------------------------------------------
 Center     Atomic      Atomic             Coordinates (Angstroms)
 Number     Number       Type             X           Y           Z
 ---------------------------------------------------------------------
      1          7           0        4.957538   -0.041760    0.319588
      2          6           0        3.560562    0.033343    0.296338
      3          6           0        2.794041   -0.860453    1.044132
      4          6           0        1.397980   -0.869921    0.937878
      5          6           0        0.734190   -0.014179    0.046343
      6          6           0       -0.732926   -0.024241   -0.068272
      7          6           0       -1.550100    0.133844    1.060866
      8          6           0       -2.945783    0.123494    0.949592
      9          6           0       -3.561539   -0.003659   -0.295568
     10          7           0       -4.951810   -0.132317   -0.386747
     11          6           0       -2.758376   -0.223477   -1.414600
     12          6           0       -1.362378   -0.212135   -1.307720
     13          6           0        1.518149    0.837228   -0.746265
     14          6           0        2.913922    0.844835   -0.635909
     15          1           0        5.333950   -0.391523    1.194948
     16          1           0        5.418266    0.809613    0.014430
     17          1           0        3.274946   -1.563340    1.718912
     18          1           0        0.831182   -1.574955    1.542555
     19          1           0       -1.104155    0.266182    2.044362
     20          1           0       -3.546096    0.219705    1.850135
     21          1           0       -5.455994    0.337072    0.358706
     22          1           0       -5.324061    0.090966   -1.304270
     23          1           0       -3.210068   -0.408477   -2.385371
     24          1           0       -0.766895   -0.378887   -2.203019
     25          1           0        1.045844    1.506049   -1.462681
     26          1           0        3.489612    1.496988   -1.286974
 ---------------------------------------------------------------------
                    Distance matrix (angstroms):
                    1          2          3          4          5
     1  N    0.000000
     2  C    1.399186   0.000000
     3  C    2.424034   1.394856   0.000000
     4  C    3.706560   2.429861   1.400130   0.000000
     5  C    4.232268   2.837805   2.440234   1.402763   0.000000
     6  C    5.703694   4.309327   3.791595   2.503652   1.471621
     7  C    6.552075   5.168507   4.456508   3.116704   2.503826
     8  C    7.930113   6.539678   5.824316   4.455927   3.791703
     9  C    8.541343   7.146751   6.551510   5.183495   4.309327
    10  N    9.934903   8.541343   7.910487   6.528287   5.703694
    11  C    7.910484   6.551508   6.105771   4.819475   3.791594
    12  C    6.528284   5.183493   4.819475   3.618697   2.503652
    13  C    3.706489   2.429960   2.777686   2.401070   1.402752
    14  C    2.423921   1.394900   2.396855   2.777638   2.440206
    15  H    1.015025   2.032957   2.587234   3.973262   4.755993
    16  H    1.015002   2.033010   3.276578   4.453795   4.756071
    17  H    2.665413   2.157473   1.086577   2.147986   3.413623
    18  H    4.568714   3.404291   2.147499   1.088103   2.164273
    19  H    6.309818   4.986922   4.179198   2.962384   2.729505
    20  H    8.644231   7.276923   6.481799   5.144257   4.650722
    21  H   10.420495   9.021887   8.364625   6.983498   6.208006
    22  H   10.409890   9.027835   8.504338   7.150970   6.207868
    23  H    8.611682   7.295766   6.929292   5.700090   4.650363
    24  H    6.264690   5.014341   4.843156   3.846172   2.728718
    25  H    4.568758   3.403942   3.865312   3.395868   2.164573
    26  H    2.665257   2.157352   3.387537   3.863567   3.413753
                    6          7          8          9         10
     6  C    0.000000
     7  C    1.402752   0.000000
     8  C    2.440206   1.400150   0.000000
     9  C    2.837804   2.429960   1.394900   0.000000
    10  N    4.232267   3.706489   2.423920   1.399186   0.000000
    11  C    2.440234   2.777686   2.396854   1.394855   2.424034
    12  C    1.402763   2.401070   2.777638   2.429861   3.706560
    13  C    2.503826   3.629685   4.828253   5.168505   6.552071
    14  C    3.791703   4.828254   6.113124   6.539676   7.930110
    15  H    6.207867   6.905369   8.299362   9.027834  10.409890
    16  H    6.208004   7.078828   8.444086   9.021884  10.420492
    17  H    4.650365   5.156988   6.491127   7.295770   8.611687
    18  H    2.728720   2.970273   4.183515   5.014345   6.264695
    19  H    2.164574   1.087955   2.147202   3.403942   4.568758
    20  H    3.413754   2.148097   1.086559   2.157352   2.665257
    21  H    4.756073   3.973707   2.587649   2.033011   1.015002
    22  H    4.755994   4.454042   3.276761   2.032958   1.015024
    23  H    3.413622   3.863438   3.387450   2.157473   2.665413
    24  H    2.164272   3.395474   3.865086   3.404291   4.568714
    25  H    2.729503   3.871712   4.864524   4.986917   6.309812
    26  H    4.650721   5.724439   6.950037   7.276919   8.644226
                   11         12         13         14         15
    11  C    0.000000
    12  C    1.400130   0.000000
    13  C    4.456505   3.116701   0.000000
    14  C    5.824313   4.455924   1.400150   0.000000
    15  H    8.504336   7.150967   4.454040   3.276759   0.000000
    16  H    8.364621   6.983493   3.973705   2.587647   1.686256
    17  H    6.929294   5.700090   3.863439   3.387451   2.426353
    18  H    4.843159   3.846173   3.395475   3.865087   4.668647
    19  H    3.865311   3.395868   3.871714   4.864528   6.527118
    20  H    3.387536   3.863568   5.724439   6.950038   8.925138
    21  H    3.276579   4.453796   7.078827   8.444086  10.846799
    22  H    2.587235   3.973263   6.905368   8.299361  10.957741
    23  H    1.086576   2.147986   5.156984   6.491122   9.263866
    24  H    2.147500   1.088102   2.970269   4.183509   6.983313
    25  H    4.179194   2.962381   1.087955   2.147201   5.389956
    26  H    6.481793   5.144253   2.148096   1.086558   3.623257
                   16         17         18         19         20
    16  H    0.000000
    17  H    3.623532   0.000000
    18  H    5.390981   2.450147   0.000000
    19  H    6.852585   4.757058   2.717927   0.000000
    20  H    9.169383   7.051460   4.740883   2.450094   0.000000
    21  H   10.889966   9.038310   6.677270   4.667437   2.426077
    22  H   10.846797   9.263870   6.983317   5.389958   3.623259
    23  H    9.038304   7.761073   5.755083   4.951017   4.295002
    24  H    6.677262   5.755081   4.244261   4.309305   4.950790
    25  H    4.667436   4.951018   4.309305   4.296408   5.806491
    26  H    2.426076   4.295002   4.950790   5.806495   7.808591
                   21         22         23         24         25
    21  H    0.000000
    22  H    1.686257   0.000000
    23  H    3.623533   2.426353   0.000000
    24  H    5.390982   4.668648   2.450147   0.000000
    25  H    6.852580   6.527116   4.757052   2.717923   0.000000
    26  H    9.169381   8.925135   7.051452   4.740876   2.450094
                   26
    26  H    0.000000
 Stoichiometry    C12H12N2
 Framework group  C1[X(C12H12N2)]
 Deg. of freedom    72
 Full point group                 C1      NOp   1
 Largest Abelian subgroup         C1      NOp   1
 Largest concise Abelian subgroup C1      NOp   1
                         Standard orientation:                         
 ---------------------------------------------------------------------
 Center     Atomic      Atomic             Coordinates (Angstroms)
 Number     Number       Type             X           Y           Z
 ---------------------------------------------------------------------
      1          7           0        4.967318   -0.036466    0.067892
      2          6           0        3.573330    0.018078   -0.039554
      3          6           0        2.861457    1.064039    0.547663
      4          6           0        1.461330    1.066894    0.546674
      5          6           0        0.735811   -0.000120   -0.003644
      6          6           0       -0.735811    0.000123   -0.003642
      7          6           0       -1.461284    1.076248   -0.535956
      8          6           0       -2.861432    1.074608   -0.534509
      9          6           0       -3.573330   -0.018080   -0.039554
     10          7           0       -4.967317    0.036462    0.067891
     11          6           0       -2.861455   -1.064039    0.547663
     12          6           0       -1.461328   -1.066892    0.546675
     13          6           0        1.461282   -1.076245   -0.535957
     14          6           0        2.861430   -1.074609   -0.534509
     15          1           0        5.408512    0.875222    0.134581
     16          1           0        5.408591   -0.628467   -0.628557
     17          1           0        3.388775    1.890708    1.015853
     18          1           0        0.938678    1.903242    1.006375
     19          1           0       -0.939060    1.932086   -0.958413
     20          1           0       -3.388970    1.938662   -0.929128
     21          1           0       -5.408594    0.628462   -0.628558
     22          1           0       -5.408512   -0.875225    0.134588
     23          1           0       -3.388771   -1.890709    1.015854
     24          1           0       -0.938675   -1.903239    1.006374
     25          1           0        0.939057   -1.932082   -0.958415
     26          1           0        3.388967   -1.938664   -0.929127
 ---------------------------------------------------------------------
 Rotational constants (GHZ):           2.8261061           0.2954394           0.2783287
 Standard basis: 6-31G(d,p) (6D, 7F)
 There are   270 symmetry adapted cartesian basis functions of A   symmetry.
 There are   270 symmetry adapted basis functions of A   symmetry.
   270 basis functions,   476 primitive gaussians,   270 cartesian basis functions
    49 alpha electrons       49 beta electrons
       nuclear repulsion energy       784.0059111449 Hartrees.
 NAtoms=   26 NActive=   26 NUniq=   26 SFac= 1.00D+00 NAtFMM=   60 NAOKFM=F Big=F
 Integral buffers will be    131072 words long.
 Raffenetti 2 integral format.
 Two-electron integral symmetry is turned on.
 Force inversion solution in PCM.
 ------------------------------------------------------------------------------
 Polarizable Continuum Model (PCM)
 =================================
 Model                : PCM.
 Atomic radii         : UFF (Universal Force Field).
 Polarization charges : Total charges.
 Charge compensation  : None.
 Solution method      : Matrix inversion.
 Cavity type          : Scaled VdW (van der Waals Surface) (Alpha=1.100).
 Cavity algorithm     : GePol (No added spheres)
                        Default sphere list used, NSphG=   26.
                        Lebedev-Laikov grids with approx.  5.0 points / Ang**2.
                        Smoothing algorithm: York/Karplus (Gamma=1.0000).
                        Polarization charges: spherical gaussians, with
                                              point-specific exponents (IZeta= 3).
                        Self-potential: point-specific (ISelfS= 7).
                        Self-field    : sphere-specific E.n sum rule (ISelfD= 2).
 1st derivatives      : Analytical E(r).r(x)/FMM algorithm (CHGder, D1EAlg=3).
                        Cavity 1st derivative terms included.
 2nd derivatives      : Analytical E(r).r(xy)/FMM algorithm (CHGder, D2EAlg=3).
                        Cavity 2nd derivative terms included.
 Solvent              : Water, Eps=  78.355300 Eps(inf)=   1.777849
 ------------------------------------------------------------------------------
 One-electron integrals computed using PRISM.
 NBasis=   270 RedAO= T EigKep=  4.30D-04  NBF=   270
 NBsUse=   270 1.00D-06 EigRej= -1.00D+00 NBFU=   270
 ExpMin= 1.61D-01 ExpMax= 4.17D+03 ExpMxC= 6.27D+02 IAcc=3 IRadAn=         5 AccDes= 0.00D+00
 Harris functional with IExCor=  402 and IRadAn=       5 diagonalized for initial guess.
 HarFok:  IExCor=  402 AccDes= 0.00D+00 IRadAn=         5 IDoV= 1 UseB2=F ITyADJ=14
 ICtDFT=  3500011 ScaDFX=  1.000000  1.000000  1.000000  1.000000
 FoFCou: FMM=F IPFlag=           0 FMFlag=      100000 FMFlg1=           0
         NFxFlg=           0 DoJE=T BraDBF=F KetDBF=T FulRan=T
         wScrn=  0.000000 ICntrl=       500 IOpCl=  0 I1Cent=   200000004 NGrid=           0
         NMat0=    1 NMatS0=      1 NMatT0=    0 NMatD0=    1 NMtDS0=    0 NMtDT0=    0
 Petite list used in FoFCou.
 Keep R1 ints in memory in canonical form, NReq=679202228.
 Requested convergence on RMS density matrix=1.00D-08 within  32 cycles.
 Requested convergence on MAX density matrix=1.00D-06.
 Requested convergence on             energy=1.00D-06.
 No special actions if energy rises.
 Inv3:  Mode=1 IEnd=    12607500.
 Iteration    1 A*A^-1 deviation from unit magnitude is 7.33D-15 for   1421.
 Iteration    1 A*A^-1 deviation from orthogonality  is 5.44D-15 for   1743   1364.
 Iteration    1 A^-1*A deviation from unit magnitude is 7.33D-15 for    140.
 Iteration    1 A^-1*A deviation from orthogonality  is 3.26D-15 for   1924   1719.
 Error on total polarization charges =  0.00924
 SCF Done:  E(RB3LYP) =  -574.046785344     A.U. after   11 cycles
            NFock= 11  Conv=0.88D-08     -V/T= 2.0097
 QCSCF skips out because SCF is already converged.
 DoSCS=F DFT=T ScalE2(SS,OS)=  1.000000  1.000000
 Range of M.O.s used for correlation:     1   270
 NBasis=   270 NAE=    49 NBE=    49 NFC=     0 NFV=     0
 NROrb=    270 NOA=    49 NOB=    49 NVA=   221 NVB=   221
 Symmetrizing basis deriv contribution to polar:
 IMax=3 JMax=2 DiffMx= 0.00D+00
 G2DrvN: will do    27 centers at a time, making    1 passes.
 Calling FoFCou, ICntrl=  3107 FMM=F I1Cent=   0 AccDes= 0.00D+00.
 NEqPCM:  Using equilibrium solvation (IEInf=0, Eps=  78.3553, EpsInf=   1.7778)
 G2PCM: DoFxE=T DoFxN=T DoGrad=T DoDP/DQ/DG/TGxP=FFFF NFrqRd=   0 IEInf=0 SqF1=F DoCFld=F IF1Alg=4.
 End of G2Drv F.D. properties file   721 does not exist.
 End of G2Drv F.D. properties file   722 does not exist.
 End of G2Drv F.D. properties file   788 does not exist.
          IDoAtm=11111111111111111111111111
 NEqPCM:  Using equilibrium solvation (IEInf=0, Eps=  78.3553, EpsInf=   1.7778)
          Differentiating once with respect to nuclear coordinates.
 Keep R1 ints in memory in canonical form, NReq=679970587.
          There are    81 degrees of freedom in the 1st order CPHF.  IDoFFX=6 NUNeed=     0.
     75 vectors produced by pass  0 Test12= 1.34D-14 1.23D-09 XBig12= 1.40D-01 1.21D-01.
 AX will form    75 AO Fock derivatives at one time.
     75 vectors produced by pass  1 Test12= 1.34D-14 1.23D-09 XBig12= 1.97D-02 2.80D-02.
     75 vectors produced by pass  2 Test12= 1.34D-14 1.23D-09 XBig12= 1.58D-04 2.10D-03.
     75 vectors produced by pass  3 Test12= 1.34D-14 1.23D-09 XBig12= 4.30D-07 7.20D-05.
     75 vectors produced by pass  4 Test12= 1.34D-14 1.23D-09 XBig12= 4.97D-10 2.03D-06.
     55 vectors produced by pass  5 Test12= 1.34D-14 1.23D-09 XBig12= 5.59D-13 8.23D-08.
     13 vectors produced by pass  6 Test12= 1.34D-14 1.23D-09 XBig12= 6.21D-16 2.51D-09.
 InvSVY:  IOpt=1 It=  1 EMax= 8.88D-16
 Solved reduced A of dimension   443 with    81 vectors.
 End of Minotr F.D. properties file   721 does not exist.
 End of Minotr F.D. properties file   722 does not exist.
 End of Minotr F.D. properties file   788 does not exist.

 **********************************************************************

            Population analysis using the SCF density.

 **********************************************************************

 Orbital symmetries:
       Occupied  (A) (A) (A) (A) (A) (A) (A) (A) (A) (A) (A) (A)
                 (A) (A) (A) (A) (A) (A) (A) (A) (A) (A) (A) (A)
                 (A) (A) (A) (A) (A) (A) (A) (A) (A) (A) (A) (A)
                 (A) (A) (A) (A) (A) (A) (A) (A) (A) (A) (A) (A)
                 (A)
       Virtual   (A) (A) (A) (A) (A) (A) (A) (A) (A) (A) (A) (A)
                 (A) (A) (A) (A) (A) (A) (A) (A) (A) (A) (A) (A)
                 (A) (A) (A) (A) (A) (A) (A) (A) (A) (A) (A) (A)
                 (A) (A) (A) (A) (A) (A) (A) (A) (A) (A) (A) (A)
                 (A) (A) (A) (A) (A) (A) (A) (A) (A) (A) (A) (A)
                 (A) (A) (A) (A) (A) (A) (A) (A) (A) (A) (A) (A)
                 (A) (A) (A) (A) (A) (A) (A) (A) (A) (A) (A) (A)
                 (A) (A) (A) (A) (A) (A) (A) (A) (A) (A) (A) (A)
                 (A) (A) (A) (A) (A) (A) (A) (A) (A) (A) (A) (A)
                 (A) (A) (A) (A) (A) (A) (A) (A) (A) (A) (A) (A)
                 (A) (A) (A) (A) (A) (A) (A) (A) (A) (A) (A) (A)
                 (A) (A) (A) (A) (A) (A) (A) (A) (A) (A) (A) (A)
                 (A) (A) (A) (A) (A) (A) (A) (A) (A) (A) (A) (A)
                 (A) (A) (A) (A) (A) (A) (A) (A) (A) (A) (A) (A)
                 (A) (A) (A) (A) (A) (A) (A) (A) (A) (A) (A) (A)
                 (A) (A) (A) (A) (A) (A) (A) (A) (A) (A) (A) (A)
                 (A) (A) (A) (A) (A) (A) (A) (A) (A) (A) (A) (A)
                 (A) (A) (A) (A) (A) (A) (A) (A) (A) (A) (A) (A)
                 (A) (A) (A) (A) (A)
 The electronic state is 1-A.
 Alpha  occ. eigenvalues --  -14.33511 -14.33511 -10.22362 -10.22362 -10.18640
 Alpha  occ. eigenvalues --  -10.18639 -10.18630 -10.18630 -10.18482 -10.18451
 Alpha  occ. eigenvalues --  -10.18086 -10.18086 -10.18082 -10.18082  -0.91322
 Alpha  occ. eigenvalues --   -0.91265  -0.85012  -0.82246  -0.75189  -0.74189
 Alpha  occ. eigenvalues --   -0.73693  -0.69671  -0.61811  -0.60871  -0.60185
 Alpha  occ. eigenvalues --   -0.57010  -0.52254  -0.50633  -0.50571  -0.49616
 Alpha  occ. eigenvalues --   -0.47925  -0.43801  -0.43153  -0.42949  -0.41940
 Alpha  occ. eigenvalues --   -0.41306  -0.40911  -0.39318  -0.38059  -0.37355
 Alpha  occ. eigenvalues --   -0.34417  -0.33964  -0.33530  -0.31446  -0.29589
 Alpha  occ. eigenvalues --   -0.24827  -0.24603  -0.21658  -0.18883
 Alpha virt. eigenvalues --   -0.00458  -0.00117   0.00178   0.03909   0.09366
 Alpha virt. eigenvalues --    0.09569   0.11396   0.11461   0.12869   0.13516
 Alpha virt. eigenvalues --    0.15900   0.16629   0.17437   0.17667   0.18148
 Alpha virt. eigenvalues --    0.18727   0.19987   0.21453   0.25135   0.25153
 Alpha virt. eigenvalues --    0.29816   0.31896   0.32109   0.33255   0.34483
 Alpha virt. eigenvalues --    0.34799   0.35108   0.36590   0.39586   0.47554
 Alpha virt. eigenvalues --    0.49755   0.50446   0.53604   0.53711   0.54132
 Alpha virt. eigenvalues --    0.54740   0.55230   0.56272   0.56926   0.57608
 Alpha virt. eigenvalues --    0.59129   0.59301   0.59977   0.60114   0.60166
 Alpha virt. eigenvalues --    0.60840   0.60928   0.62685   0.62748   0.64035
 Alpha virt. eigenvalues --    0.66044   0.66156   0.68274   0.68920   0.70379
 Alpha virt. eigenvalues --    0.70458   0.73718   0.74335   0.77072   0.79872
 Alpha virt. eigenvalues --    0.80198   0.81383   0.81711   0.81936   0.82800
 Alpha virt. eigenvalues --    0.84687   0.84985   0.85716   0.85788   0.86545
 Alpha virt. eigenvalues --    0.86868   0.88520   0.88808   0.89936   0.91977
 Alpha virt. eigenvalues --    0.94183   0.95315   0.96717   0.99970   1.00434
 Alpha virt. eigenvalues --    1.00518   1.00643   1.03684   1.05656   1.08485
 Alpha virt. eigenvalues --    1.12303   1.15395   1.16059   1.16626   1.17636
 Alpha virt. eigenvalues --    1.19011   1.19724   1.20731   1.28616   1.28980
 Alpha virt. eigenvalues --    1.31286   1.31330   1.37286   1.37600   1.40147
 Alpha virt. eigenvalues --    1.40687   1.41173   1.41256   1.41878   1.43695
 Alpha virt. eigenvalues --    1.45507   1.47679   1.54498   1.55414   1.65047
 Alpha virt. eigenvalues --    1.72278   1.74045   1.77189   1.77391   1.78200
 Alpha virt. eigenvalues --    1.79401   1.80702   1.80837   1.81691   1.81763
 Alpha virt. eigenvalues --    1.86467   1.88576   1.89605   1.90488   1.92352
 Alpha virt. eigenvalues --    1.94168   1.96036   1.96242   1.97555   1.97864
 Alpha virt. eigenvalues --    1.97954   1.99761   1.99773   2.01237   2.08074
 Alpha virt. eigenvalues --    2.09068   2.09515   2.10057   2.16167   2.16605
 Alpha virt. eigenvalues --    2.18903   2.22228   2.24246   2.24946   2.26617
 Alpha virt. eigenvalues --    2.27000   2.29369   2.31002   2.32859   2.33931
 Alpha virt. eigenvalues --    2.34394   2.35837   2.36078   2.40738   2.41262
 Alpha virt. eigenvalues --    2.41685   2.42718   2.44497   2.45997   2.46249
 Alpha virt. eigenvalues --    2.47215   2.47325   2.48848   2.49199   2.50725
 Alpha virt. eigenvalues --    2.51297   2.55208   2.57020   2.57724   2.59558
 Alpha virt. eigenvalues --    2.59842   2.60009   2.65589   2.65806   2.66398
 Alpha virt. eigenvalues --    2.68129   2.70211   2.75394   2.75875   2.78143
 Alpha virt. eigenvalues --    2.81556   2.84316   2.85402   2.86442   2.92793
 Alpha virt. eigenvalues --    2.98460   2.98907   2.99524   3.04920   3.07669
 Alpha virt. eigenvalues --    3.09856   3.19096   3.19992   3.25251   3.25577
 Alpha virt. eigenvalues --    3.28104   3.28515   3.28725   3.35124   3.36527
 Alpha virt. eigenvalues --    3.39371   3.48849   3.48978   3.53381   3.54295
 Alpha virt. eigenvalues --    3.79510   3.86556   4.04082   4.04775   4.14096
 Alpha virt. eigenvalues --    4.14162   4.16422   4.16613   4.18561   4.21454
 Alpha virt. eigenvalues --    4.40430   4.44821   4.45047   4.51298   4.78148
 Alpha virt. eigenvalues --    4.88995
          Condensed to atoms (all electrons):
               1          2          3          4          5          6
     1  N    6.834767   0.296707  -0.070968   0.004556   0.000478  -0.000001
     2  C    0.296707   4.576295   0.539415  -0.025741  -0.028807   0.000771
     3  C   -0.070968   0.539415   4.963204   0.502141  -0.032830   0.006250
     4  C    0.004556  -0.025741   0.502141   4.918867   0.529979  -0.051158
     5  C    0.000478  -0.028807  -0.032830   0.529979   4.856379   0.329428
     6  C   -0.000001   0.000771   0.006250  -0.051158   0.329428   4.856379
     7  C    0.000000   0.000011   0.000231  -0.006737  -0.050323   0.529647
     8  C    0.000000   0.000000   0.000001   0.000268   0.006304  -0.032320
     9  C   -0.000000   0.000000  -0.000000   0.000011   0.000771  -0.028807
    10  N   -0.000000  -0.000000   0.000000   0.000000  -0.000001   0.000478
    11  C    0.000000  -0.000000   0.000003  -0.000154   0.006250  -0.032830
    12  C    0.000000   0.000011  -0.000154   0.003173  -0.051158   0.529980
    13  C    0.004576  -0.025681  -0.046033  -0.040042   0.529647  -0.050323
    14  C   -0.070856   0.539063  -0.049489  -0.045915  -0.032320   0.006304
    15  H    0.343420  -0.025086  -0.009321  -0.000048   0.000001  -0.000000
    16  H    0.343451  -0.024958   0.005487  -0.000175   0.000002  -0.000000
    17  H   -0.007400  -0.043770   0.362948  -0.032235   0.003716  -0.000196
    18  H   -0.000113   0.004073  -0.037334   0.364034  -0.044589  -0.006099
    19  H    0.000000  -0.000001  -0.000167   0.003913  -0.006322  -0.044627
    20  H   -0.000000  -0.000000  -0.000000  -0.000005  -0.000193   0.003672
    21  H   -0.000000   0.000000  -0.000000  -0.000000  -0.000000   0.000002
    22  H   -0.000000  -0.000000  -0.000000   0.000000  -0.000000   0.000001
    23  H    0.000000   0.000000  -0.000000   0.000001  -0.000196   0.003716
    24  H   -0.000000  -0.000010  -0.000023   0.000252  -0.006099  -0.044589
    25  H   -0.000116   0.004051   0.000540   0.005839  -0.044627  -0.006322
    26  H   -0.007403  -0.043677   0.005217   0.000695   0.003672  -0.000193
               7          8          9         10         11         12
     1  N    0.000000   0.000000  -0.000000  -0.000000   0.000000   0.000000
     2  C    0.000011   0.000000   0.000000  -0.000000  -0.000000   0.000011
     3  C    0.000231   0.000001  -0.000000   0.000000   0.000003  -0.000154
     4  C   -0.006737   0.000268   0.000011   0.000000  -0.000154   0.003173
     5  C   -0.050323   0.006304   0.000771  -0.000001   0.006250  -0.051158
     6  C    0.529647  -0.032320  -0.028807   0.000478  -0.032830   0.529980
     7  C    4.920821   0.500310  -0.025681   0.004576  -0.046033  -0.040042
     8  C    0.500310   4.964485   0.539063  -0.070856  -0.049489  -0.045915
     9  C   -0.025681   0.539063   4.576293   0.296707   0.539416  -0.025741
    10  N    0.004576  -0.070856   0.296707   6.834767  -0.070968   0.004556
    11  C   -0.046033  -0.049489   0.539416  -0.070968   4.963204   0.502141
    12  C   -0.040042  -0.045915  -0.025741   0.004556   0.502141   4.918867
    13  C    0.003177  -0.000148   0.000011   0.000000   0.000231  -0.006737
    14  C   -0.000148   0.000001   0.000000   0.000000   0.000001   0.000268
    15  H    0.000000   0.000000  -0.000000  -0.000000  -0.000000   0.000000
    16  H   -0.000000   0.000000   0.000000  -0.000000  -0.000000  -0.000000
    17  H   -0.000004  -0.000000   0.000000   0.000000  -0.000000   0.000001
    18  H    0.003762  -0.000144  -0.000010  -0.000000  -0.000023   0.000252
    19  H    0.363997  -0.037317   0.004051  -0.000116   0.000540   0.005839
    20  H   -0.032427   0.363067  -0.043677  -0.007403   0.005217   0.000695
    21  H   -0.000049  -0.009277  -0.024958   0.343451   0.005487  -0.000175
    22  H   -0.000177   0.005549  -0.025086   0.343420  -0.009321  -0.000048
    23  H    0.000707   0.005198  -0.043770  -0.007400   0.362948  -0.032235
    24  H    0.005830   0.000515   0.004073  -0.000113  -0.037334   0.364034
    25  H    0.000260  -0.000022  -0.000001   0.000000  -0.000167   0.003913
    26  H    0.000001  -0.000000  -0.000000  -0.000000  -0.000000  -0.000005
              13         14         15         16         17         18
     1  N    0.004576  -0.070856   0.343420   0.343451  -0.007400  -0.000113
     2  C   -0.025681   0.539063  -0.025086  -0.024958  -0.043770   0.004073
     3  C   -0.046033  -0.049489  -0.009321   0.005487   0.362948  -0.037334
     4  C   -0.040042  -0.045915  -0.000048  -0.000175  -0.032235   0.364034
     5  C    0.529647  -0.032320   0.000001   0.000002   0.003716  -0.044589
     6  C   -0.050323   0.006304  -0.000000  -0.000000  -0.000196  -0.006099
     7  C    0.003177  -0.000148   0.000000  -0.000000  -0.000004   0.003762
     8  C   -0.000148   0.000001   0.000000   0.000000  -0.000000  -0.000144
     9  C    0.000011   0.000000  -0.000000   0.000000   0.000000  -0.000010
    10  N    0.000000   0.000000  -0.000000  -0.000000   0.000000  -0.000000
    11  C    0.000231   0.000001  -0.000000  -0.000000  -0.000000  -0.000023
    12  C   -0.006737   0.000268   0.000000  -0.000000   0.000001   0.000252
    13  C    4.920821   0.500310  -0.000177  -0.000049   0.000707   0.005830
    14  C    0.500310   4.964484   0.005549  -0.009277   0.005198   0.000515
    15  H   -0.000177   0.005549   0.433150  -0.028404   0.004627  -0.000006
    16  H   -0.000049  -0.009277  -0.028404   0.432815  -0.000058   0.000004
    17  H    0.000707   0.005198   0.004627  -0.000058   0.619912  -0.006279
    18  H    0.005830   0.000515  -0.000006   0.000004  -0.006279   0.621872
    19  H    0.000260  -0.000022   0.000000   0.000000   0.000003   0.001406
    20  H    0.000001  -0.000000  -0.000000  -0.000000   0.000000   0.000003
    21  H   -0.000000   0.000000  -0.000000  -0.000000   0.000000  -0.000000
    22  H    0.000000   0.000000  -0.000000  -0.000000   0.000000   0.000000
    23  H   -0.000004  -0.000000   0.000000   0.000000   0.000000   0.000000
    24  H    0.003762  -0.000144   0.000000  -0.000000   0.000000   0.000011
    25  H    0.363997  -0.037317   0.000003  -0.000006   0.000017  -0.000183
    26  H   -0.032427   0.363067  -0.000054   0.004686  -0.000190   0.000017
              19         20         21         22         23         24
     1  N    0.000000  -0.000000  -0.000000  -0.000000   0.000000  -0.000000
     2  C   -0.000001  -0.000000   0.000000  -0.000000   0.000000  -0.000010
     3  C   -0.000167  -0.000000  -0.000000  -0.000000  -0.000000  -0.000023
     4  C    0.003913  -0.000005  -0.000000   0.000000   0.000001   0.000252
     5  C   -0.006322  -0.000193  -0.000000  -0.000000  -0.000196  -0.006099
     6  C   -0.044627   0.003672   0.000002   0.000001   0.003716  -0.044589
     7  C    0.363997  -0.032427  -0.000049  -0.000177   0.000707   0.005830
     8  C   -0.037317   0.363067  -0.009277   0.005549   0.005198   0.000515
     9  C    0.004051  -0.043677  -0.024958  -0.025086  -0.043770   0.004073
    10  N   -0.000116  -0.007403   0.343451   0.343420  -0.007400  -0.000113
    11  C    0.000540   0.005217   0.005487  -0.009321   0.362948  -0.037334
    12  C    0.005839   0.000695  -0.000175  -0.000048  -0.032235   0.364034
    13  C    0.000260   0.000001  -0.000000   0.000000  -0.000004   0.003762
    14  C   -0.000022  -0.000000   0.000000   0.000000  -0.000000  -0.000144
    15  H    0.000000  -0.000000  -0.000000  -0.000000   0.000000   0.000000
    16  H    0.000000  -0.000000  -0.000000  -0.000000   0.000000  -0.000000
    17  H    0.000003   0.000000   0.000000   0.000000   0.000000   0.000000
    18  H    0.001406   0.000003  -0.000000   0.000000   0.000000   0.000011
    19  H    0.622172  -0.006236  -0.000006   0.000003   0.000017  -0.000183
    20  H   -0.006236   0.619899   0.004686  -0.000054  -0.000190   0.000017
    21  H   -0.000006   0.004686   0.432814  -0.028404  -0.000058   0.000004
    22  H    0.000003  -0.000054  -0.028404   0.433150   0.004627  -0.000006
    23  H    0.000017  -0.000190  -0.000058   0.004627   0.619912  -0.006279
    24  H   -0.000183   0.000017   0.000004  -0.000006  -0.006279   0.621872
    25  H    0.000013   0.000000   0.000000   0.000000   0.000003   0.001406
    26  H    0.000000   0.000000  -0.000000  -0.000000   0.000000   0.000003
              25         26
     1  N   -0.000116  -0.007403
     2  C    0.004051  -0.043677
     3  C    0.000540   0.005217
     4  C    0.005839   0.000695
     5  C   -0.044627   0.003672
     6  C   -0.006322  -0.000193
     7  C    0.000260   0.000001
     8  C   -0.000022  -0.000000
     9  C   -0.000001  -0.000000
    10  N    0.000000  -0.000000
    11  C   -0.000167  -0.000000
    12  C    0.003913  -0.000005
    13  C    0.363997  -0.032427
    14  C   -0.037317   0.363067
    15  H    0.000003  -0.000054
    16  H   -0.000006   0.004686
    17  H    0.000017  -0.000190
    18  H   -0.000183   0.000017
    19  H    0.000013   0.000000
    20  H    0.000000   0.000000
    21  H    0.000000  -0.000000
    22  H    0.000000  -0.000000
    23  H    0.000003   0.000000
    24  H    0.001406   0.000003
    25  H    0.622172  -0.006236
    26  H   -0.006236   0.619899
 Mulliken charges:
               1
     1  N   -0.671099
     2  C    0.257334
     3  C   -0.139118
     4  C   -0.131519
     5  C    0.030838
     6  C    0.030838
     7  C   -0.131710
     8  C   -0.139273
     9  C    0.257335
    10  N   -0.671100
    11  C   -0.139118
    12  C   -0.131519
    13  C   -0.131710
    14  C   -0.139273
    15  H    0.276347
    16  H    0.276483
    17  H    0.093005
    18  H    0.093002
    19  H    0.092783
    20  H    0.092927
    21  H    0.276484
    22  H    0.276347
    23  H    0.093004
    24  H    0.093002
    25  H    0.092783
    26  H    0.092927
 Sum of Mulliken charges =  -0.00000
 Mulliken charges with hydrogens summed into heavy atoms:
               1
     1  N   -0.118269
     2  C    0.257334
     3  C   -0.046113
     4  C   -0.038518
     5  C    0.030838
     6  C    0.030838
     7  C   -0.038926
     8  C   -0.046346
     9  C    0.257335
    10  N   -0.118270
    11  C   -0.046114
    12  C   -0.038517
    13  C   -0.038926
    14  C   -0.046346
 APT charges:
               1
     1  N   -1.427574
     2  C    0.255734
     3  C   -0.428901
     4  C   -0.560001
     5  C   -0.472054
     6  C   -0.472054
     7  C   -0.558852
     8  C   -0.429181
     9  C    0.255732
    10  N   -1.427577
    11  C   -0.428902
    12  C   -0.560000
    13  C   -0.558851
    14  C   -0.429181
    15  H    0.832669
    16  H    0.833661
    17  H    0.634211
    18  H    0.342608
    19  H    0.343068
    20  H    0.634613
    21  H    0.833663
    22  H    0.832672
    23  H    0.634210
    24  H    0.342608
    25  H    0.343067
    26  H    0.634612
 Sum of APT charges =  -0.00000
 APT charges with hydrogens summed into heavy atoms:
               1
     1  N    0.238756
     2  C    0.255734
     3  C    0.205310
     4  C   -0.217392
     5  C   -0.472054
     6  C   -0.472054
     7  C   -0.215784
     8  C    0.205432
     9  C    0.255732
    10  N    0.238758
    11  C    0.205308
    12  C   -0.217392
    13  C   -0.215784
    14  C    0.205431
 Electronic spatial extent (au):  <R**2>=           3826.8321
 Charge=             -0.0000 electrons
 Dipole moment (field-independent basis, Debye):
    X=             -0.0000    Y=             -0.0000    Z=             -2.1700  Tot=              2.1700
 Quadrupole moment (field-independent basis, Debye-Ang):
   XX=            -47.9719   YY=            -73.4498   ZZ=            -84.5486
   XY=              6.1768   XZ=             -0.0001   YZ=             -0.0000
 Traceless Quadrupole moment (field-independent basis, Debye-Ang):
   XX=             20.6849   YY=             -4.7930   ZZ=            -15.8919
   XY=              6.1768   XZ=             -0.0001   YZ=             -0.0000
 Octapole moment (field-independent basis, Debye-Ang**2):
  XXX=             -0.0009  YYY=             -0.0000  ZZZ=             -1.7626  XYY=              0.0000
  XXY=             -0.0000  XXZ=            -67.2662  XZZ=             -0.0000  YZZ=             -0.0000
  YYZ=             -0.6118  XYZ=             23.5178
 Hexadecapole moment (field-independent basis, Debye-Ang**3):
 XXXX=          -3075.6151 YYYY=           -473.8821 ZZZZ=           -203.8500 XXXY=            187.6535
 XXXZ=             -0.0019 YYYX=              8.1818 YYYZ=              0.0000 ZZZX=             -0.0000
 ZZZY=              0.0000 XXYY=           -699.3107 XXZZ=           -790.3435 YYZZ=           -106.8410
 XXYZ=             -0.0002 YYXZ=             -0.0001 ZZXY=             -0.1654
 N-N= 7.840059111449D+02 E-N=-2.900220404737D+03  KE= 5.685430448774D+02
  Exact polarizability:   0.000   0.000   0.000   0.000   0.000   0.000
 Approx polarizability: 341.284  -0.295 218.579   0.000  -0.000 112.455
 D2PCM: PCM CHGder 2nd derivatives, FixD1E=F FixD2E=F DoIter=F DoCFld=F I1PDM=0
 Calling FoFJK, ICntrl=    100147 FMM=F ISym2X=0 I1Cent= 0 IOpClX= 0 NMat=1 NMatS=1 NMatT=0.
 ***** Axes restored to original set *****
 -------------------------------------------------------------------
 Center     Atomic                   Forces (Hartrees/Bohr)
 Number     Number              X              Y              Z
 -------------------------------------------------------------------
      1        7           0.000162971    0.002686453    0.002835839
      2        6           0.011431982   -0.010049219   -0.009544551
      3        6          -0.014238440   -0.003589322    0.008989806
      4        6           0.009235772    0.000368615    0.001843444
      5        6           0.003711451    0.000177068    0.000130581
      6        6          -0.003717247    0.000000237   -0.000070960
      7        6          -0.009386683   -0.001711968   -0.000109702
      8        6           0.012592629    0.005137804    0.009842014
      9        6          -0.010627340   -0.014419317    0.001387399
     10        7          -0.000377616    0.003834519   -0.000661523
     11        6           0.014245819    0.003366386   -0.009064244
     12        6          -0.009275924    0.000852934   -0.001436311
     13        6           0.009471918   -0.000876751   -0.000753572
     14        6          -0.013066156    0.009255482   -0.005043046
     15        1           0.001292631    0.002882835   -0.002249279
     16        1           0.000897245   -0.002426175    0.002827405
     17        1           0.001455937    0.000856405    0.000528469
     18        1          -0.000339112    0.001245571   -0.001105671
     19        1           0.000644230   -0.000219365   -0.001519276
     20        1          -0.001466340    0.001198811   -0.000564144
     21        1          -0.000807540   -0.000294843   -0.003734713
     22        1          -0.001416261    0.000876470    0.003502322
     23        1          -0.001514361    0.000914208    0.000061539
     24        1           0.000286535    0.000351410    0.001637999
     25        1          -0.000600008   -0.001124002    0.001071407
     26        1           0.001403910    0.000705753    0.001198765
 -------------------------------------------------------------------
 Cartesian Forces:  Max     0.014419317 RMS     0.005436020
 FormGI is forming the generalized inverse of G from B-inverse, IUseBI=4.

 GradGradGradGradGradGradGradGradGradGradGradGradGradGradGradGradGradGrad
 Berny optimization.
 Internal  Forces:  Max     0.010844585 RMS     0.002653641
 Search for a local minimum.
 Step number   1 out of a maximum of  139
 All quantities printed in internal units (Hartrees-Bohrs-Radians)
 Mixed Optimization -- RFO/linear search
 Second derivative matrix not updated -- analytic derivatives used.
 ITU=  0
     Eigenvalues ---    0.00259   0.00539   0.00540   0.01502   0.01627
     Eigenvalues ---    0.01700   0.01729   0.01739   0.01755   0.01856
     Eigenvalues ---    0.01884   0.02079   0.02146   0.02204   0.02235
     Eigenvalues ---    0.02352   0.02378   0.02691   0.02705   0.02728
     Eigenvalues ---    0.02770   0.02877   0.02881   0.11237   0.11349
     Eigenvalues ---    0.11483   0.11569   0.11823   0.11859   0.12695
     Eigenvalues ---    0.12720   0.13547   0.13553   0.15390   0.15406
     Eigenvalues ---    0.17540   0.18174   0.18410   0.18864   0.19188
     Eigenvalues ---    0.19368   0.19603   0.19687   0.21698   0.21838
     Eigenvalues ---    0.31225   0.31419   0.33551   0.35382   0.35435
     Eigenvalues ---    0.35677   0.35794   0.35802   0.35834   0.35844
     Eigenvalues ---    0.36130   0.38181   0.40094   0.40811   0.40825
     Eigenvalues ---    0.44378   0.44691   0.45558   0.45567   0.46018
     Eigenvalues ---    0.46018   0.46636   0.47078   0.47507   0.47712
     Eigenvalues ---    0.51475   0.51572
 RFO step:  Lambda=-6.47777339D-03 EMin= 2.59071618D-03
 Linear search not attempted -- first point.
 Iteration  1 RMS(Cart)=  0.11892267 RMS(Int)=  0.00467554
 Iteration  2 RMS(Cart)=  0.00781922 RMS(Int)=  0.00035399
 Iteration  3 RMS(Cart)=  0.00003751 RMS(Int)=  0.00035352
 Iteration  4 RMS(Cart)=  0.00000001 RMS(Int)=  0.00035352
 Variable       Old X    -DE/DX   Delta X   Delta X   Delta X     New X
                                 (Linear)    (Quad)   (Total)
    R1        2.64408   0.00224   0.00000  -0.00516  -0.00516   2.63892
    R2        1.91812  -0.00245   0.00000  -0.00506  -0.00506   1.91306
    R3        1.91808  -0.00248   0.00000  -0.00512  -0.00512   1.91296
    R4        2.63590   0.00957   0.00000   0.02141   0.02148   2.65737
    R5        2.63598   0.00948   0.00000   0.02107   0.02115   2.65713
    R6        2.64586  -0.00538   0.00000  -0.01606  -0.01608   2.62978
    R7        2.05333   0.00042   0.00000   0.00100   0.00100   2.05433
    R8        2.65084   0.00249   0.00000   0.00640   0.00632   2.65716
    R9        2.05622  -0.00124   0.00000  -0.00266  -0.00266   2.05355
   R10        2.78096   0.01084   0.00000   0.01988   0.01988   2.80084
   R11        2.65082   0.00242   0.00000   0.00625   0.00618   2.65700
   R12        2.65082   0.00242   0.00000   0.00625   0.00618   2.65700
   R13        2.65084   0.00249   0.00000   0.00641   0.00632   2.65716
   R14        2.64590  -0.00529   0.00000  -0.01583  -0.01581   2.63009
   R15        2.05594  -0.00114   0.00000  -0.00239  -0.00239   2.05354
   R16        2.63598   0.00948   0.00000   0.02107   0.02115   2.65713
   R17        2.05330   0.00045   0.00000   0.00111   0.00111   2.05441
   R18        2.64408   0.00224   0.00000  -0.00516  -0.00516   2.63892
   R19        2.63589   0.00957   0.00000   0.02141   0.02148   2.65737
   R20        1.91808  -0.00248   0.00000  -0.00512  -0.00512   1.91296
   R21        1.91812  -0.00245   0.00000  -0.00506  -0.00506   1.91306
   R22        2.64586  -0.00538   0.00000  -0.01606  -0.01608   2.62978
   R23        2.05333   0.00042   0.00000   0.00100   0.00100   2.05433
   R24        2.05622  -0.00124   0.00000  -0.00266  -0.00266   2.05355
   R25        2.64590  -0.00529   0.00000  -0.01583  -0.01581   2.63009
   R26        2.05594  -0.00114   0.00000  -0.00239  -0.00239   2.05354
   R27        2.05330   0.00045   0.00000   0.00111   0.00111   2.05441
    A1        1.98568   0.00212   0.00000   0.01390   0.01388   1.99956
    A2        1.98579   0.00209   0.00000   0.01370   0.01368   1.99947
    A3        1.96057  -0.00343   0.00000  -0.02386  -0.02388   1.93669
    A4        2.10060   0.00167   0.00000   0.01095   0.00936   2.10996
    A5        2.10038   0.00171   0.00000   0.01167   0.01008   2.11047
    A6        2.06726  -0.00281   0.00000  -0.00602  -0.00748   2.05979
    A7        2.10783  -0.00042   0.00000  -0.00043  -0.00042   2.10740
    A8        2.09928  -0.00131   0.00000  -0.01430  -0.01432   2.08496
    A9        2.07608   0.00173   0.00000   0.01472   0.01471   2.09079
   A10        2.11289   0.00257   0.00000   0.01133   0.01117   2.12406
   A11        2.07328  -0.00011   0.00000   0.00301   0.00306   2.07634
   A12        2.09667  -0.00245   0.00000  -0.01406  -0.01401   2.08266
   A13        2.11423   0.00068   0.00000   0.00560   0.00566   2.11989
   A14        2.05434  -0.00132   0.00000  -0.01059  -0.01082   2.04352
   A15        2.11449   0.00066   0.00000   0.00521   0.00527   2.11977
   A16        2.11449   0.00066   0.00000   0.00521   0.00527   2.11977
   A17        2.11423   0.00068   0.00000   0.00560   0.00566   2.11989
   A18        2.05434  -0.00132   0.00000  -0.01059  -0.01082   2.04352
   A19        2.11284   0.00261   0.00000   0.01151   0.01139   2.12423
   A20        2.09738  -0.00256   0.00000  -0.01477  -0.01477   2.08262
   A21        2.07296  -0.00006   0.00000   0.00328   0.00329   2.07625
   A22        2.10789  -0.00047   0.00000  -0.00077  -0.00072   2.10717
   A23        2.07625   0.00174   0.00000   0.01435   0.01431   2.09056
   A24        2.09904  -0.00127   0.00000  -0.01360  -0.01364   2.08540
   A25        2.10038   0.00171   0.00000   0.01167   0.01009   2.11046
   A26        2.06726  -0.00281   0.00000  -0.00602  -0.00748   2.05979
   A27        2.10060   0.00167   0.00000   0.01095   0.00936   2.10996
   A28        1.98579   0.00209   0.00000   0.01369   0.01368   1.99947
   A29        1.98568   0.00212   0.00000   0.01390   0.01388   1.99956
   A30        1.96058  -0.00343   0.00000  -0.02386  -0.02388   1.93669
   A31        2.10783  -0.00042   0.00000  -0.00043  -0.00042   2.10740
   A32        2.09928  -0.00131   0.00000  -0.01430  -0.01432   2.08496
   A33        2.07608   0.00173   0.00000   0.01472   0.01471   2.09079
   A34        2.11289   0.00257   0.00000   0.01133   0.01117   2.12406
   A35        2.09667  -0.00245   0.00000  -0.01406  -0.01401   2.08266
   A36        2.07328  -0.00011   0.00000   0.00301   0.00306   2.07634
   A37        2.11284   0.00261   0.00000   0.01151   0.01139   2.12423
   A38        2.09738  -0.00256   0.00000  -0.01477  -0.01477   2.08262
   A39        2.07296  -0.00006   0.00000   0.00328   0.00329   2.07625
   A40        2.10789  -0.00047   0.00000  -0.00077  -0.00072   2.10717
   A41        2.09904  -0.00127   0.00000  -0.01360  -0.01364   2.08540
   A42        2.07625   0.00174   0.00000   0.01435   0.01431   2.09056
    D1       -0.52573   0.00111   0.00000   0.04329   0.04364  -0.48209
    D2        2.80359  -0.00218   0.00000  -0.05931  -0.05965   2.74394
    D3       -2.80118   0.00208   0.00000   0.05158   0.05192  -2.74927
    D4        0.52815  -0.00121   0.00000  -0.05102  -0.05138   0.47677
    D5       -3.04359  -0.00154   0.00000  -0.03529  -0.03512  -3.07871
    D6        0.09608  -0.00165   0.00000  -0.04273  -0.04252   0.05356
    D7       -0.08622   0.00215   0.00000   0.06722   0.06705  -0.01917
    D8        3.05345   0.00204   0.00000   0.05978   0.05966   3.11311
    D9        3.04227   0.00165   0.00000   0.03943   0.03929   3.08156
   D10       -0.10299   0.00146   0.00000   0.03175   0.03167  -0.07132
   D11        0.08488  -0.00204   0.00000  -0.06300  -0.06284   0.02204
   D12       -3.06038  -0.00223   0.00000  -0.07068  -0.07046  -3.13084
   D13        0.03729  -0.00091   0.00000  -0.03158  -0.03164   0.00565
   D14       -3.13252  -0.00050   0.00000  -0.02059  -0.02060   3.13006
   D15       -3.10240  -0.00080   0.00000  -0.02420  -0.02419  -3.12659
   D16        0.01096  -0.00038   0.00000  -0.01322  -0.01315  -0.00218
   D17        3.13986   0.00019   0.00000   0.00638   0.00634  -3.13699
   D18        0.01442  -0.00029   0.00000  -0.00909  -0.00909   0.00533
   D19        0.02686  -0.00027   0.00000  -0.00503  -0.00502   0.02185
   D20       -3.09857  -0.00075   0.00000  -0.02050  -0.02045  -3.11902
   D21        0.93554  -0.00187   0.00000  -0.20299  -0.20299   0.73254
   D22       -2.18934  -0.00235   0.00000  -0.21885  -0.21895  -2.40829
   D23       -2.22278  -0.00139   0.00000  -0.18714  -0.18704  -2.40981
   D24        0.93553  -0.00187   0.00000  -0.20299  -0.20299   0.73254
   D25       -0.01577   0.00040   0.00000   0.01332   0.01336  -0.00242
   D26        3.12450   0.00071   0.00000   0.02967   0.02964  -3.12904
   D27       -3.14120  -0.00008   0.00000  -0.00216  -0.00208   3.13991
   D28       -0.00093   0.00022   0.00000   0.01420   0.01421   0.01328
   D29       -3.14120  -0.00008   0.00000  -0.00215  -0.00208   3.13990
   D30       -0.00093   0.00022   0.00000   0.01420   0.01421   0.01328
   D31       -0.01577   0.00040   0.00000   0.01332   0.01336  -0.00242
   D32        3.12450   0.00071   0.00000   0.02967   0.02964  -3.12904
   D33        3.13986   0.00019   0.00000   0.00638   0.00634  -3.13699
   D34        0.02687  -0.00027   0.00000  -0.00503  -0.00502   0.02185
   D35        0.01442  -0.00029   0.00000  -0.00909  -0.00909   0.00533
   D36       -3.09857  -0.00075   0.00000  -0.02050  -0.02045  -3.11902
   D37       -0.03456   0.00068   0.00000   0.02298   0.02304  -0.01152
   D38        3.11065   0.00088   0.00000   0.03062   0.03074   3.14139
   D39        3.10834   0.00038   0.00000   0.00686   0.00682   3.11516
   D40       -0.02964   0.00058   0.00000   0.01450   0.01452  -0.01511
   D41        3.04227   0.00165   0.00000   0.03943   0.03929   3.08156
   D42        0.08488  -0.00204   0.00000  -0.06299  -0.06284   0.02204
   D43       -0.10299   0.00146   0.00000   0.03175   0.03167  -0.07132
   D44       -3.06038  -0.00223   0.00000  -0.07068  -0.07046  -3.13084
   D45        0.52814  -0.00121   0.00000  -0.05102  -0.05138   0.47677
   D46        2.80360  -0.00218   0.00000  -0.05932  -0.05966   2.74394
   D47       -2.80118   0.00208   0.00000   0.05158   0.05192  -2.74927
   D48       -0.52573   0.00111   0.00000   0.04328   0.04364  -0.48209
   D49       -0.08622   0.00215   0.00000   0.06722   0.06705  -0.01917
   D50        3.05345   0.00204   0.00000   0.05978   0.05966   3.11311
   D51       -3.04359  -0.00154   0.00000  -0.03529  -0.03512  -3.07871
   D52        0.09608  -0.00165   0.00000  -0.04273  -0.04252   0.05356
   D53        0.03729  -0.00091   0.00000  -0.03158  -0.03164   0.00565
   D54       -3.13252  -0.00050   0.00000  -0.02060  -0.02060   3.13006
   D55       -3.10240  -0.00080   0.00000  -0.02420  -0.02419  -3.12659
   D56        0.01097  -0.00038   0.00000  -0.01322  -0.01315  -0.00218
   D57       -0.03456   0.00068   0.00000   0.02298   0.02304  -0.01152
   D58        3.11065   0.00088   0.00000   0.03062   0.03074   3.14139
   D59        3.10833   0.00038   0.00000   0.00686   0.00683   3.11516
   D60       -0.02964   0.00058   0.00000   0.01451   0.01453  -0.01511
         Item               Value     Threshold  Converged?
 Maximum Force            0.010845     0.000450     NO 
 RMS     Force            0.002654     0.000300     NO 
 Maximum Displacement     0.457422     0.001800     NO 
 RMS     Displacement     0.122876     0.001200     NO 
 Predicted change in Energy=-4.057813D-03
 GradGradGradGradGradGradGradGradGradGradGradGradGradGradGradGradGradGrad

                          Input orientation:                          
 ---------------------------------------------------------------------
 Center     Atomic      Atomic             Coordinates (Angstroms)
 Number     Number       Type             X           Y           Z
 ---------------------------------------------------------------------
      1          7           0        4.974258   -0.044872    0.334331
      2          6           0        3.579960   -0.000606    0.270549
      3          6           0        2.792528   -0.782584    1.134217
      4          6           0        1.405738   -0.792917    1.018825
      5          6           0        0.740156   -0.034824    0.039318
      6          6           0       -0.737521   -0.045283   -0.075146
      7          6           0       -1.561895    0.000773    1.062915
      8          6           0       -2.949958   -0.006786    0.961526
      9          6           0       -3.578382   -0.047366   -0.295666
     10          7           0       -4.968604   -0.126955   -0.400736
     11          6           0       -2.763252   -0.107228   -1.439973
     12          6           0       -1.376274   -0.102603   -1.326485
     13          6           0        1.537755    0.732936   -0.827446
     14          6           0        2.925563    0.748245   -0.723474
     15          1           0        5.346536   -0.284553    1.244722
     16          1           0        5.438877    0.771264   -0.043543
     17          1           0        3.275876   -1.391547    1.894044
     18          1           0        0.826066   -1.416149    1.694448
     19          1           0       -1.106568    0.057591    2.047975
     20          1           0       -3.557365    0.029589    1.862427
     21          1           0       -5.473152    0.270487    0.381702
     22          1           0       -5.343934    0.205446   -1.280218
     23          1           0       -3.224617   -0.166419   -2.422540
     24          1           0       -0.774183   -0.160769   -2.229262
     25          1           0        1.060525    1.341857   -1.590570
     26          1           0        3.511867    1.353272   -1.410553
 ---------------------------------------------------------------------
                    Distance matrix (angstroms):
                    1          2          3          4          5
     1  N    0.000000
     2  C    1.396458   0.000000
     3  C    2.438028   1.406222   0.000000
     4  C    3.709776   2.432060   1.391621   0.000000
     5  C    4.244378   2.849408   2.443395   1.406108   0.000000
     6  C    5.726437   4.331529   3.803605   2.519780   1.482141
     7  C    6.576793   5.202549   4.424899   3.072252   2.519615
     8  C    7.949089   6.566377   5.797226   4.426440   3.803708
     9  C    8.575811   7.180852   6.570662   5.208184   4.331529
    10  N    9.970334   8.575811   7.938583   6.564366   5.726437
    11  C    7.938583   6.570661   6.160296   4.888388   3.803605
    12  C    6.564366   5.208184   4.888388   3.703593   2.519780
    13  C    3.710021   2.431929   2.778376   2.398828   1.406022
    14  C    2.438265   1.406092   2.410840   2.778607   2.443573
    15  H    1.012349   2.037260   2.604459   3.979869   4.768029
    16  H    1.012294   2.037158   3.287055   4.454380   4.768084
    17  H    2.670344   2.159379   1.087106   2.149833   3.422073
    18  H    4.575786   3.408105   2.140616   1.086694   2.157521
    19  H    6.318506   5.012602   4.091919   2.845030   2.730135
    20  H    8.667711   7.312755   6.442907   5.101036   4.668679
    21  H   10.452276   9.057852   8.366403   6.989698   6.230220
    22  H   10.446746   9.059979   8.544454   7.200027   6.230173
    23  H    8.650819   7.320007   7.016852   5.803075   4.668778
    24  H    6.295237   5.023273   4.941768   3.962542   2.730484
    25  H    4.576632   3.407862   3.864912   3.389009   2.157411
    26  H    2.671706   2.159567   3.399292   3.865720   3.422180
                    6          7          8          9         10
     6  C    0.000000
     7  C    1.406022   0.000000
     8  C    2.443573   1.391781   0.000000
     9  C    2.849408   2.431929   1.406092   0.000000
    10  N    4.244378   3.710021   2.438264   1.396457   0.000000
    11  C    2.443395   2.778376   2.410840   1.406222   2.438028
    12  C    1.406108   2.398828   2.778607   2.432060   3.709776
    13  C    2.519615   3.703696   4.887451   5.202549   6.576793
    14  C    3.803708   4.887451   6.158818   6.566377   7.949089
    15  H    6.230173   6.916711   8.305972   9.059978  10.446746
    16  H    6.230220   7.129426   8.484579   9.057852  10.452275
    17  H    4.668778   5.102290   6.445786   7.320007   8.650819
    18  H    2.730484   2.847606   4.096563   5.023273   6.295238
    19  H    2.157411   1.086689   2.140701   3.407862   4.576632
    20  H    3.422180   2.149872   1.087147   2.159567   2.671706
    21  H    4.768084   3.979287   2.603764   2.037158   1.012294
    22  H    4.768029   4.453760   3.286576   2.037261   1.012349
    23  H    3.422073   3.865359   3.398945   2.159379   2.670344
    24  H    2.157521   3.388955   3.865079   3.408105   4.575786
    25  H    2.730135   3.964414   4.941256   5.012601   6.318506
    26  H    4.668679   5.804340   7.016531   7.312755   8.667710
                   11         12         13         14         15
    11  C    0.000000
    12  C    1.391621   0.000000
    13  C    4.424899   3.072252   0.000000
    14  C    5.797225   4.426440   1.391781   0.000000
    15  H    8.544454   7.200027   4.453760   3.286575   0.000000
    16  H    8.366402   6.989698   3.979287   2.603763   1.668204
    17  H    7.016852   5.803075   3.865359   3.398945   2.436122
    18  H    4.941768   3.962542   3.388955   3.865079   4.681604
    19  H    3.864912   3.389009   3.964414   4.941256   6.511900
    20  H    3.399292   3.865720   5.804340   7.016531   8.930829
    21  H    3.287055   4.454381   7.129426   8.484579  10.868235
    22  H    2.604459   3.979869   6.916711   8.305972  10.995525
    23  H    1.087106   2.149833   5.102290   6.445786   9.323489
    24  H    2.140616   1.086694   2.847606   4.096563   7.038970
    25  H    4.091919   2.845030   1.086689   2.140701   5.390175
    26  H    6.442907   5.101036   2.149872   1.087147   3.619250
                   16         17         18         19         20
    16  H    0.000000
    17  H    3.620852   0.000000
    18  H    5.392905   2.458051   0.000000
    19  H    6.908447   4.618389   2.456006   0.000000
    20  H    9.225789   6.979528   4.618749   2.457970   0.000000
    21  H   10.931788   9.032997   6.651931   4.678551   2.433273
    22  H   10.868235   9.323489   7.038970   5.390175   3.619250
    23  H    9.032996   7.898750   5.909268   4.951951   4.302335
    24  H    6.651930   5.909268   4.419533   4.295686   4.952197
    25  H    4.678551   4.951951   4.295686   4.425454   5.913556
    26  H    2.433273   4.302335   4.952197   5.913557   7.901809
                   21         22         23         24         25
    21  H    0.000000
    22  H    1.668204   0.000000
    23  H    3.620852   2.436121   0.000000
    24  H    5.392905   4.681604   2.458051   0.000000
    25  H    6.908446   6.511900   4.618389   2.456006   0.000000
    26  H    9.225789   8.930829   6.979527   4.618748   2.457970
                   26
    26  H    0.000000
 Stoichiometry    C12H12N2
 Framework group  C1[X(C12H12N2)]
 Deg. of freedom    72
 Full point group                 C1      NOp   1
 Largest Abelian subgroup         C1      NOp   1
 Largest concise Abelian subgroup C1      NOp   1
                         Standard orientation:                         
 ---------------------------------------------------------------------
 Center     Atomic      Atomic             Coordinates (Angstroms)
 Number     Number       Type             X           Y           Z
 ---------------------------------------------------------------------
      1          7           0        4.985093   -0.027120    0.055931
      2          6           0        3.590426   -0.000073   -0.009379
      3          6           0        2.868494    1.122076    0.434530
      4          6           0        1.476885    1.117122    0.437540
      5          6           0        0.741069   -0.001286    0.007565
      6          6           0       -0.741069    0.001286    0.007566
      7          6           0       -1.472800    1.122587   -0.421566
      8          6           0       -2.864555    1.130083   -0.425652
      9          6           0       -3.590426    0.000073   -0.009379
     10          7           0       -4.985093    0.027120    0.055930
     11          6           0       -2.868494   -1.122076    0.434530
     12          6           0       -1.476885   -1.117121    0.437540
     13          6           0        1.472799   -1.122587   -0.421566
     14          6           0        2.864554   -1.130083   -0.425652
     15          1           0        5.426448    0.882641    0.007037
     16          1           0        5.423762   -0.677350   -0.583999
     17          1           0        3.406293    1.998683    0.786853
     18          1           0        0.948263    1.995962    0.796847
     19          1           0       -0.940840    2.002744   -0.772615
     20          1           0       -3.398766    2.014457   -0.763869
     21          1           0       -5.423762    0.677349   -0.583999
     22          1           0       -5.426448   -0.882641    0.007040
     23          1           0       -3.406292   -1.998683    0.786853
     24          1           0       -0.948263   -1.995962    0.796847
     25          1           0        0.940840   -2.002743   -0.772616
     26          1           0        3.398766   -2.014457   -0.763869
 ---------------------------------------------------------------------
 Rotational constants (GHZ):           2.8179642           0.2955927           0.2743319
 Standard basis: 6-31G(d,p) (6D, 7F)
 There are   270 symmetry adapted cartesian basis functions of A   symmetry.
 There are   270 symmetry adapted basis functions of A   symmetry.
   270 basis functions,   476 primitive gaussians,   270 cartesian basis functions
    49 alpha electrons       49 beta electrons
       nuclear repulsion energy       782.5269421161 Hartrees.
 NAtoms=   26 NActive=   26 NUniq=   26 SFac= 1.00D+00 NAtFMM=   60 NAOKFM=F Big=F
 Integral buffers will be    131072 words long.
 Raffenetti 2 integral format.
 Two-electron integral symmetry is turned on.
 ------------------------------------------------------------------------------
 Polarizable Continuum Model (PCM)
 =================================
 Model                : PCM.
 Atomic radii         : UFF (Universal Force Field).
 Polarization charges : Total charges.
 Charge compensation  : None.
 Solution method      : Matrix inversion.
 Cavity type          : Scaled VdW (van der Waals Surface) (Alpha=1.100).
 Cavity algorithm     : GePol (No added spheres)
                        Default sphere list used, NSphG=   26.
                        Lebedev-Laikov grids with approx.  5.0 points / Ang**2.
                        Smoothing algorithm: York/Karplus (Gamma=1.0000).
                        Polarization charges: spherical gaussians, with
                                              point-specific exponents (IZeta= 3).
                        Self-potential: point-specific (ISelfS= 7).
                        Self-field    : sphere-specific E.n sum rule (ISelfD= 2).
 1st derivatives      : Analytical E(r).r(x)/FMM algorithm (CHGder, D1EAlg=3).
                        Cavity 1st derivative terms included.
 Solvent              : Water, Eps=  78.355300 Eps(inf)=   1.777849
 ------------------------------------------------------------------------------
 One-electron integrals computed using PRISM.
 NBasis=   270 RedAO= T EigKep=  4.05D-04  NBF=   270
 NBsUse=   270 1.00D-06 EigRej= -1.00D+00 NBFU=   270
 Initial guess from the checkpoint file:  "HFACYLZERDEVSX-UHFFFAOYSA-N_conf_2_0.chk"
 B after Tr=    -0.000000    0.000000   -0.000000
         Rot=    1.000000   -0.000000    0.000000    0.000166 Ang=  -0.02 deg.
 ExpMin= 1.61D-01 ExpMax= 4.17D+03 ExpMxC= 6.27D+02 IAcc=2 IRadAn=         4 AccDes= 0.00D+00
 Harris functional with IExCor=  402 and IRadAn=       4 diagonalized for initial guess.
 HarFok:  IExCor=  402 AccDes= 0.00D+00 IRadAn=         4 IDoV= 1 UseB2=F ITyADJ=14
 ICtDFT=  3500011 ScaDFX=  1.000000  1.000000  1.000000  1.000000
 FoFCou: FMM=F IPFlag=           0 FMFlag=      100000 FMFlg1=           0
         NFxFlg=           0 DoJE=T BraDBF=F KetDBF=T FulRan=T
         wScrn=  0.000000 ICntrl=       500 IOpCl=  0 I1Cent=   200000004 NGrid=           0
         NMat0=    1 NMatS0=      1 NMatT0=    0 NMatD0=    1 NMtDS0=    0 NMtDT0=    0
 Petite list used in FoFCou.
 Keep R1 ints in memory in canonical form, NReq=679202228.
 Requested convergence on RMS density matrix=1.00D-08 within  32 cycles.
 Requested convergence on MAX density matrix=1.00D-06.
 Requested convergence on             energy=1.00D-06.
 No special actions if energy rises.
 Inv3:  Mode=1 IEnd=    12829872.
 Iteration    1 A*A^-1 deviation from unit magnitude is 8.10D-15 for   1251.
 Iteration    1 A*A^-1 deviation from orthogonality  is 4.00D-15 for    939    735.
 Iteration    1 A^-1*A deviation from unit magnitude is 7.66D-15 for   1251.
[...]
 Monte-Carlo method of calculating molar volume:
 based on  0.001 e/bohr**3 density envelope.
 Number of points per bohr**3 =   20 CutOff= 1.00D-04
 Using the CI density.
 There are       390 points.  Will hold       390 in memory.
 LenV=  1073561794 MDV=  1073741824.
 Box volume = 7443.025 fraction occupied=0.228
 Integrated density= 7.8211959519396174D+01 error=-1.9788040480603826D+01
 Molar volume = 1698.536 bohr**3/mol (151.576 cm**3/mol)
 Recommended a0 for SCRF calculation =  4.81 angstrom (  9.09 bohr)
 ******************************Gaussian NBO Version 3.1******************************
             N A T U R A L   A T O M I C   O R B I T A L   A N D
          N A T U R A L   B O N D   O R B I T A L   A N A L Y S I S
 ******************************Gaussian NBO Version 3.1******************************
       /RESON  / : Allow strongly delocalized NBO set

 Analyzing the CI density

 Job title: HFACYLZERDEVSX-UHFFFAOYSA-N_conf_2                              

 Storage needed:    221024 in NPA (1073738236 available)
 GSVD:  LWork=       43140 too small for GESVD, short by       15300 words or       15300 for optimal perf.


 NATURAL POPULATIONS:  Natural atomic orbital occupancies 
                                                          
   NAO  Atom  No  lang   Type(AO)    Occupancy
 --------------------------------------------
     1    N    1  S      Cor( 1S)     1.99951
     2    N    1  S      Val( 2S)     1.36837
     3    N    1  S      Ryd( 3S)     0.00021
     4    N    1  S      Ryd( 4S)     0.00001
     5    N    1  px     Val( 2p)     1.32108
     6    N    1  px     Ryd( 3p)     0.00252
     7    N    1  py     Val( 2p)     1.43856
     8    N    1  py     Ryd( 3p)     0.00220
     9    N    1  pz     Val( 2p)     1.65885
    10    N    1  pz     Ryd( 3p)     0.00452
    11    N    1  dxy    Ryd( 3d)     0.00040
    12    N    1  dxz    Ryd( 3d)     0.00091
    13    N    1  dyz    Ryd( 3d)     0.00076
    14    N    1  dx2y2  Ryd( 3d)     0.00051
    15    N    1  dz2    Ryd( 3d)     0.00079

    16    C    2  S      Cor( 1S)     1.99897
    17    C    2  S      Val( 2S)     0.84228
    18    C    2  S      Ryd( 3S)     0.00114
    19    C    2  S      Ryd( 4S)     0.00009
    20    C    2  px     Val( 2p)     0.89981
    21    C    2  px     Ryd( 3p)     0.00568
    22    C    2  py     Val( 2p)     1.08479
    23    C    2  py     Ryd( 3p)     0.00421
    24    C    2  pz     Val( 2p)     1.03532
    25    C    2  pz     Ryd( 3p)     0.00321
    26    C    2  dxy    Ryd( 3d)     0.00093
    27    C    2  dxz    Ryd( 3d)     0.00144
    28    C    2  dyz    Ryd( 3d)     0.00052
    29    C    2  dx2y2  Ryd( 3d)     0.00112
    30    C    2  dz2    Ryd( 3d)     0.00046

    31    C    3  S      Cor( 1S)     1.99906
    32    C    3  S      Val( 2S)     0.95757
    33    C    3  S      Ryd( 3S)     0.00067
    34    C    3  S      Ryd( 4S)     0.00004
    35    C    3  px     Val( 2p)     1.10604
    36    C    3  px     Ryd( 3p)     0.00443
    37    C    3  py     Val( 2p)     1.14428
    38    C    3  py     Ryd( 3p)     0.00420
    39    C    3  pz     Val( 2p)     1.04697
    40    C    3  pz     Ryd( 3p)     0.00150
    41    C    3  dxy    Ryd( 3d)     0.00076
    42    C    3  dxz    Ryd( 3d)     0.00066
    43    C    3  dyz    Ryd( 3d)     0.00044
    44    C    3  dx2y2  Ryd( 3d)     0.00051
    45    C    3  dz2    Ryd( 3d)     0.00038

    46    C    4  S      Cor( 1S)     1.99908
    47    C    4  S      Val( 2S)     0.94829
    48    C    4  S      Ryd( 3S)     0.00065
    49    C    4  S      Ryd( 4S)     0.00005
    50    C    4  px     Val( 2p)     1.09142
    51    C    4  px     Ryd( 3p)     0.00371
    52    C    4  py     Val( 2p)     1.15335
    53    C    4  py     Ryd( 3p)     0.00475
    54    C    4  pz     Val( 2p)     1.03810
    55    C    4  pz     Ryd( 3p)     0.00250
    56    C    4  dxy    Ryd( 3d)     0.00071
    57    C    4  dxz    Ryd( 3d)     0.00067
    58    C    4  dyz    Ryd( 3d)     0.00044
    59    C    4  dx2y2  Ryd( 3d)     0.00059
    60    C    4  dz2    Ryd( 3d)     0.00034

    61    C    5  S      Cor( 1S)     1.99902
    62    C    5  S      Val( 2S)     0.86708
    63    C    5  S      Ryd( 3S)     0.00050
    64    C    5  S      Ryd( 4S)     0.00006
    65    C    5  px     Val( 2p)     1.06891
    66    C    5  px     Ryd( 3p)     0.00465
    67    C    5  py     Val( 2p)     1.08414
    68    C    5  py     Ryd( 3p)     0.00574
    69    C    5  pz     Val( 2p)     1.05590
    70    C    5  pz     Ryd( 3p)     0.00304
    71    C    5  dxy    Ryd( 3d)     0.00075
    72    C    5  dxz    Ryd( 3d)     0.00090
    73    C    5  dyz    Ryd( 3d)     0.00042
    74    C    5  dx2y2  Ryd( 3d)     0.00062
    75    C    5  dz2    Ryd( 3d)     0.00036

    76    C    6  S      Cor( 1S)     1.99902
    77    C    6  S      Val( 2S)     0.86708
    78    C    6  S      Ryd( 3S)     0.00050
    79    C    6  S      Ryd( 4S)     0.00006
    80    C    6  px     Val( 2p)     1.06891
    81    C    6  px     Ryd( 3p)     0.00465
    82    C    6  py     Val( 2p)     1.08414
    83    C    6  py     Ryd( 3p)     0.00574
    84    C    6  pz     Val( 2p)     1.05590
    85    C    6  pz     Ryd( 3p)     0.00304
    86    C    6  dxy    Ryd( 3d)     0.00075
    87    C    6  dxz    Ryd( 3d)     0.00090
    88    C    6  dyz    Ryd( 3d)     0.00042
    89    C    6  dx2y2  Ryd( 3d)     0.00062
    90    C    6  dz2    Ryd( 3d)     0.00036

    91    C    7  S      Cor( 1S)     1.99908
    92    C    7  S      Val( 2S)     0.94826
    93    C    7  S      Ryd( 3S)     0.00066
    94    C    7  S      Ryd( 4S)     0.00005
    95    C    7  px     Val( 2p)     1.09178
    96    C    7  px     Ryd( 3p)     0.00371
    97    C    7  py     Val( 2p)     1.15253
    98    C    7  py     Ryd( 3p)     0.00473
    99    C    7  pz     Val( 2p)     1.03861
   100    C    7  pz     Ryd( 3p)     0.00252
   101    C    7  dxy    Ryd( 3d)     0.00071
   102    C    7  dxz    Ryd( 3d)     0.00067
   103    C    7  dyz    Ryd( 3d)     0.00044
   104    C    7  dx2y2  Ryd( 3d)     0.00059
   105    C    7  dz2    Ryd( 3d)     0.00034

   106    C    8  S      Cor( 1S)     1.99906
   107    C    8  S      Val( 2S)     0.95755
   108    C    8  S      Ryd( 3S)     0.00067
   109    C    8  S      Ryd( 4S)     0.00004
   110    C    8  px     Val( 2p)     1.10594
   111    C    8  px     Ryd( 3p)     0.00443
   112    C    8  py     Val( 2p)     1.14431
   113    C    8  py     Ryd( 3p)     0.00416
   114    C    8  pz     Val( 2p)     1.04750
   115    C    8  pz     Ryd( 3p)     0.00154
   116    C    8  dxy    Ryd( 3d)     0.00077
   117    C    8  dxz    Ryd( 3d)     0.00065
   118    C    8  dyz    Ryd( 3d)     0.00045
   119    C    8  dx2y2  Ryd( 3d)     0.00051
   120    C    8  dz2    Ryd( 3d)     0.00037

   121    C    9  S      Cor( 1S)     1.99897
   122    C    9  S      Val( 2S)     0.84228
   123    C    9  S      Ryd( 3S)     0.00114
   124    C    9  S      Ryd( 4S)     0.00009
   125    C    9  px     Val( 2p)     0.89981
   126    C    9  px     Ryd( 3p)     0.00568
   127    C    9  py     Val( 2p)     1.08479
   128    C    9  py     Ryd( 3p)     0.00421
   129    C    9  pz     Val( 2p)     1.03532
   130    C    9  pz     Ryd( 3p)     0.00321
   131    C    9  dxy    Ryd( 3d)     0.00093
   132    C    9  dxz    Ryd( 3d)     0.00144
   133    C    9  dyz    Ryd( 3d)     0.00052
   134    C    9  dx2y2  Ryd( 3d)     0.00112
   135    C    9  dz2    Ryd( 3d)     0.00046

   136    N   10  S      Cor( 1S)     1.99951
   137    N   10  S      Val( 2S)     1.36837
   138    N   10  S      Ryd( 3S)     0.00021
   139    N   10  S      Ryd( 4S)     0.00001
   140    N   10  px     Val( 2p)     1.32108
   141    N   10  px     Ryd( 3p)     0.00252
   142    N   10  py     Val( 2p)     1.43856
   143    N   10  py     Ryd( 3p)     0.00220
   144    N   10  pz     Val( 2p)     1.65885
   145    N   10  pz     Ryd( 3p)     0.00452
   146    N   10  dxy    Ryd( 3d)     0.00040
   147    N   10  dxz    Ryd( 3d)     0.00091
   148    N   10  dyz    Ryd( 3d)     0.00076
   149    N   10  dx2y2  Ryd( 3d)     0.00051
   150    N   10  dz2    Ryd( 3d)     0.00079

   151    C   11  S      Cor( 1S)     1.99906
   152    C   11  S      Val( 2S)     0.95757
   153    C   11  S      Ryd( 3S)     0.00067
   154    C   11  S      Ryd( 4S)     0.00004
   155    C   11  px     Val( 2p)     1.10604
   156    C   11  px     Ryd( 3p)     0.00443
   157    C   11  py     Val( 2p)     1.14428
   158    C   11  py     Ryd( 3p)     0.00420
   159    C   11  pz     Val( 2p)     1.04697
   160    C   11  pz     Ryd( 3p)     0.00150
   161    C   11  dxy    Ryd( 3d)     0.00076
   162    C   11  dxz    Ryd( 3d)     0.00066
   163    C   11  dyz    Ryd( 3d)     0.00044
   164    C   11  dx2y2  Ryd( 3d)     0.00051
   165    C   11  dz2    Ryd( 3d)     0.00038

   166    C   12  S      Cor( 1S)     1.99908
   167    C   12  S      Val( 2S)     0.94829
   168    C   12  S      Ryd( 3S)     0.00065
   169    C   12  S      Ryd( 4S)     0.00005
   170    C   12  px     Val( 2p)     1.09142
   171    C   12  px     Ryd( 3p)     0.00371
   172    C   12  py     Val( 2p)     1.15335
   173    C   12  py     Ryd( 3p)     0.00475
   174    C   12  pz     Val( 2p)     1.03810
   175    C   12  pz     Ryd( 3p)     0.00250
   176    C   12  dxy    Ryd( 3d)     0.00071
   177    C   12  dxz    Ryd( 3d)     0.00067
   178    C   12  dyz    Ryd( 3d)     0.00044
   179    C   12  dx2y2  Ryd( 3d)     0.00059
   180    C   12  dz2    Ryd( 3d)     0.00034

   181    C   13  S      Cor( 1S)     1.99908
   182    C   13  S      Val( 2S)     0.94826
   183    C   13  S      Ryd( 3S)     0.00066
   184    C   13  S      Ryd( 4S)     0.00005
   185    C   13  px     Val( 2p)     1.09178
   186    C   13  px     Ryd( 3p)     0.00371
   187    C   13  py     Val( 2p)     1.15253
   188    C   13  py     Ryd( 3p)     0.00473
   189    C   13  pz     Val( 2p)     1.03861
   190    C   13  pz     Ryd( 3p)     0.00252
   191    C   13  dxy    Ryd( 3d)     0.00071
   192    C   13  dxz    Ryd( 3d)     0.00067
   193    C   13  dyz    Ryd( 3d)     0.00044
   194    C   13  dx2y2  Ryd( 3d)     0.00059
   195    C   13  dz2    Ryd( 3d)     0.00034

   196    C   14  S      Cor( 1S)     1.99906
   197    C   14  S      Val( 2S)     0.95755
   198    C   14  S      Ryd( 3S)     0.00067
   199    C   14  S      Ryd( 4S)     0.00004
   200    C   14  px     Val( 2p)     1.10594
   201    C   14  px     Ryd( 3p)     0.00443
   202    C   14  py     Val( 2p)     1.14431
   203    C   14  py     Ryd( 3p)     0.00416
   204    C   14  pz     Val( 2p)     1.04750
   205    C   14  pz     Ryd( 3p)     0.00154
   206    C   14  dxy    Ryd( 3d)     0.00077
   207    C   14  dxz    Ryd( 3d)     0.00065
   208    C   14  dyz    Ryd( 3d)     0.00045
   209    C   14  dx2y2  Ryd( 3d)     0.00051
   210    C   14  dz2    Ryd( 3d)     0.00037

   211    H   15  S      Val( 1S)     0.57994
   212    H   15  S      Ryd( 2S)     0.00168
   213    H   15  px     Ryd( 2p)     0.00029
   214    H   15  py     Ryd( 2p)     0.00052
   215    H   15  pz     Ryd( 2p)     0.00044

   216    H   16  S      Val( 1S)     0.58049
   217    H   16  S      Ryd( 2S)     0.00183
   218    H   16  px     Ryd( 2p)     0.00029
   219    H   16  py     Ryd( 2p)     0.00040
   220    H   16  pz     Ryd( 2p)     0.00057

   221    H   17  S      Val( 1S)     0.75591
   222    H   17  S      Ryd( 2S)     0.00099
   223    H   17  px     Ryd( 2p)     0.00014
   224    H   17  py     Ryd( 2p)     0.00032
   225    H   17  pz     Ryd( 2p)     0.00015

   226    H   18  S      Val( 1S)     0.75925
   227    H   18  S      Ryd( 2S)     0.00117
   228    H   18  px     Ryd( 2p)     0.00014
   229    H   18  py     Ryd( 2p)     0.00031
   230    H   18  pz     Ryd( 2p)     0.00017

   231    H   19  S      Val( 1S)     0.75930
   232    H   19  S      Ryd( 2S)     0.00117
   233    H   19  px     Ryd( 2p)     0.00014
   234    H   19  py     Ryd( 2p)     0.00031
   235    H   19  pz     Ryd( 2p)     0.00017

   236    H   20  S      Val( 1S)     0.75624
   237    H   20  S      Ryd( 2S)     0.00103
   238    H   20  px     Ryd( 2p)     0.00014
   239    H   20  py     Ryd( 2p)     0.00032
   240    H   20  pz     Ryd( 2p)     0.00014

   241    H   21  S      Val( 1S)     0.58049
   242    H   21  S      Ryd( 2S)     0.00183
   243    H   21  px     Ryd( 2p)     0.00029
   244    H   21  py     Ryd( 2p)     0.00040
   245    H   21  pz     Ryd( 2p)     0.00057

   246    H   22  S      Val( 1S)     0.57994
   247    H   22  S      Ryd( 2S)     0.00168
   248    H   22  px     Ryd( 2p)     0.00029
   249    H   22  py     Ryd( 2p)     0.00052
   250    H   22  pz     Ryd( 2p)     0.00044

   251    H   23  S      Val( 1S)     0.75591
   252    H   23  S      Ryd( 2S)     0.00099
   253    H   23  px     Ryd( 2p)     0.00014
   254    H   23  py     Ryd( 2p)     0.00032
   255    H   23  pz     Ryd( 2p)     0.00015

   256    H   24  S      Val( 1S)     0.75925
   257    H   24  S      Ryd( 2S)     0.00117
   258    H   24  px     Ryd( 2p)     0.00014
   259    H   24  py     Ryd( 2p)     0.00031
   260    H   24  pz     Ryd( 2p)     0.00017

   261    H   25  S      Val( 1S)     0.75930
   262    H   25  S      Ryd( 2S)     0.00117
   263    H   25  px     Ryd( 2p)     0.00014
   264    H   25  py     Ryd( 2p)     0.00031
   265    H   25  pz     Ryd( 2p)     0.00017

   266    H   26  S      Val( 1S)     0.75624
   267    H   26  S      Ryd( 2S)     0.00103
   268    H   26  px     Ryd( 2p)     0.00014
   269    H   26  py     Ryd( 2p)     0.00032
   270    H   26  pz     Ryd( 2p)     0.00014

 WARNING:  1 low occupancy (<1.9990e) core orbital  found on  C    2
           1 low occupancy (<1.9990e) core orbital  found on  C    9


 Summary of Natural Population Analysis:                  
                                                          
                                       Natural Population 
                Natural  -----------------------------------------------
    Atom  No    Charge         Core      Valence    Rydberg      Total
 -----------------------------------------------------------------------
      N    1   -0.79921      1.99951     5.78687    0.01283     7.79921
      C    2    0.12002      1.99897     3.86220    0.01880     5.87998
      C    3   -0.26750      1.99906     4.25486    0.01358     6.26750
      C    4   -0.24465      1.99908     4.23116    0.01441     6.24465
      C    5   -0.09208      1.99902     4.07602    0.01704     6.09208
      C    6   -0.09208      1.99902     4.07602    0.01704     6.09208
      C    7   -0.24468      1.99908     4.23118    0.01442     6.24468
      C    8   -0.26794      1.99906     4.25529    0.01359     6.26794
      C    9    0.12002      1.99897     3.86220    0.01880     5.87998
      N   10   -0.79921      1.99951     5.78687    0.01283     7.79921
      C   11   -0.26750      1.99906     4.25486    0.01358     6.26750
      C   12   -0.24465      1.99908     4.23116    0.01441     6.24465
      C   13   -0.24468      1.99908     4.23118    0.01442     6.24468
      C   14   -0.26794      1.99906     4.25529    0.01359     6.26794
      H   15    0.41712      0.00000     0.57994    0.00294     0.58288
      H   16    0.41642      0.00000     0.58049    0.00309     0.58358
      H   17    0.24250      0.00000     0.75591    0.00159     0.75750
      H   18    0.23896      0.00000     0.75925    0.00179     0.76104
      H   19    0.23891      0.00000     0.75930    0.00179     0.76109
      H   20    0.24213      0.00000     0.75624    0.00163     0.75787
      H   21    0.41642      0.00000     0.58049    0.00309     0.58358
      H   22    0.41712      0.00000     0.57994    0.00294     0.58288
      H   23    0.24250      0.00000     0.75591    0.00159     0.75750
      H   24    0.23896      0.00000     0.75925    0.00179     0.76104
      H   25    0.23891      0.00000     0.75930    0.00179     0.76109
      H   26    0.24213      0.00000     0.75624    0.00163     0.75787
 =======================================================================
   * Total *    0.00000     27.98753    69.77745    0.23502    98.00000

                                 Natural Population      
 --------------------------------------------------------
   Core                      27.98753 ( 99.9555% of  28)
   Valence                   69.77745 ( 99.6821% of  70)
   Natural Minimal Basis     97.76498 ( 99.7602% of  98)
   Natural Rydberg Basis      0.23502 (  0.2398% of  98)
 --------------------------------------------------------

    Atom  No          Natural Electron Configuration
 ----------------------------------------------------------------------------
      N    1      [core]2S( 1.37)2p( 4.42)3p( 0.01)
      C    2      [core]2S( 0.84)2p( 3.02)3p( 0.01)
      C    3      [core]2S( 0.96)2p( 3.30)3p( 0.01)
      C    4      [core]2S( 0.95)2p( 3.28)3p( 0.01)
      C    5      [core]2S( 0.87)2p( 3.21)3p( 0.01)
      C    6      [core]2S( 0.87)2p( 3.21)3p( 0.01)
      C    7      [core]2S( 0.95)2p( 3.28)3p( 0.01)
      C    8      [core]2S( 0.96)2p( 3.30)3p( 0.01)
      C    9      [core]2S( 0.84)2p( 3.02)3p( 0.01)
      N   10      [core]2S( 1.37)2p( 4.42)3p( 0.01)
      C   11      [core]2S( 0.96)2p( 3.30)3p( 0.01)
      C   12      [core]2S( 0.95)2p( 3.28)3p( 0.01)
      C   13      [core]2S( 0.95)2p( 3.28)3p( 0.01)
      C   14      [core]2S( 0.96)2p( 3.30)3p( 0.01)
      H   15            1S( 0.58)
      H   16            1S( 0.58)
      H   17            1S( 0.76)
      H   18            1S( 0.76)
      H   19            1S( 0.76)
      H   20            1S( 0.76)
      H   21            1S( 0.58)
      H   22            1S( 0.58)
      H   23            1S( 0.76)
      H   24            1S( 0.76)
      H   25            1S( 0.76)
      H   26            1S( 0.76)


 NBO analysis skipped by request.
 1\1\GINC-CN33\SP\RB3LYP TD-FC\6-31G(d,p)\C12H12N2\QDUEZ\11-Jul-2024\0\
 \# TD(NStates=10, Root=1) B3LYP/6-31G** SCRF=(Solvent=water) volume po
 p=NPA density=current Geom=AllCheck Guess=Read\\HFACYLZERDEVSX-UHFFFAO
 YSA-N_conf_2\\0,1\N,0,4.9792510614,-0.0588845151,0.3396697949\C,0,3.58
 59505524,-0.014725572,0.2666663065\C,0,2.7895214228,-0.7164055117,1.18
 97763492\C,0,1.4031702896,-0.7248140789,1.0725869039\C,0,0.7406190331,
 -0.0351851768,0.0404445139\C,0,-0.737983399,-0.0449228057,-0.07627376\
 C,0,-1.5672261473,-0.0811321267,1.0599317337\C,0,-2.9547301063,-0.0914
 778327,0.9568554242\C,0,-3.583448626,-0.0613185822,-0.3011407631\N,0,-
 4.9728643134,-0.1352358431,-0.4135067416\C,0,-2.7652626989,-0.02092042
 15,-1.4446992558\C,0,-1.3788013331,-0.0158622165,-1.3286267295\C,0,1.5
 479806588,0.6660846664,-0.8740528266\C,0,2.9354288582,0.6781251005,-0.
 7704115282\H,0,5.3490595169,-0.2316378176,1.2659510786\H,0,5.450485815
 5,0.7221325756,-0.0990627992\H,0,3.2665412387,-1.2679498531,1.99609172
 32\H,0,0.8239078027,-1.2978591917,1.7909617063\H,0,-1.1193049857,-0.07
 54364846,2.049538741\H,0,-3.5626706353,-0.1114363935,1.8579619462\H,0,
 -5.4807360166,0.197299389,0.3964456218\H,0,-5.3500012892,0.2602616714,
 -1.2655328159\H,0,-3.2246258631,-0.006037007,-2.4299187822\H,0,-0.7809
 317787,-0.0083652408,-2.2355356981\H,0,1.0810765246,1.237362571,-1.671
 3168486\H,0,3.5255944179,1.2383406972,-1.4914150598\\Version=EM64L-G16
 RevA.03\State=1-A\HF=-574.0511596\RMSD=5.588e-09\Dipole=-0.0293853,0.8
 931436,0.2977431\Quadrupole=21.48924,-15.2986585,-6.1905815,-0.4440651
 ,5.0673866,-3.2228927\PG=C01 [X(C12H12N2)]\\@


 BLACK HOLES SUCK.
 Job cpu time:       0 days  1 hours 31 minutes 45.4 seconds.
 Elapsed time:       0 days  0 hours 35 minutes 28.0 seconds.
 File lengths (MBytes):  RWF=    625 Int=      0 D2E=      0 Chk=     39 Scr=      1
 Normal termination of Gaussian 16 at Thu Jul 11 20:51:04 2024.
