 Entering Gaussian System, Link 0=g16
 Initial command:
 /opt/sw/arch/manual/gaussian/G16_A03/g16/l1.exe "/scratch/1032046.jesse.materianova.be/Gau-73125.inp" -scrdir="/scratch/1032046.jesse.materianova.be/"
 Entering Link 1 = /opt/sw/arch/manual/gaussian/G16_A03/g16/l1.exe PID=     73129.
  
 Copyright (c) 1988,1990,1992,1993,1995,1998,2003,2009,2016,
            Gaussian, Inc.  All Rights Reserved.
  
 This is part of the Gaussian(R) 16 program.  It is based on
 the Gaussian(R) 09 system (copyright 2009, Gaussian, Inc.),
 the Gaussian(R) 03 system (copyright 2003, Gaussian, Inc.),
 the Gaussian(R) 98 system (copyright 1998, Gaussian, Inc.),
 the Gaussian(R) 94 system (copyright 1995, Gaussian, Inc.),
 the Gaussian 92(TM) system (copyright 1992, Gaussian, Inc.),
 the Gaussian 90(TM) system (copyright 1990, Gaussian, Inc.),
 the Gaussian 88(TM) system (copyright 1988, Gaussian, Inc.),
 the Gaussian 86(TM) system (copyright 1986, Carnegie Mellon
 University), and the Gaussian 82(TM) system (copyright 1983,
 Carnegie Mellon University). Gaussian is a federally registered
 trademark of Gaussian, Inc.
  
 This software contains proprietary and confidential information,
 including trade secrets, belonging to Gaussian, Inc.
  
 This software is provided under written license and may be
 used, copied, transmitted, or stored only in accord with that
 written license.
  
 The following legend is applicable only to US Government
 contracts under FAR:
  
                    RESTRICTED RIGHTS LEGEND
  
 Use, reproduction and disclosure by the US Government is
 subject to restrictions as set forth in subparagraphs (a)
 and (c) of the Commercial Computer Software - Restricted
 Rights clause in FAR 52.227-19.
  
 Gaussian, Inc.
 340 Quinnipiac St., Bldg. 40, Wallingford CT 06492
  
  
 ---------------------------------------------------------------
 Warning -- This program may not be used in any manner that
 competes with the business of Gaussian, Inc. or will provide
 assistance to any competitor of Gaussian, Inc.  The licensee
 of this program is prohibited from giving any competitor of
 Gaussian, Inc. access to this program.  By using this program,
 the user acknowledges that Gaussian, Inc. is engaged in the
 business of creating and licensing software in the field of
 computational chemistry and represents and warrants to the
 licensee that it is not a competitor of Gaussian, Inc. and that
 it will not use this program in any manner prohibited above.
 ---------------------------------------------------------------
  

 Cite this work as:
 Gaussian 16, Revision A.03,
 M. J. Frisch, G. W. Trucks, H. B. Schlegel, G. E. Scuseria, 
 M. A. Robb, J. R. Cheeseman, G. Scalmani, V. Barone, 
 G. A. Petersson, H. Nakatsuji, X. Li, M. Caricato, A. V. Marenich, 
 J. Bloino, B. G. Janesko, R. Gomperts, B. Mennucci, H. P. Hratchian, 
 J. V. Ortiz, A. F. Izmaylov, J. L. Sonnenberg, D. Williams-Young, 
 F. Ding, F. Lipparini, F. Egidi, J. Goings, B. Peng, A. Petrone, 
 T. Henderson, D. Ranasinghe, V. G. Zakrzewski, J. Gao, N. Rega, 
 G. Zheng, W. Liang, M. Hada, M. Ehara, K. Toyota, R. Fukuda, 
 J. Hasegawa, M. Ishida, T. Nakajima, Y. Honda, O. Kitao, H. Nakai, 
 T. Vreven, K. Throssell, J. A. Montgomery, Jr., J. E. Peralta, 
 F. Ogliaro, M. J. Bearpark, J. J. Heyd, E. N. Brothers, K. N. Kudin, 
 V. N. Staroverov, T. A. Keith, R. Kobayashi, J. Normand, 
 K. Raghavachari, A. P. Rendell, J. C. Burant, S. S. Iyengar, 
 J. Tomasi, M. Cossi, J. M. Millam, M. Klene, C. Adamo, R. Cammi, 
 J. W. Ochterski, R. L. Martin, K. Morokuma, O. Farkas, 
 J. B. Foresman, and D. J. Fox, Gaussian, Inc., Wallingford CT, 2016.
 
 ******************************************
 Gaussian 16:  EM64L-G16RevA.03 25-Dec-2016
                11-Jul-2024 
 ******************************************
 %nprocshared=4
 Will use up to    4 processors via shared memory.
 %mem=8GB
 %Chk=HFACYLZERDEVSX-UHFFFAOYSA-N_conf_0_0.chk
 -------------------------------------------------------
 # opt=CalcFc B3LYP/6-31G** SCRF=(Solvent=water) scf=xqc
 -------------------------------------------------------
 1/10=4,18=20,19=15,26=3,38=1/1,3;
 2/9=110,12=2,17=6,18=5,40=1/2;
 3/5=1,6=6,7=101,11=2,25=1,30=1,70=2201,71=2,72=1,74=-5,140=1/1,2,3;
 4//1;
 5/5=2,8=3,13=1,38=5,53=1/2,8;
 8/6=4,10=90,11=11/1;
 11/6=1,8=1,9=11,15=111,16=1/1,2,10;
 10/6=1,13=1/2;
 6/7=2,8=2,9=2,10=2,28=1/1;
 7/10=1,18=20,25=1/1,2,3,16;
 1/10=4,18=20,19=15,26=3/3(2);
 2/9=110/2;
 99//99;
 2/9=110/2;
 3/5=1,6=6,7=101,11=2,25=1,30=1,70=2205,71=1,72=1,74=-5/1,2,3;
 4/5=5,16=3,69=1/1;
 5/5=2,8=3,13=1,38=5,53=1/2,8;
 7//1,2,3,16;
 1/18=20,19=15,26=3/3(-5);
 2/9=110/2;
 6/7=2,8=2,9=2,10=2,19=2,28=1/1;
 99/9=1/99;
 ----------------------------------
 HFACYLZERDEVSX-UHFFFAOYSA-N_conf_0
 ----------------------------------
 Symbolic Z-matrix:
 Charge =  0 Multiplicity = 1
 N                    -4.95223   0.21594  -0.38839 
 C                    -3.5684    0.15321  -0.19108 
 C                    -2.83042  -0.91219  -0.70675 
 C                    -1.43326  -0.9258   -0.61647 
 C                    -0.7342    0.14877  -0.04681 
 C                     0.73449   0.13524   0.04621 
 C                     1.41088  -0.92789   0.66278 
 C                     2.80806  -0.93995   0.75303 
 C                     3.56821   0.08593   0.19147 
 N                     4.95315   0.12791   0.38648 
 C                     2.90232   1.17536  -0.37015 
 C                     1.50523   1.19177  -0.46111 
 C                    -1.48213   1.24264   0.41332 
 C                    -2.8793    1.25187   0.32252 
 H                    -5.39683  -0.69372  -0.45985 
 H                    -5.4308    0.82857   0.26431 
 H                    -3.33477  -1.74603  -1.18733 
 H                    -0.89032  -1.77757  -1.02084 
 H                     0.8502   -1.7494    1.10387 
 H                     3.29484  -1.76241   1.26995 
 H                     5.4443    0.70103  -0.29224 
 H                     5.37841  -0.78696   0.49798 
 H                     3.46404   2.02501  -0.74857 
 H                     1.02145   2.04337  -0.93496 
 H                    -0.98019   2.10376   0.84958 
 H                    -3.42272   2.12902   0.66305 
 

 GradGradGradGradGradGradGradGradGradGradGradGradGradGradGradGradGradGrad
 Berny optimization.
 Initialization pass.
                           ----------------------------
                           !    Initial Parameters    !
                           ! (Angstroms and Degrees)  !
 --------------------------                            --------------------------
 ! Name  Definition              Value          Derivative Info.                !
 --------------------------------------------------------------------------------
 ! R1    R(1,2)                  1.3992         calculate D2E/DX2 analytically  !
 ! R2    R(1,15)                 1.015          calculate D2E/DX2 analytically  !
 ! R3    R(1,16)                 1.0151         calculate D2E/DX2 analytically  !
 ! R4    R(2,3)                  1.3948         calculate D2E/DX2 analytically  !
 ! R5    R(2,14)                 1.3949         calculate D2E/DX2 analytically  !
 ! R6    R(3,4)                  1.4001         calculate D2E/DX2 analytically  !
 ! R7    R(3,17)                 1.0866         calculate D2E/DX2 analytically  !
 ! R8    R(4,5)                  1.4028         calculate D2E/DX2 analytically  !
 ! R9    R(4,18)                 1.088          calculate D2E/DX2 analytically  !
 ! R10   R(5,6)                  1.4717         calculate D2E/DX2 analytically  !
 ! R11   R(5,13)                 1.4027         calculate D2E/DX2 analytically  !
 ! R12   R(6,7)                  1.4028         calculate D2E/DX2 analytically  !
 ! R13   R(6,12)                 1.4027         calculate D2E/DX2 analytically  !
 ! R14   R(7,8)                  1.4001         calculate D2E/DX2 analytically  !
 ! R15   R(7,19)                 1.088          calculate D2E/DX2 analytically  !
 ! R16   R(8,9)                  1.3948         calculate D2E/DX2 analytically  !
 ! R17   R(8,20)                 1.0866         calculate D2E/DX2 analytically  !
 ! R18   R(9,10)                 1.3992         calculate D2E/DX2 analytically  !
 ! R19   R(9,11)                 1.3949         calculate D2E/DX2 analytically  !
 ! R20   R(10,21)                1.0151         calculate D2E/DX2 analytically  !
 ! R21   R(10,22)                1.015          calculate D2E/DX2 analytically  !
 ! R22   R(11,12)                1.4001         calculate D2E/DX2 analytically  !
 ! R23   R(11,23)                1.0866         calculate D2E/DX2 analytically  !
 ! R24   R(12,24)                1.088          calculate D2E/DX2 analytically  !
 ! R25   R(13,14)                1.4001         calculate D2E/DX2 analytically  !
 ! R26   R(13,25)                1.088          calculate D2E/DX2 analytically  !
 ! R27   R(14,26)                1.0866         calculate D2E/DX2 analytically  !
 ! A1    A(2,1,15)             113.7628         calculate D2E/DX2 analytically  !
 ! A2    A(2,1,16)             113.7449         calculate D2E/DX2 analytically  !
 ! A3    A(15,1,16)            112.3118         calculate D2E/DX2 analytically  !
 ! A4    A(1,2,3)              120.3556         calculate D2E/DX2 analytically  !
 ! A5    A(1,2,14)             120.3439         calculate D2E/DX2 analytically  !
 ! A6    A(3,2,14)             118.4477         calculate D2E/DX2 analytically  !
 ! A7    A(2,3,4)              120.7663         calculate D2E/DX2 analytically  !
 ! A8    A(2,3,17)             120.2712         calculate D2E/DX2 analytically  !
 ! A9    A(4,3,17)             118.9625         calculate D2E/DX2 analytically  !
 ! A10   A(3,4,5)              121.0644         calculate D2E/DX2 analytically  !
 ! A11   A(3,4,18)             118.7901         calculate D2E/DX2 analytically  !
 ! A12   A(5,4,18)             120.1271         calculate D2E/DX2 analytically  !
 ! A13   A(4,5,6)              121.0597         calculate D2E/DX2 analytically  !
 ! A14   A(4,5,13)             117.7            calculate D2E/DX2 analytically  !
 ! A15   A(6,5,13)             121.2346         calculate D2E/DX2 analytically  !
 ! A16   A(5,6,7)              121.0596         calculate D2E/DX2 analytically  !
 ! A17   A(5,6,12)             121.2346         calculate D2E/DX2 analytically  !
 ! A18   A(7,6,12)             117.7            calculate D2E/DX2 analytically  !
 ! A19   A(6,7,8)              121.0644         calculate D2E/DX2 analytically  !
 ! A20   A(6,7,19)             120.1271         calculate D2E/DX2 analytically  !
 ! A21   A(8,7,19)             118.7901         calculate D2E/DX2 analytically  !
 ! A22   A(7,8,9)              120.7663         calculate D2E/DX2 analytically  !
 ! A23   A(7,8,20)             118.9625         calculate D2E/DX2 analytically  !
 ! A24   A(9,8,20)             120.2712         calculate D2E/DX2 analytically  !
 ! A25   A(8,9,10)             120.3556         calculate D2E/DX2 analytically  !
 ! A26   A(8,9,11)             118.4477         calculate D2E/DX2 analytically  !
 ! A27   A(10,9,11)            120.3438         calculate D2E/DX2 analytically  !
 ! A28   A(9,10,21)            113.7447         calculate D2E/DX2 analytically  !
 ! A29   A(9,10,22)            113.7627         calculate D2E/DX2 analytically  !
 ! A30   A(21,10,22)           112.3117         calculate D2E/DX2 analytically  !
 ! A31   A(9,11,12)            120.7742         calculate D2E/DX2 analytically  !
 ! A32   A(9,11,23)            120.2753         calculate D2E/DX2 analytically  !
 ! A33   A(12,11,23)           118.95           calculate D2E/DX2 analytically  !
 ! A34   A(6,12,11)            121.0594         calculate D2E/DX2 analytically  !
 ! A35   A(6,12,24)            120.1807         calculate D2E/DX2 analytically  !
 ! A36   A(11,12,24)           118.7599         calculate D2E/DX2 analytically  !
 ! A37   A(5,13,14)            121.0594         calculate D2E/DX2 analytically  !
 ! A38   A(5,13,25)            120.1807         calculate D2E/DX2 analytically  !
 ! A39   A(14,13,25)           118.7599         calculate D2E/DX2 analytically  !
 ! A40   A(2,14,13)            120.7742         calculate D2E/DX2 analytically  !
 ! A41   A(2,14,26)            120.2754         calculate D2E/DX2 analytically  !
 ! A42   A(13,14,26)           118.95           calculate D2E/DX2 analytically  !
 ! D1    D(15,1,2,3)            30.2162         calculate D2E/DX2 analytically  !
 ! D2    D(15,1,2,14)         -160.5195         calculate D2E/DX2 analytically  !
 ! D3    D(16,1,2,3)           160.5212         calculate D2E/DX2 analytically  !
 ! D4    D(16,1,2,14)          -30.2144         calculate D2E/DX2 analytically  !
 ! D5    D(1,2,3,4)            174.384          calculate D2E/DX2 analytically  !
 ! D6    D(1,2,3,17)            -5.5365         calculate D2E/DX2 analytically  !
 ! D7    D(14,2,3,4)             4.919          calculate D2E/DX2 analytically  !
 ! D8    D(14,2,3,17)         -175.0015         calculate D2E/DX2 analytically  !
 ! D9    D(1,2,14,13)         -174.3184         calculate D2E/DX2 analytically  !
 ! D10   D(1,2,14,26)            5.9398         calculate D2E/DX2 analytically  !
 ! D11   D(3,2,14,13)           -4.8522         calculate D2E/DX2 analytically  !
 ! D12   D(3,2,14,26)          175.4061         calculate D2E/DX2 analytically  !
 ! D13   D(2,3,4,5)             -2.1506         calculate D2E/DX2 analytically  !
 ! D14   D(2,3,4,18)           179.408          calculate D2E/DX2 analytically  !
 ! D15   D(17,3,4,5)           177.7709         calculate D2E/DX2 analytically  !
 ! D16   D(17,3,4,18)           -0.6704         calculate D2E/DX2 analytically  !
 ! D17   D(3,4,5,6)           -179.9081         calculate D2E/DX2 analytically  !
 ! D18   D(3,4,5,13)            -0.769          calculate D2E/DX2 analytically  !
 ! D19   D(18,4,5,6)            -1.4874         calculate D2E/DX2 analytically  !
 ! D20   D(18,4,5,13)          177.6517         calculate D2E/DX2 analytically  !
 ! D21   D(4,5,6,7)            -54.326          calculate D2E/DX2 analytically  !
 ! D22   D(4,5,6,12)           126.5655         calculate D2E/DX2 analytically  !
 ! D23   D(13,5,6,7)           126.5655         calculate D2E/DX2 analytically  !
 ! D24   D(13,5,6,12)          -52.543          calculate D2E/DX2 analytically  !
 ! D25   D(4,5,13,14)            0.8362         calculate D2E/DX2 analytically  !
 ! D26   D(4,5,13,25)         -179.1519         calculate D2E/DX2 analytically  !
 ! D27   D(6,5,13,14)          179.9737         calculate D2E/DX2 analytically  !
 ! D28   D(6,5,13,25)           -0.0144         calculate D2E/DX2 analytically  !
 ! D29   D(5,6,7,8)           -179.908          calculate D2E/DX2 analytically  !
 ! D30   D(5,6,7,19)            -1.4873         calculate D2E/DX2 analytically  !
 ! D31   D(12,6,7,8)            -0.7689         calculate D2E/DX2 analytically  !
 ! D32   D(12,6,7,19)          177.6517         calculate D2E/DX2 analytically  !
 ! D33   D(5,6,12,11)          179.9736         calculate D2E/DX2 analytically  !
 ! D34   D(5,6,12,24)           -0.0144         calculate D2E/DX2 analytically  !
 ! D35   D(7,6,12,11)            0.8361         calculate D2E/DX2 analytically  !
 ! D36   D(7,6,12,24)         -179.1519         calculate D2E/DX2 analytically  !
 ! D37   D(6,7,8,9)             -2.1507         calculate D2E/DX2 analytically  !
 ! D38   D(6,7,8,20)           177.7708         calculate D2E/DX2 analytically  !
 ! D39   D(19,7,8,9)           179.408          calculate D2E/DX2 analytically  !
 ! D40   D(19,7,8,20)           -0.6706         calculate D2E/DX2 analytically  !
 ! D41   D(7,8,9,10)           174.3839         calculate D2E/DX2 analytically  !
 ! D42   D(7,8,9,11)             4.9191         calculate D2E/DX2 analytically  !
 ! D43   D(20,8,9,10)           -5.5365         calculate D2E/DX2 analytically  !
 ! D44   D(20,8,9,11)         -175.0014         calculate D2E/DX2 analytically  !
 ! D45   D(8,9,10,21)          160.5211         calculate D2E/DX2 analytically  !
 ! D46   D(8,9,10,22)           30.2164         calculate D2E/DX2 analytically  !
 ! D47   D(11,9,10,21)         -30.2147         calculate D2E/DX2 analytically  !
 ! D48   D(11,9,10,22)        -160.5193         calculate D2E/DX2 analytically  !
 ! D49   D(8,9,11,12)           -4.8522         calculate D2E/DX2 analytically  !
 ! D50   D(8,9,11,23)          175.406          calculate D2E/DX2 analytically  !
 ! D51   D(10,9,11,12)        -174.3184         calculate D2E/DX2 analytically  !
 ! D52   D(10,9,11,23)           5.9398         calculate D2E/DX2 analytically  !
 ! D53   D(9,11,12,6)            2.0144         calculate D2E/DX2 analytically  !
 ! D54   D(9,11,12,24)        -177.9974         calculate D2E/DX2 analytically  !
 ! D55   D(23,11,12,6)        -178.2404         calculate D2E/DX2 analytically  !
 ! D56   D(23,11,12,24)          1.7478         calculate D2E/DX2 analytically  !
 ! D57   D(5,13,14,2)            2.0144         calculate D2E/DX2 analytically  !
 ! D58   D(5,13,14,26)        -178.2405         calculate D2E/DX2 analytically  !
 ! D59   D(25,13,14,2)        -177.9973         calculate D2E/DX2 analytically  !
 ! D60   D(25,13,14,26)          1.7478         calculate D2E/DX2 analytically  !
 --------------------------------------------------------------------------------
 Trust Radius=3.00D-01 FncErr=1.00D-07 GrdErr=1.00D-06 EigMax=2.50D+02 EigMin=1.00D-04
 Number of steps in this run=    139 maximum allowed number of steps=    156.
 GradGradGradGradGradGradGradGradGradGradGradGradGradGradGradGradGradGrad

                          Input orientation:                          
 ---------------------------------------------------------------------
 Center     Atomic      Atomic             Coordinates (Angstroms)
 Number     Number       Type             X           Y           Z
 ---------------------------------------------------------------------
      1          7           0       -4.952231    0.215939   -0.388388
      2          6           0       -3.568401    0.153207   -0.191085
      3          6           0       -2.830423   -0.912194   -0.706747
      4          6           0       -1.433264   -0.925803   -0.616474
      5          6           0       -0.734202    0.148770   -0.046810
      6          6           0        0.734491    0.135237    0.046208
      7          6           0        1.410885   -0.927890    0.662784
      8          6           0        2.808059   -0.939950    0.753026
      9          6           0        3.568215    0.085925    0.191472
     10          7           0        4.953154    0.127907    0.386481
     11          6           0        2.902322    1.175356   -0.370154
     12          6           0        1.505227    1.191772   -0.461114
     13          6           0       -1.482134    1.242639    0.413323
     14          6           0       -2.879305    1.251865    0.322523
     15          1           0       -5.396831   -0.693716   -0.459853
     16          1           0       -5.430799    0.828565    0.264311
     17          1           0       -3.334766   -1.746033   -1.187325
     18          1           0       -0.890321   -1.777567   -1.020837
     19          1           0        0.850198   -1.749399    1.103865
     20          1           0        3.294839   -1.762409    1.269953
     21          1           0        5.444296    0.701031   -0.292241
     22          1           0        5.378406   -0.786958    0.497981
     23          1           0        3.464044    2.025011   -0.748569
     24          1           0        1.021448    2.043372   -0.934960
     25          1           0       -0.980192    2.103758    0.849585
     26          1           0       -3.422716    2.129016    0.663046
 ---------------------------------------------------------------------
                    Distance matrix (angstroms):
                    1          2          3          4          5
     1  N    0.000000
     2  C    1.399231   0.000000
     3  C    2.424068   1.394848   0.000000
     4  C    3.706578   2.429821   1.400138   0.000000
     5  C    4.232370   2.837873   2.440349   1.402823   0.000000
     6  C    5.703875   4.309468   3.791129   2.502822   1.471698
     7  C    6.550003   5.166348   4.456966   3.118604   2.502822
     8  C    7.928493   6.538011   5.824447   4.456967   3.791129
     9  C    8.541143   7.147179   6.538012   5.166349   4.309468
    10  N    9.936036   8.541143   7.928494   6.550005   5.703875
    11  C    7.912952   6.553404   6.110279   4.824194   3.792458
    12  C    6.531179   5.185869   4.825439   3.625326   2.504904
    13  C    3.706538   2.429955   2.777723   2.401044   1.402739
    14  C    2.423955   1.394882   2.396860   2.777586   2.440224
    15  H    1.015012   2.032897   2.587497   3.973444   4.756101
    16  H    1.015063   2.032736   3.276454   4.453523   4.755727
    17  H    2.665301   2.157359   1.086557   2.148106   3.413794
    18  H    4.568716   3.404187   2.147444   1.088025   2.164226
    19  H    6.305359   4.982051   4.186430   2.975244   2.727163
    20  H    8.641650   7.273808   6.492229   5.158825   4.649692
    21  H   10.408281   9.029897   8.440691   7.074782   6.207984
    22  H   10.416982   9.022422   8.297706   6.903633   6.207766
    23  H    8.616040   7.298611   6.946167   5.719124   4.651668
    24  H    6.270812   5.019242   4.860489   3.865623   2.731417
    25  H    4.568755   3.403890   3.865422   3.396004   2.164721
    26  H    2.665481   2.157448   3.387639   3.863548   3.413704
                    6          7          8          9         10
     6  C    0.000000
     7  C    1.402823   0.000000
     8  C    2.440349   1.400138   0.000000
     9  C    2.837873   2.429821   1.394848   0.000000
    10  N    4.232370   3.706579   2.424068   1.399231   0.000000
    11  C    2.440224   2.777587   2.396860   1.394882   2.423955
    12  C    1.402739   2.401044   2.777723   2.429955   3.706538
    13  C    2.504904   3.625326   4.825438   5.185868   6.531178
    14  C    3.792457   4.824193   6.110278   6.553404   7.912951
    15  H    6.207767   6.903633   8.297706   9.022423  10.416983
    16  H    6.207985   7.074782   8.440691   9.029898  10.408282
    17  H    4.649692   5.158824   6.492229   7.273809   8.641652
    18  H    2.727163   2.975245   4.186432   4.982052   6.305362
    19  H    2.164227   1.088025   2.147444   3.404187   4.568716
    20  H    3.413794   2.148106   1.086557   2.157358   2.665301
    21  H    4.755726   4.453522   3.276453   2.032735   1.015063
    22  H    4.756100   3.973443   2.587497   2.032896   1.015012
    23  H    3.413704   3.863548   3.387639   2.157448   2.665481
    24  H    2.164721   3.396005   3.865422   3.403890   4.568755
    25  H    2.731416   3.865622   4.860487   5.019240   6.270810
    26  H    4.651668   5.719123   6.946165   7.298610   8.616039
                   11         12         13         14         15
    11  C    0.000000
    12  C    1.400148   0.000000
    13  C    4.454416   3.113127   0.000000
    14  C    5.823475   4.454416   1.400148   0.000000
    15  H    8.507491   7.154961   4.453847   3.276482   0.000000
    16  H    8.364431   6.983310   3.973111   2.587024   1.686092
    17  H    6.935672   5.708206   3.863481   3.387400   2.426664
    18  H    4.850493   3.856023   3.395395   3.864988   4.668840
    19  H    3.864988   3.395395   3.856023   4.850492   6.525722
    20  H    3.387400   3.863481   5.708205   6.935670   8.926335
    21  H    2.587023   3.973110   6.983308   8.364429  10.931763
    22  H    3.276481   4.453847   7.154960   8.507490  10.818127
    23  H    1.086574   2.147995   5.140698   6.479434   9.273076
    24  H    2.147125   1.088024   2.954144   4.174161   6.993689
    25  H    4.174160   2.954143   1.088024   2.147125   5.389544
    26  H    6.479434   5.140699   2.147995   1.086575   3.622961
                   16         17         18         19         20
    16  H    0.000000
    17  H    3.623418   0.000000
    18  H    5.390683   2.450311   0.000000
    19  H    6.841175   4.771110   2.746737   0.000000
    20  H    9.157577   7.070371   4.771113   2.450311   0.000000
    21  H   10.890073   9.157578   6.841175   5.390682   3.623417
    22  H   10.931762   8.926335   6.525723   4.668839   2.426664
    23  H    9.031923   7.786983   5.787420   4.950745   4.295068
    24  H    6.674241   5.779263   4.273384   4.309437   4.951153
    25  H    4.666536   4.951153   4.309436   4.273384   5.779261
    26  H    2.425399   4.295068   4.950744   5.787419   7.786980
                   21         22         23         24         25
    21  H    0.000000
    22  H    1.686091   0.000000
    23  H    2.425398   3.622960   0.000000
    24  H    4.666535   5.389543   2.449766   0.000000
    25  H    6.674238   6.993686   4.723509   2.682315   0.000000
    26  H    9.031921   9.273074   7.030714   4.723510   2.449766
                   26
    26  H    0.000000
 Stoichiometry    C12H12N2
 Framework group  C1[X(C12H12N2)]
 Deg. of freedom    72
 Full point group                 C1      NOp   1
 Largest Abelian subgroup         C1      NOp   1
 Largest concise Abelian subgroup C1      NOp   1
                         Standard orientation:                         
 ---------------------------------------------------------------------
 Center     Atomic      Atomic             Coordinates (Angstroms)
 Number     Number       Type             X           Y           Z
 ---------------------------------------------------------------------
      1          7           0        4.967483    0.031165    0.072950
      2          6           0        3.573417   -0.021207   -0.035146
      3          6           0        2.859820   -1.067156    0.549979
      4          6           0        1.459683   -1.067930    0.548406
      5          6           0        0.735849    0.001236   -0.000100
      6          6           0       -0.735849    0.001236    0.000102
      7          6           0       -1.459683   -1.067931   -0.548403
      8          6           0       -2.859819   -1.067156   -0.549979
      9          6           0       -3.573417   -0.021208    0.035145
     10          7           0       -4.967483    0.031165   -0.072954
     11          6           0       -2.863301    1.073161    0.528893
     12          6           0       -1.463158    1.076758    0.531093
     13          6           0        1.463158    1.076758   -0.531090
     14          6           0        2.863300    1.073162   -0.528893
     15          1           0        5.407336   -0.881365    0.136716
     16          1           0        5.409358    0.624216   -0.622312
     17          1           0        3.385905   -1.895551    1.016457
     18          1           0        0.935637   -1.904815    1.005350
     19          1           0       -0.935636   -1.904816   -1.005347
     20          1           0       -3.385904   -1.895551   -1.016459
     21          1           0       -5.409358    0.624215    0.622310
     22          1           0       -5.407335   -0.881366   -0.136718
     23          1           0       -3.392092    1.936821    0.922741
     24          1           0       -0.942529    1.933372    0.954120
     25          1           0        0.942527    1.933372   -0.954118
     26          1           0        3.392090    1.936821   -0.922743
 ---------------------------------------------------------------------
 Rotational constants (GHZ):           2.8261119           0.2954567           0.2782779
 Standard basis: 6-31G(d,p) (6D, 7F)
 There are   270 symmetry adapted cartesian basis functions of A   symmetry.
 There are   270 symmetry adapted basis functions of A   symmetry.
   270 basis functions,   476 primitive gaussians,   270 cartesian basis functions
    49 alpha electrons       49 beta electrons
       nuclear repulsion energy       783.9972540794 Hartrees.
 NAtoms=   26 NActive=   26 NUniq=   26 SFac= 1.00D+00 NAtFMM=   60 NAOKFM=F Big=F
 Integral buffers will be    131072 words long.
 Raffenetti 2 integral format.
 Two-electron integral symmetry is turned on.
 Force inversion solution in PCM.
 ------------------------------------------------------------------------------
 Polarizable Continuum Model (PCM)
 =================================
 Model                : PCM.
 Atomic radii         : UFF (Universal Force Field).
 Polarization charges : Total charges.
 Charge compensation  : None.
 Solution method      : Matrix inversion.
 Cavity type          : Scaled VdW (van der Waals Surface) (Alpha=1.100).
 Cavity algorithm     : GePol (No added spheres)
                        Default sphere list used, NSphG=   26.
                        Lebedev-Laikov grids with approx.  5.0 points / Ang**2.
                        Smoothing algorithm: York/Karplus (Gamma=1.0000).
                        Polarization charges: spherical gaussians, with
                                              point-specific exponents (IZeta= 3).
                        Self-potential: point-specific (ISelfS= 7).
                        Self-field    : sphere-specific E.n sum rule (ISelfD= 2).
 1st derivatives      : Analytical E(r).r(x)/FMM algorithm (CHGder, D1EAlg=3).
                        Cavity 1st derivative terms included.
 2nd derivatives      : Analytical E(r).r(xy)/FMM algorithm (CHGder, D2EAlg=3).
                        Cavity 2nd derivative terms included.
 Solvent              : Water, Eps=  78.355300 Eps(inf)=   1.777849
 ------------------------------------------------------------------------------
 One-electron integrals computed using PRISM.
 NBasis=   270 RedAO= T EigKep=  4.30D-04  NBF=   270
 NBsUse=   270 1.00D-06 EigRej= -1.00D+00 NBFU=   270
 ExpMin= 1.61D-01 ExpMax= 4.17D+03 ExpMxC= 6.27D+02 IAcc=3 IRadAn=         5 AccDes= 0.00D+00
 Harris functional with IExCor=  402 and IRadAn=       5 diagonalized for initial guess.
 HarFok:  IExCor=  402 AccDes= 0.00D+00 IRadAn=         5 IDoV= 1 UseB2=F ITyADJ=14
 ICtDFT=  3500011 ScaDFX=  1.000000  1.000000  1.000000  1.000000
 FoFCou: FMM=F IPFlag=           0 FMFlag=      100000 FMFlg1=           0
         NFxFlg=           0 DoJE=T BraDBF=F KetDBF=T FulRan=T
         wScrn=  0.000000 ICntrl=       500 IOpCl=  0 I1Cent=   200000004 NGrid=           0
         NMat0=    1 NMatS0=      1 NMatT0=    0 NMatD0=    1 NMtDS0=    0 NMtDT0=    0
 Petite list used in FoFCou.
 Keep R1 ints in memory in canonical form, NReq=679202228.
 Requested convergence on RMS density matrix=1.00D-08 within  32 cycles.
 Requested convergence on MAX density matrix=1.00D-06.
 Requested convergence on             energy=1.00D-06.
 No special actions if energy rises.
 Inv3:  Mode=1 IEnd=    12607500.
 Iteration    1 A*A^-1 deviation from unit magnitude is 7.11D-15 for   1669.
 Iteration    1 A*A^-1 deviation from orthogonality  is 3.33D-15 for   1318    502.
 Iteration    1 A^-1*A deviation from unit magnitude is 7.11D-15 for    275.
 Iteration    1 A^-1*A deviation from orthogonality  is 3.60D-15 for   1886   1795.
 Error on total polarization charges =  0.00924
 SCF Done:  E(RB3LYP) =  -574.046821070     A.U. after   11 cycles
            NFock= 11  Conv=0.86D-08     -V/T= 2.0097
 QCSCF skips out because SCF is already converged.
 DoSCS=F DFT=T ScalE2(SS,OS)=  1.000000  1.000000
 Range of M.O.s used for correlation:     1   270
 NBasis=   270 NAE=    49 NBE=    49 NFC=     0 NFV=     0
 NROrb=    270 NOA=    49 NOB=    49 NVA=   221 NVB=   221
 Symmetrizing basis deriv contribution to polar:
 IMax=3 JMax=2 DiffMx= 0.00D+00
 G2DrvN: will do    27 centers at a time, making    1 passes.
 Calling FoFCou, ICntrl=  3107 FMM=F I1Cent=   0 AccDes= 0.00D+00.
 NEqPCM:  Using equilibrium solvation (IEInf=0, Eps=  78.3553, EpsInf=   1.7778)
 G2PCM: DoFxE=T DoFxN=T DoGrad=T DoDP/DQ/DG/TGxP=FFFF NFrqRd=   0 IEInf=0 SqF1=F DoCFld=F IF1Alg=4.
 End of G2Drv F.D. properties file   721 does not exist.
 End of G2Drv F.D. properties file   722 does not exist.
 End of G2Drv F.D. properties file   788 does not exist.
          IDoAtm=11111111111111111111111111
 NEqPCM:  Using equilibrium solvation (IEInf=0, Eps=  78.3553, EpsInf=   1.7778)
          Differentiating once with respect to nuclear coordinates.
 Keep R1 ints in memory in canonical form, NReq=679970541.
          There are    81 degrees of freedom in the 1st order CPHF.  IDoFFX=6 NUNeed=     0.
     75 vectors produced by pass  0 Test12= 1.34D-14 1.23D-09 XBig12= 1.40D-01 1.21D-01.
 AX will form    75 AO Fock derivatives at one time.
     75 vectors produced by pass  1 Test12= 1.34D-14 1.23D-09 XBig12= 1.98D-02 2.80D-02.
     75 vectors produced by pass  2 Test12= 1.34D-14 1.23D-09 XBig12= 1.58D-04 2.16D-03.
     75 vectors produced by pass  3 Test12= 1.34D-14 1.23D-09 XBig12= 4.31D-07 8.04D-05.
     75 vectors produced by pass  4 Test12= 1.34D-14 1.23D-09 XBig12= 4.92D-10 2.46D-06.
     54 vectors produced by pass  5 Test12= 1.34D-14 1.23D-09 XBig12= 5.61D-13 8.16D-08.
     12 vectors produced by pass  6 Test12= 1.34D-14 1.23D-09 XBig12= 6.17D-16 2.76D-09.
 InvSVY:  IOpt=1 It=  1 EMax= 6.66D-16
 Solved reduced A of dimension   441 with    81 vectors.
 End of Minotr F.D. properties file   721 does not exist.
 End of Minotr F.D. properties file   722 does not exist.
 End of Minotr F.D. properties file   788 does not exist.

 **********************************************************************

            Population analysis using the SCF density.

 **********************************************************************

 Orbital symmetries:
       Occupied  (A) (A) (A) (A) (A) (A) (A) (A) (A) (A) (A) (A)
                 (A) (A) (A) (A) (A) (A) (A) (A) (A) (A) (A) (A)
                 (A) (A) (A) (A) (A) (A) (A) (A) (A) (A) (A) (A)
                 (A) (A) (A) (A) (A) (A) (A) (A) (A) (A) (A) (A)
                 (A)
       Virtual   (A) (A) (A) (A) (A) (A) (A) (A) (A) (A) (A) (A)
                 (A) (A) (A) (A) (A) (A) (A) (A) (A) (A) (A) (A)
                 (A) (A) (A) (A) (A) (A) (A) (A) (A) (A) (A) (A)
                 (A) (A) (A) (A) (A) (A) (A) (A) (A) (A) (A) (A)
                 (A) (A) (A) (A) (A) (A) (A) (A) (A) (A) (A) (A)
                 (A) (A) (A) (A) (A) (A) (A) (A) (A) (A) (A) (A)
                 (A) (A) (A) (A) (A) (A) (A) (A) (A) (A) (A) (A)
                 (A) (A) (A) (A) (A) (A) (A) (A) (A) (A) (A) (A)
                 (A) (A) (A) (A) (A) (A) (A) (A) (A) (A) (A) (A)
                 (A) (A) (A) (A) (A) (A) (A) (A) (A) (A) (A) (A)
                 (A) (A) (A) (A) (A) (A) (A) (A) (A) (A) (A) (A)
                 (A) (A) (A) (A) (A) (A) (A) (A) (A) (A) (A) (A)
                 (A) (A) (A) (A) (A) (A) (A) (A) (A) (A) (A) (A)
                 (A) (A) (A) (A) (A) (A) (A) (A) (A) (A) (A) (A)
                 (A) (A) (A) (A) (A) (A) (A) (A) (A) (A) (A) (A)
                 (A) (A) (A) (A) (A) (A) (A) (A) (A) (A) (A) (A)
                 (A) (A) (A) (A) (A) (A) (A) (A) (A) (A) (A) (A)
                 (A) (A) (A) (A) (A) (A) (A) (A) (A) (A) (A) (A)
                 (A) (A) (A) (A) (A)
 The electronic state is 1-A.
 Alpha  occ. eigenvalues --  -14.33512 -14.33512 -10.22362 -10.22362 -10.18641
 Alpha  occ. eigenvalues --  -10.18640 -10.18631 -10.18631 -10.18486 -10.18455
 Alpha  occ. eigenvalues --  -10.18086 -10.18086 -10.18084 -10.18084  -0.91323
 Alpha  occ. eigenvalues --   -0.91266  -0.85013  -0.82247  -0.75189  -0.74192
 Alpha  occ. eigenvalues --   -0.73693  -0.69672  -0.61815  -0.60871  -0.60182
 Alpha  occ. eigenvalues --   -0.57011  -0.52255  -0.50629  -0.50573  -0.49610
 Alpha  occ. eigenvalues --   -0.47925  -0.43802  -0.43162  -0.42937  -0.41944
 Alpha  occ. eigenvalues --   -0.41308  -0.40919  -0.39340  -0.37724  -0.37690
 Alpha  occ. eigenvalues --   -0.34427  -0.33806  -0.33630  -0.31488  -0.29576
 Alpha  occ. eigenvalues --   -0.24827  -0.24605  -0.21667  -0.18882
 Alpha virt. eigenvalues --   -0.00455  -0.00132   0.00176   0.03918   0.09305
 Alpha virt. eigenvalues --    0.09645   0.11375   0.11459   0.12866   0.13519
 Alpha virt. eigenvalues --    0.15922   0.16576   0.17313   0.17890   0.18114
 Alpha virt. eigenvalues --    0.18711   0.19980   0.21466   0.25130   0.25156
 Alpha virt. eigenvalues --    0.29834   0.31826   0.32106   0.33246   0.34570
 Alpha virt. eigenvalues --    0.34632   0.35238   0.36606   0.39587   0.47548
 Alpha virt. eigenvalues --    0.49780   0.50421   0.53430   0.53803   0.54150
 Alpha virt. eigenvalues --    0.54976   0.55069   0.56282   0.56927   0.57613
 Alpha virt. eigenvalues --    0.59158   0.59309   0.60015   0.60045   0.60120
 Alpha virt. eigenvalues --    0.60888   0.60931   0.62658   0.62695   0.64314
 Alpha virt. eigenvalues --    0.65435   0.66553   0.68285   0.68847   0.70193
 Alpha virt. eigenvalues --    0.70772   0.73641   0.74254   0.77427   0.79790
 Alpha virt. eigenvalues --    0.79939   0.80798   0.81859   0.82693   0.82742
 Alpha virt. eigenvalues --    0.84597   0.85006   0.85224   0.86005   0.86508
 Alpha virt. eigenvalues --    0.86958   0.88620   0.88798   0.89917   0.93014
 Alpha virt. eigenvalues --    0.93483   0.95040   0.96593   1.00156   1.00223
 Alpha virt. eigenvalues --    1.00564   1.00701   1.03521   1.05945   1.08397
 Alpha virt. eigenvalues --    1.12409   1.15179   1.16099   1.16629   1.17803
 Alpha virt. eigenvalues --    1.19191   1.19487   1.20668   1.28699   1.29124
 Alpha virt. eigenvalues --    1.31034   1.31241   1.37321   1.38118   1.39849
 Alpha virt. eigenvalues --    1.39882   1.41181   1.41469   1.42661   1.43142
 Alpha virt. eigenvalues --    1.46094   1.47272   1.54503   1.55427   1.65029
 Alpha virt. eigenvalues --    1.72143   1.74202   1.77140   1.77656   1.77987
 Alpha virt. eigenvalues --    1.79433   1.80567   1.80985   1.81542   1.81802
 Alpha virt. eigenvalues --    1.86600   1.88460   1.89888   1.90220   1.92342
 Alpha virt. eigenvalues --    1.94185   1.95995   1.96380   1.97325   1.97881
 Alpha virt. eigenvalues --    1.98065   1.99198   2.00774   2.00811   2.08089
 Alpha virt. eigenvalues --    2.08974   2.09510   2.10115   2.16197   2.16585
 Alpha virt. eigenvalues --    2.19021   2.22293   2.24082   2.25070   2.26052
 Alpha virt. eigenvalues --    2.27633   2.28915   2.31327   2.32620   2.34176
 Alpha virt. eigenvalues --    2.34198   2.35847   2.36197   2.40801   2.41433
 Alpha virt. eigenvalues --    2.41466   2.42747   2.44471   2.46178   2.46322
 Alpha virt. eigenvalues --    2.46653   2.47719   2.47934   2.49839   2.50136
 Alpha virt. eigenvalues --    2.52123   2.55299   2.56615   2.58178   2.59464
 Alpha virt. eigenvalues --    2.59943   2.59998   2.64817   2.64889   2.67996
 Alpha virt. eigenvalues --    2.68022   2.70445   2.74744   2.75948   2.78386
 Alpha virt. eigenvalues --    2.81567   2.84336   2.85406   2.86444   2.92785
 Alpha virt. eigenvalues --    2.98323   2.99209   2.99323   3.04917   3.07665
 Alpha virt. eigenvalues --    3.09879   3.19080   3.20000   3.25251   3.25585
 Alpha virt. eigenvalues --    3.28108   3.28501   3.28709   3.35160   3.36520
 Alpha virt. eigenvalues --    3.39374   3.48842   3.48976   3.53354   3.54279
 Alpha virt. eigenvalues --    3.79501   3.86557   4.04070   4.04787   4.14091
 Alpha virt. eigenvalues --    4.14160   4.16422   4.16610   4.18520   4.21450
 Alpha virt. eigenvalues --    4.40401   4.44818   4.45046   4.51293   4.78135
 Alpha virt. eigenvalues --    4.88997
          Condensed to atoms (all electrons):
               1          2          3          4          5          6
     1  N    6.834811   0.296666  -0.070974   0.004551   0.000479  -0.000001
     2  C    0.296666   4.576420   0.539480  -0.025721  -0.028824   0.000778
     3  C   -0.070974   0.539480   4.963374   0.501754  -0.032856   0.006271
     4  C    0.004551  -0.025721   0.501754   4.919317   0.529288  -0.050664
     5  C    0.000479  -0.028824  -0.032856   0.529288   4.856285   0.329489
     6  C   -0.000001   0.000778   0.006271  -0.050664   0.329489   4.856285
     7  C    0.000000   0.000012   0.000253  -0.006527  -0.050664   0.529288
     8  C    0.000000   0.000000  -0.000000   0.000253   0.006271  -0.032856
     9  C   -0.000000   0.000000   0.000000   0.000012   0.000778  -0.028824
    10  N   -0.000000  -0.000000   0.000000   0.000000  -0.000001   0.000479
    11  C    0.000000  -0.000000   0.000002  -0.000153   0.006262  -0.032213
    12  C    0.000000   0.000011  -0.000151   0.003198  -0.050759   0.530088
    13  C    0.004579  -0.025698  -0.045983  -0.040104   0.530088  -0.050759
    14  C   -0.070838   0.539035  -0.049490  -0.045941  -0.032213   0.006262
    15  H    0.343390  -0.025075  -0.009325  -0.000049   0.000001  -0.000000
    16  H    0.343422  -0.024990   0.005489  -0.000175   0.000001  -0.000000
    17  H   -0.007399  -0.043771   0.362949  -0.032245   0.003721  -0.000196
    18  H   -0.000114   0.004083  -0.037385   0.364073  -0.044699  -0.006199
    19  H    0.000000  -0.000000  -0.000160   0.003916  -0.006199  -0.044699
    20  H   -0.000000  -0.000000  -0.000000  -0.000005  -0.000196   0.003721
    21  H    0.000000   0.000000   0.000000  -0.000000  -0.000000   0.000001
    22  H    0.000000   0.000000   0.000000   0.000000  -0.000000   0.000001
    23  H    0.000000   0.000000  -0.000000   0.000001  -0.000193   0.003664
    24  H   -0.000000  -0.000009  -0.000018   0.000253  -0.006265  -0.044490
    25  H   -0.000116   0.004040   0.000542   0.005819  -0.044490  -0.006265
    26  H   -0.007404  -0.043662   0.005213   0.000698   0.003664  -0.000193
               7          8          9         10         11         12
     1  N    0.000000   0.000000  -0.000000  -0.000000   0.000000   0.000000
     2  C    0.000012   0.000000   0.000000  -0.000000  -0.000000   0.000011
     3  C    0.000253  -0.000000   0.000000   0.000000   0.000002  -0.000151
     4  C   -0.006527   0.000253   0.000012   0.000000  -0.000153   0.003198
     5  C   -0.050664   0.006271   0.000778  -0.000001   0.006262  -0.050759
     6  C    0.529288  -0.032856  -0.028824   0.000479  -0.032213   0.530088
     7  C    4.919317   0.501754  -0.025721   0.004551  -0.045941  -0.040104
     8  C    0.501754   4.963373   0.539481  -0.070974  -0.049490  -0.045982
     9  C   -0.025721   0.539481   4.576421   0.296666   0.539035  -0.025698
    10  N    0.004551  -0.070974   0.296666   6.834811  -0.070838   0.004579
    11  C   -0.045941  -0.049490   0.539035  -0.070838   4.964105   0.500721
    12  C   -0.040104  -0.045982  -0.025698   0.004579   0.500721   4.920885
    13  C    0.003198  -0.000151   0.000011   0.000000   0.000244  -0.007019
    14  C   -0.000153   0.000002  -0.000000   0.000000   0.000004   0.000244
    15  H    0.000000   0.000000   0.000000   0.000000  -0.000000   0.000000
    16  H   -0.000000   0.000000   0.000000   0.000000  -0.000000  -0.000000
    17  H   -0.000005  -0.000000  -0.000000  -0.000000  -0.000000   0.000001
    18  H    0.003916  -0.000160  -0.000000   0.000000  -0.000027   0.000254
    19  H    0.364073  -0.037385   0.004083  -0.000114   0.000513   0.005853
    20  H   -0.032245   0.362949  -0.043771  -0.007399   0.005205   0.000702
    21  H   -0.000175   0.005489  -0.024990   0.343421  -0.009284  -0.000049
    22  H   -0.000049  -0.009325  -0.025075   0.343390   0.005549  -0.000178
    23  H    0.000698   0.005213  -0.043662  -0.007404   0.363063  -0.032420
    24  H    0.005819   0.000542   0.004040  -0.000116  -0.037251   0.363925
    25  H    0.000253  -0.000018  -0.000009  -0.000000  -0.000153   0.003781
    26  H    0.000001  -0.000000   0.000000   0.000000  -0.000000  -0.000004
              13         14         15         16         17         18
     1  N    0.004579  -0.070838   0.343390   0.343422  -0.007399  -0.000114
     2  C   -0.025698   0.539035  -0.025075  -0.024990  -0.043771   0.004083
     3  C   -0.045983  -0.049490  -0.009325   0.005489   0.362949  -0.037385
     4  C   -0.040104  -0.045941  -0.000049  -0.000175  -0.032245   0.364073
     5  C    0.530088  -0.032213   0.000001   0.000001   0.003721  -0.044699
     6  C   -0.050759   0.006262  -0.000000  -0.000000  -0.000196  -0.006199
     7  C    0.003198  -0.000153   0.000000  -0.000000  -0.000005   0.003916
     8  C   -0.000151   0.000002   0.000000   0.000000  -0.000000  -0.000160
     9  C    0.000011  -0.000000   0.000000   0.000000  -0.000000  -0.000000
    10  N    0.000000   0.000000   0.000000   0.000000  -0.000000   0.000000
    11  C    0.000244   0.000004  -0.000000  -0.000000  -0.000000  -0.000027
    12  C   -0.007019   0.000244   0.000000  -0.000000   0.000001   0.000254
    13  C    4.920885   0.500721  -0.000178  -0.000049   0.000702   0.005853
    14  C    0.500721   4.964105   0.005549  -0.009284   0.005205   0.000513
    15  H   -0.000178   0.005549   0.433184  -0.028407   0.004622  -0.000006
    16  H   -0.000049  -0.009284  -0.028407   0.432905  -0.000059   0.000004
    17  H    0.000702   0.005205   0.004622  -0.000059   0.619983  -0.006286
    18  H    0.005853   0.000513  -0.000006   0.000004  -0.006286   0.622305
    19  H    0.000254  -0.000027   0.000000   0.000000   0.000003   0.001330
    20  H    0.000001  -0.000000  -0.000000  -0.000000   0.000000   0.000003
    21  H   -0.000000  -0.000000   0.000000   0.000000  -0.000000   0.000000
    22  H    0.000000  -0.000000   0.000000   0.000000  -0.000000   0.000000
    23  H   -0.000004  -0.000000   0.000000   0.000000   0.000000   0.000000
    24  H    0.003781  -0.000153   0.000000  -0.000000   0.000000   0.000012
    25  H    0.363925  -0.037251   0.000003  -0.000006   0.000017  -0.000183
    26  H   -0.032420   0.363063  -0.000054   0.004694  -0.000190   0.000017
              19         20         21         22         23         24
     1  N    0.000000  -0.000000   0.000000   0.000000   0.000000  -0.000000
     2  C   -0.000000  -0.000000   0.000000   0.000000   0.000000  -0.000009
     3  C   -0.000160  -0.000000   0.000000   0.000000  -0.000000  -0.000018
     4  C    0.003916  -0.000005  -0.000000   0.000000   0.000001   0.000253
     5  C   -0.006199  -0.000196  -0.000000  -0.000000  -0.000193  -0.006265
     6  C   -0.044699   0.003721   0.000001   0.000001   0.003664  -0.044490
     7  C    0.364073  -0.032245  -0.000175  -0.000049   0.000698   0.005819
     8  C   -0.037385   0.362949   0.005489  -0.009325   0.005213   0.000542
     9  C    0.004083  -0.043771  -0.024990  -0.025075  -0.043662   0.004040
    10  N   -0.000114  -0.007399   0.343421   0.343390  -0.007404  -0.000116
    11  C    0.000513   0.005205  -0.009284   0.005549   0.363063  -0.037251
    12  C    0.005853   0.000702  -0.000049  -0.000178  -0.032420   0.363925
    13  C    0.000254   0.000001  -0.000000   0.000000  -0.000004   0.003781
    14  C   -0.000027  -0.000000  -0.000000  -0.000000  -0.000000  -0.000153
    15  H    0.000000  -0.000000   0.000000   0.000000   0.000000   0.000000
    16  H    0.000000  -0.000000   0.000000   0.000000   0.000000  -0.000000
    17  H    0.000003   0.000000  -0.000000  -0.000000   0.000000   0.000000
    18  H    0.001330   0.000003   0.000000   0.000000   0.000000   0.000012
    19  H    0.622304  -0.006286   0.000004  -0.000006   0.000017  -0.000183
    20  H   -0.006286   0.619982  -0.000059   0.004622  -0.000190   0.000017
    21  H    0.000004  -0.000059   0.432905  -0.028407   0.004694  -0.000006
    22  H   -0.000006   0.004622  -0.028407   0.433185  -0.000054   0.000003
    23  H    0.000017  -0.000190   0.004694  -0.000054   0.619800  -0.006228
    24  H   -0.000183   0.000017  -0.000006   0.000003  -0.006228   0.621701
    25  H    0.000012   0.000000  -0.000000   0.000000   0.000004   0.001506
    26  H    0.000000   0.000000   0.000000   0.000000   0.000000   0.000004
              25         26
     1  N   -0.000116  -0.007404
     2  C    0.004040  -0.043662
     3  C    0.000542   0.005213
     4  C    0.005819   0.000698
     5  C   -0.044490   0.003664
     6  C   -0.006265  -0.000193
     7  C    0.000253   0.000001
     8  C   -0.000018  -0.000000
     9  C   -0.000009   0.000000
    10  N   -0.000000   0.000000
    11  C   -0.000153  -0.000000
    12  C    0.003781  -0.000004
    13  C    0.363925  -0.032420
    14  C   -0.037251   0.363063
    15  H    0.000003  -0.000054
    16  H   -0.000006   0.004694
    17  H    0.000017  -0.000190
    18  H   -0.000183   0.000017
    19  H    0.000012   0.000000
    20  H    0.000000   0.000000
    21  H   -0.000000   0.000000
    22  H    0.000000   0.000000
    23  H    0.000004   0.000000
    24  H    0.001506   0.000004
    25  H    0.621701  -0.006228
    26  H   -0.006228   0.619800
 Mulliken charges:
               1
     1  N   -0.671054
     2  C    0.257224
     3  C   -0.138985
     4  C   -0.131549
     5  C    0.031031
     6  C    0.031031
     7  C   -0.131549
     8  C   -0.138985
     9  C    0.257224
    10  N   -0.671054
    11  C   -0.139352
    12  C   -0.131877
    13  C   -0.131877
    14  C   -0.139352
    15  H    0.276344
    16  H    0.276456
    17  H    0.092949
    18  H    0.092697
    19  H    0.092697
    20  H    0.092949
    21  H    0.276456
    22  H    0.276344
    23  H    0.093001
    24  H    0.093117
    25  H    0.093117
    26  H    0.093001
 Sum of Mulliken charges =  -0.00000
 Mulliken charges with hydrogens summed into heavy atoms:
               1
     1  N   -0.118254
     2  C    0.257224
     3  C   -0.046037
     4  C   -0.038852
     5  C    0.031031
     6  C    0.031031
     7  C   -0.038852
     8  C   -0.046036
     9  C    0.257224
    10  N   -0.118254
    11  C   -0.046351
    12  C   -0.038761
    13  C   -0.038760
    14  C   -0.046351
 APT charges:
               1
     1  N   -1.426635
     2  C    0.256002
     3  C   -0.429266
     4  C   -0.560154
     5  C   -0.472238
     6  C   -0.472238
     7  C   -0.560154
     8  C   -0.429266
     9  C    0.256004
    10  N   -1.426634
    11  C   -0.428862
    12  C   -0.558720
    13  C   -0.558720
    14  C   -0.428863
    15  H    0.832359
    16  H    0.832733
    17  H    0.634247
    18  H    0.342283
    19  H    0.342283
    20  H    0.634247
    21  H    0.832731
    22  H    0.832356
    23  H    0.634714
    24  H    0.343540
    25  H    0.343539
    26  H    0.634713
 Sum of APT charges =  -0.00000
 APT charges with hydrogens summed into heavy atoms:
               1
     1  N    0.238456
     2  C    0.256002
     3  C    0.204981
     4  C   -0.217871
     5  C   -0.472238
     6  C   -0.472238
     7  C   -0.217871
     8  C    0.204981
     9  C    0.256004
    10  N    0.238453
    11  C    0.205851
    12  C   -0.215180
    13  C   -0.215181
    14  C    0.205851
 Electronic spatial extent (au):  <R**2>=           3827.0620
 Charge=             -0.0000 electrons
 Dipole moment (field-independent basis, Debye):
    X=              0.0000    Y=             -1.0998    Z=              0.0000  Tot=              1.0998
 Quadrupole moment (field-independent basis, Debye-Ang):
   XX=            -48.0134   YY=            -73.4074   ZZ=            -84.5972
   XY=              0.0000   XZ=            -12.2164   YZ=             -0.0000
 Traceless Quadrupole moment (field-independent basis, Debye-Ang):
   XX=             20.6593   YY=             -4.7347   ZZ=            -15.9246
   XY=              0.0000   XZ=            -12.2164   YZ=             -0.0000
 Octapole moment (field-independent basis, Debye-Ang**2):
  XXX=              0.0006  YYY=             -0.8831  ZZZ=             -0.0000  XYY=              0.0000
  XXY=            -34.0854  XXZ=              0.0001  XZZ=              0.0000  YZZ=             -0.3935
  YYZ=             -0.0000  XYZ=            -23.4019
 Hexadecapole moment (field-independent basis, Debye-Ang**3):
 XXXX=          -3078.0690 YYYY=           -474.3034 ZZZZ=           -203.2634 XXXY=              0.0005
 XXXZ=           -371.2024 YYYX=             -0.0000 YYYZ=              0.0000 ZZZX=            -11.7852
 ZZZY=             -0.0000 XXYY=           -698.6549 XXZZ=           -791.3768 YYZZ=           -106.9290
 XXYZ=             -0.0001 YYXZ=             -4.2673 ZZXY=              0.0001
 N-N= 7.839972540794D+02 E-N=-2.900201200508D+03  KE= 5.685428064345D+02
  Exact polarizability:   0.000   0.000   0.000   0.000   0.000   0.000
 Approx polarizability: 341.469  -0.000 218.796   0.052   0.000 112.234
 D2PCM: PCM CHGder 2nd derivatives, FixD1E=F FixD2E=F DoIter=F DoCFld=F I1PDM=0
 Calling FoFJK, ICntrl=    100147 FMM=F ISym2X=0 I1Cent= 0 IOpClX= 0 NMat=1 NMatS=1 NMatT=0.
 ***** Axes restored to original set *****
 -------------------------------------------------------------------
 Center     Atomic                   Forces (Hartrees/Bohr)
 Number     Number              X              Y              Z
 -------------------------------------------------------------------
      1        7          -0.000646637   -0.001658377    0.003519789
      2        6          -0.009673031    0.006360244   -0.013769510
      3        6           0.013336230   -0.010733656    0.001040914
      4        6          -0.009415285   -0.000796740    0.000125773
      5        6          -0.003648921   -0.000003208   -0.000543639
      6        6           0.003648355   -0.000056884    0.000544960
      7        6           0.009396166   -0.001000723   -0.000086402
      8        6          -0.013561261   -0.010483859   -0.000575332
      9        6           0.009811828    0.006751857    0.013481805
     10        7           0.000609815   -0.001825132   -0.003443355
     11        6          -0.012842537    0.006754827   -0.008613359
     12        6           0.009241377    0.001135998    0.001876586
     13        6          -0.009216104    0.001248097   -0.001928836
     14        6           0.012986807    0.006852698    0.008314882
     15        1          -0.001229029    0.003166459    0.001804996
     16        1          -0.001043947   -0.003425900   -0.001452316
     17        1          -0.001546922   -0.000107999    0.000834146
     18        1           0.000426361    0.001423069    0.000778242
     19        1          -0.000396430    0.001396394   -0.000840106
     20        1           0.001543948   -0.000177346   -0.000827911
     21        1           0.000971926   -0.003380072    0.001601586
     22        1           0.001294918    0.003057847   -0.001941528
     23        1           0.001550504   -0.000863367   -0.000888023
     24        1          -0.000549328   -0.001400059    0.000765995
     25        1           0.000519175   -0.001443538   -0.000703577
     26        1          -0.001567975   -0.000790630    0.000924221
 -------------------------------------------------------------------
 Cartesian Forces:  Max     0.013769510 RMS     0.005438779
 FormGI is forming the generalized inverse of G from B-inverse, IUseBI=4.

 GradGradGradGradGradGradGradGradGradGradGradGradGradGradGradGradGradGrad
 Berny optimization.
 Internal  Forces:  Max     0.010764879 RMS     0.002651287
 Search for a local minimum.
 Step number   1 out of a maximum of  139
 All quantities printed in internal units (Hartrees-Bohrs-Radians)
 Mixed Optimization -- RFO/linear search
 Second derivative matrix not updated -- analytic derivatives used.
 ITU=  0
     Eigenvalues ---    0.00261   0.00539   0.00539   0.01502   0.01634
     Eigenvalues ---    0.01694   0.01730   0.01738   0.01759   0.01859
     Eigenvalues ---    0.01894   0.02079   0.02147   0.02205   0.02235
     Eigenvalues ---    0.02353   0.02379   0.02691   0.02706   0.02726
     Eigenvalues ---    0.02771   0.02876   0.02882   0.11236   0.11350
     Eigenvalues ---    0.11482   0.11572   0.11823   0.11859   0.12695
     Eigenvalues ---    0.12721   0.13555   0.13562   0.15398   0.15413
     Eigenvalues ---    0.17540   0.18176   0.18440   0.18866   0.19187
     Eigenvalues ---    0.19369   0.19604   0.19687   0.21702   0.21840
     Eigenvalues ---    0.31227   0.31418   0.33538   0.35382   0.35438
     Eigenvalues ---    0.35677   0.35793   0.35802   0.35834   0.35845
     Eigenvalues ---    0.36130   0.38180   0.40095   0.40811   0.40823
     Eigenvalues ---    0.44373   0.44689   0.45551   0.45560   0.46010
     Eigenvalues ---    0.46010   0.46635   0.47077   0.47507   0.47710
     Eigenvalues ---    0.51474   0.51570
 RFO step:  Lambda=-6.45171561D-03 EMin= 2.61282574D-03
 Linear search not attempted -- first point.
 Iteration  1 RMS(Cart)=  0.11857744 RMS(Int)=  0.00460842
 Iteration  2 RMS(Cart)=  0.00747006 RMS(Int)=  0.00035228
 Iteration  3 RMS(Cart)=  0.00003297 RMS(Int)=  0.00035186
 Iteration  4 RMS(Cart)=  0.00000001 RMS(Int)=  0.00035186
 Variable       Old X    -DE/DX   Delta X   Delta X   Delta X     New X
                                 (Linear)    (Quad)   (Total)
    R1        2.64416   0.00226   0.00000  -0.00520  -0.00520   2.63896
    R2        1.91809  -0.00243   0.00000  -0.00502  -0.00502   1.91308
    R3        1.91819  -0.00251   0.00000  -0.00523  -0.00523   1.91296
    R4        2.63588   0.00954   0.00000   0.02131   0.02138   2.65726
    R5        2.63594   0.00952   0.00000   0.02120   0.02129   2.65723
    R6        2.64588  -0.00535   0.00000  -0.01606  -0.01608   2.62980
    R7        2.05330   0.00043   0.00000   0.00103   0.00103   2.05433
    R8        2.65095   0.00243   0.00000   0.00630   0.00622   2.65717
    R9        2.05607  -0.00119   0.00000  -0.00250  -0.00250   2.05357
   R10        2.78111   0.01076   0.00000   0.01969   0.01969   2.80079
   R11        2.65079   0.00244   0.00000   0.00631   0.00624   2.65704
   R12        2.65095   0.00243   0.00000   0.00630   0.00622   2.65717
   R13        2.65079   0.00244   0.00000   0.00631   0.00624   2.65704
   R14        2.64588  -0.00535   0.00000  -0.01606  -0.01608   2.62980
   R15        2.05607  -0.00119   0.00000  -0.00250  -0.00250   2.05357
   R16        2.63588   0.00954   0.00000   0.02131   0.02138   2.65726
   R17        2.05330   0.00043   0.00000   0.00103   0.00103   2.05433
   R18        2.64416   0.00226   0.00000  -0.00520  -0.00520   2.63896
   R19        2.63594   0.00952   0.00000   0.02120   0.02129   2.65723
   R20        1.91819  -0.00251   0.00000  -0.00523  -0.00523   1.91296
   R21        1.91810  -0.00243   0.00000  -0.00502  -0.00502   1.91308
   R22        2.64590  -0.00533   0.00000  -0.01588  -0.01587   2.63003
   R23        2.05333   0.00044   0.00000   0.00107   0.00107   2.05440
   R24        2.05607  -0.00119   0.00000  -0.00256  -0.00256   2.05351
   R25        2.64590  -0.00533   0.00000  -0.01588  -0.01587   2.63003
   R26        2.05607  -0.00119   0.00000  -0.00256  -0.00256   2.05351
   R27        2.05333   0.00044   0.00000   0.00107   0.00107   2.05440
    A1        1.98554   0.00211   0.00000   0.01394   0.01392   1.99946
    A2        1.98522   0.00213   0.00000   0.01421   0.01419   1.99941
    A3        1.96021  -0.00344   0.00000  -0.02358  -0.02361   1.93660
    A4        2.10060   0.00169   0.00000   0.01092   0.00933   2.10994
    A5        2.10040   0.00170   0.00000   0.01170   0.01013   2.11052
    A6        2.06730  -0.00282   0.00000  -0.00609  -0.00754   2.05976
    A7        2.10777  -0.00043   0.00000  -0.00048  -0.00047   2.10730
    A8        2.09913  -0.00128   0.00000  -0.01410  -0.01412   2.08501
    A9        2.07629   0.00172   0.00000   0.01457   0.01455   2.09084
   A10        2.11297   0.00258   0.00000   0.01140   0.01125   2.12422
   A11        2.07328  -0.00008   0.00000   0.00321   0.00326   2.07654
   A12        2.09661  -0.00248   0.00000  -0.01436  -0.01431   2.08230
   A13        2.11289   0.00076   0.00000   0.00552   0.00559   2.11848
   A14        2.05425  -0.00131   0.00000  -0.01055  -0.01078   2.04347
   A15        2.11594   0.00056   0.00000   0.00523   0.00529   2.12124
   A16        2.11289   0.00076   0.00000   0.00552   0.00559   2.11848
   A17        2.11594   0.00056   0.00000   0.00523   0.00529   2.12124
   A18        2.05425  -0.00131   0.00000  -0.01055  -0.01078   2.04347
   A19        2.11297   0.00258   0.00000   0.01141   0.01125   2.12422
   A20        2.09661  -0.00248   0.00000  -0.01436  -0.01431   2.08230
   A21        2.07328  -0.00008   0.00000   0.00321   0.00326   2.07654
   A22        2.10777  -0.00043   0.00000  -0.00048  -0.00047   2.10730
   A23        2.07629   0.00172   0.00000   0.01457   0.01455   2.09084
   A24        2.09913  -0.00128   0.00000  -0.01410  -0.01412   2.08501
   A25        2.10060   0.00169   0.00000   0.01092   0.00933   2.10994
   A26        2.06730  -0.00282   0.00000  -0.00609  -0.00754   2.05976
   A27        2.10040   0.00170   0.00000   0.01170   0.01013   2.11052
   A28        1.98522   0.00213   0.00000   0.01422   0.01419   1.99941
   A29        1.98553   0.00211   0.00000   0.01394   0.01392   1.99946
   A30        1.96021  -0.00344   0.00000  -0.02358  -0.02361   1.93660
   A31        2.10791  -0.00045   0.00000  -0.00064  -0.00059   2.10732
   A32        2.09920  -0.00129   0.00000  -0.01383  -0.01387   2.08533
   A33        2.07607   0.00174   0.00000   0.01445   0.01441   2.09048
   A34        2.11288   0.00258   0.00000   0.01136   0.01123   2.12411
   A35        2.09755  -0.00252   0.00000  -0.01454  -0.01453   2.08302
   A36        2.07275  -0.00006   0.00000   0.00319   0.00320   2.07595
   A37        2.11288   0.00258   0.00000   0.01136   0.01123   2.12411
   A38        2.09755  -0.00252   0.00000  -0.01454  -0.01453   2.08302
   A39        2.07275  -0.00006   0.00000   0.00319   0.00320   2.07595
   A40        2.10791  -0.00045   0.00000  -0.00064  -0.00059   2.10732
   A41        2.09920  -0.00129   0.00000  -0.01383  -0.01387   2.08533
   A42        2.07607   0.00174   0.00000   0.01445   0.01441   2.09048
    D1        0.52737  -0.00113   0.00000  -0.04413  -0.04449   0.48288
    D2       -2.80159   0.00215   0.00000   0.05821   0.05855  -2.74305
    D3        2.80162  -0.00208   0.00000  -0.05152  -0.05186   2.74977
    D4       -0.52734   0.00121   0.00000   0.05082   0.05118  -0.47616
    D5        3.04357   0.00154   0.00000   0.03496   0.03479   3.07836
    D6       -0.09663   0.00165   0.00000   0.04288   0.04266  -0.05397
    D7        0.08585  -0.00215   0.00000  -0.06732  -0.06714   0.01871
    D8       -3.05435  -0.00204   0.00000  -0.05939  -0.05926  -3.11362
    D9       -3.04243  -0.00164   0.00000  -0.03893  -0.03880  -3.08123
   D10        0.10367  -0.00146   0.00000  -0.03196  -0.03188   0.07179
   D11       -0.08469   0.00205   0.00000   0.06324   0.06308  -0.02161
   D12        3.06141   0.00223   0.00000   0.07021   0.06999   3.13141
   D13       -0.03754   0.00091   0.00000   0.03185   0.03191  -0.00562
   D14        3.13126   0.00051   0.00000   0.02151   0.02152  -3.13040
   D15        3.10269   0.00080   0.00000   0.02401   0.02399   3.12668
   D16       -0.01170   0.00039   0.00000   0.01367   0.01360   0.00190
   D17       -3.13999  -0.00022   0.00000  -0.00643  -0.00639   3.13680
   D18       -0.01342   0.00028   0.00000   0.00849   0.00849  -0.00493
   D19       -0.02596   0.00023   0.00000   0.00432   0.00431  -0.02166
   D20        3.10061   0.00073   0.00000   0.01924   0.01919   3.11979
   D21       -0.94817   0.00236   0.00000   0.21759   0.21769  -0.73048
   D22        2.20898   0.00186   0.00000   0.20228   0.20228   2.41126
   D23        2.20898   0.00186   0.00000   0.20228   0.20228   2.41126
   D24       -0.91705   0.00136   0.00000   0.18697   0.18687  -0.73018
   D25        0.01459  -0.00038   0.00000  -0.01256  -0.01260   0.00199
   D26       -3.12679  -0.00069   0.00000  -0.02829  -0.02827   3.12813
   D27        3.14113   0.00012   0.00000   0.00239   0.00231  -3.13974
   D28       -0.00025  -0.00019   0.00000  -0.01335  -0.01336  -0.01361
   D29       -3.13999  -0.00022   0.00000  -0.00643  -0.00639   3.13681
   D30       -0.02596   0.00023   0.00000   0.00432   0.00430  -0.02165
   D31       -0.01342   0.00028   0.00000   0.00849   0.00849  -0.00493
   D32        3.10061   0.00073   0.00000   0.01923   0.01919   3.11979
   D33        3.14113   0.00012   0.00000   0.00239   0.00231  -3.13974
   D34       -0.00025  -0.00019   0.00000  -0.01335  -0.01336  -0.01361
   D35        0.01459  -0.00038   0.00000  -0.01256  -0.01260   0.00199
   D36       -3.12679  -0.00069   0.00000  -0.02829  -0.02827   3.12813
   D37       -0.03754   0.00091   0.00000   0.03185   0.03192  -0.00562
   D38        3.10269   0.00080   0.00000   0.02401   0.02399   3.12668
   D39        3.13126   0.00051   0.00000   0.02152   0.02152  -3.13040
   D40       -0.01170   0.00039   0.00000   0.01367   0.01360   0.00190
   D41        3.04357   0.00154   0.00000   0.03496   0.03479   3.07836
   D42        0.08585  -0.00215   0.00000  -0.06732  -0.06714   0.01872
   D43       -0.09663   0.00165   0.00000   0.04288   0.04266  -0.05397
   D44       -3.05435  -0.00204   0.00000  -0.05939  -0.05927  -3.11362
   D45        2.80162  -0.00208   0.00000  -0.05152  -0.05186   2.74977
   D46        0.52738  -0.00113   0.00000  -0.04413  -0.04449   0.48288
   D47       -0.52735   0.00121   0.00000   0.05082   0.05118  -0.47616
   D48       -2.80159   0.00215   0.00000   0.05821   0.05854  -2.74305
   D49       -0.08469   0.00205   0.00000   0.06324   0.06308  -0.02161
   D50        3.06141   0.00223   0.00000   0.07021   0.06999   3.13141
   D51       -3.04243  -0.00164   0.00000  -0.03894  -0.03880  -3.08123
   D52        0.10367  -0.00146   0.00000  -0.03196  -0.03188   0.07179
   D53        0.03516  -0.00070   0.00000  -0.02357  -0.02363   0.01153
   D54       -3.10664  -0.00040   0.00000  -0.00806  -0.00803  -3.11467
   D55       -3.11088  -0.00089   0.00000  -0.03052  -0.03064  -3.14152
   D56        0.03050  -0.00059   0.00000  -0.01501  -0.01503   0.01547
   D57        0.03516  -0.00070   0.00000  -0.02357  -0.02363   0.01153
   D58       -3.11088  -0.00089   0.00000  -0.03052  -0.03064  -3.14152
   D59       -3.10664  -0.00040   0.00000  -0.00806  -0.00803  -3.11467
   D60        0.03050  -0.00059   0.00000  -0.01501  -0.01503   0.01547
         Item               Value     Threshold  Converged?
 Maximum Force            0.010765     0.000450     NO 
 RMS     Force            0.002651     0.000300     NO 
 Maximum Displacement     0.409484     0.001800     NO 
 RMS     Displacement     0.122024     0.001200     NO 
 Predicted change in Energy=-4.035949D-03
 GradGradGradGradGradGradGradGradGradGradGradGradGradGradGradGradGradGrad

                          Input orientation:                          
 ---------------------------------------------------------------------
 Center     Atomic      Atomic             Coordinates (Angstroms)
 Number     Number       Type             X           Y           Z
 ---------------------------------------------------------------------
      1          7           0       -4.968789    0.203539   -0.401187
      2          6           0       -3.582452    0.169767   -0.236637
      3          6           0       -2.839575   -0.966867   -0.601997
      4          6           0       -1.451202   -0.970005   -0.506897
      5          6           0       -0.738997    0.154012   -0.052465
      6          6           0        0.739399    0.140620    0.051633
      7          6           0        1.427831   -0.977226    0.555261
      8          6           0        2.816002   -0.999347    0.650779
      9          6           0        3.582634    0.104165    0.236260
     10          7           0        4.969452    0.115731    0.399815
     11          6           0        2.903351    1.233641   -0.253746
     12          6           0        1.514826    1.243339   -0.347964
     13          6           0       -1.490690    1.289386    0.298018
     14          6           0       -2.879154    1.304997    0.203670
     15          1           0       -5.419402   -0.702143   -0.361739
     16          1           0       -5.446534    0.871750    0.190421
     17          1           0       -3.357785   -1.848545   -0.970636
     18          1           0       -0.904969   -1.860261   -0.806887
     19          1           0        0.862991   -1.841689    0.893758
     20          1           0        3.315580   -1.874792    1.057977
     21          1           0        5.460977    0.747072   -0.220311
     22          1           0        5.400749   -0.800157    0.400340
     23          1           0        3.472145    2.103811   -0.571800
     24          1           0        1.021436    2.122070   -0.754479
     25          1           0       -0.978597    2.174447    0.665827
     26          1           0       -3.429228    2.200140    0.482986
 ---------------------------------------------------------------------
                    Distance matrix (angstroms):
                    1          2          3          4          5
     1  N    0.000000
     2  C    1.396477   0.000000
     3  C    2.437976   1.406162   0.000000
     4  C    3.709690   2.431943   1.391630   0.000000
     5  C    4.244432   2.849457   2.443519   1.406115   0.000000
     6  C    5.726466   4.331552   3.803000   2.518764   1.482116
     7  C    6.574629   5.200541   4.421550   3.068723   2.518764
     8  C    7.947109   6.564644   5.792759   4.421550   3.803000
     9  C    8.575725   7.180975   6.564644   5.200541   4.331552
    10  N    9.970855   8.575725   7.947109   6.574629   5.726466
    11  C    7.940620   6.572501   6.159928   4.886949   3.804315
    12  C    6.566679   5.210297   4.889821   3.704250   2.520648
    13  C    3.710138   2.432050   2.778524   2.398811   1.406043
    14  C    2.438368   1.406146   2.410816   2.778414   2.443490
    15  H    1.012358   2.037219   2.604479   3.979878   4.768107
    16  H    1.012297   2.037145   3.287046   4.454322   4.768128
    17  H    2.670328   2.159354   1.087103   2.149871   3.422182
    18  H    4.575860   3.408095   2.140755   1.086702   2.157313
    19  H    6.314230   5.008564   4.087981   2.842034   2.728466
    20  H    8.664837   7.310205   6.439393   5.098008   4.667839
    21  H   10.445486   9.061852   8.484246   7.128023   6.230535
    22  H   10.448788   9.057836   8.302735   6.913838   6.229923
    23  H    8.653873   7.322581   7.019101   5.804472   4.669597
    24  H    6.299871   5.027468   4.946937   3.966883   2.732251
    25  H    4.576530   3.407821   3.865031   3.389131   2.157663
    26  H    2.671783   2.159572   3.399237   3.865524   3.422089
                    6          7          8          9         10
     6  C    0.000000
     7  C    1.406115   0.000000
     8  C    2.443519   1.391630   0.000000
     9  C    2.849457   2.431943   1.406162   0.000000
    10  N    4.244432   3.709690   2.437976   1.396477   0.000000
    11  C    2.443490   2.778414   2.410816   1.406146   2.438368
    12  C    1.406043   2.398811   2.778524   2.432050   3.710138
    13  C    2.520648   3.704250   4.889821   5.210296   6.566679
    14  C    3.804315   4.886949   6.159928   6.572501   7.940620
    15  H    6.229924   6.913838   8.302735   9.057836  10.448788
    16  H    6.230535   7.128023   8.484246   9.061852  10.445486
    17  H    4.667839   5.098008   6.439393   7.310205   8.664837
    18  H    2.728466   2.842034   4.087982   5.008564   6.314231
    19  H    2.157313   1.086702   2.140755   3.408095   4.575860
    20  H    3.422182   2.149871   1.087103   2.159354   2.670328
    21  H    4.768128   4.454322   3.287046   2.037145   1.012297
    22  H    4.768107   3.979878   2.604479   2.037219   1.012358
    23  H    3.422089   3.865524   3.399237   2.159572   2.671784
    24  H    2.157663   3.389131   3.865031   3.407821   4.576530
    25  H    2.732251   3.966883   4.946937   5.027468   6.299871
    26  H    4.669597   5.804472   7.019101   7.322581   8.653872
                   11         12         13         14         15
    11  C    0.000000
    12  C    1.391753   0.000000
    13  C    4.428900   3.074498   0.000000
    14  C    5.801007   4.428900   1.391752   0.000000
    15  H    8.545592   7.201986   4.453790   3.286512   0.000000
    16  H    8.369518   6.992028   3.979283   2.603713   1.668159
    17  H    7.015386   5.804292   3.865506   3.398957   2.436238
    18  H    4.937763   3.962115   3.388829   3.864905   4.681826
    19  H    3.864905   3.388829   3.962115   4.937763   6.507173
    20  H    3.398957   3.865506   5.804292   7.015385   8.926960
    21  H    2.603712   3.979283   6.992028   8.369518  10.977380
    22  H    3.286512   4.453789   7.201986   8.545592  10.847398
    23  H    1.087143   2.149794   5.103882   6.448136   9.326152
    24  H    2.140478   1.086672   2.848138   4.098812   7.043779
    25  H    4.098812   2.848138   1.086672   2.140478   5.389936
    26  H    6.448136   5.103882   2.149794   1.087143   3.619061
                   16         17         18         19         20
    16  H    0.000000
    17  H    3.620901   0.000000
    18  H    5.392988   2.458304   0.000000
    19  H    6.904168   4.614214   2.453207   0.000000
    20  H    9.223383   6.974939   4.614214   2.458304   0.000000
    21  H   10.915954   9.223383   6.904168   5.392987   3.620901
    22  H   10.977380   8.926960   6.507173   4.681826   2.436238
    23  H    9.035584   7.901148   5.910014   4.952021   4.302322
    24  H    6.655131   5.915242   4.424110   4.295716   4.952071
    25  H    4.678192   4.952071   4.295716   4.424110   5.915242
    26  H    2.433051   4.302322   4.952021   5.910014   7.901147
                   21         22         23         24         25
    21  H    0.000000
    22  H    1.668159   0.000000
    23  H    2.433051   3.619061   0.000000
    24  H    4.678192   5.389935   2.457576   0.000000
    25  H    6.655131   7.043778   4.620154   2.453599   0.000000
    26  H    9.035584   9.326152   6.982177   4.620154   2.457576
                   26
    26  H    0.000000
 Stoichiometry    C12H12N2
 Framework group  C1[X(C12H12N2)]
 Deg. of freedom    72
 Full point group                 C1      NOp   1
 Largest Abelian subgroup         C1      NOp   1
 Largest concise Abelian subgroup C1      NOp   1
                         Standard orientation:                         
 ---------------------------------------------------------------------
 Center     Atomic      Atomic             Coordinates (Angstroms)
 Number     Number       Type             X           Y           Z
 ---------------------------------------------------------------------
      1          7           0        4.984928    0.017952    0.070564
      2          6           0        3.590487   -0.004724   -0.001322
      3          6           0        2.863092   -1.125130    0.437857
      4          6           0        1.471498   -1.115635    0.434694
      5          6           0        0.741052    0.005629    0.002983
      6          6           0       -0.741052    0.005629   -0.002982
      7          6           0       -1.471498   -1.115635   -0.434693
      8          6           0       -2.863092   -1.125130   -0.437857
      9          6           0       -3.590487   -0.004724    0.001322
     10          7           0       -4.984928    0.017952   -0.070565
     11          6           0       -2.869966    1.127965    0.419784
     12          6           0       -1.478218    1.125008    0.421909
     13          6           0        1.478218    1.125008   -0.421908
     14          6           0        2.869966    1.127965   -0.419784
     15          1           0        5.423655   -0.893104    0.021931
     16          1           0        5.428526    0.667921   -0.566230
     17          1           0        3.396508   -2.003952    0.791313
     18          1           0        0.938228   -1.993256    0.790117
     19          1           0       -0.938228   -1.993256   -0.790116
     20          1           0       -3.396508   -2.003952   -0.791313
     21          1           0       -5.428526    0.667921    0.566230
     22          1           0       -5.423654   -0.893104   -0.021931
     23          1           0       -3.408483    2.010884    0.754947
     24          1           0       -0.950992    2.007166    0.775017
     25          1           0        0.950991    2.007166   -0.775017
     26          1           0        3.408483    2.010884   -0.754947
 ---------------------------------------------------------------------
 Rotational constants (GHZ):           2.8179938           0.2956112           0.2743083
 Standard basis: 6-31G(d,p) (6D, 7F)
 There are   270 symmetry adapted cartesian basis functions of A   symmetry.
 There are   270 symmetry adapted basis functions of A   symmetry.
   270 basis functions,   476 primitive gaussians,   270 cartesian basis functions
    49 alpha electrons       49 beta electrons
       nuclear repulsion energy       782.5284935975 Hartrees.
 NAtoms=   26 NActive=   26 NUniq=   26 SFac= 1.00D+00 NAtFMM=   60 NAOKFM=F Big=F
 Integral buffers will be    131072 words long.
 Raffenetti 2 integral format.
 Two-electron integral symmetry is turned on.
 ------------------------------------------------------------------------------
 Polarizable Continuum Model (PCM)
 =================================
 Model                : PCM.
 Atomic radii         : UFF (Universal Force Field).
 Polarization charges : Total charges.
 Charge compensation  : None.
 Solution method      : Matrix inversion.
 Cavity type          : Scaled VdW (van der Waals Surface) (Alpha=1.100).
 Cavity algorithm     : GePol (No added spheres)
                        Default sphere list used, NSphG=   26.
                        Lebedev-Laikov grids with approx.  5.0 points / Ang**2.
                        Smoothing algorithm: York/Karplus (Gamma=1.0000).
                        Polarization charges: spherical gaussians, with
                                              point-specific exponents (IZeta= 3).
                        Self-potential: point-specific (ISelfS= 7).
                        Self-field    : sphere-specific E.n sum rule (ISelfD= 2).
 1st derivatives      : Analytical E(r).r(x)/FMM algorithm (CHGder, D1EAlg=3).
                        Cavity 1st derivative terms included.
 Solvent              : Water, Eps=  78.355300 Eps(inf)=   1.777849
 ------------------------------------------------------------------------------
 One-electron integrals computed using PRISM.
 NBasis=   270 RedAO= T EigKep=  4.04D-04  NBF=   270
 NBsUse=   270 1.00D-06 EigRej= -1.00D+00 NBFU=   270
 Initial guess from the checkpoint file:  "HFACYLZERDEVSX-UHFFFAOYSA-N_conf_0_0.chk"
 B after Tr=    -0.000000    0.000000    0.000000
         Rot=    1.000000   -0.000000    0.000063    0.000000 Ang=  -0.01 deg.
 ExpMin= 1.61D-01 ExpMax= 4.17D+03 ExpMxC= 6.27D+02 IAcc=2 IRadAn=         4 AccDes= 0.00D+00
 Harris functional with IExCor=  402 and IRadAn=       4 diagonalized for initial guess.
 HarFok:  IExCor=  402 AccDes= 0.00D+00 IRadAn=         4 IDoV= 1 UseB2=F ITyADJ=14
 ICtDFT=  3500011 ScaDFX=  1.000000  1.000000  1.000000  1.000000
 FoFCou: FMM=F IPFlag=           0 FMFlag=      100000 FMFlg1=           0
         NFxFlg=           0 DoJE=T BraDBF=F KetDBF=T FulRan=T
         wScrn=  0.000000 ICntrl=       500 IOpCl=  0 I1Cent=   200000004 NGrid=           0
         NMat0=    1 NMatS0=      1 NMatT0=    0 NMatD0=    1 NMtDS0=    0 NMtDT0=    0
 Petite list used in FoFCou.
 Keep R1 ints in memory in canonical form, NReq=679202228.
 Requested convergence on RMS density matrix=1.00D-08 within  32 cycles.
 Requested convergence on MAX density matrix=1.00D-06.
 Requested convergence on             energy=1.00D-06.
 No special actions if energy rises.
 Inv3:  Mode=1 IEnd=    12829872.
 Iteration    1 A*A^-1 deviation from unit magnitude is 7.77D-15 for    507.
 Iteration    1 A*A^-1 deviation from orthogonality  is 3.29D-15 for   1870   1793.
 Iteration    1 A^-1*A deviation from unit magnitude is 6.77D-15 for   1839.
[...]
 based on  0.001 e/bohr**3 density envelope.
 Number of points per bohr**3 =   20 CutOff= 1.00D-04
 Using the CI density.
 There are       390 points.  Will hold       390 in memory.
 LenV=  1073561794 MDV=  1073741824.
 Box volume = 7440.478 fraction occupied=0.256
 Integrated density= 8.0425989899235574D+01 error=-1.7574010100764426D+01
 Molar volume = 1907.815 bohr**3/mol (170.251 cm**3/mol)
 Recommended a0 for SCRF calculation =  4.98 angstrom (  9.41 bohr)
 ******************************Gaussian NBO Version 3.1******************************
             N A T U R A L   A T O M I C   O R B I T A L   A N D
          N A T U R A L   B O N D   O R B I T A L   A N A L Y S I S
 ******************************Gaussian NBO Version 3.1******************************
       /RESON  / : Allow strongly delocalized NBO set

 Analyzing the CI density

 Job title: HFACYLZERDEVSX-UHFFFAOYSA-N_conf_0                              

 Storage needed:    221024 in NPA (1073738236 available)
 GSVD:  LWork=       43140 too small for GESVD, short by       15300 words or       15300 for optimal perf.


 NATURAL POPULATIONS:  Natural atomic orbital occupancies 
                                                          
   NAO  Atom  No  lang   Type(AO)    Occupancy
 --------------------------------------------
     1    N    1  S      Cor( 1S)     1.99951
     2    N    1  S      Val( 2S)     1.36841
     3    N    1  S      Ryd( 3S)     0.00021
     4    N    1  S      Ryd( 4S)     0.00001
     5    N    1  px     Val( 2p)     1.65885
     6    N    1  px     Ryd( 3p)     0.00452
     7    N    1  py     Val( 2p)     1.32109
     8    N    1  py     Ryd( 3p)     0.00252
     9    N    1  pz     Val( 2p)     1.43853
    10    N    1  pz     Ryd( 3p)     0.00220
    11    N    1  dxy    Ryd( 3d)     0.00091
    12    N    1  dxz    Ryd( 3d)     0.00076
    13    N    1  dyz    Ryd( 3d)     0.00040
    14    N    1  dx2y2  Ryd( 3d)     0.00079
    15    N    1  dz2    Ryd( 3d)     0.00051

    16    C    2  S      Cor( 1S)     1.99897
    17    C    2  S      Val( 2S)     0.84228
    18    C    2  S      Ryd( 3S)     0.00114
    19    C    2  S      Ryd( 4S)     0.00009
    20    C    2  px     Val( 2p)     1.03529
    21    C    2  px     Ryd( 3p)     0.00320
    22    C    2  py     Val( 2p)     0.89982
    23    C    2  py     Ryd( 3p)     0.00568
    24    C    2  pz     Val( 2p)     1.08479
    25    C    2  pz     Ryd( 3p)     0.00421
    26    C    2  dxy    Ryd( 3d)     0.00144
    27    C    2  dxz    Ryd( 3d)     0.00052
    28    C    2  dyz    Ryd( 3d)     0.00093
    29    C    2  dx2y2  Ryd( 3d)     0.00080
    30    C    2  dz2    Ryd( 3d)     0.00079

    31    C    3  S      Cor( 1S)     1.99906
    32    C    3  S      Val( 2S)     0.95758
    33    C    3  S      Ryd( 3S)     0.00067
    34    C    3  S      Ryd( 4S)     0.00004
    35    C    3  px     Val( 2p)     1.04661
    36    C    3  px     Ryd( 3p)     0.00148
    37    C    3  py     Val( 2p)     1.10598
    38    C    3  py     Ryd( 3p)     0.00442
    39    C    3  pz     Val( 2p)     1.14430
    40    C    3  pz     Ryd( 3p)     0.00420
    41    C    3  dxy    Ryd( 3d)     0.00066
    42    C    3  dxz    Ryd( 3d)     0.00044
    43    C    3  dyz    Ryd( 3d)     0.00076
    44    C    3  dx2y2  Ryd( 3d)     0.00037
    45    C    3  dz2    Ryd( 3d)     0.00051

    46    C    4  S      Cor( 1S)     1.99908
    47    C    4  S      Val( 2S)     0.94816
    48    C    4  S      Ryd( 3S)     0.00065
    49    C    4  S      Ryd( 4S)     0.00005
    50    C    4  px     Val( 2p)     1.03935
    51    C    4  px     Ryd( 3p)     0.00254
    52    C    4  py     Val( 2p)     1.09144
    53    C    4  py     Ryd( 3p)     0.00371
    54    C    4  pz     Val( 2p)     1.15331
    55    C    4  pz     Ryd( 3p)     0.00476
    56    C    4  dxy    Ryd( 3d)     0.00067
    57    C    4  dxz    Ryd( 3d)     0.00043
    58    C    4  dyz    Ryd( 3d)     0.00071
    59    C    4  dx2y2  Ryd( 3d)     0.00039
    60    C    4  dz2    Ryd( 3d)     0.00054

    61    C    5  S      Cor( 1S)     1.99902
    62    C    5  S      Val( 2S)     0.86708
    63    C    5  S      Ryd( 3S)     0.00050
    64    C    5  S      Ryd( 4S)     0.00006
    65    C    5  px     Val( 2p)     1.05589
    66    C    5  px     Ryd( 3p)     0.00304
    67    C    5  py     Val( 2p)     1.06890
    68    C    5  py     Ryd( 3p)     0.00465
    69    C    5  pz     Val( 2p)     1.08414
    70    C    5  pz     Ryd( 3p)     0.00574
    71    C    5  dxy    Ryd( 3d)     0.00090
    72    C    5  dxz    Ryd( 3d)     0.00042
    73    C    5  dyz    Ryd( 3d)     0.00075
    74    C    5  dx2y2  Ryd( 3d)     0.00042
    75    C    5  dz2    Ryd( 3d)     0.00055

    76    C    6  S      Cor( 1S)     1.99902
    77    C    6  S      Val( 2S)     0.86708
    78    C    6  S      Ryd( 3S)     0.00050
    79    C    6  S      Ryd( 4S)     0.00006
    80    C    6  px     Val( 2p)     1.05589
    81    C    6  px     Ryd( 3p)     0.00304
    82    C    6  py     Val( 2p)     1.06890
    83    C    6  py     Ryd( 3p)     0.00465
    84    C    6  pz     Val( 2p)     1.08414
    85    C    6  pz     Ryd( 3p)     0.00574
    86    C    6  dxy    Ryd( 3d)     0.00090
    87    C    6  dxz    Ryd( 3d)     0.00042
    88    C    6  dyz    Ryd( 3d)     0.00075
    89    C    6  dx2y2  Ryd( 3d)     0.00042
    90    C    6  dz2    Ryd( 3d)     0.00055

    91    C    7  S      Cor( 1S)     1.99908
    92    C    7  S      Val( 2S)     0.94816
    93    C    7  S      Ryd( 3S)     0.00065
    94    C    7  S      Ryd( 4S)     0.00005
    95    C    7  px     Val( 2p)     1.03935
    96    C    7  px     Ryd( 3p)     0.00254
    97    C    7  py     Val( 2p)     1.09144
    98    C    7  py     Ryd( 3p)     0.00371
    99    C    7  pz     Val( 2p)     1.15331
   100    C    7  pz     Ryd( 3p)     0.00476
   101    C    7  dxy    Ryd( 3d)     0.00067
   102    C    7  dxz    Ryd( 3d)     0.00043
   103    C    7  dyz    Ryd( 3d)     0.00071
   104    C    7  dx2y2  Ryd( 3d)     0.00039
   105    C    7  dz2    Ryd( 3d)     0.00054

   106    C    8  S      Cor( 1S)     1.99906
   107    C    8  S      Val( 2S)     0.95758
   108    C    8  S      Ryd( 3S)     0.00067
   109    C    8  S      Ryd( 4S)     0.00004
   110    C    8  px     Val( 2p)     1.04661
   111    C    8  px     Ryd( 3p)     0.00148
   112    C    8  py     Val( 2p)     1.10598
   113    C    8  py     Ryd( 3p)     0.00442
   114    C    8  pz     Val( 2p)     1.14430
   115    C    8  pz     Ryd( 3p)     0.00420
   116    C    8  dxy    Ryd( 3d)     0.00066
   117    C    8  dxz    Ryd( 3d)     0.00044
   118    C    8  dyz    Ryd( 3d)     0.00076
   119    C    8  dx2y2  Ryd( 3d)     0.00037
   120    C    8  dz2    Ryd( 3d)     0.00051

   121    C    9  S      Cor( 1S)     1.99897
   122    C    9  S      Val( 2S)     0.84228
   123    C    9  S      Ryd( 3S)     0.00114
   124    C    9  S      Ryd( 4S)     0.00009
   125    C    9  px     Val( 2p)     1.03529
   126    C    9  px     Ryd( 3p)     0.00320
   127    C    9  py     Val( 2p)     0.89982
   128    C    9  py     Ryd( 3p)     0.00568
   129    C    9  pz     Val( 2p)     1.08479
   130    C    9  pz     Ryd( 3p)     0.00421
   131    C    9  dxy    Ryd( 3d)     0.00144
   132    C    9  dxz    Ryd( 3d)     0.00052
   133    C    9  dyz    Ryd( 3d)     0.00093
   134    C    9  dx2y2  Ryd( 3d)     0.00080
   135    C    9  dz2    Ryd( 3d)     0.00079

   136    N   10  S      Cor( 1S)     1.99951
   137    N   10  S      Val( 2S)     1.36841
   138    N   10  S      Ryd( 3S)     0.00021
   139    N   10  S      Ryd( 4S)     0.00001
   140    N   10  px     Val( 2p)     1.65885
   141    N   10  px     Ryd( 3p)     0.00452
   142    N   10  py     Val( 2p)     1.32109
   143    N   10  py     Ryd( 3p)     0.00252
   144    N   10  pz     Val( 2p)     1.43853
   145    N   10  pz     Ryd( 3p)     0.00220
   146    N   10  dxy    Ryd( 3d)     0.00091
   147    N   10  dxz    Ryd( 3d)     0.00076
   148    N   10  dyz    Ryd( 3d)     0.00040
   149    N   10  dx2y2  Ryd( 3d)     0.00079
   150    N   10  dz2    Ryd( 3d)     0.00051

   151    C   11  S      Cor( 1S)     1.99906
   152    C   11  S      Val( 2S)     0.95754
   153    C   11  S      Ryd( 3S)     0.00067
   154    C   11  S      Ryd( 4S)     0.00004
   155    C   11  px     Val( 2p)     1.04785
   156    C   11  px     Ryd( 3p)     0.00157
   157    C   11  py     Val( 2p)     1.10600
   158    C   11  py     Ryd( 3p)     0.00443
   159    C   11  pz     Val( 2p)     1.14431
   160    C   11  pz     Ryd( 3p)     0.00416
   161    C   11  dxy    Ryd( 3d)     0.00065
   162    C   11  dxz    Ryd( 3d)     0.00045
   163    C   11  dyz    Ryd( 3d)     0.00077
   164    C   11  dx2y2  Ryd( 3d)     0.00037
   165    C   11  dz2    Ryd( 3d)     0.00051

   166    C   12  S      Cor( 1S)     1.99908
   167    C   12  S      Val( 2S)     0.94840
   168    C   12  S      Ryd( 3S)     0.00066
   169    C   12  S      Ryd( 4S)     0.00005
   170    C   12  px     Val( 2p)     1.03735
   171    C   12  px     Ryd( 3p)     0.00248
   172    C   12  py     Val( 2p)     1.09176
   173    C   12  py     Ryd( 3p)     0.00371
   174    C   12  pz     Val( 2p)     1.15257
   175    C   12  pz     Ryd( 3p)     0.00473
   176    C   12  dxy    Ryd( 3d)     0.00067
   177    C   12  dxz    Ryd( 3d)     0.00044
   178    C   12  dyz    Ryd( 3d)     0.00071
   179    C   12  dx2y2  Ryd( 3d)     0.00039
   180    C   12  dz2    Ryd( 3d)     0.00054

   181    C   13  S      Cor( 1S)     1.99908
   182    C   13  S      Val( 2S)     0.94840
   183    C   13  S      Ryd( 3S)     0.00066
   184    C   13  S      Ryd( 4S)     0.00005
   185    C   13  px     Val( 2p)     1.03735
   186    C   13  px     Ryd( 3p)     0.00248
   187    C   13  py     Val( 2p)     1.09176
   188    C   13  py     Ryd( 3p)     0.00371
   189    C   13  pz     Val( 2p)     1.15257
   190    C   13  pz     Ryd( 3p)     0.00473
   191    C   13  dxy    Ryd( 3d)     0.00067
   192    C   13  dxz    Ryd( 3d)     0.00044
   193    C   13  dyz    Ryd( 3d)     0.00071
   194    C   13  dx2y2  Ryd( 3d)     0.00039
   195    C   13  dz2    Ryd( 3d)     0.00054

   196    C   14  S      Cor( 1S)     1.99906
   197    C   14  S      Val( 2S)     0.95754
   198    C   14  S      Ryd( 3S)     0.00067
   199    C   14  S      Ryd( 4S)     0.00004
   200    C   14  px     Val( 2p)     1.04785
   201    C   14  px     Ryd( 3p)     0.00157
   202    C   14  py     Val( 2p)     1.10600
   203    C   14  py     Ryd( 3p)     0.00443
   204    C   14  pz     Val( 2p)     1.14431
   205    C   14  pz     Ryd( 3p)     0.00416
   206    C   14  dxy    Ryd( 3d)     0.00065
   207    C   14  dxz    Ryd( 3d)     0.00045
   208    C   14  dyz    Ryd( 3d)     0.00077
   209    C   14  dx2y2  Ryd( 3d)     0.00037
   210    C   14  dz2    Ryd( 3d)     0.00051

   211    H   15  S      Val( 1S)     0.57994
   212    H   15  S      Ryd( 2S)     0.00168
   213    H   15  px     Ryd( 2p)     0.00044
   214    H   15  py     Ryd( 2p)     0.00029
   215    H   15  pz     Ryd( 2p)     0.00052

   216    H   16  S      Val( 1S)     0.58053
   217    H   16  S      Ryd( 2S)     0.00184
   218    H   16  px     Ryd( 2p)     0.00057
   219    H   16  py     Ryd( 2p)     0.00029
   220    H   16  pz     Ryd( 2p)     0.00040

   221    H   17  S      Val( 1S)     0.75591
   222    H   17  S      Ryd( 2S)     0.00099
   223    H   17  px     Ryd( 2p)     0.00015
   224    H   17  py     Ryd( 2p)     0.00014
   225    H   17  pz     Ryd( 2p)     0.00032

   226    H   18  S      Val( 1S)     0.75934
   227    H   18  S      Ryd( 2S)     0.00117
   228    H   18  px     Ryd( 2p)     0.00017
   229    H   18  py     Ryd( 2p)     0.00014
   230    H   18  pz     Ryd( 2p)     0.00031

   231    H   19  S      Val( 1S)     0.75934
   232    H   19  S      Ryd( 2S)     0.00117
   233    H   19  px     Ryd( 2p)     0.00017
   234    H   19  py     Ryd( 2p)     0.00014
   235    H   19  pz     Ryd( 2p)     0.00031

   236    H   20  S      Val( 1S)     0.75591
   237    H   20  S      Ryd( 2S)     0.00099
   238    H   20  px     Ryd( 2p)     0.00015
   239    H   20  py     Ryd( 2p)     0.00014
   240    H   20  pz     Ryd( 2p)     0.00032

   241    H   21  S      Val( 1S)     0.58053
   242    H   21  S      Ryd( 2S)     0.00184
   243    H   21  px     Ryd( 2p)     0.00057
   244    H   21  py     Ryd( 2p)     0.00029
   245    H   21  pz     Ryd( 2p)     0.00040

   246    H   22  S      Val( 1S)     0.57994
   247    H   22  S      Ryd( 2S)     0.00168
   248    H   22  px     Ryd( 2p)     0.00044
   249    H   22  py     Ryd( 2p)     0.00029
   250    H   22  pz     Ryd( 2p)     0.00052

   251    H   23  S      Val( 1S)     0.75623
   252    H   23  S      Ryd( 2S)     0.00103
   253    H   23  px     Ryd( 2p)     0.00014
   254    H   23  py     Ryd( 2p)     0.00014
   255    H   23  pz     Ryd( 2p)     0.00032

   256    H   24  S      Val( 1S)     0.75921
   257    H   24  S      Ryd( 2S)     0.00117
   258    H   24  px     Ryd( 2p)     0.00017
   259    H   24  py     Ryd( 2p)     0.00014
   260    H   24  pz     Ryd( 2p)     0.00031

   261    H   25  S      Val( 1S)     0.75921
   262    H   25  S      Ryd( 2S)     0.00117
   263    H   25  px     Ryd( 2p)     0.00017
   264    H   25  py     Ryd( 2p)     0.00014
   265    H   25  pz     Ryd( 2p)     0.00031

   266    H   26  S      Val( 1S)     0.75623
   267    H   26  S      Ryd( 2S)     0.00103
   268    H   26  px     Ryd( 2p)     0.00014
   269    H   26  py     Ryd( 2p)     0.00014
   270    H   26  pz     Ryd( 2p)     0.00032

 WARNING:  1 low occupancy (<1.9990e) core orbital  found on  C    2
           1 low occupancy (<1.9990e) core orbital  found on  C    9


 Summary of Natural Population Analysis:                  
                                                          
                                       Natural Population 
                Natural  -----------------------------------------------
    Atom  No    Charge         Core      Valence    Rydberg      Total
 -----------------------------------------------------------------------
      N    1   -0.79922      1.99951     5.78688    0.01283     7.79922
      C    2    0.12004      1.99897     3.86218    0.01880     5.87996
      C    3   -0.26708      1.99906     4.25447    0.01356     6.26708
      C    4   -0.24578      1.99908     4.23226    0.01445     6.24578
      C    5   -0.09207      1.99902     4.07601    0.01704     6.09207
      C    6   -0.09207      1.99902     4.07601    0.01704     6.09207
      C    7   -0.24578      1.99908     4.23226    0.01445     6.24578
      C    8   -0.26708      1.99906     4.25447    0.01356     6.26708
      C    9    0.12004      1.99897     3.86218    0.01880     5.87996
      N   10   -0.79922      1.99951     5.78688    0.01283     7.79922
      C   11   -0.26837      1.99906     4.25570    0.01362     6.26837
      C   12   -0.24353      1.99908     4.23008    0.01438     6.24353
      C   13   -0.24353      1.99908     4.23008    0.01438     6.24353
      C   14   -0.26837      1.99906     4.25570    0.01362     6.26837
      H   15    0.41713      0.00000     0.57994    0.00293     0.58287
      H   16    0.41637      0.00000     0.58053    0.00310     0.58363
      H   17    0.24250      0.00000     0.75591    0.00159     0.75750
      H   18    0.23887      0.00000     0.75934    0.00179     0.76113
      H   19    0.23887      0.00000     0.75934    0.00179     0.76113
      H   20    0.24250      0.00000     0.75591    0.00159     0.75750
      H   21    0.41637      0.00000     0.58053    0.00310     0.58363
      H   22    0.41713      0.00000     0.57994    0.00293     0.58287
      H   23    0.24214      0.00000     0.75623    0.00163     0.75786
      H   24    0.23901      0.00000     0.75921    0.00179     0.76099
      H   25    0.23901      0.00000     0.75921    0.00179     0.76099
      H   26    0.24214      0.00000     0.75623    0.00163     0.75786
 =======================================================================
   * Total *    0.00000     27.98753    69.77743    0.23504    98.00000

                                 Natural Population      
 --------------------------------------------------------
   Core                      27.98753 ( 99.9555% of  28)
   Valence                   69.77743 ( 99.6820% of  70)
   Natural Minimal Basis     97.76496 ( 99.7602% of  98)
   Natural Rydberg Basis      0.23504 (  0.2398% of  98)
 --------------------------------------------------------

    Atom  No          Natural Electron Configuration
 ----------------------------------------------------------------------------
      N    1      [core]2S( 1.37)2p( 4.42)3p( 0.01)
      C    2      [core]2S( 0.84)2p( 3.02)3p( 0.01)
      C    3      [core]2S( 0.96)2p( 3.30)3p( 0.01)
      C    4      [core]2S( 0.95)2p( 3.28)3p( 0.01)
      C    5      [core]2S( 0.87)2p( 3.21)3p( 0.01)
      C    6      [core]2S( 0.87)2p( 3.21)3p( 0.01)
      C    7      [core]2S( 0.95)2p( 3.28)3p( 0.01)
      C    8      [core]2S( 0.96)2p( 3.30)3p( 0.01)
      C    9      [core]2S( 0.84)2p( 3.02)3p( 0.01)
      N   10      [core]2S( 1.37)2p( 4.42)3p( 0.01)
      C   11      [core]2S( 0.96)2p( 3.30)3p( 0.01)
      C   12      [core]2S( 0.95)2p( 3.28)3p( 0.01)
      C   13      [core]2S( 0.95)2p( 3.28)3p( 0.01)
      C   14      [core]2S( 0.96)2p( 3.30)3p( 0.01)
      H   15            1S( 0.58)
      H   16            1S( 0.58)
      H   17            1S( 0.76)
      H   18            1S( 0.76)
      H   19            1S( 0.76)
      H   20            1S( 0.76)
      H   21            1S( 0.58)
      H   22            1S( 0.58)
      H   23            1S( 0.76)
      H   24            1S( 0.76)
      H   25            1S( 0.76)
      H   26            1S( 0.76)


 NBO analysis skipped by request.
 1\1\GINC-CN36\SP\RB3LYP TD-FC\6-31G(d,p)\C12H12N2\QDUEZ\11-Jul-2024\0\
 \# TD(NStates=10, Root=1) B3LYP/6-31G** SCRF=(Solvent=water) volume po
 p=NPA density=current Geom=AllCheck Guess=Read\\HFACYLZERDEVSX-UHFFFAO
 YSA-N_conf_0\\0,1\N,0,-4.9734765772,0.2024702172,-0.4096267142\C,0,-3.
 5870492929,0.1728972387,-0.249837649\C,0,-2.851243034,-0.9948135233,-0
 .5216423662\C,0,-1.463225731,-1.0003789701,-0.4262766549\C,0,-0.739623
 7426,0.1470174033,-0.0523960528\C,0,0.7398772541,0.1336167598,0.051871
 4239\C,0,1.4391707781,-1.0113548532,0.4760571766\C,0,2.8270384309,-1.0
 310328005,0.5717325814\C,0,3.5873031918,0.1077734524,0.2493122186\N,0,
 4.974120002,0.1149340472,0.4082951793\C,0,2.8997598602,1.2592042899,-0
 .1751690982\C,0,1.5117177182,1.2648300092,-0.2714097569\C,0,-1.4871636
 407,1.3074272891,0.2205963229\C,0,-2.8750578115,1.327007184,0.12404944
 51\H,0,-5.4307530676,-0.6942880606,-0.303197056\H,0,-5.4459860821,0.91
 67146381,0.1299376977\H,0,-3.3754386399,-1.8988032836,-0.8215065456\H,
 0,-0.9290556096,-1.9150390358,-0.6671954862\H,0,0.8858460252,-1.903039
 4104,0.7566155592\H,0,3.3320951078,-1.9319068649,0.9112038165\H,0,5.46
 14111628,0.7946483018,-0.1618591298\H,0,5.4122369005,-0.7951200751,0.3
 415153376\H,0,3.4628035401,2.1502232138,-0.4417126605\H,0,1.0189262553
 ,2.163500167,-0.6313319148\H,0,-0.9752676929,2.2103727708,0.5409827053
 \H,0,-3.4189653026,2.2405936704,0.3509916225\\Version=EM64L-G16RevA.03
 \State=1-A\HF=-574.0511616\RMSD=3.783e-09\Dipole=-0.0029441,-0.2776402
 ,0.0060927\Quadrupole=23.2727432,-5.7462525,-17.5264906,-0.4634558,-7.
 0963353,-0.1832431\PG=C02 [X(C12H12N2)]\\@


 Happiness is a conscious choice, not an automatic response.
 -- Mildred Barthel
 Job cpu time:       0 days  0 hours 48 minutes  6.3 seconds.
 Elapsed time:       0 days  0 hours 15 minutes 32.6 seconds.
 File lengths (MBytes):  RWF=    625 Int=      0 D2E=      0 Chk=     39 Scr=      1
 Normal termination of Gaussian 16 at Thu Jul 11 18:15:34 2024.
