 Entering Gaussian System, Link 0=g16
 Initial command:
 /opt/sw/arch/manual/gaussian/G16_A03/g16/l1.exe "/scratch/1380939/Gau-211309.inp" -scrdir="/scratch/1380939/"
 Entering Link 1 = /opt/sw/arch/manual/gaussian/G16_A03/g16/l1.exe PID=    211310.
  
 Copyright (c) 1988,1990,1992,1993,1995,1998,2003,2009,2016,
            Gaussian, Inc.  All Rights Reserved.
  
 This is part of the Gaussian(R) 16 program.  It is based on
 the Gaussian(R) 09 system (copyright 2009, Gaussian, Inc.),
 the Gaussian(R) 03 system (copyright 2003, Gaussian, Inc.),
 the Gaussian(R) 98 system (copyright 1998, Gaussian, Inc.),
 the Gaussian(R) 94 system (copyright 1995, Gaussian, Inc.),
 the Gaussian 92(TM) system (copyright 1992, Gaussian, Inc.),
 the Gaussian 90(TM) system (copyright 1990, Gaussian, Inc.),
 the Gaussian 88(TM) system (copyright 1988, Gaussian, Inc.),
 the Gaussian 86(TM) system (copyright 1986, Carnegie Mellon
 University), and the Gaussian 82(TM) system (copyright 1983,
 Carnegie Mellon University). Gaussian is a federally registered
 trademark of Gaussian, Inc.
  
 This software contains proprietary and confidential information,
 including trade secrets, belonging to Gaussian, Inc.
  
 This software is provided under written license and may be
 used, copied, transmitted, or stored only in accord with that
 written license.
  
 The following legend is applicable only to US Government
 contracts under FAR:
  
                    RESTRICTED RIGHTS LEGEND
  
 Use, reproduction and disclosure by the US Government is
 subject to restrictions as set forth in subparagraphs (a)
 and (c) of the Commercial Computer Software - Restricted
 Rights clause in FAR 52.227-19.
  
 Gaussian, Inc.
 340 Quinnipiac St., Bldg. 40, Wallingford CT 06492
  
  
 ---------------------------------------------------------------
 Warning -- This program may not be used in any manner that
 competes with the business of Gaussian, Inc. or will provide
 assistance to any competitor of Gaussian, Inc.  The licensee
 of this program is prohibited from giving any competitor of
 Gaussian, Inc. access to this program.  By using this program,
 the user acknowledges that Gaussian, Inc. is engaged in the
 business of creating and licensing software in the field of
 computational chemistry and represents and warrants to the
 licensee that it is not a competitor of Gaussian, Inc. and that
 it will not use this program in any manner prohibited above.
 ---------------------------------------------------------------
  

 Cite this work as:
 Gaussian 16, Revision A.03,
 M. J. Frisch, G. W. Trucks, H. B. Schlegel, G. E. Scuseria, 
 M. A. Robb, J. R. Cheeseman, G. Scalmani, V. Barone, 
 G. A. Petersson, H. Nakatsuji, X. Li, M. Caricato, A. V. Marenich, 
 J. Bloino, B. G. Janesko, R. Gomperts, B. Mennucci, H. P. Hratchian, 
 J. V. Ortiz, A. F. Izmaylov, J. L. Sonnenberg, D. Williams-Young, 
 F. Ding, F. Lipparini, F. Egidi, J. Goings, B. Peng, A. Petrone, 
 T. Henderson, D. Ranasinghe, V. G. Zakrzewski, J. Gao, N. Rega, 
 G. Zheng, W. Liang, M. Hada, M. Ehara, K. Toyota, R. Fukuda, 
 J. Hasegawa, M. Ishida, T. Nakajima, Y. Honda, O. Kitao, H. Nakai, 
 T. Vreven, K. Throssell, J. A. Montgomery, Jr., J. E. Peralta, 
 F. Ogliaro, M. J. Bearpark, J. J. Heyd, E. N. Brothers, K. N. Kudin, 
 V. N. Staroverov, T. A. Keith, R. Kobayashi, J. Normand, 
 K. Raghavachari, A. P. Rendell, J. C. Burant, S. S. Iyengar, 
 J. Tomasi, M. Cossi, J. M. Millam, M. Klene, C. Adamo, R. Cammi, 
 J. W. Ochterski, R. L. Martin, K. Morokuma, O. Farkas, 
 J. B. Foresman, and D. J. Fox, Gaussian, Inc., Wallingford CT, 2016.
 
 ******************************************
 Gaussian 16:  ES64L-G16RevA.03 25-Dec-2016
                18-Jul-2024 
 ******************************************
 %nprocshared=4
 Will use up to    4 processors via shared memory.
 %mem=8GB
 %Chk=MERLDGDYUMSLAY-UHFFFAOYSA-N_conf_2_0.chk
 -------------------------------------------------------
 # opt=CalcFc B3LYP/6-31G** SCRF=(Solvent=water) scf=xqc
 -------------------------------------------------------
 1/10=4,18=20,19=15,26=3,38=1/1,3;
 2/9=110,12=2,17=6,18=5,40=1/2;
 3/5=1,6=6,7=101,11=2,25=1,30=1,70=2201,71=2,72=1,74=-5,140=1/1,2,3;
 4//1;
 5/5=2,8=3,13=1,38=5,53=1/2,8;
 8/6=4,10=90,11=11/1;
 11/6=1,8=1,9=11,15=111,16=1/1,2,10;
 10/6=1,13=1/2;
 6/7=2,8=2,9=2,10=2,28=1/1;
 7/10=1,18=20,25=1/1,2,3,16;
 1/10=4,18=20,19=15,26=3/3(2);
 2/9=110/2;
 99//99;
 2/9=110/2;
 3/5=1,6=6,7=101,11=2,25=1,30=1,70=2205,71=1,72=1,74=-5/1,2,3;
 4/5=5,16=3,69=1/1;
 5/5=2,8=3,13=1,38=5,53=1/2,8;
 7//1,2,3,16;
 1/18=20,19=15,26=3/3(-5);
 2/9=110/2;
 6/7=2,8=2,9=2,10=2,19=2,28=1/1;
 99/9=1/99;
 ----------------------------------
 MERLDGDYUMSLAY-UHFFFAOYSA-N_conf_2
 ----------------------------------
 Symbolic Z-matrix:
 Charge =  0 Multiplicity = 1
 N                     4.27035   1.75145   1.01186 
 C                     3.50474   0.71096   0.47474 
 C                     2.50607   0.98354  -0.46266 
 C                     1.65513  -0.02976  -0.91583 
 C                     1.76274  -1.3229   -0.39914 
 S                     0.66804  -2.60518  -0.97685 
 S                    -0.64668  -2.77304   0.59782 
 C                    -1.76061  -1.41955   0.27849 
 C                    -2.80735  -1.55925  -0.63515 
 C                    -3.67882  -0.49182  -0.87604 
 C                    -3.49502   0.73808  -0.24001 
 N                    -4.43727   1.76005  -0.39568 
 C                    -2.48652   0.8506    0.71952 
 C                    -1.61222  -0.21292   0.96594 
 C                     2.72513  -1.58855   0.57746 
 C                     3.57317  -0.57053   1.026 
 H                     5.14487   1.44548   1.42711 
 H                     4.39901   2.53529   0.37966 
 H                     2.37953   1.99042  -0.85131 
 H                     0.89557   0.2065   -1.65725 
 H                    -2.9613   -2.49977  -1.15815 
 H                    -4.50498  -0.63231  -1.56792 
 H                    -4.08534   2.68377  -0.16479 
 H                    -4.92138   1.7425   -1.28766 
 H                    -2.36921   1.77011   1.28677 
 H                    -0.82067  -0.09007   1.70164 
 H                     2.81276  -2.58217   1.00992 
 H                     4.29024  -0.79092   1.81233 
 

 GradGradGradGradGradGradGradGradGradGradGradGradGradGradGradGradGradGrad
 Berny optimization.
 Initialization pass.
                           ----------------------------
                           !    Initial Parameters    !
                           ! (Angstroms and Degrees)  !
 --------------------------                            --------------------------
 ! Name  Definition              Value          Derivative Info.                !
 --------------------------------------------------------------------------------
 ! R1    R(1,2)                  1.399          calculate D2E/DX2 analytically  !
 ! R2    R(1,17)                 1.0153         calculate D2E/DX2 analytically  !
 ! R3    R(1,18)                 1.0152         calculate D2E/DX2 analytically  !
 ! R4    R(2,3)                  1.3966         calculate D2E/DX2 analytically  !
 ! R5    R(2,16)                 1.3967         calculate D2E/DX2 analytically  !
 ! R6    R(3,4)                  1.3987         calculate D2E/DX2 analytically  !
 ! R7    R(3,19)                 1.0867         calculate D2E/DX2 analytically  !
 ! R8    R(4,5)                  1.3967         calculate D2E/DX2 analytically  !
 ! R9    R(4,20)                 1.0874         calculate D2E/DX2 analytically  !
 ! R10   R(5,6)                  1.7822         calculate D2E/DX2 analytically  !
 ! R11   R(5,15)                 1.3966         calculate D2E/DX2 analytically  !
 ! R12   R(6,7)                  2.0582         calculate D2E/DX2 analytically  !
 ! R13   R(7,8)                  1.7818         calculate D2E/DX2 analytically  !
 ! R14   R(8,9)                  1.3964         calculate D2E/DX2 analytically  !
 ! R15   R(8,14)                 1.3966         calculate D2E/DX2 analytically  !
 ! R16   R(9,10)                 1.3989         calculate D2E/DX2 analytically  !
 ! R17   R(9,21)                 1.0871         calculate D2E/DX2 analytically  !
 ! R18   R(10,11)                1.3968         calculate D2E/DX2 analytically  !
 ! R19   R(10,22)                1.0867         calculate D2E/DX2 analytically  !
 ! R20   R(11,12)                1.3988         calculate D2E/DX2 analytically  !
 ! R21   R(11,13)                1.3966         calculate D2E/DX2 analytically  !
 ! R22   R(12,23)                1.0151         calculate D2E/DX2 analytically  !
 ! R23   R(12,24)                1.015          calculate D2E/DX2 analytically  !
 ! R24   R(13,14)                1.3986         calculate D2E/DX2 analytically  !
 ! R25   R(13,25)                1.0868         calculate D2E/DX2 analytically  !
 ! R26   R(14,26)                1.0876         calculate D2E/DX2 analytically  !
 ! R27   R(15,16)                1.3988         calculate D2E/DX2 analytically  !
 ! R28   R(15,27)                1.0872         calculate D2E/DX2 analytically  !
 ! R29   R(16,28)                1.0868         calculate D2E/DX2 analytically  !
 ! A1    A(2,1,17)             113.8447         calculate D2E/DX2 analytically  !
 ! A2    A(2,1,18)             113.8598         calculate D2E/DX2 analytically  !
 ! A3    A(17,1,18)            112.2231         calculate D2E/DX2 analytically  !
 ! A4    A(1,2,3)              120.2567         calculate D2E/DX2 analytically  !
 ! A5    A(1,2,16)             120.267          calculate D2E/DX2 analytically  !
 ! A6    A(3,2,16)             118.6225         calculate D2E/DX2 analytically  !
 ! A7    A(2,3,4)              120.7398         calculate D2E/DX2 analytically  !
 ! A8    A(2,3,19)             120.2769         calculate D2E/DX2 analytically  !
 ! A9    A(4,3,19)             118.9833         calculate D2E/DX2 analytically  !
 ! A10   A(3,4,5)              120.2671         calculate D2E/DX2 analytically  !
 ! A11   A(3,4,20)             119.2403         calculate D2E/DX2 analytically  !
 ! A12   A(5,4,20)             120.4782         calculate D2E/DX2 analytically  !
 ! A13   A(4,5,6)              119.927          calculate D2E/DX2 analytically  !
 ! A14   A(4,5,15)             119.2015         calculate D2E/DX2 analytically  !
 ! A15   A(6,5,15)             120.8688         calculate D2E/DX2 analytically  !
 ! A16   A(5,6,7)              101.7146         calculate D2E/DX2 analytically  !
 ! A17   A(6,7,8)              101.553          calculate D2E/DX2 analytically  !
 ! A18   A(7,8,9)              120.6573         calculate D2E/DX2 analytically  !
 ! A19   A(7,8,14)             120.1089         calculate D2E/DX2 analytically  !
 ! A20   A(9,8,14)             119.2178         calculate D2E/DX2 analytically  !
 ! A21   A(8,9,10)             120.2195         calculate D2E/DX2 analytically  !
 ! A22   A(8,9,21)             120.4961         calculate D2E/DX2 analytically  !
 ! A23   A(10,9,21)            119.2808         calculate D2E/DX2 analytically  !
 ! A24   A(9,10,11)            120.7641         calculate D2E/DX2 analytically  !
 ! A25   A(9,10,22)            118.9859         calculate D2E/DX2 analytically  !
 ! A26   A(11,10,22)           120.2501         calculate D2E/DX2 analytically  !
 ! A27   A(10,11,12)           120.2665         calculate D2E/DX2 analytically  !
 ! A28   A(10,11,13)           118.6083         calculate D2E/DX2 analytically  !
 ! A29   A(12,11,13)           120.2685         calculate D2E/DX2 analytically  !
 ! A30   A(11,12,23)           113.9535         calculate D2E/DX2 analytically  !
 ! A31   A(11,12,24)           113.9821         calculate D2E/DX2 analytically  !
 ! A32   A(23,12,24)           112.3938         calculate D2E/DX2 analytically  !
 ! A33   A(11,13,14)           120.7432         calculate D2E/DX2 analytically  !
 ! A34   A(11,13,25)           120.3138         calculate D2E/DX2 analytically  !
 ! A35   A(14,13,25)           118.9429         calculate D2E/DX2 analytically  !
 ! A36   A(8,14,13)            120.2525         calculate D2E/DX2 analytically  !
 ! A37   A(8,14,26)            120.5221         calculate D2E/DX2 analytically  !
 ! A38   A(13,14,26)           119.2246         calculate D2E/DX2 analytically  !
 ! A39   A(5,15,16)            120.2356         calculate D2E/DX2 analytically  !
 ! A40   A(5,15,27)            120.4998         calculate D2E/DX2 analytically  !
 ! A41   A(16,15,27)           119.2561         calculate D2E/DX2 analytically  !
 ! A42   A(2,16,15)            120.7617         calculate D2E/DX2 analytically  !
 ! A43   A(2,16,28)            120.2627         calculate D2E/DX2 analytically  !
 ! A44   A(15,16,28)           118.9756         calculate D2E/DX2 analytically  !
 ! D1    D(17,1,2,3)          -160.687          calculate D2E/DX2 analytically  !
 ! D2    D(17,1,2,16)           30.0357         calculate D2E/DX2 analytically  !
 ! D3    D(18,1,2,3)           -30.3229         calculate D2E/DX2 analytically  !
 ! D4    D(18,1,2,16)          160.3997         calculate D2E/DX2 analytically  !
 ! D5    D(1,2,3,4)           -174.1891         calculate D2E/DX2 analytically  !
 ! D6    D(1,2,3,19)             5.8152         calculate D2E/DX2 analytically  !
 ! D7    D(16,2,3,4)            -4.7374         calculate D2E/DX2 analytically  !
 ! D8    D(16,2,3,19)          175.2668         calculate D2E/DX2 analytically  !
 ! D9    D(1,2,16,15)          174.1745         calculate D2E/DX2 analytically  !
 ! D10   D(1,2,16,28)           -5.8802         calculate D2E/DX2 analytically  !
 ! D11   D(3,2,16,15)            4.7239         calculate D2E/DX2 analytically  !
 ! D12   D(3,2,16,28)         -175.3307         calculate D2E/DX2 analytically  !
 ! D13   D(2,3,4,5)              2.2901         calculate D2E/DX2 analytically  !
 ! D14   D(2,3,4,20)          -179.086          calculate D2E/DX2 analytically  !
 ! D15   D(19,3,4,5)          -177.7141         calculate D2E/DX2 analytically  !
 ! D16   D(19,3,4,20)            0.9098         calculate D2E/DX2 analytically  !
 ! D17   D(3,4,5,6)            179.6768         calculate D2E/DX2 analytically  !
 ! D18   D(3,4,5,15)             0.2632         calculate D2E/DX2 analytically  !
 ! D19   D(20,4,5,6)             1.0701         calculate D2E/DX2 analytically  !
 ! D20   D(20,4,5,15)         -178.3435         calculate D2E/DX2 analytically  !
 ! D21   D(4,5,6,7)           -104.1903         calculate D2E/DX2 analytically  !
 ! D22   D(15,5,6,7)            75.2134         calculate D2E/DX2 analytically  !
 ! D23   D(4,5,15,16)           -0.2776         calculate D2E/DX2 analytically  !
 ! D24   D(4,5,15,27)          178.6516         calculate D2E/DX2 analytically  !
 ! D25   D(6,5,15,16)         -179.6855         calculate D2E/DX2 analytically  !
 ! D26   D(6,5,15,27)           -0.7563         calculate D2E/DX2 analytically  !
 ! D27   D(5,6,7,8)             81.3006         calculate D2E/DX2 analytically  !
 ! D28   D(6,7,8,9)             82.1087         calculate D2E/DX2 analytically  !
 ! D29   D(6,7,8,14)           -99.3555         calculate D2E/DX2 analytically  !
 ! D30   D(7,8,9,10)           179.8183         calculate D2E/DX2 analytically  !
 ! D31   D(7,8,9,21)             0.5066         calculate D2E/DX2 analytically  !
 ! D32   D(14,8,9,10)            1.2695         calculate D2E/DX2 analytically  !
 ! D33   D(14,8,9,21)         -178.0422         calculate D2E/DX2 analytically  !
 ! D34   D(7,8,14,13)         -179.8753         calculate D2E/DX2 analytically  !
 ! D35   D(7,8,14,26)           -0.1959         calculate D2E/DX2 analytically  !
 ! D36   D(9,8,14,13)           -1.3184         calculate D2E/DX2 analytically  !
 ! D37   D(9,8,14,26)          178.361          calculate D2E/DX2 analytically  !
 ! D38   D(8,9,10,11)            1.881          calculate D2E/DX2 analytically  !
 ! D39   D(8,9,10,22)         -178.1195         calculate D2E/DX2 analytically  !
 ! D40   D(21,9,10,11)        -178.799          calculate D2E/DX2 analytically  !
 ! D41   D(21,9,10,22)           1.2005         calculate D2E/DX2 analytically  !
 ! D42   D(9,10,11,12)        -174.3338         calculate D2E/DX2 analytically  !
 ! D43   D(9,10,11,13)          -4.8998         calculate D2E/DX2 analytically  !
 ! D44   D(22,10,11,12)          5.6667         calculate D2E/DX2 analytically  !
 ! D45   D(22,10,11,13)        175.1007         calculate D2E/DX2 analytically  !
 ! D46   D(10,11,12,23)       -160.8946         calculate D2E/DX2 analytically  !
 ! D47   D(10,11,12,24)        -30.059          calculate D2E/DX2 analytically  !
 ! D48   D(13,11,12,23)         29.8476         calculate D2E/DX2 analytically  !
 ! D49   D(13,11,12,24)        160.6832         calculate D2E/DX2 analytically  !
 ! D50   D(10,11,13,14)          4.8498         calculate D2E/DX2 analytically  !
 ! D51   D(10,11,13,25)       -175.2096         calculate D2E/DX2 analytically  !
 ! D52   D(12,11,13,14)        174.2836         calculate D2E/DX2 analytically  !
 ! D53   D(12,11,13,25)         -5.7758         calculate D2E/DX2 analytically  !
 ! D54   D(11,13,14,8)          -1.7824         calculate D2E/DX2 analytically  !
 ! D55   D(11,13,14,26)        178.534          calculate D2E/DX2 analytically  !
 ! D56   D(25,13,14,8)         178.2761         calculate D2E/DX2 analytically  !
 ! D57   D(25,13,14,26)         -1.4074         calculate D2E/DX2 analytically  !
 ! D58   D(5,15,16,2)           -2.2611         calculate D2E/DX2 analytically  !
 ! D59   D(5,15,16,28)         177.7929         calculate D2E/DX2 analytically  !
 ! D60   D(27,15,16,2)         178.7964         calculate D2E/DX2 analytically  !
 ! D61   D(27,15,16,28)         -1.1496         calculate D2E/DX2 analytically  !
 --------------------------------------------------------------------------------
 Trust Radius=3.00D-01 FncErr=1.00D-07 GrdErr=1.00D-06 EigMax=2.50D+02 EigMin=1.00D-04
 Number of steps in this run=    144 maximum allowed number of steps=    168.
 GradGradGradGradGradGradGradGradGradGradGradGradGradGradGradGradGradGrad

                          Input orientation:                          
 ---------------------------------------------------------------------
 Center     Atomic      Atomic             Coordinates (Angstroms)
 Number     Number       Type             X           Y           Z
 ---------------------------------------------------------------------
      1          7           0        4.270353    1.751448    1.011861
      2          6           0        3.504742    0.710962    0.474741
      3          6           0        2.506073    0.983539   -0.462661
      4          6           0        1.655131   -0.029758   -0.915828
      5          6           0        1.762739   -1.322900   -0.399139
      6         16           0        0.668038   -2.605176   -0.976845
      7         16           0       -0.646681   -2.773044    0.597824
      8          6           0       -1.760614   -1.419555    0.278492
      9          6           0       -2.807348   -1.559250   -0.635146
     10          6           0       -3.678817   -0.491825   -0.876037
     11          6           0       -3.495019    0.738080   -0.240006
     12          7           0       -4.437273    1.760053   -0.395681
     13          6           0       -2.486515    0.850597    0.719522
     14          6           0       -1.612216   -0.212919    0.965939
     15          6           0        2.725127   -1.588549    0.577462
     16          6           0        3.573175   -0.570531    1.025999
     17          1           0        5.144870    1.445477    1.427107
     18          1           0        4.399011    2.535290    0.379660
     19          1           0        2.379529    1.990421   -0.851307
     20          1           0        0.895575    0.206505   -1.657246
     21          1           0       -2.961302   -2.499768   -1.158147
     22          1           0       -4.504976   -0.632309   -1.567924
     23          1           0       -4.085339    2.683771   -0.164793
     24          1           0       -4.921381    1.742498   -1.287663
     25          1           0       -2.369208    1.770108    1.286771
     26          1           0       -0.820669   -0.090072    1.701644
     27          1           0        2.812757   -2.582172    1.009924
     28          1           0        4.290239   -0.790920    1.812330
 ---------------------------------------------------------------------
                    Distance matrix (angstroms):
                    1          2          3          4          5
     1  N    0.000000
     2  C    1.399024   0.000000
     3  C    2.424167   1.396553   0.000000
     4  C    3.705140   2.429693   1.398653   0.000000
     5  C    4.210779   2.816884   2.424096   1.396697   0.000000
     6  S    5.992645   4.598996   4.064681   2.758777   1.782231
     7  S    6.694750   5.421048   5.017609   3.887814   2.983648
     8  C    6.853149   5.683449   4.952654   3.876242   3.589226
     9  C    7.985437   6.799132   5.893044   4.725659   4.582277
    10  C    8.472646   7.407754   6.371847   5.354072   5.525274
    11  C    7.930643   7.036210   6.010235   5.250749   5.649512
    12  N    8.820657   8.058153   6.986953   6.371135   6.924215
    13  C    6.822922   5.997881   5.132364   4.539012   4.902209
    14  C    6.202054   5.222844   4.520256   3.774938   3.806024
    15  C    3.705672   2.430247   2.783069   2.409280   1.396606
    16  C    2.424427   1.396709   2.402072   2.782448   2.423789
    17  H    1.015296   2.033847   3.278393   4.454653   4.736866
    18  H    1.015205   2.033944   2.588562   3.973240   4.737308
    19  H    2.665281   2.159056   1.086678   2.147100   3.400438
    20  H    4.571664   3.406993   2.150469   1.087404   2.161918
    21  H    8.664791   7.401678   6.519917   5.241290   4.927238
    22  H    9.452194   8.374511   7.279242   6.223762   6.413051
    23  H    8.489483   7.868310   6.813679   6.393770   7.092838
    24  H    9.475013   8.670046   7.511573   6.821266   7.406998
    25  H    6.645276   6.023660   5.239043   4.928110   5.429731
    26  H    5.457609   4.566851   4.111455   3.603385   3.550655
    27  H    4.572183   3.407345   3.869995   3.400505   2.161888
    28  H    2.665478   2.159120   3.392276   3.868591   3.400272
                    6          7          8          9         10
     6  S    0.000000
     7  S    2.058215   0.000000
     8  C    2.979920   1.781783   0.000000
     9  C    3.645413   2.768030   1.396389   0.000000
    10  C    4.834415   4.070635   2.423453   1.398886   0.000000
    11  C    5.389930   4.598149   2.816450   2.430381   1.396776
    12  N    6.742194   5.992045   4.210572   3.705640   2.424242
    13  C    4.977071   4.065781   2.423846   2.783060   2.401976
    14  C    3.833649   2.760799   1.396630   2.409236   2.782355
    15  C    2.771464   3.573867   4.498868   5.663882   6.657774
    16  C    4.073203   4.779286   5.452423   6.666937   7.497688
    17  H    6.498369   7.212884   7.563956   8.747517   9.322825
    18  H    6.494972   7.327006   7.320657   8.350252   8.717310
    19  H    4.905555   5.826535   5.481347   6.288925   6.547190
    20  H    2.901770   4.042475   3.666946   4.227791   4.692868
    21  H    3.635395   2.918147   2.161584   1.087109   2.150872
    22  H    5.567913   4.915246   3.400078   2.147378   1.086730
    23  H    7.157303   6.494827   4.736890   4.456200   3.279564
    24  H    7.088053   6.497557   4.737286   3.974476   2.589518
    25  H    5.787222   4.907339   3.400142   3.869155   3.392515
    26  H    3.964379   2.906377   2.162494   3.400877   3.869736
    27  H    2.923627   3.489122   4.775185   5.944595   7.075799
    28  H    4.918471   5.456832   6.273808   7.546934   8.415618
                   11         12         13         14         15
    11  C    0.000000
    12  N    1.398751   0.000000
    13  C    1.396580   2.424096   0.000000
    14  C    2.429742   3.705073   1.398637   0.000000
    15  C    6.691163   7.966185   5.755938   4.566817   0.000000
    16  C    7.298945   8.462864   6.231643   5.198055   1.398832
    17  H    8.827647   9.759046   7.687171   6.972888   3.972703
    18  H    8.119708   8.904047   7.096771   6.635603   4.455004
    19  H    6.037579   6.835894   5.238805   4.908270   3.869088
    20  H    4.644185   5.695992   4.183589   3.653222   3.400499
    21  H    3.407565   4.572299   3.869885   3.400214   6.014826
    22  H    2.159014   2.664982   3.391991   3.868385   7.602069
    23  H    2.034662   1.015097   2.588200   3.973122   8.073791
    24  H    2.034933   1.015038   3.279155   4.455665   8.546558
    25  H    2.159533   2.666015   1.086754   2.146710   6.142959
    26  H    3.407050   4.571822   2.150457   1.087613   4.010222
    27  H    7.237019   8.567005   6.320643   5.019531   1.087194
    28  H    8.195130   9.356935   7.057847   5.990780   2.147251
                   16         17         18         19         20
    16  C    0.000000
    17  H    2.587548   0.000000
    18  H    3.278092   1.685569   0.000000
    19  H    3.392277   3.624258   2.427029   0.000000
    20  H    3.869513   5.394886   4.674002   2.456423   0.000000
    21  H    7.154847   9.378621   9.049357   6.984298   4.737986
    22  H    8.484620  10.315373   9.649235   7.401935   5.466034
    23  H    8.406028   9.447977   8.503097   6.538084   5.759667
    24  H    9.102782  10.430130   9.501484   7.318139   6.027674
    25  H    6.392066   7.522396   6.871473   5.212525   4.665930
    26  H    4.471375   6.166112   5.990428   4.592088   3.783595
    27  H    2.150626   4.672767   5.394614   4.955852   4.308840
    28  H    1.086769   2.424925   3.623264   4.299026   4.955457
                   21         22         23         24         25
    21  H    0.000000
    22  H    2.457285   0.000000
    23  H    5.396229   3.625087   0.000000
    24  H    4.674988   2.427272   1.686950   0.000000
    25  H    4.955809   4.299115   2.426298   3.625199   0.000000
    26  H    4.308985   4.955624   4.672886   5.395380   2.455680
    27  H    6.168232   7.999780   8.757502   9.154157   6.772869
    28  H    8.020520   9.423750   9.280775  10.044009   7.154251
                   26         27         28
    26  H    0.000000
    27  H    4.459913   0.000000
    28  H    5.159924   2.456704   0.000000
 Stoichiometry    C12H12N2S2
 Framework group  C1[X(C12H12N2S2)]
 Deg. of freedom    78
 Full point group                 C1      NOp   1
 Largest Abelian subgroup         C1      NOp   1
 Largest concise Abelian subgroup C1      NOp   1
                         Standard orientation:                         
 ---------------------------------------------------------------------
 Center     Atomic      Atomic             Coordinates (Angstroms)
 Number     Number       Type             X           Y           Z
 ---------------------------------------------------------------------
      1          7           0       -4.367079    2.383262   -0.356735
      2          6           0       -3.548049    1.308940    0.006984
      3          6           0       -2.463814    1.509337    0.864094
      4          6           0       -1.568183    0.470775    1.138805
      5          6           0       -1.719996   -0.771971    0.519693
      6         16           0       -0.568414   -2.086363    0.869804
      7         16           0        0.586944   -2.094461   -0.833526
      8          6           0        1.720715   -0.760511   -0.502030
      9          6           0        2.852295   -0.967903    0.289435
     10          6           0        3.738373    0.085005    0.540698
     11          6           0        3.487865    1.364580    0.039782
     12          7           0        4.436268    2.380827    0.195599
     13          6           0        2.389970    1.549541   -0.803337
     14          6           0        1.500519    0.500986   -1.059447
     15          6           0       -2.771983   -0.961461   -0.379154
     16          6           0       -3.664303    0.081424   -0.649128
     17          1           0       -5.276605    2.104296   -0.711371
     18          1           0       -4.436853    3.105292    0.353508
     19          1           0       -2.304389    2.478775    1.328468
     20          1           0       -0.740897    0.649461    1.821532
     21          1           0        3.060776   -1.949520    0.707489
     22          1           0        4.628779   -0.106157    1.133670
     23          1           0        4.059363    3.316814    0.084725
     24          1           0        5.005260    2.289549    1.031194
     25          1           0        2.213732    2.514705   -1.270705
     26          1           0        0.640357    0.678984   -1.700805
     27          1           0       -2.897019   -1.913238   -0.889522
     28          1           0       -4.453758   -0.076849   -1.379045
 ---------------------------------------------------------------------
 Rotational constants (GHZ):           0.6664454           0.2609001           0.2071368
 Standard basis: 6-31G(d,p) (6D, 7F)
 There are   308 symmetry adapted cartesian basis functions of A   symmetry.
 There are   308 symmetry adapted basis functions of A   symmetry.
   308 basis functions,   580 primitive gaussians,   308 cartesian basis functions
    65 alpha electrons       65 beta electrons
       nuclear repulsion energy      1234.6330784734 Hartrees.
 NAtoms=   28 NActive=   28 NUniq=   28 SFac= 1.00D+00 NAtFMM=   60 NAOKFM=F Big=F
 Integral buffers will be    131072 words long.
 Raffenetti 2 integral format.
 Two-electron integral symmetry is turned on.
 Force inversion solution in PCM.
 ------------------------------------------------------------------------------
 Polarizable Continuum Model (PCM)
 =================================
 Model                : PCM.
 Atomic radii         : UFF (Universal Force Field).
 Polarization charges : Total charges.
 Charge compensation  : None.
 Solution method      : Matrix inversion.
 Cavity type          : Scaled VdW (van der Waals Surface) (Alpha=1.100).
 Cavity algorithm     : GePol (No added spheres)
                        Default sphere list used, NSphG=   28.
                        Lebedev-Laikov grids with approx.  5.0 points / Ang**2.
                        Smoothing algorithm: York/Karplus (Gamma=1.0000).
                        Polarization charges: spherical gaussians, with
                                              point-specific exponents (IZeta= 3).
                        Self-potential: point-specific (ISelfS= 7).
                        Self-field    : sphere-specific E.n sum rule (ISelfD= 2).
 1st derivatives      : Analytical E(r).r(x)/FMM algorithm (CHGder, D1EAlg=3).
                        Cavity 1st derivative terms included.
 2nd derivatives      : Analytical E(r).r(xy)/FMM algorithm (CHGder, D2EAlg=3).
                        Cavity 2nd derivative terms included.
 Solvent              : Water, Eps=  78.355300 Eps(inf)=   1.777849
 ------------------------------------------------------------------------------
 One-electron integrals computed using PRISM.
 NBasis=   308 RedAO= T EigKep=  4.70D-04  NBF=   308
 NBsUse=   308 1.00D-06 EigRej= -1.00D+00 NBFU=   308
 ExpMin= 1.17D-01 ExpMax= 2.19D+04 ExpMxC= 3.30D+03 IAcc=3 IRadAn=         5 AccDes= 0.00D+00
 Harris functional with IExCor=  402 and IRadAn=       5 diagonalized for initial guess.
 HarFok:  IExCor=  402 AccDes= 0.00D+00 IRadAn=         5 IDoV= 1 UseB2=F ITyADJ=14
 ICtDFT=  3500011 ScaDFX=  1.000000  1.000000  1.000000  1.000000
 FoFCou: FMM=F IPFlag=           0 FMFlag=      100000 FMFlg1=           0
         NFxFlg=           0 DoJE=T BraDBF=F KetDBF=T FulRan=T
         wScrn=  0.000000 ICntrl=       500 IOpCl=  0 I1Cent=   200000004 NGrid=           0
         NMat0=    1 NMatS0=      1 NMatT0=    0 NMatD0=    1 NMtDS0=    0 NMtDT0=    0
 Petite list used in FoFCou.
 Requested convergence on RMS density matrix=1.00D-08 within  32 cycles.
 Requested convergence on MAX density matrix=1.00D-06.
 Requested convergence on             energy=1.00D-06.
 No special actions if energy rises.
 Inv3:  Mode=1 IEnd=    18081075.
 Iteration    1 A*A^-1 deviation from unit magnitude is 4.33D-15 for   1132.
 Iteration    1 A*A^-1 deviation from orthogonality  is 1.42D-15 for   2361   1696.
 Iteration    1 A^-1*A deviation from unit magnitude is 4.33D-15 for   1132.
 Iteration    1 A^-1*A deviation from orthogonality  is 9.77D-15 for   2303   1921.
 Error on total polarization charges =  0.01226
 SCF Done:  E(RB3LYP) =  -1370.42422722     A.U. after   13 cycles
            NFock= 13  Conv=0.34D-08     -V/T= 2.0059
 QCSCF skips out because SCF is already converged.
 DoSCS=F DFT=T ScalE2(SS,OS)=  1.000000  1.000000
 Range of M.O.s used for correlation:     1   308
 NBasis=   308 NAE=    65 NBE=    65 NFC=     0 NFV=     0
 NROrb=    308 NOA=    65 NOB=    65 NVA=   243 NVB=   243
 Symmetrizing basis deriv contribution to polar:
 IMax=3 JMax=2 DiffMx= 0.00D+00
 G2DrvN: will do    29 centers at a time, making    1 passes.
 Calling FoFCou, ICntrl=  3107 FMM=F I1Cent=   0 AccDes= 0.00D+00.
 NEqPCM:  Using equilibrium solvation (IEInf=0, Eps=  78.3553, EpsInf=   1.7778)
 G2PCM: DoFxE=T DoFxN=T DoGrad=T DoDP/DQ/DG/TGxP=FFFF NFrqRd=   0 IEInf=0 SqF1=F DoCFld=F IF1Alg=4.
 End of G2Drv F.D. properties file   721 does not exist.
 End of G2Drv F.D. properties file   722 does not exist.
 End of G2Drv F.D. properties file   788 does not exist.
          IDoAtm=1111111111111111111111111111
 NEqPCM:  Using equilibrium solvation (IEInf=0, Eps=  78.3553, EpsInf=   1.7778)
          Differentiating once with respect to nuclear coordinates.
 CalDSu exits because no D1Ps are significant.
          There are    87 degrees of freedom in the 1st order CPHF.  IDoFFX=6 NUNeed=     0.
     81 vectors produced by pass  0 Test12= 1.82D-14 1.15D-09 XBig12= 1.19D-01 7.32D-02.
 AX will form    81 AO Fock derivatives at one time.
     81 vectors produced by pass  1 Test12= 1.82D-14 1.15D-09 XBig12= 1.56D-02 2.25D-02.
     81 vectors produced by pass  2 Test12= 1.82D-14 1.15D-09 XBig12= 1.62D-04 1.47D-03.
     81 vectors produced by pass  3 Test12= 1.82D-14 1.15D-09 XBig12= 9.30D-07 9.41D-05.
     81 vectors produced by pass  4 Test12= 1.82D-14 1.15D-09 XBig12= 1.29D-09 3.91D-06.
     64 vectors produced by pass  5 Test12= 1.82D-14 1.15D-09 XBig12= 1.53D-12 9.29D-08.
     17 vectors produced by pass  6 Test12= 1.82D-14 1.15D-09 XBig12= 1.79D-15 3.79D-09.
 InvSVY:  IOpt=1 It=  1 EMax= 4.44D-16
 Solved reduced A of dimension   486 with    87 vectors.
 End of Minotr F.D. properties file   721 does not exist.
 End of Minotr F.D. properties file   722 does not exist.
 End of Minotr F.D. properties file   788 does not exist.

 **********************************************************************

            Population analysis using the SCF density.

 **********************************************************************

 Orbital symmetries:
       Occupied  (A) (A) (A) (A) (A) (A) (A) (A) (A) (A) (A) (A)
                 (A) (A) (A) (A) (A) (A) (A) (A) (A) (A) (A) (A)
                 (A) (A) (A) (A) (A) (A) (A) (A) (A) (A) (A) (A)
                 (A) (A) (A) (A) (A) (A) (A) (A) (A) (A) (A) (A)
                 (A) (A) (A) (A) (A) (A) (A) (A) (A) (A) (A) (A)
                 (A) (A) (A) (A) (A)
       Virtual   (A) (A) (A) (A) (A) (A) (A) (A) (A) (A) (A) (A)
                 (A) (A) (A) (A) (A) (A) (A) (A) (A) (A) (A) (A)
                 (A) (A) (A) (A) (A) (A) (A) (A) (A) (A) (A) (A)
                 (A) (A) (A) (A) (A) (A) (A) (A) (A) (A) (A) (A)
                 (A) (A) (A) (A) (A) (A) (A) (A) (A) (A) (A) (A)
                 (A) (A) (A) (A) (A) (A) (A) (A) (A) (A) (A) (A)
                 (A) (A) (A) (A) (A) (A) (A) (A) (A) (A) (A) (A)
                 (A) (A) (A) (A) (A) (A) (A) (A) (A) (A) (A) (A)
                 (A) (A) (A) (A) (A) (A) (A) (A) (A) (A) (A) (A)
                 (A) (A) (A) (A) (A) (A) (A) (A) (A) (A) (A) (A)
                 (A) (A) (A) (A) (A) (A) (A) (A) (A) (A) (A) (A)
                 (A) (A) (A) (A) (A) (A) (A) (A) (A) (A) (A) (A)
                 (A) (A) (A) (A) (A) (A) (A) (A) (A) (A) (A) (A)
                 (A) (A) (A) (A) (A) (A) (A) (A) (A) (A) (A) (A)
                 (A) (A) (A) (A) (A) (A) (A) (A) (A) (A) (A) (A)
                 (A) (A) (A) (A) (A) (A) (A) (A) (A) (A) (A) (A)
                 (A) (A) (A) (A) (A) (A) (A) (A) (A) (A) (A) (A)
                 (A) (A) (A) (A) (A) (A) (A) (A) (A) (A) (A) (A)
                 (A) (A) (A) (A) (A) (A) (A) (A) (A) (A) (A) (A)
                 (A) (A) (A) (A) (A) (A) (A) (A) (A) (A) (A) (A)
                 (A) (A) (A)
 The electronic state is 1-A.
 Alpha  occ. eigenvalues --  -88.89258 -88.89236 -14.34254 -14.34239 -10.23495
 Alpha  occ. eigenvalues --  -10.23466 -10.21167 -10.21148 -10.19899 -10.19897
 Alpha  occ. eigenvalues --  -10.19891 -10.19883 -10.18975 -10.18962 -10.18890
 Alpha  occ. eigenvalues --  -10.18882  -7.95406  -7.95390  -5.91955  -5.91931
 Alpha  occ. eigenvalues --   -5.91528  -5.91510  -5.90837  -5.90822  -0.92036
 Alpha  occ. eigenvalues --   -0.92020  -0.85987  -0.84772  -0.80307  -0.75169
 Alpha  occ. eigenvalues --   -0.74988  -0.74946  -0.71097  -0.65100  -0.62018
 Alpha  occ. eigenvalues --   -0.61981  -0.59221  -0.57391  -0.52227  -0.51625
 Alpha  occ. eigenvalues --   -0.50947  -0.50919  -0.47252  -0.45336  -0.43796
 Alpha  occ. eigenvalues --   -0.43657  -0.43435  -0.42473  -0.42047  -0.41933
 Alpha  occ. eigenvalues --   -0.40185  -0.38965  -0.37351  -0.35989  -0.35333
 Alpha  occ. eigenvalues --   -0.34978  -0.34724  -0.31805  -0.30240  -0.25858
 Alpha  occ. eigenvalues --   -0.25542  -0.25215  -0.24167  -0.21832  -0.20444
 Alpha virt. eigenvalues --   -0.04311  -0.01182  -0.00546   0.00665   0.03185
 Alpha virt. eigenvalues --    0.04692   0.05465   0.09365   0.09499   0.11826
 Alpha virt. eigenvalues --    0.12737   0.12955   0.12990   0.15337   0.15667
 Alpha virt. eigenvalues --    0.16899   0.16963   0.17582   0.18489   0.19789
 Alpha virt. eigenvalues --    0.19989   0.23456   0.24925   0.26208   0.28295
 Alpha virt. eigenvalues --    0.28452   0.29295   0.32101   0.32987   0.33228
 Alpha virt. eigenvalues --    0.33474   0.33689   0.35448   0.37178   0.38523
 Alpha virt. eigenvalues --    0.39455   0.41003   0.41735   0.45111   0.45738
 Alpha virt. eigenvalues --    0.48293   0.50878   0.52753   0.53358   0.54310
 Alpha virt. eigenvalues --    0.54768   0.55227   0.56010   0.57170   0.58184
 Alpha virt. eigenvalues --    0.58263   0.59091   0.59220   0.59345   0.59412
 Alpha virt. eigenvalues --    0.59745   0.59997   0.60681   0.61581   0.62137
 Alpha virt. eigenvalues --    0.62670   0.63457   0.65479   0.66622   0.69348
 Alpha virt. eigenvalues --    0.69570   0.71124   0.71213   0.74153   0.75478
 Alpha virt. eigenvalues --    0.77177   0.77992   0.80125   0.81645   0.81722
 Alpha virt. eigenvalues --    0.82054   0.82322   0.83711   0.84296   0.84499
 Alpha virt. eigenvalues --    0.85357   0.85526   0.85704   0.86382   0.88035
 Alpha virt. eigenvalues --    0.88409   0.88558   0.89402   0.89681   0.90069
 Alpha virt. eigenvalues --    0.92383   0.92803   0.93481   0.94201   0.95996
 Alpha virt. eigenvalues --    0.98231   1.00009   1.01260   1.01911   1.02412
 Alpha virt. eigenvalues --    1.03527   1.06582   1.06871   1.07645   1.14613
 Alpha virt. eigenvalues --    1.15014   1.15284   1.15798   1.19026   1.20457
 Alpha virt. eigenvalues --    1.22642   1.26270   1.26621   1.28014   1.29247
 Alpha virt. eigenvalues --    1.31759   1.32864   1.35352   1.36716   1.38739
 Alpha virt. eigenvalues --    1.39549   1.39677   1.40210   1.40764   1.41036
 Alpha virt. eigenvalues --    1.44515   1.45688   1.51226   1.52022   1.53888
 Alpha virt. eigenvalues --    1.56844   1.73789   1.73919   1.75464   1.76558
 Alpha virt. eigenvalues --    1.77681   1.78239   1.79516   1.80472   1.81217
 Alpha virt. eigenvalues --    1.81513   1.86267   1.86598   1.92002   1.92495
 Alpha virt. eigenvalues --    1.93760   1.94371   1.95840   1.96924   1.97489
 Alpha virt. eigenvalues --    1.98177   1.99712   2.01646   2.03164   2.03571
 Alpha virt. eigenvalues --    2.07275   2.07646   2.08534   2.10286   2.12354
 Alpha virt. eigenvalues --    2.12488   2.16444   2.16526   2.23742   2.24026
 Alpha virt. eigenvalues --    2.26117   2.26302   2.29957   2.30137   2.32772
 Alpha virt. eigenvalues --    2.33087   2.35122   2.35264   2.40340   2.40713
 Alpha virt. eigenvalues --    2.40819   2.40894   2.44293   2.45228   2.45978
 Alpha virt. eigenvalues --    2.46059   2.46309   2.46539   2.47969   2.48147
 Alpha virt. eigenvalues --    2.51689   2.52025   2.55301   2.56366   2.58500
 Alpha virt. eigenvalues --    2.58597   2.58982   2.59123   2.64753   2.64904
 Alpha virt. eigenvalues --    2.68756   2.68847   2.73255   2.74120   2.74728
 Alpha virt. eigenvalues --    2.74888   2.75415   2.75477   2.85411   2.85483
 Alpha virt. eigenvalues --    2.97816   2.97909   2.98941   2.99144   3.04922
 Alpha virt. eigenvalues --    3.05332   3.17452   3.18438   3.24434   3.24623
 Alpha virt. eigenvalues --    3.27825   3.27868   3.27952   3.28003   3.35897
 Alpha virt. eigenvalues --    3.36229   3.48068   3.48299   3.52697   3.52964
 Alpha virt. eigenvalues --    3.76273   3.78892   3.89499   4.02243   4.03383
 Alpha virt. eigenvalues --    4.03717   4.12748   4.13410   4.14740   4.15929
 Alpha virt. eigenvalues --    4.17495   4.20510   4.41127   4.42247   4.42551
 Alpha virt. eigenvalues --    4.44481   4.79050   4.79494
          Condensed to atoms (all electrons):
               1          2          3          4          5          6
     1  N    6.818428   0.302308  -0.070294   0.004470   0.000585   0.000011
     2  C    0.302308   4.572095   0.533297  -0.016884  -0.034910   0.000671
     3  C   -0.070294   0.533297   4.938816   0.523134  -0.046792   0.004669
     4  C    0.004470  -0.016884   0.523134   4.846526   0.517110  -0.058943
     5  C    0.000585  -0.034910  -0.046792   0.517110   5.130707   0.245294
     6  S    0.000011   0.000671   0.004669  -0.058943   0.245294  15.880427
     7  S   -0.000000   0.000124  -0.000452  -0.003689  -0.050190   0.081771
     8  C    0.000000  -0.000003  -0.000015   0.001541  -0.001546  -0.049126
     9  C   -0.000000  -0.000000   0.000002   0.000115  -0.000213  -0.004576
    10  C    0.000000  -0.000000   0.000000  -0.000002   0.000014  -0.000463
    11  C   -0.000000   0.000000  -0.000000  -0.000026  -0.000004   0.000009
    12  N    0.000000  -0.000000  -0.000000   0.000000   0.000000  -0.000001
    13  C   -0.000000   0.000000  -0.000048  -0.000107  -0.000018  -0.000290
    14  C    0.000000  -0.000034  -0.000112   0.002258   0.001892  -0.005391
    15  C    0.004488  -0.016427  -0.041625  -0.026644   0.508586  -0.066527
    16  C   -0.069898   0.529682  -0.053470  -0.041202  -0.044485   0.005365
    17  H    0.343543  -0.024466   0.005478  -0.000185   0.000011  -0.000000
    18  H    0.343664  -0.024348  -0.009101  -0.000051   0.000006  -0.000000
    19  H   -0.007371  -0.043409   0.368618  -0.036213   0.005126  -0.000262
    20  H   -0.000112   0.003885  -0.034521   0.373182  -0.047369  -0.000716
    21  H   -0.000000   0.000000   0.000000  -0.000000   0.000014   0.001018
    22  H   -0.000000   0.000000   0.000000  -0.000000  -0.000000   0.000020
    23  H    0.000000  -0.000000  -0.000000   0.000000   0.000000  -0.000000
    24  H    0.000000  -0.000000   0.000000   0.000000   0.000000  -0.000000
    25  H    0.000000   0.000000   0.000002  -0.000003  -0.000000   0.000009
    26  H   -0.000001   0.000012   0.000156   0.000310   0.000188  -0.000223
    27  H   -0.000112   0.003817   0.000705   0.004484  -0.047467  -0.003465
    28  H   -0.007354  -0.043114   0.005151   0.000465   0.004959  -0.000255
               7          8          9         10         11         12
     1  N   -0.000000   0.000000  -0.000000   0.000000  -0.000000   0.000000
     2  C    0.000124  -0.000003  -0.000000  -0.000000   0.000000  -0.000000
     3  C   -0.000452  -0.000015   0.000002   0.000000  -0.000000  -0.000000
     4  C   -0.003689   0.001541   0.000115  -0.000002  -0.000026   0.000000
     5  C   -0.050190  -0.001546  -0.000213   0.000014  -0.000004   0.000000
     6  S    0.081771  -0.049126  -0.004576  -0.000463   0.000009  -0.000001
     7  S   15.879716   0.247841  -0.066443   0.005562   0.000372   0.000007
     8  C    0.247841   5.131158   0.509468  -0.044242  -0.035849   0.000515
     9  C   -0.066443   0.509468   4.860355   0.523460  -0.016033   0.004488
    10  C    0.005562  -0.044242   0.523460   4.937056   0.529875  -0.069991
    11  C    0.000372  -0.035849  -0.016033   0.529875   4.570211   0.303127
    12  N    0.000007   0.000515   0.004488  -0.069991   0.303127   6.817670
    13  C    0.005006  -0.046251  -0.041799  -0.053380   0.532781  -0.070371
    14  C   -0.061239   0.514661  -0.026506  -0.041595  -0.016183   0.004503
    15  C   -0.005091  -0.000330  -0.000001   0.000000   0.000000  -0.000000
    16  C   -0.000704   0.000012   0.000000   0.000000   0.000000   0.000000
    17  H    0.000000   0.000000  -0.000000  -0.000000   0.000000  -0.000000
    18  H    0.000000  -0.000000  -0.000000  -0.000000   0.000000  -0.000000
    19  H    0.000005  -0.000000  -0.000000  -0.000000  -0.000000   0.000000
    20  H   -0.000061   0.000086   0.000107   0.000007   0.000020  -0.000000
    21  H   -0.002564  -0.047562   0.374714  -0.034763   0.003898  -0.000110
    22  H   -0.000255   0.005040  -0.035857   0.368432  -0.043252  -0.007333
    23  H   -0.000001  -0.000001  -0.000177   0.005415  -0.024247   0.343774
    24  H   -0.000001  -0.000002  -0.000051  -0.009128  -0.024192   0.343674
    25  H   -0.000242   0.005170   0.000435   0.005172  -0.043382  -0.007377
    26  H   -0.001305  -0.047176   0.004608   0.000659   0.003932  -0.000110
    27  H    0.001833   0.000014   0.000000  -0.000000   0.000000  -0.000000
    28  H    0.000018  -0.000000   0.000000  -0.000000  -0.000000  -0.000000
              13         14         15         16         17         18
     1  N   -0.000000   0.000000   0.004488  -0.069898   0.343543   0.343664
     2  C    0.000000  -0.000034  -0.016427   0.529682  -0.024466  -0.024348
     3  C   -0.000048  -0.000112  -0.041625  -0.053470   0.005478  -0.009101
     4  C   -0.000107   0.002258  -0.026644  -0.041202  -0.000185  -0.000051
     5  C   -0.000018   0.001892   0.508586  -0.044485   0.000011   0.000006
     6  S   -0.000290  -0.005391  -0.066527   0.005365  -0.000000  -0.000000
     7  S    0.005006  -0.061239  -0.005091  -0.000704   0.000000   0.000000
     8  C   -0.046251   0.514661  -0.000330   0.000012   0.000000  -0.000000
     9  C   -0.041799  -0.026506  -0.000001   0.000000  -0.000000  -0.000000
    10  C   -0.053380  -0.041595   0.000000   0.000000  -0.000000  -0.000000
    11  C    0.532781  -0.016183   0.000000   0.000000   0.000000   0.000000
    12  N   -0.070371   0.004503  -0.000000   0.000000  -0.000000  -0.000000
    13  C    4.939238   0.522816   0.000002  -0.000000   0.000000   0.000000
    14  C    0.522816   4.850237   0.000136  -0.000014  -0.000000  -0.000000
    15  C    0.000002   0.000136   4.861445   0.523685  -0.000048  -0.000181
    16  C   -0.000000  -0.000014   0.523685   4.936701  -0.009032   0.005463
    17  H    0.000000  -0.000000  -0.000048  -0.009032   0.426122  -0.027946
    18  H    0.000000  -0.000000  -0.000181   0.005463  -0.027946   0.425961
    19  H    0.000002  -0.000002   0.000441   0.005184  -0.000048   0.004413
    20  H    0.000123   0.000333   0.004639   0.000666   0.000003  -0.000006
    21  H    0.000680   0.004532   0.000000  -0.000000  -0.000000   0.000000
    22  H    0.005166   0.000443  -0.000000  -0.000000   0.000000   0.000000
    23  H   -0.009113  -0.000045   0.000000   0.000000  -0.000000  -0.000000
    24  H    0.005414  -0.000176   0.000000   0.000000  -0.000000  -0.000000
    25  H    0.368570  -0.036068  -0.000000  -0.000000   0.000000  -0.000000
    26  H   -0.034577   0.373456   0.000252   0.000062   0.000000   0.000000
    27  H    0.000000   0.000000   0.374739  -0.034607  -0.000006   0.000003
    28  H    0.000000  -0.000000  -0.035955   0.368484   0.004503  -0.000044
              19         20         21         22         23         24
     1  N   -0.007371  -0.000112  -0.000000  -0.000000   0.000000   0.000000
     2  C   -0.043409   0.003885   0.000000   0.000000  -0.000000  -0.000000
     3  C    0.368618  -0.034521   0.000000   0.000000  -0.000000   0.000000
     4  C   -0.036213   0.373182  -0.000000  -0.000000   0.000000   0.000000
     5  C    0.005126  -0.047369   0.000014  -0.000000   0.000000   0.000000
     6  S   -0.000262  -0.000716   0.001018   0.000020  -0.000000  -0.000000
     7  S    0.000005  -0.000061  -0.002564  -0.000255  -0.000001  -0.000001
     8  C   -0.000000   0.000086  -0.047562   0.005040  -0.000001  -0.000002
     9  C   -0.000000   0.000107   0.374714  -0.035857  -0.000177  -0.000051
    10  C   -0.000000   0.000007  -0.034763   0.368432   0.005415  -0.009128
    11  C   -0.000000   0.000020   0.003898  -0.043252  -0.024247  -0.024192
    12  N    0.000000  -0.000000  -0.000110  -0.007333   0.343774   0.343674
    13  C    0.000002   0.000123   0.000680   0.005166  -0.009113   0.005414
    14  C   -0.000002   0.000333   0.004532   0.000443  -0.000045  -0.000176
    15  C    0.000441   0.004639   0.000000  -0.000000   0.000000   0.000000
    16  C    0.005184   0.000666  -0.000000  -0.000000   0.000000   0.000000
    17  H   -0.000048   0.000003  -0.000000   0.000000  -0.000000  -0.000000
    18  H    0.004413  -0.000006   0.000000   0.000000  -0.000000  -0.000000
    19  H    0.606951  -0.006360  -0.000000  -0.000000  -0.000000  -0.000000
    20  H   -0.006360   0.594197   0.000002   0.000000  -0.000000  -0.000000
    21  H   -0.000000   0.000002   0.594353  -0.006301   0.000003  -0.000005
    22  H   -0.000000   0.000000  -0.006301   0.605767  -0.000048   0.004418
    23  H   -0.000000  -0.000000   0.000003  -0.000048   0.425434  -0.027863
    24  H   -0.000000  -0.000000  -0.000005   0.004418  -0.027863   0.425584
    25  H   -0.000000   0.000000   0.000014  -0.000181   0.004468  -0.000043
    26  H    0.000001   0.000004  -0.000168   0.000014  -0.000005   0.000003
    27  H    0.000014  -0.000169   0.000000   0.000000   0.000000  -0.000000
    28  H   -0.000181   0.000014   0.000000   0.000000   0.000000  -0.000000
              25         26         27         28
     1  N    0.000000  -0.000001  -0.000112  -0.007354
     2  C    0.000000   0.000012   0.003817  -0.043114
     3  C    0.000002   0.000156   0.000705   0.005151
     4  C   -0.000003   0.000310   0.004484   0.000465
     5  C   -0.000000   0.000188  -0.047467   0.004959
     6  S    0.000009  -0.000223  -0.003465  -0.000255
     7  S   -0.000242  -0.001305   0.001833   0.000018
     8  C    0.005170  -0.047176   0.000014  -0.000000
     9  C    0.000435   0.004608   0.000000   0.000000
    10  C    0.005172   0.000659  -0.000000  -0.000000
    11  C   -0.043382   0.003932   0.000000  -0.000000
    12  N   -0.007377  -0.000110  -0.000000  -0.000000
    13  C    0.368570  -0.034577   0.000000   0.000000
    14  C   -0.036068   0.373456   0.000000  -0.000000
    15  C   -0.000000   0.000252   0.374739  -0.035955
    16  C   -0.000000   0.000062  -0.034607   0.368484
    17  H    0.000000   0.000000  -0.000006   0.004503
    18  H   -0.000000   0.000000   0.000003  -0.000044
    19  H   -0.000000   0.000001   0.000014  -0.000181
    20  H    0.000000   0.000004  -0.000169   0.000014
    21  H    0.000014  -0.000168   0.000000   0.000000
    22  H   -0.000181   0.000014   0.000000   0.000000
    23  H    0.004468  -0.000005   0.000000   0.000000
    24  H   -0.000043   0.000003  -0.000000  -0.000000
    25  H    0.606438  -0.006392  -0.000000  -0.000000
    26  H   -0.006392   0.593516   0.000006   0.000000
    27  H   -0.000000   0.000006   0.594221  -0.006238
    28  H   -0.000000   0.000000  -0.006238   0.605506
 Mulliken charges:
               1
     1  N   -0.662354
     2  C    0.257704
     3  C   -0.123596
     4  C   -0.089646
     5  C   -0.141498
     6  S   -0.029028
     7  S   -0.030020
     8  C   -0.143403
     9  C   -0.086096
    10  C   -0.122086
    11  C    0.258941
    12  N   -0.662465
    13  C   -0.123845
    14  C   -0.087902
    15  C   -0.085588
    16  C   -0.121892
    17  H    0.282070
    18  H    0.282166
    19  H    0.103092
    20  H    0.112046
    21  H    0.112245
    22  H    0.103928
    23  H    0.282404
    24  H    0.282369
    25  H    0.103410
    26  H    0.112779
    27  H    0.112228
    28  H    0.104040
 Sum of Mulliken charges =  -0.00000
 Mulliken charges with hydrogens summed into heavy atoms:
               1
     1  N   -0.098118
     2  C    0.257704
     3  C   -0.020504
     4  C    0.022400
     5  C   -0.141498
     6  S   -0.029028
     7  S   -0.030020
     8  C   -0.143403
     9  C    0.026149
    10  C   -0.018159
    11  C    0.258941
    12  N   -0.097693
    13  C   -0.020434
    14  C    0.024877
    15  C    0.026639
    16  C   -0.017853
 APT charges:
               1
     1  N   -1.610111
     2  C    0.244771
     3  C   -0.429062
     4  C   -0.607459
     5  C   -0.400051
     6  S   -0.065525
     7  S   -0.061286
     8  C   -0.457652
     9  C   -0.516960
    10  C   -0.452197
    11  C    0.160904
    12  N   -1.148379
    13  C   -0.460769
    14  C   -0.581831
    15  C   -0.553906
    16  C   -0.417701
    17  H    1.070646
    18  H    0.772923
    19  H    0.478287
    20  H    0.237263
    21  H    0.557471
    22  H    0.801894
    23  H    0.550904
    24  H    0.899450
    25  H    0.481032
    26  H    0.228958
    27  H    0.523198
    28  H    0.755185
 Sum of APT charges =  -0.00000
 APT charges with hydrogens summed into heavy atoms:
               1
     1  N    0.233458
     2  C    0.244771
     3  C    0.049224
     4  C   -0.370196
     5  C   -0.400051
     6  S   -0.065525
     7  S   -0.061286
     8  C   -0.457652
     9  C    0.040511
    10  C    0.349697
    11  C    0.160904
    12  N    0.301975
    13  C    0.020263
    14  C   -0.352872
    15  C   -0.030707
    16  C    0.337485
 Electronic spatial extent (au):  <R**2>=           5194.9459
 Charge=              0.0000 electrons
 Dipole moment (field-independent basis, Debye):
    X=             -1.3413    Y=              6.7397    Z=              1.8087  Tot=              7.1059
 Quadrupole moment (field-independent basis, Debye-Ang):
   XX=            -73.8141   YY=            -98.5035   ZZ=           -107.8219
   XY=             -0.8607   XZ=             10.9483   YZ=              5.9784
 Traceless Quadrupole moment (field-independent basis, Debye-Ang):
   XX=             19.5657   YY=             -5.1236   ZZ=            -14.4421
   XY=             -0.8607   XZ=             10.9483   YZ=              5.9784
 Octapole moment (field-independent basis, Debye-Ang**2):
  XXX=            -87.7547  YYY=             83.4837  ZZZ=              2.2270  XYY=              8.2047
  XXY=             84.3538  XXZ=             37.2902  XZZ=              3.2042  YZZ=             11.2151
  YYZ=             16.3255  XYZ=             -5.0839
 Hexadecapole moment (field-independent basis, Debye-Ang**3):
 XXXX=          -3844.6111 YYYY=          -1590.5327 ZZZZ=           -471.9373 XXXY=           -184.8797
 XXXZ=            354.7689 YYYX=             45.8384 YYYZ=             51.9522 ZZZX=             26.2729
 ZZZY=              9.0661 XXYY=           -805.4826 XXZZ=           -846.4873 YYZZ=           -364.6846
 XXYZ=            113.7804 YYXZ=              7.9584 ZZXY=             14.3494
 N-N= 1.234633078473D+03 E-N=-5.694417440617D+03  KE= 1.362424207103D+03
  Exact polarizability:   0.000   0.000   0.000   0.000   0.000   0.000
 Approx polarizability: 322.009  -3.365 339.518  59.085   1.031 202.206
 D2PCM: PCM CHGder 2nd derivatives, FixD1E=F FixD2E=F DoIter=F DoCFld=F I1PDM=0
 Calling FoFJK, ICntrl=    100147 FMM=F ISym2X=0 I1Cent= 0 IOpClX= 0 NMat=1 NMatS=1 NMatT=0.
 ***** Axes restored to original set *****
 -------------------------------------------------------------------
 Center     Atomic                   Forces (Hartrees/Bohr)
 Number     Number              X              Y              Z
 -------------------------------------------------------------------
      1        7           0.001809434   -0.004454568   -0.005543694
      2        6          -0.002432912    0.014588467    0.014634644
      3        6          -0.008033783   -0.003514228   -0.013389164
      4        6           0.002809839    0.009436086    0.001390942
      5        6           0.000622419   -0.002260047   -0.004652933
      6       16           0.014009331   -0.002570182   -0.011943470
      7       16          -0.013655818   -0.004273939    0.010731728
      8        6          -0.000318746   -0.003610187    0.004254619
      9        6          -0.010128852    0.006346402   -0.003882926
     10        6           0.006020021   -0.015268102   -0.008044832
     11        6          -0.017485343    0.006346699    0.009398406
     12        7           0.006183631   -0.001373199   -0.003604918
     13        6           0.014668046   -0.002454403    0.006064612
     14        6          -0.003424358    0.009747754    0.001048069
     15        6           0.009313885    0.005797886    0.005693562
     16        6          -0.001410082   -0.018176188   -0.000441441
     17        1          -0.001204067    0.003054022   -0.001517988
     18        1           0.001891058   -0.001363541    0.002699125
     19        1           0.001638111    0.000149995   -0.000070941
     20        1           0.000912195   -0.001206951    0.001092441
     21        1           0.000714857    0.000779712    0.000992531
     22        1           0.000215612    0.001440859   -0.000486003
     23        1          -0.002519139   -0.001269130   -0.002253469
     24        1           0.000886312    0.002595616    0.002242216
     25        1          -0.000466408    0.000830793   -0.001370664
     26        1          -0.001211856   -0.001155512   -0.001247175
     27        1          -0.000607289    0.000944614   -0.000919693
     28        1           0.001203900    0.000891272   -0.000873585
 -------------------------------------------------------------------
 Cartesian Forces:  Max     0.018176188 RMS     0.006427745
 FormGI is forming the generalized inverse of G from B-inverse, IUseBI=4.

 GradGradGradGradGradGradGradGradGradGradGradGradGradGradGradGradGradGrad
 Berny optimization.
 Internal  Forces:  Max     0.023801912 RMS     0.004133091
 Search for a local minimum.
 Step number   1 out of a maximum of  144
 All quantities printed in internal units (Hartrees-Bohrs-Radians)
 Mixed Optimization -- RFO/linear search
 Second derivative matrix not updated -- analytic derivatives used.
 ITU=  0
     Eigenvalues ---    0.00356   0.00489   0.00626   0.00629   0.01424
     Eigenvalues ---    0.01478   0.01667   0.01691   0.01733   0.01738
     Eigenvalues ---    0.01827   0.01889   0.02078   0.02095   0.02143
     Eigenvalues ---    0.02147   0.02316   0.02355   0.02366   0.02720
     Eigenvalues ---    0.02742   0.02762   0.02768   0.02934   0.02937
     Eigenvalues ---    0.11256   0.11264   0.11481   0.11495   0.11814
     Eigenvalues ---    0.11818   0.12642   0.12656   0.13478   0.13515
     Eigenvalues ---    0.14370   0.15357   0.15406   0.16381   0.16945
     Eigenvalues ---    0.17336   0.17501   0.18427   0.18623   0.19461
     Eigenvalues ---    0.19471   0.21675   0.21679   0.23205   0.23498
     Eigenvalues ---    0.28298   0.29016   0.31658   0.31779   0.35592
     Eigenvalues ---    0.35594   0.35858   0.35874   0.35890   0.35903
     Eigenvalues ---    0.35954   0.35975   0.38214   0.38470   0.41198
     Eigenvalues ---    0.41240   0.44468   0.44620   0.45547   0.45614
     Eigenvalues ---    0.45982   0.46056   0.46864   0.46952   0.47691
     Eigenvalues ---    0.47711   0.51566   0.51602
 RFO step:  Lambda=-1.05644408D-02 EMin= 3.55720454D-03
 Linear search not attempted -- first point.
 Iteration  1 RMS(Cart)=  0.16180876 RMS(Int)=  0.00166886
 Iteration  2 RMS(Cart)=  0.00585042 RMS(Int)=  0.00035430
 Iteration  3 RMS(Cart)=  0.00001285 RMS(Int)=  0.00035425
 Iteration  4 RMS(Cart)=  0.00000000 RMS(Int)=  0.00035425
 Variable       Old X    -DE/DX   Delta X   Delta X   Delta X     New X
                                 (Linear)    (Quad)   (Total)
    R1        2.64377  -0.00237   0.00000  -0.02447  -0.02447   2.61931
    R2        1.91863  -0.00258   0.00000  -0.00699  -0.00699   1.91164
    R3        1.91846  -0.00250   0.00000  -0.00676  -0.00676   1.91170
    R4        2.63910   0.00914   0.00000   0.02274   0.02279   2.66189
    R5        2.63940   0.01055   0.00000   0.02518   0.02525   2.66464
    R6        2.64307  -0.00502   0.00000  -0.01629  -0.01631   2.62676
    R7        2.05352  -0.00003   0.00000  -0.00028  -0.00028   2.05324
    R8        2.63938   0.00517   0.00000   0.01356   0.01349   2.65287
    R9        2.05490  -0.00164   0.00000  -0.00373  -0.00373   2.05116
   R10        3.36793   0.00617   0.00000   0.00336   0.00336   3.37128
   R11        2.63920   0.00592   0.00000   0.01458   0.01453   2.65373
   R12        3.88946   0.02380   0.00000   0.11924   0.11924   4.00870
   R13        3.36708   0.00599   0.00000   0.00367   0.00367   3.37076
   R14        2.63879   0.00616   0.00000   0.01503   0.01495   2.65374
   R15        2.63925   0.00550   0.00000   0.01420   0.01413   2.65338
   R16        2.64351  -0.00680   0.00000  -0.01961  -0.01962   2.62389
   R17        2.05434  -0.00125   0.00000  -0.00273  -0.00273   2.05161
   R18        2.63952   0.01043   0.00000   0.02491   0.02499   2.66451
   R19        2.05362  -0.00004   0.00000  -0.00035  -0.00035   2.05327
   R20        2.64326  -0.00269   0.00000  -0.02470  -0.02470   2.61855
   R21        2.63915   0.00942   0.00000   0.02311   0.02319   2.66235
   R22        1.91826  -0.00254   0.00000  -0.00667  -0.00667   1.91158
   R23        1.91814  -0.00244   0.00000  -0.00651  -0.00651   1.91164
   R24        2.64304  -0.00519   0.00000  -0.01670  -0.01670   2.62634
   R25        2.05367  -0.00006   0.00000  -0.00039  -0.00039   2.05328
   R26        2.05529  -0.00186   0.00000  -0.00416  -0.00416   2.05113
   R27        2.64341  -0.00683   0.00000  -0.01958  -0.01956   2.62385
   R28        2.05450  -0.00128   0.00000  -0.00282  -0.00282   2.05167
   R29        2.05370  -0.00002   0.00000  -0.00022  -0.00022   2.05347
    A1        1.98696   0.00234   0.00000   0.02971   0.02893   2.01590
    A2        1.98723   0.00234   0.00000   0.02993   0.02915   2.01638
    A3        1.95866  -0.00304   0.00000  -0.00546  -0.00656   1.95211
    A4        2.09888   0.00127   0.00000   0.01002   0.00857   2.10745
    A5        2.09906   0.00075   0.00000   0.00784   0.00639   2.10545
    A6        2.07035  -0.00142   0.00000  -0.00217  -0.00342   2.06693
    A7        2.10731  -0.00059   0.00000  -0.00166  -0.00159   2.10572
    A8        2.09923  -0.00099   0.00000  -0.01266  -0.01269   2.08654
    A9        2.07665   0.00159   0.00000   0.01431   0.01428   2.09093
   A10        2.09906   0.00174   0.00000   0.00891   0.00878   2.10784
   A11        2.08114   0.00003   0.00000   0.00521   0.00516   2.08630
   A12        2.10274  -0.00175   0.00000  -0.01364  -0.01369   2.08905
   A13        2.09312  -0.00023   0.00000   0.00323   0.00316   2.09628
   A14        2.08046  -0.00103   0.00000  -0.00863  -0.00884   2.07162
   A15        2.10956   0.00127   0.00000   0.00565   0.00558   2.11514
   A16        1.77525   0.01903   0.00000   0.05992   0.05992   1.83517
   A17        1.77243   0.01960   0.00000   0.06373   0.06373   1.83616
   A18        2.10587   0.00110   0.00000   0.00637   0.00646   2.11233
   A19        2.09630  -0.00002   0.00000   0.00262   0.00271   2.09901
   A20        2.08074  -0.00108   0.00000  -0.00899  -0.00918   2.07157
   A21        2.09823   0.00191   0.00000   0.00977   0.00964   2.10786
   A22        2.10305  -0.00169   0.00000  -0.01391  -0.01387   2.08919
   A23        2.08184  -0.00021   0.00000   0.00424   0.00429   2.08613
   A24        2.10773  -0.00048   0.00000  -0.00167  -0.00163   2.10610
   A25        2.07670   0.00150   0.00000   0.01485   0.01483   2.09152
   A26        2.09876  -0.00102   0.00000  -0.01318  -0.01320   2.08556
   A27        2.09905   0.00072   0.00000   0.00760   0.00624   2.10528
   A28        2.07010  -0.00129   0.00000  -0.00192  -0.00309   2.06701
   A29        2.09908   0.00115   0.00000   0.00953   0.00818   2.10726
   A30        1.98886   0.00227   0.00000   0.02872   0.02804   2.01690
   A31        1.98936   0.00225   0.00000   0.02819   0.02750   2.01687
   A32        1.96164  -0.00307   0.00000  -0.00700  -0.00796   1.95368
   A33        2.10737  -0.00062   0.00000  -0.00185  -0.00178   2.10559
   A34        2.09987  -0.00109   0.00000  -0.01357  -0.01360   2.08627
   A35        2.07595   0.00171   0.00000   0.01541   0.01538   2.09132
   A36        2.09880   0.00170   0.00000   0.00913   0.00903   2.10784
   A37        2.10351  -0.00180   0.00000  -0.01430  -0.01426   2.08925
   A38        2.08086   0.00010   0.00000   0.00518   0.00523   2.08609
   A39        2.09851   0.00187   0.00000   0.00935   0.00931   2.10782
   A40        2.10312  -0.00163   0.00000  -0.01378  -0.01381   2.08931
   A41        2.08141  -0.00023   0.00000   0.00467   0.00464   2.08605
   A42        2.10769  -0.00042   0.00000  -0.00165  -0.00155   2.10614
   A43        2.09898  -0.00109   0.00000  -0.01326  -0.01332   2.08566
   A44        2.07652   0.00150   0.00000   0.01490   0.01484   2.09136
    D1       -2.80452   0.00173   0.00000   0.02416   0.02403  -2.78048
    D2        0.52422  -0.00182   0.00000  -0.07313  -0.07371   0.45051
    D3       -0.52924   0.00178   0.00000   0.07324   0.07383  -0.45541
    D4        2.79950  -0.00176   0.00000  -0.02404  -0.02392   2.77558
    D5       -3.04017  -0.00151   0.00000  -0.03626  -0.03623  -3.07641
    D6        0.10149  -0.00158   0.00000  -0.03798  -0.03791   0.06358
    D7       -0.08268   0.00220   0.00000   0.06048   0.06041  -0.02228
    D8        3.05898   0.00213   0.00000   0.05877   0.05873   3.11771
    D9        3.03992   0.00187   0.00000   0.04281   0.04265   3.08256
   D10       -0.10263   0.00152   0.00000   0.03713   0.03702  -0.06560
   D11        0.08245  -0.00190   0.00000  -0.05419  -0.05412   0.02833
   D12       -3.06010  -0.00225   0.00000  -0.05986  -0.05974  -3.11984
   D13        0.03997  -0.00110   0.00000  -0.03410  -0.03414   0.00583
   D14       -3.12564  -0.00039   0.00000  -0.01156  -0.01147  -3.13711
   D15       -3.10170  -0.00103   0.00000  -0.03241  -0.03246  -3.13416
   D16        0.01588  -0.00032   0.00000  -0.00987  -0.00979   0.00609
   D17        3.13595   0.00087   0.00000   0.02902   0.02896  -3.11827
   D18        0.00459  -0.00021   0.00000   0.00047   0.00049   0.00508
   D19        0.01868   0.00012   0.00000   0.00593   0.00599   0.02466
   D20       -3.11268  -0.00096   0.00000  -0.02262  -0.02249  -3.13517
   D21       -1.81846   0.00029   0.00000   0.07044   0.07036  -1.74810
   D22        1.31272   0.00137   0.00000   0.09939   0.09947   1.41219
   D23       -0.00484   0.00050   0.00000   0.00578   0.00583   0.00099
   D24        3.11806   0.00089   0.00000   0.02095   0.02090   3.13896
   D25       -3.13610  -0.00058   0.00000  -0.02303  -0.02295   3.12414
   D26       -0.01320  -0.00019   0.00000  -0.00786  -0.00788  -0.02108
   D27        1.41896   0.00080   0.00000   0.02011   0.02011   1.43907
   D28        1.43307   0.00038   0.00000   0.04775   0.04777   1.48083
   D29       -1.73408   0.00048   0.00000   0.04727   0.04726  -1.68682
   D30        3.13842  -0.00004   0.00000  -0.01306  -0.01306   3.12537
   D31        0.00884  -0.00046   0.00000  -0.02246  -0.02240  -0.01356
   D32        0.02216  -0.00015   0.00000  -0.01274  -0.01272   0.00943
   D33       -3.10742  -0.00058   0.00000  -0.02215  -0.02207  -3.12949
   D34       -3.13942   0.00024   0.00000   0.01706   0.01709  -3.12233
   D35       -0.00342   0.00031   0.00000   0.01790   0.01791   0.01449
   D36       -0.02301   0.00037   0.00000   0.01680   0.01682  -0.00619
   D37        3.11299   0.00044   0.00000   0.01764   0.01764   3.13062
   D38        0.03283  -0.00105   0.00000  -0.02521  -0.02518   0.00765
   D39       -3.10877  -0.00092   0.00000  -0.02232  -0.02228  -3.13105
   D40       -3.12063  -0.00064   0.00000  -0.01605  -0.01598  -3.13661
   D41        0.02095  -0.00051   0.00000  -0.01315  -0.01308   0.00788
   D42       -3.04270  -0.00157   0.00000  -0.03574  -0.03562  -3.07832
   D43       -0.08552   0.00206   0.00000   0.05811   0.05804  -0.02748
   D44        0.09890  -0.00170   0.00000  -0.03867  -0.03852   0.06038
   D45        3.05608   0.00193   0.00000   0.05518   0.05515   3.11123
   D46       -2.80814   0.00175   0.00000   0.02490   0.02481  -2.78333
   D47       -0.52463   0.00165   0.00000   0.06996   0.07048  -0.45414
   D48        0.52094  -0.00168   0.00000  -0.06931  -0.06983   0.45111
   D49        2.80445  -0.00178   0.00000  -0.02425  -0.02415   2.78030
   D50        0.08464  -0.00185   0.00000  -0.05401  -0.05395   0.03070
   D51       -3.05798  -0.00196   0.00000  -0.05453  -0.05448  -3.11246
   D52        3.04182   0.00173   0.00000   0.03964   0.03961   3.08144
   D53       -0.10081   0.00162   0.00000   0.03912   0.03909  -0.06172
   D54       -0.03111   0.00060   0.00000   0.01696   0.01695  -0.01415
   D55        3.11601   0.00054   0.00000   0.01620   0.01620   3.13220
   D56        3.11151   0.00072   0.00000   0.01749   0.01750   3.12901
   D57       -0.02456   0.00065   0.00000   0.01673   0.01674  -0.00782
   D58       -0.03946   0.00053   0.00000   0.02147   0.02148  -0.01799
   D59        3.10307   0.00088   0.00000   0.02709   0.02713   3.13020
   D60        3.12059   0.00016   0.00000   0.00669   0.00664   3.12722
   D61       -0.02006   0.00051   0.00000   0.01231   0.01229  -0.00777
         Item               Value     Threshold  Converged?
 Maximum Force            0.023802     0.000450     NO 
 RMS     Force            0.004133     0.000300     NO 
 Maximum Displacement     0.523095     0.001800     NO 
 RMS     Displacement     0.165291     0.001200     NO 
 Predicted change in Energy=-5.949898D-03
 GradGradGradGradGradGradGradGradGradGradGradGradGradGradGradGradGradGrad

                          Input orientation:                          
 ---------------------------------------------------------------------
 Center     Atomic      Atomic             Coordinates (Angstroms)
 Number     Number       Type             X           Y           Z
 ---------------------------------------------------------------------
      1          7           0        4.521949    1.696748    0.990423
      2          6           0        3.683740    0.701969    0.511850
      3          6           0        2.670505    1.000582   -0.420016
      4          6           0        1.782092    0.017542   -0.840158
      5          6           0        1.870428   -1.291380   -0.340481
      6         16           0        0.743599   -2.547891   -0.918508
      7         16           0       -0.735896   -2.703765    0.593700
      8          6           0       -1.886576   -1.382211    0.260359
      9          6           0       -2.933250   -1.548939   -0.660908
     10          6           0       -3.837411   -0.523154   -0.902160
     11          6           0       -3.718541    0.712467   -0.233424
     12          7           0       -4.663542    1.708912   -0.418290
     13          6           0       -2.682345    0.868536    0.708282
     14          6           0       -1.777788   -0.160134    0.943152
     15          6           0        2.871403   -1.588514    0.598560
     16          6           0        3.756877   -0.608590    1.027000
     17          1           0        5.398642    1.377025    1.380956
     18          1           0        4.650381    2.491029    0.377222
     19          1           0        2.583453    2.010268   -0.811812
     20          1           0        1.010773    0.266554   -1.562111
     21          1           0       -3.039497   -2.491176   -1.189647
     22          1           0       -4.647386   -0.672073   -1.610924
     23          1           0       -4.362149    2.645371   -0.182765
     24          1           0       -5.159532    1.681940   -1.299535
     25          1           0       -2.590791    1.803705    1.253867
     26          1           0       -0.981152   -0.017142    1.666365
     27          1           0        2.953103   -2.594877    0.997686
     28          1           0        4.518908   -0.852802    1.762172
 ---------------------------------------------------------------------
                    Distance matrix (angstroms):
                    1          2          3          4          5
     1  N    0.000000
     2  C    1.386077   0.000000
     3  C    2.429368   1.408613   0.000000
     4  C    3.698320   2.431590   1.390023   0.000000
     5  C    4.210793   2.826307   2.428897   1.403837   0.000000
     6  S    5.994740   4.609984   4.068553   2.768764   1.784006
     7  S    6.867811   5.580225   5.133554   3.975138   3.108126
     8  C    7.147179   5.952771   5.187254   4.077938   3.805830
     9  C    8.297070   7.087067   6.161182   4.971966   4.821238
    10  C    8.853741   7.750359   6.701284   5.645796   5.786629
    11  C    8.388819   7.439712   6.398261   5.577456   5.938303
    12  N    9.292893   8.459091   7.368174   6.677194   7.190311
    13  C    7.257230   6.371293   5.472066   4.801360   5.147124
    14  C    6.567871   5.545948   4.795081   3.985538   4.029505
    15  C    3.697405   2.431814   2.789494   2.415766   1.404293
    16  C    2.429250   1.410068   2.421465   2.788923   2.427941
    17  H    1.011597   2.037629   3.290583   4.456565   4.746791
    18  H    1.011629   2.037953   2.603253   3.978345   4.748669
    19  H    2.665354   2.162027   1.086530   2.148008   3.410490
    20  H    4.570474   3.411107   2.144268   1.085429   2.158366
    21  H    8.914419   7.634997   6.737123   5.446424   5.125227
    22  H    9.821152   8.706424   7.600498   6.512130   6.669293
    23  H    9.011295   8.306361   7.226330   6.714860   7.373459
    24  H    9.948628   9.079919   7.908684   7.153139   7.692903
    25  H    7.118421   6.413592   5.579260   5.166956   5.658973
    26  H    5.803312   4.859140   4.327049   3.730868   3.712495
    27  H    4.569396   3.411607   3.875186   3.402010   2.159162
    28  H    2.663796   2.162897   3.407869   3.875536   3.409977
                    6          7          8          9         10
     6  S    0.000000
     7  S    2.121315   0.000000
     8  C    3.109077   1.783728   0.000000
     9  C    3.818833   2.781372   1.404300   0.000000
    10  C    5.008541   4.075789   2.428001   1.388505   0.000000
    11  C    5.568660   4.609874   2.826233   2.431745   1.409999
    12  N    6.899839   5.993517   4.210362   3.696805   2.428733
    13  C    5.104460   4.069781   2.428939   2.789591   2.421673
    14  C    3.940122   2.770869   1.404106   2.415964   2.789087
    15  C    2.783784   3.775767   4.774443   5.939851   6.956676
    16  C    4.077467   4.976195   5.747590   6.963555   7.835953
    17  H    6.508604   7.409802   7.870421   9.063713   9.701957
    18  H    6.506349   7.486302   7.599174   8.655086   9.097512
    19  H    4.916631   5.934277   5.713110   6.566943   6.903179
    20  H    2.899432   4.064624   3.799271   4.434355   4.956215
    21  H    3.793224   2.920975   2.159062   1.085663   2.142995
    22  H    5.749857   4.928275   3.409995   2.147018   1.086546
    23  H    7.319833   6.508906   4.748288   4.456749   3.291265
    24  H    7.272112   6.510553   4.747055   3.975268   2.601605
    25  H    5.896928   4.918713   3.410724   3.876063   3.408340
    26  H    4.007622   2.903223   2.158717   3.401954   3.874479
    27  H    2.925049   3.712651   5.043481   6.204359   7.349322
    28  H    4.930754   5.692482   6.600450   7.867057   8.776981
                   11         12         13         14         15
    11  C    0.000000
    12  N    1.385679   0.000000
    13  C    1.408853   2.429102   0.000000
    14  C    2.431519   3.697896   1.389802   0.000000
    15  C    7.029515   8.287485   6.073982   4.875858   0.000000
    16  C    7.695176   8.852296   6.614156   5.553437   1.388479
    17  H    9.282827  10.227169   8.124863   7.352256   3.974103
    18  H    8.577588   9.380496   7.517377   6.976410   4.456054
    19  H    6.460182   7.263926   5.598471   5.177931   3.875989
    20  H    4.932612   5.965449   4.376778   3.772861   3.401723
    21  H    3.411568   4.568726   3.875223   3.402131   6.241092
    22  H    2.162686   2.663030   3.407870   3.875562   7.890113
    23  H    2.037870   1.011566   2.602470   3.977118   8.417869
    24  H    2.037873   1.011596   3.290807   4.456352   8.876630
    25  H    2.162095   2.664844   1.086548   2.148064   6.463137
    26  H    3.410986   4.570017   2.143924   1.085410   4.295532
    27  H    7.547515   8.862329   6.620971   5.320928   1.085700
    28  H    8.619051   9.779274   7.478752   6.387407   2.146983
                   16         17         18         19         20
    16  C    0.000000
    17  H    2.600643   0.000000
    18  H    3.290623   1.675823   0.000000
    19  H    3.408309   3.624157   2.432514   0.000000
    20  H    3.874333   5.398905   4.685728   2.465118   0.000000
    21  H    7.392452   9.631883   9.295787   7.212720   4.914112
    22  H    8.808763  10.680488  10.020300   7.753616   5.735693
    23  H    8.830083   9.966291   9.031229   7.002888   6.035698
    24  H    9.495348  10.897387   9.985015   7.765275   6.336003
    25  H    6.794375   8.001828   7.326356   5.575169   4.823260
    26  H    4.817418   6.536583   6.298172   4.791468   3.804117
    27  H    2.142954   4.680125   5.397423   4.961682   4.302672
    28  H    1.086650   2.427218   3.621682   4.309124   4.960929
                   21         22         23         24         25
    21  H    0.000000
    22  H    2.464126   0.000000
    23  H    5.398827   3.623042   0.000000
    24  H    4.682043   2.429122   1.676661   0.000000
    25  H    4.961663   4.308838   2.431054   3.623964   0.000000
    26  H    4.302840   4.960931   4.683951   5.398361   2.465071
    27  H    6.380159   8.262533   9.075603   9.454271   7.081520
    28  H    8.278103   9.768899   9.741312  10.462847   7.606789
                   26         27         28
    26  H    0.000000
    27  H    4.750812   0.000000
    28  H    5.564006   2.463942   0.000000
 Stoichiometry    C12H12N2S2
 Framework group  C1[X(C12H12N2S2)]
 Deg. of freedom    78
 Full point group                 C1      NOp   1
 Largest Abelian subgroup         C1      NOp   1
 Largest concise Abelian subgroup C1      NOp   1
                         Standard orientation:                         
 ---------------------------------------------------------------------
 Center     Atomic      Atomic             Coordinates (Angstroms)
 Number     Number       Type             X           Y           Z
 ---------------------------------------------------------------------
      1          7           0       -4.612141    2.315875   -0.338273
      2          6           0       -3.729975    1.293250   -0.026453
      3          6           0       -2.634850    1.522749    0.829246
[...]
    25    C    2  pz     Ryd( 3p)     0.00234
    26    C    2  dxy    Ryd( 3d)     0.00108
    27    C    2  dxz    Ryd( 3d)     0.00077
    28    C    2  dyz    Ryd( 3d)     0.00115
    29    C    2  dx2y2  Ryd( 3d)     0.00106
    30    C    2  dz2    Ryd( 3d)     0.00066

    31    C    3  S      Cor( 1S)     1.99904
    32    C    3  S      Val( 2S)     0.96237
    33    C    3  S      Ryd( 3S)     0.00061
    34    C    3  S      Ryd( 4S)     0.00004
    35    C    3  px     Val( 2p)     1.04583
    36    C    3  px     Ryd( 3p)     0.00335
    37    C    3  py     Val( 2p)     1.19071
    38    C    3  py     Ryd( 3p)     0.00450
    39    C    3  pz     Val( 2p)     1.04255
    40    C    3  pz     Ryd( 3p)     0.00169
    41    C    3  dxy    Ryd( 3d)     0.00047
    42    C    3  dxz    Ryd( 3d)     0.00048
    43    C    3  dyz    Ryd( 3d)     0.00047
    44    C    3  dx2y2  Ryd( 3d)     0.00072
    45    C    3  dz2    Ryd( 3d)     0.00040

    46    C    4  S      Cor( 1S)     1.99900
    47    C    4  S      Val( 2S)     0.96267
    48    C    4  S      Ryd( 3S)     0.00103
    49    C    4  S      Ryd( 4S)     0.00005
    50    C    4  px     Val( 2p)     1.14628
    51    C    4  px     Ryd( 3p)     0.00534
    52    C    4  py     Val( 2p)     1.06459
    53    C    4  py     Ryd( 3p)     0.00487
    54    C    4  pz     Val( 2p)     1.04608
    55    C    4  pz     Ryd( 3p)     0.00252
    56    C    4  dxy    Ryd( 3d)     0.00057
    57    C    4  dxz    Ryd( 3d)     0.00052
    58    C    4  dyz    Ryd( 3d)     0.00056
    59    C    4  dx2y2  Ryd( 3d)     0.00063
    60    C    4  dz2    Ryd( 3d)     0.00033

    61    C    5  S      Cor( 1S)     1.99881
    62    C    5  S      Val( 2S)     0.95841
    63    C    5  S      Ryd( 3S)     0.00135
    64    C    5  S      Ryd( 4S)     0.00006
    65    C    5  px     Val( 2p)     1.07192
    66    C    5  px     Ryd( 3p)     0.00718
    67    C    5  py     Val( 2p)     1.09198
    68    C    5  py     Ryd( 3p)     0.00634
    69    C    5  pz     Val( 2p)     1.04117
    70    C    5  pz     Ryd( 3p)     0.00305
    71    C    5  dxy    Ryd( 3d)     0.00114
    72    C    5  dxz    Ryd( 3d)     0.00067
    73    C    5  dyz    Ryd( 3d)     0.00075
    74    C    5  dx2y2  Ryd( 3d)     0.00106
    75    C    5  dz2    Ryd( 3d)     0.00068

    76    S    6  S      Cor( 1S)     2.00000
    77    S    6  S      Cor( 2S)     1.99951
    78    S    6  S      Val( 3S)     1.75406
    79    S    6  S      Ryd( 4S)     0.01031
    80    S    6  S      Ryd( 5S)     0.00001
    81    S    6  px     Cor( 2p)     1.99989
    82    S    6  px     Val( 3p)     1.31258
    83    S    6  px     Ryd( 4p)     0.01172
    84    S    6  py     Cor( 2p)     1.99991
    85    S    6  py     Val( 3p)     1.46367
    86    S    6  py     Ryd( 4p)     0.00512
    87    S    6  pz     Cor( 2p)     1.99993
    88    S    6  pz     Val( 3p)     1.54126
    89    S    6  pz     Ryd( 4p)     0.00542
    90    S    6  dxy    Ryd( 3d)     0.00505
    91    S    6  dxz    Ryd( 3d)     0.00604
    92    S    6  dyz    Ryd( 3d)     0.00268
    93    S    6  dx2y2  Ryd( 3d)     0.00255
    94    S    6  dz2    Ryd( 3d)     0.00384

    95    S    7  S      Cor( 1S)     2.00000
    96    S    7  S      Cor( 2S)     1.99951
    97    S    7  S      Val( 3S)     1.75403
    98    S    7  S      Ryd( 4S)     0.01032
    99    S    7  S      Ryd( 5S)     0.00001
   100    S    7  px     Cor( 2p)     1.99989
   101    S    7  px     Val( 3p)     1.31224
   102    S    7  px     Ryd( 4p)     0.01171
   103    S    7  py     Cor( 2p)     1.99991
   104    S    7  py     Val( 3p)     1.46218
   105    S    7  py     Ryd( 4p)     0.00508
   106    S    7  pz     Cor( 2p)     1.99993
   107    S    7  pz     Val( 3p)     1.54362
   108    S    7  pz     Ryd( 4p)     0.00546
   109    S    7  dxy    Ryd( 3d)     0.00507
   110    S    7  dxz    Ryd( 3d)     0.00602
   111    S    7  dyz    Ryd( 3d)     0.00266
   112    S    7  dx2y2  Ryd( 3d)     0.00257
   113    S    7  dz2    Ryd( 3d)     0.00384

   114    C    8  S      Cor( 1S)     1.99881
   115    C    8  S      Val( 2S)     0.95839
   116    C    8  S      Ryd( 3S)     0.00134
   117    C    8  S      Ryd( 4S)     0.00006
   118    C    8  px     Val( 2p)     1.07139
   119    C    8  px     Ryd( 3p)     0.00716
   120    C    8  py     Val( 2p)     1.09194
   121    C    8  py     Ryd( 3p)     0.00630
   122    C    8  pz     Val( 2p)     1.04155
   123    C    8  pz     Ryd( 3p)     0.00309
   124    C    8  dxy    Ryd( 3d)     0.00114
   125    C    8  dxz    Ryd( 3d)     0.00066
   126    C    8  dyz    Ryd( 3d)     0.00075
   127    C    8  dx2y2  Ryd( 3d)     0.00106
   128    C    8  dz2    Ryd( 3d)     0.00068

   129    C    9  S      Cor( 1S)     1.99899
   130    C    9  S      Val( 2S)     0.96245
   131    C    9  S      Ryd( 3S)     0.00109
   132    C    9  S      Ryd( 4S)     0.00006
   133    C    9  px     Val( 2p)     1.04873
   134    C    9  px     Ryd( 3p)     0.00432
   135    C    9  py     Val( 2p)     1.18464
   136    C    9  py     Ryd( 3p)     0.00616
   137    C    9  pz     Val( 2p)     1.02458
   138    C    9  pz     Ryd( 3p)     0.00243
   139    C    9  dxy    Ryd( 3d)     0.00057
   140    C    9  dxz    Ryd( 3d)     0.00045
   141    C    9  dyz    Ryd( 3d)     0.00053
   142    C    9  dx2y2  Ryd( 3d)     0.00067
   143    C    9  dz2    Ryd( 3d)     0.00040

   144    C   10  S      Cor( 1S)     1.99904
   145    C   10  S      Val( 2S)     0.96183
   146    C   10  S      Ryd( 3S)     0.00061
   147    C   10  S      Ryd( 4S)     0.00004
   148    C   10  px     Val( 2p)     1.15970
   149    C   10  px     Ryd( 3p)     0.00377
   150    C   10  py     Val( 2p)     1.05242
   151    C   10  py     Ryd( 3p)     0.00390
   152    C   10  pz     Val( 2p)     1.07175
   153    C   10  pz     Ryd( 3p)     0.00187
   154    C   10  dxy    Ryd( 3d)     0.00047
   155    C   10  dxz    Ryd( 3d)     0.00052
   156    C   10  dyz    Ryd( 3d)     0.00053
   157    C   10  dx2y2  Ryd( 3d)     0.00068
   158    C   10  dz2    Ryd( 3d)     0.00034

   159    C   11  S      Cor( 1S)     1.99901
   160    C   11  S      Val( 2S)     0.85005
   161    C   11  S      Ryd( 3S)     0.00122
   162    C   11  S      Ryd( 4S)     0.00009
   163    C   11  px     Val( 2p)     0.96914
   164    C   11  px     Ryd( 3p)     0.00471
   165    C   11  py     Val( 2p)     0.99464
   166    C   11  py     Ryd( 3p)     0.00482
   167    C   11  pz     Val( 2p)     0.99096
   168    C   11  pz     Ryd( 3p)     0.00209
   169    C   11  dxy    Ryd( 3d)     0.00113
   170    C   11  dxz    Ryd( 3d)     0.00080
   171    C   11  dyz    Ryd( 3d)     0.00102
   172    C   11  dx2y2  Ryd( 3d)     0.00106
   173    C   11  dz2    Ryd( 3d)     0.00070

   174    N   12  S      Cor( 1S)     1.99948
   175    N   12  S      Val( 2S)     1.35126
   176    N   12  S      Ryd( 3S)     0.00012
   177    N   12  S      Ryd( 4S)     0.00001
   178    N   12  px     Val( 2p)     1.46320
   179    N   12  px     Ryd( 3p)     0.00280
   180    N   12  py     Val( 2p)     1.37029
   181    N   12  py     Ryd( 3p)     0.00208
   182    N   12  pz     Val( 2p)     1.57569
   183    N   12  pz     Ryd( 3p)     0.00310
   184    N   12  dxy    Ryd( 3d)     0.00061
   185    N   12  dxz    Ryd( 3d)     0.00094
   186    N   12  dyz    Ryd( 3d)     0.00022
   187    N   12  dx2y2  Ryd( 3d)     0.00051
   188    N   12  dz2    Ryd( 3d)     0.00067

   189    C   13  S      Cor( 1S)     1.99904
   190    C   13  S      Val( 2S)     0.96241
   191    C   13  S      Ryd( 3S)     0.00062
   192    C   13  S      Ryd( 4S)     0.00004
   193    C   13  px     Val( 2p)     1.04570
   194    C   13  px     Ryd( 3p)     0.00326
   195    C   13  py     Val( 2p)     1.18995
   196    C   13  py     Ryd( 3p)     0.00455
   197    C   13  pz     Val( 2p)     1.04318
   198    C   13  pz     Ryd( 3p)     0.00172
   199    C   13  dxy    Ryd( 3d)     0.00047
   200    C   13  dxz    Ryd( 3d)     0.00049
   201    C   13  dyz    Ryd( 3d)     0.00048
   202    C   13  dx2y2  Ryd( 3d)     0.00071
   203    C   13  dz2    Ryd( 3d)     0.00041

   204    C   14  S      Cor( 1S)     1.99900
   205    C   14  S      Val( 2S)     0.96269
   206    C   14  S      Ryd( 3S)     0.00103
   207    C   14  S      Ryd( 4S)     0.00005
   208    C   14  px     Val( 2p)     1.14718
   209    C   14  px     Ryd( 3p)     0.00535
   210    C   14  py     Val( 2p)     1.06362
   211    C   14  py     Ryd( 3p)     0.00487
   212    C   14  pz     Val( 2p)     1.04611
   213    C   14  pz     Ryd( 3p)     0.00251
   214    C   14  dxy    Ryd( 3d)     0.00057
   215    C   14  dxz    Ryd( 3d)     0.00052
   216    C   14  dyz    Ryd( 3d)     0.00056
   217    C   14  dx2y2  Ryd( 3d)     0.00063
   218    C   14  dz2    Ryd( 3d)     0.00033

   219    C   15  S      Cor( 1S)     1.99899
   220    C   15  S      Val( 2S)     0.96242
   221    C   15  S      Ryd( 3S)     0.00109
   222    C   15  S      Ryd( 4S)     0.00005
   223    C   15  px     Val( 2p)     1.04832
   224    C   15  px     Ryd( 3p)     0.00435
   225    C   15  py     Val( 2p)     1.18684
   226    C   15  py     Ryd( 3p)     0.00619
   227    C   15  pz     Val( 2p)     1.02267
   228    C   15  pz     Ryd( 3p)     0.00235
   229    C   15  dxy    Ryd( 3d)     0.00058
   230    C   15  dxz    Ryd( 3d)     0.00045
   231    C   15  dyz    Ryd( 3d)     0.00052
   232    C   15  dx2y2  Ryd( 3d)     0.00068
   233    C   15  dz2    Ryd( 3d)     0.00040

   234    C   16  S      Cor( 1S)     1.99904
   235    C   16  S      Val( 2S)     0.96183
   236    C   16  S      Ryd( 3S)     0.00061
   237    C   16  S      Ryd( 4S)     0.00004
   238    C   16  px     Val( 2p)     1.16068
   239    C   16  px     Ryd( 3p)     0.00392
   240    C   16  py     Val( 2p)     1.05279
   241    C   16  py     Ryd( 3p)     0.00387
   242    C   16  pz     Val( 2p)     1.07048
   243    C   16  pz     Ryd( 3p)     0.00176
   244    C   16  dxy    Ryd( 3d)     0.00048
   245    C   16  dxz    Ryd( 3d)     0.00051
   246    C   16  dyz    Ryd( 3d)     0.00053
   247    C   16  dx2y2  Ryd( 3d)     0.00067
   248    C   16  dz2    Ryd( 3d)     0.00036

   249    H   17  S      Val( 1S)     0.56648
   250    H   17  S      Ryd( 2S)     0.00116
   251    H   17  px     Ryd( 2p)     0.00058
   252    H   17  py     Ryd( 2p)     0.00023
   253    H   17  pz     Ryd( 2p)     0.00040

   254    H   18  S      Val( 1S)     0.56682
   255    H   18  S      Ryd( 2S)     0.00118
   256    H   18  px     Ryd( 2p)     0.00020
   257    H   18  py     Ryd( 2p)     0.00050
   258    H   18  pz     Ryd( 2p)     0.00051

   259    H   19  S      Val( 1S)     0.74431
   260    H   19  S      Ryd( 2S)     0.00094
   261    H   19  px     Ryd( 2p)     0.00008
   262    H   19  py     Ryd( 2p)     0.00036
   263    H   19  pz     Ryd( 2p)     0.00014

   264    H   20  S      Val( 1S)     0.74172
   265    H   20  S      Ryd( 2S)     0.00155
   266    H   20  px     Ryd( 2p)     0.00032
   267    H   20  py     Ryd( 2p)     0.00009
   268    H   20  pz     Ryd( 2p)     0.00019

   269    H   21  S      Val( 1S)     0.74204
   270    H   21  S      Ryd( 2S)     0.00128
   271    H   21  px     Ryd( 2p)     0.00008
   272    H   21  py     Ryd( 2p)     0.00038
   273    H   21  pz     Ryd( 2p)     0.00014

   274    H   22  S      Val( 1S)     0.74443
   275    H   22  S      Ryd( 2S)     0.00094
   276    H   22  px     Ryd( 2p)     0.00031
   277    H   22  py     Ryd( 2p)     0.00008
   278    H   22  pz     Ryd( 2p)     0.00020

   279    H   23  S      Val( 1S)     0.56652
   280    H   23  S      Ryd( 2S)     0.00113
   281    H   23  px     Ryd( 2p)     0.00029
   282    H   23  py     Ryd( 2p)     0.00057
   283    H   23  pz     Ryd( 2p)     0.00034

   284    H   24  S      Val( 1S)     0.56647
   285    H   24  S      Ryd( 2S)     0.00113
   286    H   24  px     Ryd( 2p)     0.00044
   287    H   24  py     Ryd( 2p)     0.00018
   288    H   24  pz     Ryd( 2p)     0.00059

   289    H   25  S      Val( 1S)     0.74419
   290    H   25  S      Ryd( 2S)     0.00094
   291    H   25  px     Ryd( 2p)     0.00008
   292    H   25  py     Ryd( 2p)     0.00036
   293    H   25  pz     Ryd( 2p)     0.00015

   294    H   26  S      Val( 1S)     0.74163
   295    H   26  S      Ryd( 2S)     0.00156
   296    H   26  px     Ryd( 2p)     0.00032
   297    H   26  py     Ryd( 2p)     0.00009
   298    H   26  pz     Ryd( 2p)     0.00019

   299    H   27  S      Val( 1S)     0.74206
   300    H   27  S      Ryd( 2S)     0.00127
   301    H   27  px     Ryd( 2p)     0.00008
   302    H   27  py     Ryd( 2p)     0.00038
   303    H   27  pz     Ryd( 2p)     0.00014

   304    H   28  S      Val( 1S)     0.74445
   305    H   28  S      Ryd( 2S)     0.00094
   306    H   28  px     Ryd( 2p)     0.00031
   307    H   28  py     Ryd( 2p)     0.00008
   308    H   28  pz     Ryd( 2p)     0.00020

 WARNING:  1 low occupancy (<1.9990e) core orbital  found on  C    4
           1 low occupancy (<1.9990e) core orbital  found on  C    5
           1 low occupancy (<1.9990e) core orbital  found on  C    8
           1 low occupancy (<1.9990e) core orbital  found on  C    9
           1 low occupancy (<1.9990e) core orbital  found on  C   14
           1 low occupancy (<1.9990e) core orbital  found on  C   15


 Summary of Natural Population Analysis:                  
                                                          
                                       Natural Population 
                Natural  -----------------------------------------------
    Atom  No    Charge         Core      Valence    Rydberg      Total
 -----------------------------------------------------------------------
      N    1   -0.77166      1.99948     5.76113    0.01104     7.77166
      C    2    0.17863      1.99901     3.80470    0.01767     5.82137
      C    3   -0.25323      1.99904     4.24146    0.01273     6.25323
      C    4   -0.23505      1.99900     4.21962    0.01643     6.23505
      C    5   -0.18456      1.99881     4.16347    0.02228     6.18456
      S    6   -0.12355      9.99924     6.07157    0.05275    16.12355
      S    7   -0.12406      9.99924     6.07207    0.05275    16.12406
      C    8   -0.18432      1.99881     4.16326    0.02225     6.18432
      C    9   -0.23607      1.99899     4.22041    0.01667     6.23607
      C   10   -0.25748      1.99904     4.24571    0.01273     6.25748
      C   11    0.17854      1.99901     3.80480    0.01765     5.82146
      N   12   -0.77100      1.99948     5.76045    0.01107     7.77100
      C   13   -0.25302      1.99904     4.24124    0.01274     6.25302
      C   14   -0.23502      1.99900     4.21960    0.01643     6.23502
      C   15   -0.23589      1.99899     4.22024    0.01666     6.23589
      C   16   -0.25756      1.99904     4.24579    0.01273     6.25756
      H   17    0.43116      0.00000     0.56648    0.00237     0.56884
      H   18    0.43079      0.00000     0.56682    0.00239     0.56921
      H   19    0.25416      0.00000     0.74431    0.00153     0.74584
      H   20    0.25614      0.00000     0.74172    0.00215     0.74386
      H   21    0.25609      0.00000     0.74204    0.00188     0.74391
      H   22    0.25404      0.00000     0.74443    0.00153     0.74596
      H   23    0.43115      0.00000     0.56652    0.00234     0.56885
      H   24    0.43119      0.00000     0.56647    0.00233     0.56881
      H   25    0.25428      0.00000     0.74419    0.00153     0.74572
      H   26    0.25621      0.00000     0.74163    0.00216     0.74379
      H   27    0.25608      0.00000     0.74206    0.00187     0.74392
      H   28    0.25402      0.00000     0.74445    0.00153     0.74598
 =======================================================================
   * Total *    0.00000     47.98522    81.66662    0.34816   130.00000

                                 Natural Population      
 --------------------------------------------------------
   Core                      47.98522 ( 99.9692% of  48)
   Valence                   81.66662 ( 99.5934% of  82)
   Natural Minimal Basis    129.65184 ( 99.7322% of 130)
   Natural Rydberg Basis      0.34816 (  0.2678% of 130)
 --------------------------------------------------------

    Atom  No          Natural Electron Configuration
 ----------------------------------------------------------------------------
      N    1      [core]2S( 1.35)2p( 4.41)3p( 0.01)
      C    2      [core]2S( 0.85)2p( 2.95)3p( 0.01)
      C    3      [core]2S( 0.96)2p( 3.28)3p( 0.01)
      C    4      [core]2S( 0.96)2p( 3.26)3p( 0.01)
      C    5      [core]2S( 0.96)2p( 3.21)3p( 0.02)
      S    6      [core]3S( 1.75)3p( 4.32)4S( 0.01)3d( 0.02)4p( 0.02)
      S    7      [core]3S( 1.75)3p( 4.32)4S( 0.01)3d( 0.02)4p( 0.02)
      C    8      [core]2S( 0.96)2p( 3.20)3p( 0.02)
      C    9      [core]2S( 0.96)2p( 3.26)3p( 0.01)
      C   10      [core]2S( 0.96)2p( 3.28)3p( 0.01)
      C   11      [core]2S( 0.85)2p( 2.95)3p( 0.01)
      N   12      [core]2S( 1.35)2p( 4.41)3p( 0.01)
      C   13      [core]2S( 0.96)2p( 3.28)3p( 0.01)
      C   14      [core]2S( 0.96)2p( 3.26)3p( 0.01)
      C   15      [core]2S( 0.96)2p( 3.26)3p( 0.01)
      C   16      [core]2S( 0.96)2p( 3.28)3p( 0.01)
      H   17            1S( 0.57)
      H   18            1S( 0.57)
      H   19            1S( 0.74)
      H   20            1S( 0.74)
      H   21            1S( 0.74)
      H   22            1S( 0.74)
      H   23            1S( 0.57)
      H   24            1S( 0.57)
      H   25            1S( 0.74)
      H   26            1S( 0.74)
      H   27            1S( 0.74)
      H   28            1S( 0.74)


 NBO analysis skipped by request.
 1\1\GINC-DRG2-W004\SP\RB3LYP TD-FC\6-31G(d,p)\C12H12N2S2\QDUEZ\18-Jul-
 2024\0\\# TD(NStates=10, Root=1) B3LYP/6-31G** SCRF=(Solvent=water) vo
 lume pop=NPA density=current Geom=AllCheck Guess=Read\\MERLDGDYUMSLAY-
 UHFFFAOYSA-N_conf_2\\0,1\N,0,4.6471787478,1.6396003959,1.0203016667\C,
 0,3.7692550973,0.676345623,0.5610602693\C,0,2.6772538068,1.0273632941,
 -0.2602379463\C,0,1.7648772667,0.0654977106,-0.6738076801\C,0,1.908002
 434,-1.2779780714,-0.2862404083\S,0,0.7645194715,-2.5131217985,-0.8659
 899619\S,0,-0.7768878881,-2.6418397239,0.6291334464\C,0,-1.9340598156,
 -1.3421784418,0.253550144\C,0,-3.0147914624,-1.5678955636,-0.616248117
 9\C,0,-3.9381348417,-0.5655979229,-0.8798585528\C,0,-3.8114165831,0.70
 54018808,-0.2791749164\N,0,-4.761210827,1.6855828119,-0.4948076287\C,0
 ,-2.7260064527,0.9304623271,0.5934369255\C,0,-1.8059289731,-0.07707319
 47,0.8525168839\C,0,2.9963065122,-1.629670179,0.5306803846\C,0,3.91209
 95408,-0.6736086127,0.947880895\H,0,5.555488161,1.315294647,1.32260128
 93\H,0,4.6943293027,2.4976316586,0.4881839244\H,0,2.5536691673,2.06094
 08106,-0.5715443643\H,0,0.933865745,0.3543006719,-1.3093842948\H,0,-3.
 1277212309,-2.5380514484,-1.0902053919\H,0,-4.7695323562,-0.7572201455
 ,-1.5526944817\H,0,-4.4765072391,2.6379683041,-0.3117652182\H,0,-5.317
 5734515,1.5970266457,-1.3339439456\H,0,-2.6138889751,1.9018007982,1.06
 7250234\H,0,-0.9770792375,0.1153374977,1.5262574844\H,0,3.12460162,-2.
 663344262,0.8366960361\H,0,4.7492924609,-0.9629757127,1.5772084513\\Ve
 rsion=ES64L-G16RevA.03\State=1-A\HF=-1370.4310431\RMSD=2.232e-09\Dipol
 e=0.4372891,5.2440088,-0.2665844\Quadrupole=31.1248793,-10.8311498,-20
 .2937295,-0.7477202,15.8037039,-2.9386538\PG=C01 [X(C12H12N2S2)]\\@


 MOST BUREAUCRACIES FUNCTION LIKE A SEPTIC TANK.
 THE LARGE CHUNKS RISE TO THE TOP.
 Job cpu time:       0 days  0 hours 42 minutes 16.4 seconds.
 Elapsed time:       0 days  0 hours 14 minutes  7.6 seconds.
 File lengths (MBytes):  RWF=    798 Int=      0 D2E=      0 Chk=     49 Scr=      1
 Normal termination of Gaussian 16 at Thu Jul 18 14:07:02 2024.
