 Entering Gaussian System, Link 0=g16
 Initial command:
 /opt/sw/arch/manual/gaussian/G16_A03/g16/l1.exe "/scratch/1380938/Gau-155721.inp" -scrdir="/scratch/1380938/"
 Entering Link 1 = /opt/sw/arch/manual/gaussian/G16_A03/g16/l1.exe PID=    155722.
  
 Copyright (c) 1988,1990,1992,1993,1995,1998,2003,2009,2016,
            Gaussian, Inc.  All Rights Reserved.
  
 This is part of the Gaussian(R) 16 program.  It is based on
 the Gaussian(R) 09 system (copyright 2009, Gaussian, Inc.),
 the Gaussian(R) 03 system (copyright 2003, Gaussian, Inc.),
 the Gaussian(R) 98 system (copyright 1998, Gaussian, Inc.),
 the Gaussian(R) 94 system (copyright 1995, Gaussian, Inc.),
 the Gaussian 92(TM) system (copyright 1992, Gaussian, Inc.),
 the Gaussian 90(TM) system (copyright 1990, Gaussian, Inc.),
 the Gaussian 88(TM) system (copyright 1988, Gaussian, Inc.),
 the Gaussian 86(TM) system (copyright 1986, Carnegie Mellon
 University), and the Gaussian 82(TM) system (copyright 1983,
 Carnegie Mellon University). Gaussian is a federally registered
 trademark of Gaussian, Inc.
  
 This software contains proprietary and confidential information,
 including trade secrets, belonging to Gaussian, Inc.
  
 This software is provided under written license and may be
 used, copied, transmitted, or stored only in accord with that
 written license.
  
 The following legend is applicable only to US Government
 contracts under FAR:
  
                    RESTRICTED RIGHTS LEGEND
  
 Use, reproduction and disclosure by the US Government is
 subject to restrictions as set forth in subparagraphs (a)
 and (c) of the Commercial Computer Software - Restricted
 Rights clause in FAR 52.227-19.
  
 Gaussian, Inc.
 340 Quinnipiac St., Bldg. 40, Wallingford CT 06492
  
  
 ---------------------------------------------------------------
 Warning -- This program may not be used in any manner that
 competes with the business of Gaussian, Inc. or will provide
 assistance to any competitor of Gaussian, Inc.  The licensee
 of this program is prohibited from giving any competitor of
 Gaussian, Inc. access to this program.  By using this program,
 the user acknowledges that Gaussian, Inc. is engaged in the
 business of creating and licensing software in the field of
 computational chemistry and represents and warrants to the
 licensee that it is not a competitor of Gaussian, Inc. and that
 it will not use this program in any manner prohibited above.
 ---------------------------------------------------------------
  

 Cite this work as:
 Gaussian 16, Revision A.03,
 M. J. Frisch, G. W. Trucks, H. B. Schlegel, G. E. Scuseria, 
 M. A. Robb, J. R. Cheeseman, G. Scalmani, V. Barone, 
 G. A. Petersson, H. Nakatsuji, X. Li, M. Caricato, A. V. Marenich, 
 J. Bloino, B. G. Janesko, R. Gomperts, B. Mennucci, H. P. Hratchian, 
 J. V. Ortiz, A. F. Izmaylov, J. L. Sonnenberg, D. Williams-Young, 
 F. Ding, F. Lipparini, F. Egidi, J. Goings, B. Peng, A. Petrone, 
 T. Henderson, D. Ranasinghe, V. G. Zakrzewski, J. Gao, N. Rega, 
 G. Zheng, W. Liang, M. Hada, M. Ehara, K. Toyota, R. Fukuda, 
 J. Hasegawa, M. Ishida, T. Nakajima, Y. Honda, O. Kitao, H. Nakai, 
 T. Vreven, K. Throssell, J. A. Montgomery, Jr., J. E. Peralta, 
 F. Ogliaro, M. J. Bearpark, J. J. Heyd, E. N. Brothers, K. N. Kudin, 
 V. N. Staroverov, T. A. Keith, R. Kobayashi, J. Normand, 
 K. Raghavachari, A. P. Rendell, J. C. Burant, S. S. Iyengar, 
 J. Tomasi, M. Cossi, J. M. Millam, M. Klene, C. Adamo, R. Cammi, 
 J. W. Ochterski, R. L. Martin, K. Morokuma, O. Farkas, 
 J. B. Foresman, and D. J. Fox, Gaussian, Inc., Wallingford CT, 2016.
 
 ******************************************
 Gaussian 16:  ES64L-G16RevA.03 25-Dec-2016
                18-Jul-2024 
 ******************************************
 %nprocshared=4
 Will use up to    4 processors via shared memory.
 %mem=8GB
 %Chk=MERLDGDYUMSLAY-UHFFFAOYSA-N_conf_1_0.chk
 -------------------------------------------------------
 # opt=CalcFc B3LYP/6-31G** SCRF=(Solvent=water) scf=xqc
 -------------------------------------------------------
 1/10=4,18=20,19=15,26=3,38=1/1,3;
 2/9=110,12=2,17=6,18=5,40=1/2;
 3/5=1,6=6,7=101,11=2,25=1,30=1,70=2201,71=2,72=1,74=-5,140=1/1,2,3;
 4//1;
 5/5=2,8=3,13=1,38=5,53=1/2,8;
 8/6=4,10=90,11=11/1;
 11/6=1,8=1,9=11,15=111,16=1/1,2,10;
 10/6=1,13=1/2;
 6/7=2,8=2,9=2,10=2,28=1/1;
 7/10=1,18=20,25=1/1,2,3,16;
 1/10=4,18=20,19=15,26=3/3(2);
 2/9=110/2;
 99//99;
 2/9=110/2;
 3/5=1,6=6,7=101,11=2,25=1,30=1,70=2205,71=1,72=1,74=-5/1,2,3;
 4/5=5,16=3,69=1/1;
 5/5=2,8=3,13=1,38=5,53=1/2,8;
 7//1,2,3,16;
 1/18=20,19=15,26=3/3(-5);
 2/9=110/2;
 6/7=2,8=2,9=2,10=2,19=2,28=1/1;
 99/9=1/99;
 ----------------------------------
 MERLDGDYUMSLAY-UHFFFAOYSA-N_conf_1
 ----------------------------------
 Symbolic Z-matrix:
 Charge =  0 Multiplicity = 1
 N                     4.44036  -0.5861   -1.37869 
 C                     3.56359  -0.30037  -0.3266 
 C                     3.61868   0.9367    0.31948 
 C                     2.67093   1.28021   1.28927 
 C                     1.62515   0.40529   1.59156 
 S                     0.40369   0.82943   2.81813 
 S                    -0.74043   2.21062   1.80839 
 C                    -1.80407   1.15591   0.8435 
 C                    -1.51424   0.90939  -0.5003 
 C                    -2.34855   0.08406  -1.26119 
 C                    -3.45964  -0.53467  -0.68406 
 N                    -4.35392  -1.26048  -1.47775 
 C                    -3.78036  -0.23209   0.6413 
 C                    -2.94968   0.59162   1.40835 
 C                     1.53557  -0.81073   0.91036 
 C                     2.48642  -1.14781  -0.05839 
 H                     4.544    -1.5779   -1.56904 
 H                     5.33595  -0.1133   -1.30653 
 H                     4.40296   1.64804   0.07458 
 H                     2.74851   2.24162   1.79093 
 H                    -0.6421    1.35963  -0.96887 
 H                    -2.1188   -0.07061  -2.31206 
 H                    -4.93186  -1.91267  -0.95723 
 H                    -3.92744  -1.68783  -2.29379 
 H                    -4.6831   -0.63573   1.09197 
 H                    -3.2122    0.79546   2.44341 
 H                     0.71487  -1.4956    1.11001 
 H                     2.37571  -2.08209  -0.60219 
 

 GradGradGradGradGradGradGradGradGradGradGradGradGradGradGradGradGradGrad
 Berny optimization.
 Initialization pass.
                           ----------------------------
                           !    Initial Parameters    !
                           ! (Angstroms and Degrees)  !
 --------------------------                            --------------------------
 ! Name  Definition              Value          Derivative Info.                !
 --------------------------------------------------------------------------------
 ! R1    R(1,2)                  1.399          calculate D2E/DX2 analytically  !
 ! R2    R(1,17)                 1.0152         calculate D2E/DX2 analytically  !
 ! R3    R(1,18)                 1.0153         calculate D2E/DX2 analytically  !
 ! R4    R(2,3)                  1.3967         calculate D2E/DX2 analytically  !
 ! R5    R(2,16)                 1.3966         calculate D2E/DX2 analytically  !
 ! R6    R(3,4)                  1.3988         calculate D2E/DX2 analytically  !
 ! R7    R(3,19)                 1.0868         calculate D2E/DX2 analytically  !
 ! R8    R(4,5)                  1.3966         calculate D2E/DX2 analytically  !
 ! R9    R(4,20)                 1.0872         calculate D2E/DX2 analytically  !
 ! R10   R(5,6)                  1.7822         calculate D2E/DX2 analytically  !
 ! R11   R(5,15)                 1.3967         calculate D2E/DX2 analytically  !
 ! R12   R(6,7)                  2.0582         calculate D2E/DX2 analytically  !
 ! R13   R(7,8)                  1.7818         calculate D2E/DX2 analytically  !
 ! R14   R(8,9)                  1.3966         calculate D2E/DX2 analytically  !
 ! R15   R(8,14)                 1.3964         calculate D2E/DX2 analytically  !
 ! R16   R(9,10)                 1.3986         calculate D2E/DX2 analytically  !
 ! R17   R(9,21)                 1.0876         calculate D2E/DX2 analytically  !
 ! R18   R(10,11)                1.3966         calculate D2E/DX2 analytically  !
 ! R19   R(10,22)                1.0868         calculate D2E/DX2 analytically  !
 ! R20   R(11,12)                1.3988         calculate D2E/DX2 analytically  !
 ! R21   R(11,13)                1.3968         calculate D2E/DX2 analytically  !
 ! R22   R(12,23)                1.015          calculate D2E/DX2 analytically  !
 ! R23   R(12,24)                1.0151         calculate D2E/DX2 analytically  !
 ! R24   R(13,14)                1.3989         calculate D2E/DX2 analytically  !
 ! R25   R(13,25)                1.0867         calculate D2E/DX2 analytically  !
 ! R26   R(14,26)                1.0871         calculate D2E/DX2 analytically  !
 ! R27   R(15,16)                1.3987         calculate D2E/DX2 analytically  !
 ! R28   R(15,27)                1.0874         calculate D2E/DX2 analytically  !
 ! R29   R(16,28)                1.0867         calculate D2E/DX2 analytically  !
 ! A1    A(2,1,17)             113.86           calculate D2E/DX2 analytically  !
 ! A2    A(2,1,18)             113.8447         calculate D2E/DX2 analytically  !
 ! A3    A(17,1,18)            112.2231         calculate D2E/DX2 analytically  !
 ! A4    A(1,2,3)              120.267          calculate D2E/DX2 analytically  !
 ! A5    A(1,2,16)             120.2568         calculate D2E/DX2 analytically  !
 ! A6    A(3,2,16)             118.6225         calculate D2E/DX2 analytically  !
 ! A7    A(2,3,4)              120.7617         calculate D2E/DX2 analytically  !
 ! A8    A(2,3,19)             120.2626         calculate D2E/DX2 analytically  !
 ! A9    A(4,3,19)             118.9756         calculate D2E/DX2 analytically  !
 ! A10   A(3,4,5)              120.2356         calculate D2E/DX2 analytically  !
 ! A11   A(3,4,20)             119.2561         calculate D2E/DX2 analytically  !
 ! A12   A(5,4,20)             120.4998         calculate D2E/DX2 analytically  !
 ! A13   A(4,5,6)              120.8689         calculate D2E/DX2 analytically  !
 ! A14   A(4,5,15)             119.2015         calculate D2E/DX2 analytically  !
 ! A15   A(6,5,15)             119.927          calculate D2E/DX2 analytically  !
 ! A16   A(5,6,7)              101.7146         calculate D2E/DX2 analytically  !
 ! A17   A(6,7,8)              101.553          calculate D2E/DX2 analytically  !
 ! A18   A(7,8,9)              120.1089         calculate D2E/DX2 analytically  !
 ! A19   A(7,8,14)             120.6573         calculate D2E/DX2 analytically  !
 ! A20   A(9,8,14)             119.2178         calculate D2E/DX2 analytically  !
 ! A21   A(8,9,10)             120.2525         calculate D2E/DX2 analytically  !
 ! A22   A(8,9,21)             120.5221         calculate D2E/DX2 analytically  !
 ! A23   A(10,9,21)            119.2246         calculate D2E/DX2 analytically  !
 ! A24   A(9,10,11)            120.7432         calculate D2E/DX2 analytically  !
 ! A25   A(9,10,22)            118.9429         calculate D2E/DX2 analytically  !
 ! A26   A(11,10,22)           120.3138         calculate D2E/DX2 analytically  !
 ! A27   A(10,11,12)           120.2686         calculate D2E/DX2 analytically  !
 ! A28   A(10,11,13)           118.6083         calculate D2E/DX2 analytically  !
 ! A29   A(12,11,13)           120.2665         calculate D2E/DX2 analytically  !
 ! A30   A(11,12,23)           113.982          calculate D2E/DX2 analytically  !
 ! A31   A(11,12,24)           113.9535         calculate D2E/DX2 analytically  !
 ! A32   A(23,12,24)           112.3937         calculate D2E/DX2 analytically  !
 ! A33   A(11,13,14)           120.7641         calculate D2E/DX2 analytically  !
 ! A34   A(11,13,25)           120.2501         calculate D2E/DX2 analytically  !
 ! A35   A(14,13,25)           118.9858         calculate D2E/DX2 analytically  !
 ! A36   A(8,14,13)            120.2195         calculate D2E/DX2 analytically  !
 ! A37   A(8,14,26)            120.4961         calculate D2E/DX2 analytically  !
 ! A38   A(13,14,26)           119.2808         calculate D2E/DX2 analytically  !
 ! A39   A(5,15,16)            120.2671         calculate D2E/DX2 analytically  !
 ! A40   A(5,15,27)            120.4782         calculate D2E/DX2 analytically  !
 ! A41   A(16,15,27)           119.2402         calculate D2E/DX2 analytically  !
 ! A42   A(2,16,15)            120.7398         calculate D2E/DX2 analytically  !
 ! A43   A(2,16,28)            120.2769         calculate D2E/DX2 analytically  !
 ! A44   A(15,16,28)           118.9833         calculate D2E/DX2 analytically  !
 ! D1    D(17,1,2,3)           160.4003         calculate D2E/DX2 analytically  !
 ! D2    D(17,1,2,16)          -30.3225         calculate D2E/DX2 analytically  !
 ! D3    D(18,1,2,3)            30.036          calculate D2E/DX2 analytically  !
 ! D4    D(18,1,2,16)         -160.6867         calculate D2E/DX2 analytically  !
 ! D5    D(1,2,3,4)            174.1743         calculate D2E/DX2 analytically  !
 ! D6    D(1,2,3,19)            -5.8803         calculate D2E/DX2 analytically  !
 ! D7    D(16,2,3,4)             4.7239         calculate D2E/DX2 analytically  !
 ! D8    D(16,2,3,19)         -175.3307         calculate D2E/DX2 analytically  !
 ! D9    D(1,2,16,15)         -174.189          calculate D2E/DX2 analytically  !
 ! D10   D(1,2,16,28)            5.8154         calculate D2E/DX2 analytically  !
 ! D11   D(3,2,16,15)           -4.7374         calculate D2E/DX2 analytically  !
 ! D12   D(3,2,16,28)          175.2669         calculate D2E/DX2 analytically  !
 ! D13   D(2,3,4,5)             -2.2611         calculate D2E/DX2 analytically  !
 ! D14   D(2,3,4,20)           178.7964         calculate D2E/DX2 analytically  !
 ! D15   D(19,3,4,5)           177.7928         calculate D2E/DX2 analytically  !
 ! D16   D(19,3,4,20)           -1.1496         calculate D2E/DX2 analytically  !
 ! D17   D(3,4,5,6)           -179.6855         calculate D2E/DX2 analytically  !
 ! D18   D(3,4,5,15)            -0.2776         calculate D2E/DX2 analytically  !
 ! D19   D(20,4,5,6)            -0.7563         calculate D2E/DX2 analytically  !
 ! D20   D(20,4,5,15)          178.6517         calculate D2E/DX2 analytically  !
 ! D21   D(4,5,6,7)             75.2131         calculate D2E/DX2 analytically  !
 ! D22   D(15,5,6,7)          -104.1906         calculate D2E/DX2 analytically  !
 ! D23   D(4,5,15,16)            0.2632         calculate D2E/DX2 analytically  !
 ! D24   D(4,5,15,27)         -178.3436         calculate D2E/DX2 analytically  !
 ! D25   D(6,5,15,16)          179.6768         calculate D2E/DX2 analytically  !
 ! D26   D(6,5,15,27)            1.07           calculate D2E/DX2 analytically  !
 ! D27   D(5,6,7,8)             81.3007         calculate D2E/DX2 analytically  !
 ! D28   D(6,7,8,9)            -99.3547         calculate D2E/DX2 analytically  !
 ! D29   D(6,7,8,14)            82.1094         calculate D2E/DX2 analytically  !
 ! D30   D(7,8,9,10)          -179.8753         calculate D2E/DX2 analytically  !
 ! D31   D(7,8,9,21)            -0.1958         calculate D2E/DX2 analytically  !
 ! D32   D(14,8,9,10)           -1.3183         calculate D2E/DX2 analytically  !
 ! D33   D(14,8,9,21)          178.3611         calculate D2E/DX2 analytically  !
 ! D34   D(7,8,14,13)          179.8182         calculate D2E/DX2 analytically  !
 ! D35   D(7,8,14,26)            0.5063         calculate D2E/DX2 analytically  !
 ! D36   D(9,8,14,13)            1.2694         calculate D2E/DX2 analytically  !
 ! D37   D(9,8,14,26)         -178.0425         calculate D2E/DX2 analytically  !
 ! D38   D(8,9,10,11)           -1.7825         calculate D2E/DX2 analytically  !
 ! D39   D(8,9,10,22)          178.2762         calculate D2E/DX2 analytically  !
 ! D40   D(21,9,10,11)         178.5339         calculate D2E/DX2 analytically  !
 ! D41   D(21,9,10,22)          -1.4074         calculate D2E/DX2 analytically  !
 ! D42   D(9,10,11,12)         174.2836         calculate D2E/DX2 analytically  !
 ! D43   D(9,10,11,13)           4.8498         calculate D2E/DX2 analytically  !
 ! D44   D(22,10,11,12)         -5.7758         calculate D2E/DX2 analytically  !
 ! D45   D(22,10,11,13)       -175.2097         calculate D2E/DX2 analytically  !
 ! D46   D(10,11,12,23)        160.6829         calculate D2E/DX2 analytically  !
 ! D47   D(10,11,12,24)         29.8475         calculate D2E/DX2 analytically  !
 ! D48   D(13,11,12,23)        -30.0593         calculate D2E/DX2 analytically  !
 ! D49   D(13,11,12,24)       -160.8947         calculate D2E/DX2 analytically  !
 ! D50   D(10,11,13,14)         -4.8998         calculate D2E/DX2 analytically  !
 ! D51   D(10,11,13,25)        175.1008         calculate D2E/DX2 analytically  !
 ! D52   D(12,11,13,14)       -174.3339         calculate D2E/DX2 analytically  !
 ! D53   D(12,11,13,25)          5.6667         calculate D2E/DX2 analytically  !
 ! D54   D(11,13,14,8)           1.8811         calculate D2E/DX2 analytically  !
 ! D55   D(11,13,14,26)       -178.7987         calculate D2E/DX2 analytically  !
 ! D56   D(25,13,14,8)        -178.1195         calculate D2E/DX2 analytically  !
 ! D57   D(25,13,14,26)          1.2007         calculate D2E/DX2 analytically  !
 ! D58   D(5,15,16,2)            2.2901         calculate D2E/DX2 analytically  !
 ! D59   D(5,15,16,28)        -177.7142         calculate D2E/DX2 analytically  !
 ! D60   D(27,15,16,2)        -179.086          calculate D2E/DX2 analytically  !
 ! D61   D(27,15,16,28)          0.9098         calculate D2E/DX2 analytically  !
 --------------------------------------------------------------------------------
 Trust Radius=3.00D-01 FncErr=1.00D-07 GrdErr=1.00D-06 EigMax=2.50D+02 EigMin=1.00D-04
 Number of steps in this run=    144 maximum allowed number of steps=    168.
 GradGradGradGradGradGradGradGradGradGradGradGradGradGradGradGradGradGrad

                          Input orientation:                          
 ---------------------------------------------------------------------
 Center     Atomic      Atomic             Coordinates (Angstroms)
 Number     Number       Type             X           Y           Z
 ---------------------------------------------------------------------
      1          7           0        4.440362   -0.586098   -1.378692
      2          6           0        3.563585   -0.300371   -0.326603
      3          6           0        3.618683    0.936699    0.319476
      4          6           0        2.670931    1.280207    1.289270
      5          6           0        1.625150    0.405294    1.591558
      6         16           0        0.403686    0.829430    2.818130
      7         16           0       -0.740426    2.210616    1.808387
      8          6           0       -1.804070    1.155907    0.843502
      9          6           0       -1.514240    0.909391   -0.500300
     10          6           0       -2.348545    0.084062   -1.261189
     11          6           0       -3.459638   -0.534668   -0.684058
     12          7           0       -4.353924   -1.260482   -1.477753
     13          6           0       -3.780357   -0.232086    0.641297
     14          6           0       -2.949680    0.591616    1.408352
     15          6           0        1.535568   -0.810729    0.910363
     16          6           0        2.486424   -1.147806   -0.058390
     17          1           0        4.543999   -1.577897   -1.569039
     18          1           0        5.335953   -0.113302   -1.306528
     19          1           0        4.402957    1.648040    0.074580
     20          1           0        2.748508    2.241616    1.790931
     21          1           0       -0.642103    1.359629   -0.968875
     22          1           0       -2.118800   -0.070611   -2.312058
     23          1           0       -4.931864   -1.912666   -0.957230
     24          1           0       -3.927442   -1.687829   -2.293786
     25          1           0       -4.683104   -0.635728    1.091965
     26          1           0       -3.212197    0.795456    2.443408
     27          1           0        0.714872   -1.495599    1.110011
     28          1           0        2.375712   -2.082092   -0.602194
 ---------------------------------------------------------------------
                    Distance matrix (angstroms):
                    1          2          3          4          5
     1  N    0.000000
     2  C    1.399024   0.000000
     3  C    2.424426   1.396709   0.000000
     4  C    3.705671   2.430248   1.398832   0.000000
     5  C    4.210779   2.816884   2.423789   1.396606   0.000000
     6  S    5.992645   4.598996   4.073203   2.771464   1.782231
     7  S    6.694748   5.421048   4.779284   3.573864   2.983648
     8  C    6.853149   5.683451   5.452421   4.498866   3.589228
     9  C    6.202044   5.222835   5.198045   4.566807   3.806016
    10  C    6.822916   5.997877   6.231637   5.755931   4.902205
    11  C    7.930647   7.036216   7.298947   6.691164   5.649516
    12  N    8.820662   8.058158   8.462865   7.966185   6.924219
    13  C    8.472656   7.407765   7.497694   6.657779   5.525284
    14  C    7.985446   6.799142   6.666942   5.663886   4.582287
    15  C    3.705140   2.429693   2.782448   2.409280   1.396697
    16  C    2.424168   1.396554   2.402073   2.783069   2.424096
    17  H    1.015204   2.033945   3.278093   4.455006   4.737310
    18  H    1.015296   2.033847   2.587549   3.972704   4.736866
    19  H    2.665478   2.159120   1.086769   2.147251   3.400272
    20  H    4.572182   3.407345   2.150626   1.087194   2.161888
    21  H    5.457587   4.566829   4.471354   4.010202   3.550635
    22  H    6.645262   6.023647   6.392054   6.142947   5.429721
    23  H    9.475022   8.670055   9.102786   8.546561   7.407004
    24  H    8.489485   7.868312   8.406026   8.073788   7.092838
    25  H    9.452209   8.374526   8.484629   7.602077   6.413064
    26  H    8.664802   7.401691   7.154855   6.014833   4.927251
    27  H    4.571664   3.406992   3.869513   3.400499   2.161918
    28  H    2.665282   2.159056   3.392278   3.869088   3.400439
                    6          7          8          9         10
     6  S    0.000000
     7  S    2.058215   0.000000
     8  C    2.979921   1.781784   0.000000
     9  C    3.833642   2.760799   1.396630   0.000000
    10  C    4.977067   4.065781   2.423846   1.398637   0.000000
    11  C    5.389931   4.598150   2.816450   2.429742   1.396579
    12  N    6.742195   5.992045   4.210572   3.705073   2.424096
    13  C    4.834422   4.070635   2.423453   2.782355   2.401976
    14  C    3.645421   2.768030   1.396389   2.409236   2.783060
    15  C    2.758777   3.887817   3.876248   3.774932   4.539011
    16  C    4.064681   5.017611   4.952659   4.520250   5.132363
    17  H    6.494974   7.327005   7.320657   6.635592   7.096763
    18  H    6.498370   7.212883   7.563957   6.972880   7.687166
    19  H    4.918471   5.456828   6.273804   5.990769   7.057839
    20  H    2.923628   3.489116   4.775180   5.019520   6.320635
    21  H    3.964365   2.906377   2.162494   1.087612   2.150457
    22  H    5.787214   4.907339   3.400141   2.146710   1.086753
    23  H    7.088056   6.497557   4.737285   4.455664   3.279154
    24  H    7.157300   6.494826   4.736889   3.973121   2.588198
    25  H    5.567923   4.915246   3.400078   3.868385   3.391990
    26  H    3.635406   2.918147   2.161584   3.400214   3.869886
    27  H    2.901770   4.042481   3.666957   3.653221   4.183592
    28  H    4.905555   5.826540   5.481354   4.908267   5.238807
                   11         12         13         14         15
    11  C    0.000000
    12  N    1.398751   0.000000
    13  C    1.396776   2.424242   0.000000
    14  C    2.430381   3.705640   1.398886   0.000000
    15  C    5.250759   6.371145   5.354090   4.725675   0.000000
    16  C    6.010245   6.986962   6.371864   5.893059   1.398653
    17  H    8.119712   8.904051   8.717322   8.350262   3.973242
    18  H    8.827652   9.759050   9.322834   8.747525   4.454654
    19  H    8.195130   9.356933   8.415621   7.546937   3.868591
    20  H    7.237016   8.567002   7.075800   5.944595   3.400505
    21  H    3.407050   4.571822   3.869735   3.400877   3.603365
    22  H    2.159532   2.666015   3.392514   3.869154   4.928101
    23  H    2.034933   1.015038   2.589519   3.974476   6.821279
    24  H    2.034661   1.015097   3.279563   4.456199   6.393774
    25  H    2.159014   2.664982   1.086730   2.147378   6.223784
    26  H    3.407566   4.572300   2.150873   1.087110   5.241309
    27  H    4.644202   5.696007   4.692893   4.227814   1.087404
    28  H    6.037593   6.835908   6.547212   6.288943   2.147100
                   16         17         18         19         20
    16  C    0.000000
    17  H    2.588563   0.000000
    18  H    3.278393   1.685569   0.000000
    19  H    3.392276   3.623265   2.424926   0.000000
    20  H    3.869994   5.394616   4.672769   2.456704   0.000000
    21  H    4.111434   5.990402   6.166091   5.159904   4.459895
    22  H    5.239032   6.871454   7.522383   7.154238   6.772858
    23  H    7.511586   9.501493  10.430138  10.044011   9.154156
    24  H    6.813684   8.503097   9.447978   9.280772   8.757497
    25  H    7.279263   9.649252  10.315387   9.423756   7.999782
    26  H    6.519934   9.049371   9.378631   8.020525   6.168234
    27  H    2.150469   4.674003   5.394886   4.955457   4.308840
    28  H    1.086679   2.427029   3.624258   4.299027   4.955853
                   21         22         23         24         25
    21  H    0.000000
    22  H    2.455680   0.000000
    23  H    5.395378   3.625197   0.000000
    24  H    4.672884   2.426296   1.686949   0.000000
    25  H    4.955624   4.299115   2.427273   3.625087   0.000000
    26  H    4.308985   4.955810   4.674989   5.396229   2.457286
    27  H    3.783579   4.665924   6.027691   5.759676   5.466064
    28  H    4.592070   5.212516   7.318157   6.538094   7.401961
                   26         27         28
    26  H    0.000000
    27  H    4.738011   0.000000
    28  H    6.984318   2.456422   0.000000
 Stoichiometry    C12H12N2S2
 Framework group  C1[X(C12H12N2S2)]
 Deg. of freedom    78
 Full point group                 C1      NOp   1
 Largest Abelian subgroup         C1      NOp   1
 Largest concise Abelian subgroup C1      NOp   1
                         Standard orientation:                         
 ---------------------------------------------------------------------
 Center     Atomic      Atomic             Coordinates (Angstroms)
 Number     Number       Type             X           Y           Z
 ---------------------------------------------------------------------
      1          7           0       -4.367081    2.383258   -0.356740
      2          6           0       -3.548052    1.308938    0.006983
      3          6           0       -3.664301    0.081422   -0.649133
      4          6           0       -2.771980   -0.961461   -0.379158
      5          6           0       -1.719997   -0.771971    0.519694
      6         16           0       -0.568413   -2.086362    0.869805
      7         16           0        0.586944   -2.094460   -0.833524
      8          6           0        1.720716   -0.760509   -0.502029
      9          6           0        1.500511    0.500992   -1.059434
     10          6           0        2.389964    1.549546   -0.803326
     11          6           0        3.487868    1.364580    0.039781
     12          7           0        4.436270    2.380828    0.195597
     13          6           0        3.738383    0.085002    0.540685
     14          6           0        2.852304   -0.967905    0.289424
     15          6           0       -1.568189    0.470773    1.138810
     16          6           0       -2.463821    1.509334    0.864098
     17          1           0       -4.436855    3.105292    0.353498
     18          1           0       -5.276607    2.104293   -0.711377
     19          1           0       -4.453752   -0.076850   -1.379053
     20          1           0       -2.897012   -1.913238   -0.889528
     21          1           0        0.640342    0.678993   -1.700780
     22          1           0        2.213719    2.514713   -1.270683
     23          1           0        5.005267    2.289547    1.031188
     24          1           0        4.059361    3.316815    0.084732
     25          1           0        4.628794   -0.106163    1.133648
     26          1           0        3.060788   -1.949525    0.707473
     27          1           0       -0.740907    0.649458    1.821542
     28          1           0       -2.304400    2.478771    1.328476
 ---------------------------------------------------------------------
 Rotational constants (GHZ):           0.6664462           0.2608998           0.2071366
 Standard basis: 6-31G(d,p) (6D, 7F)
 There are   308 symmetry adapted cartesian basis functions of A   symmetry.
 There are   308 symmetry adapted basis functions of A   symmetry.
   308 basis functions,   580 primitive gaussians,   308 cartesian basis functions
    65 alpha electrons       65 beta electrons
       nuclear repulsion energy      1234.6330012923 Hartrees.
 NAtoms=   28 NActive=   28 NUniq=   28 SFac= 1.00D+00 NAtFMM=   60 NAOKFM=F Big=F
 Integral buffers will be    131072 words long.
 Raffenetti 2 integral format.
 Two-electron integral symmetry is turned on.
 Force inversion solution in PCM.
 ------------------------------------------------------------------------------
 Polarizable Continuum Model (PCM)
 =================================
 Model                : PCM.
 Atomic radii         : UFF (Universal Force Field).
 Polarization charges : Total charges.
 Charge compensation  : None.
 Solution method      : Matrix inversion.
 Cavity type          : Scaled VdW (van der Waals Surface) (Alpha=1.100).
 Cavity algorithm     : GePol (No added spheres)
                        Default sphere list used, NSphG=   28.
                        Lebedev-Laikov grids with approx.  5.0 points / Ang**2.
                        Smoothing algorithm: York/Karplus (Gamma=1.0000).
                        Polarization charges: spherical gaussians, with
                                              point-specific exponents (IZeta= 3).
                        Self-potential: point-specific (ISelfS= 7).
                        Self-field    : sphere-specific E.n sum rule (ISelfD= 2).
 1st derivatives      : Analytical E(r).r(x)/FMM algorithm (CHGder, D1EAlg=3).
                        Cavity 1st derivative terms included.
 2nd derivatives      : Analytical E(r).r(xy)/FMM algorithm (CHGder, D2EAlg=3).
                        Cavity 2nd derivative terms included.
 Solvent              : Water, Eps=  78.355300 Eps(inf)=   1.777849
 ------------------------------------------------------------------------------
 One-electron integrals computed using PRISM.
 NBasis=   308 RedAO= T EigKep=  4.70D-04  NBF=   308
 NBsUse=   308 1.00D-06 EigRej= -1.00D+00 NBFU=   308
 ExpMin= 1.17D-01 ExpMax= 2.19D+04 ExpMxC= 3.30D+03 IAcc=3 IRadAn=         5 AccDes= 0.00D+00
 Harris functional with IExCor=  402 and IRadAn=       5 diagonalized for initial guess.
 HarFok:  IExCor=  402 AccDes= 0.00D+00 IRadAn=         5 IDoV= 1 UseB2=F ITyADJ=14
 ICtDFT=  3500011 ScaDFX=  1.000000  1.000000  1.000000  1.000000
 FoFCou: FMM=F IPFlag=           0 FMFlag=      100000 FMFlg1=           0
         NFxFlg=           0 DoJE=T BraDBF=F KetDBF=T FulRan=T
         wScrn=  0.000000 ICntrl=       500 IOpCl=  0 I1Cent=   200000004 NGrid=           0
         NMat0=    1 NMatS0=      1 NMatT0=    0 NMatD0=    1 NMtDS0=    0 NMtDT0=    0
 Petite list used in FoFCou.
 Requested convergence on RMS density matrix=1.00D-08 within  32 cycles.
 Requested convergence on MAX density matrix=1.00D-06.
 Requested convergence on             energy=1.00D-06.
 No special actions if energy rises.
 Inv3:  Mode=1 IEnd=    18081075.
 Iteration    1 A*A^-1 deviation from unit magnitude is 3.11D-15 for   1301.
 Iteration    1 A*A^-1 deviation from orthogonality  is 2.76D-15 for   1074    623.
 Iteration    1 A^-1*A deviation from unit magnitude is 3.33D-15 for   1301.
 Iteration    1 A^-1*A deviation from orthogonality  is 2.02D-14 for   1884   1146.
 Error on total polarization charges =  0.01226
 SCF Done:  E(RB3LYP) =  -1370.42422724     A.U. after   13 cycles
            NFock= 13  Conv=0.34D-08     -V/T= 2.0059
 QCSCF skips out because SCF is already converged.
 DoSCS=F DFT=T ScalE2(SS,OS)=  1.000000  1.000000
 Range of M.O.s used for correlation:     1   308
 NBasis=   308 NAE=    65 NBE=    65 NFC=     0 NFV=     0
 NROrb=    308 NOA=    65 NOB=    65 NVA=   243 NVB=   243
 Symmetrizing basis deriv contribution to polar:
 IMax=3 JMax=2 DiffMx= 0.00D+00
 G2DrvN: will do    29 centers at a time, making    1 passes.
 Calling FoFCou, ICntrl=  3107 FMM=F I1Cent=   0 AccDes= 0.00D+00.
 NEqPCM:  Using equilibrium solvation (IEInf=0, Eps=  78.3553, EpsInf=   1.7778)
 G2PCM: DoFxE=T DoFxN=T DoGrad=T DoDP/DQ/DG/TGxP=FFFF NFrqRd=   0 IEInf=0 SqF1=F DoCFld=F IF1Alg=4.
 End of G2Drv F.D. properties file   721 does not exist.
 End of G2Drv F.D. properties file   722 does not exist.
 End of G2Drv F.D. properties file   788 does not exist.
          IDoAtm=1111111111111111111111111111
 NEqPCM:  Using equilibrium solvation (IEInf=0, Eps=  78.3553, EpsInf=   1.7778)
          Differentiating once with respect to nuclear coordinates.
 CalDSu exits because no D1Ps are significant.
          There are    87 degrees of freedom in the 1st order CPHF.  IDoFFX=6 NUNeed=     0.
     81 vectors produced by pass  0 Test12= 1.82D-14 1.15D-09 XBig12= 1.23D-01 7.45D-02.
 AX will form    81 AO Fock derivatives at one time.
     81 vectors produced by pass  1 Test12= 1.82D-14 1.15D-09 XBig12= 1.94D-02 2.23D-02.
     81 vectors produced by pass  2 Test12= 1.82D-14 1.15D-09 XBig12= 1.62D-04 1.74D-03.
     81 vectors produced by pass  3 Test12= 1.82D-14 1.15D-09 XBig12= 9.30D-07 9.41D-05.
     81 vectors produced by pass  4 Test12= 1.82D-14 1.15D-09 XBig12= 1.29D-09 3.91D-06.
     66 vectors produced by pass  5 Test12= 1.82D-14 1.15D-09 XBig12= 1.53D-12 9.78D-08.
     18 vectors produced by pass  6 Test12= 1.82D-14 1.15D-09 XBig12= 1.76D-15 3.83D-09.
 InvSVY:  IOpt=1 It=  1 EMax= 3.61D-16
 Solved reduced A of dimension   489 with    87 vectors.
 End of Minotr F.D. properties file   721 does not exist.
 End of Minotr F.D. properties file   722 does not exist.
 End of Minotr F.D. properties file   788 does not exist.

 **********************************************************************

            Population analysis using the SCF density.

 **********************************************************************

 Orbital symmetries:
       Occupied  (A) (A) (A) (A) (A) (A) (A) (A) (A) (A) (A) (A)
                 (A) (A) (A) (A) (A) (A) (A) (A) (A) (A) (A) (A)
                 (A) (A) (A) (A) (A) (A) (A) (A) (A) (A) (A) (A)
                 (A) (A) (A) (A) (A) (A) (A) (A) (A) (A) (A) (A)
                 (A) (A) (A) (A) (A) (A) (A) (A) (A) (A) (A) (A)
                 (A) (A) (A) (A) (A)
       Virtual   (A) (A) (A) (A) (A) (A) (A) (A) (A) (A) (A) (A)
                 (A) (A) (A) (A) (A) (A) (A) (A) (A) (A) (A) (A)
                 (A) (A) (A) (A) (A) (A) (A) (A) (A) (A) (A) (A)
                 (A) (A) (A) (A) (A) (A) (A) (A) (A) (A) (A) (A)
                 (A) (A) (A) (A) (A) (A) (A) (A) (A) (A) (A) (A)
                 (A) (A) (A) (A) (A) (A) (A) (A) (A) (A) (A) (A)
                 (A) (A) (A) (A) (A) (A) (A) (A) (A) (A) (A) (A)
                 (A) (A) (A) (A) (A) (A) (A) (A) (A) (A) (A) (A)
                 (A) (A) (A) (A) (A) (A) (A) (A) (A) (A) (A) (A)
                 (A) (A) (A) (A) (A) (A) (A) (A) (A) (A) (A) (A)
                 (A) (A) (A) (A) (A) (A) (A) (A) (A) (A) (A) (A)
                 (A) (A) (A) (A) (A) (A) (A) (A) (A) (A) (A) (A)
                 (A) (A) (A) (A) (A) (A) (A) (A) (A) (A) (A) (A)
                 (A) (A) (A) (A) (A) (A) (A) (A) (A) (A) (A) (A)
                 (A) (A) (A) (A) (A) (A) (A) (A) (A) (A) (A) (A)
                 (A) (A) (A) (A) (A) (A) (A) (A) (A) (A) (A) (A)
                 (A) (A) (A) (A) (A) (A) (A) (A) (A) (A) (A) (A)
                 (A) (A) (A) (A) (A) (A) (A) (A) (A) (A) (A) (A)
                 (A) (A) (A) (A) (A) (A) (A) (A) (A) (A) (A) (A)
                 (A) (A) (A) (A) (A) (A) (A) (A) (A) (A) (A) (A)
                 (A) (A) (A)
 The electronic state is 1-A.
 Alpha  occ. eigenvalues --  -88.89258 -88.89236 -14.34254 -14.34239 -10.23495
 Alpha  occ. eigenvalues --  -10.23466 -10.21167 -10.21148 -10.19899 -10.19897
 Alpha  occ. eigenvalues --  -10.19891 -10.19883 -10.18975 -10.18962 -10.18890
 Alpha  occ. eigenvalues --  -10.18882  -7.95406  -7.95390  -5.91955  -5.91931
 Alpha  occ. eigenvalues --   -5.91528  -5.91510  -5.90837  -5.90822  -0.92036
 Alpha  occ. eigenvalues --   -0.92020  -0.85987  -0.84772  -0.80307  -0.75169
 Alpha  occ. eigenvalues --   -0.74988  -0.74946  -0.71097  -0.65100  -0.62018
 Alpha  occ. eigenvalues --   -0.61981  -0.59221  -0.57391  -0.52227  -0.51625
 Alpha  occ. eigenvalues --   -0.50947  -0.50919  -0.47252  -0.45336  -0.43796
 Alpha  occ. eigenvalues --   -0.43657  -0.43435  -0.42473  -0.42047  -0.41933
 Alpha  occ. eigenvalues --   -0.40185  -0.38965  -0.37351  -0.35989  -0.35333
 Alpha  occ. eigenvalues --   -0.34978  -0.34724  -0.31805  -0.30240  -0.25858
 Alpha  occ. eigenvalues --   -0.25542  -0.25215  -0.24167  -0.21832  -0.20444
 Alpha virt. eigenvalues --   -0.04311  -0.01182  -0.00546   0.00665   0.03185
 Alpha virt. eigenvalues --    0.04692   0.05465   0.09365   0.09499   0.11826
 Alpha virt. eigenvalues --    0.12737   0.12955   0.12990   0.15337   0.15667
 Alpha virt. eigenvalues --    0.16899   0.16963   0.17582   0.18489   0.19789
 Alpha virt. eigenvalues --    0.19989   0.23456   0.24925   0.26208   0.28295
 Alpha virt. eigenvalues --    0.28452   0.29295   0.32101   0.32987   0.33228
 Alpha virt. eigenvalues --    0.33474   0.33689   0.35448   0.37178   0.38522
 Alpha virt. eigenvalues --    0.39455   0.41003   0.41735   0.45111   0.45738
 Alpha virt. eigenvalues --    0.48293   0.50878   0.52753   0.53358   0.54310
 Alpha virt. eigenvalues --    0.54768   0.55227   0.56010   0.57170   0.58184
 Alpha virt. eigenvalues --    0.58263   0.59091   0.59220   0.59345   0.59412
 Alpha virt. eigenvalues --    0.59745   0.59997   0.60681   0.61581   0.62137
 Alpha virt. eigenvalues --    0.62670   0.63457   0.65479   0.66622   0.69348
 Alpha virt. eigenvalues --    0.69570   0.71124   0.71213   0.74153   0.75478
 Alpha virt. eigenvalues --    0.77177   0.77993   0.80125   0.81645   0.81722
 Alpha virt. eigenvalues --    0.82054   0.82322   0.83711   0.84296   0.84499
 Alpha virt. eigenvalues --    0.85357   0.85526   0.85704   0.86382   0.88035
 Alpha virt. eigenvalues --    0.88409   0.88558   0.89402   0.89681   0.90069
 Alpha virt. eigenvalues --    0.92383   0.92803   0.93481   0.94201   0.95996
 Alpha virt. eigenvalues --    0.98231   1.00009   1.01260   1.01911   1.02412
 Alpha virt. eigenvalues --    1.03527   1.06582   1.06871   1.07645   1.14613
 Alpha virt. eigenvalues --    1.15014   1.15284   1.15798   1.19026   1.20457
 Alpha virt. eigenvalues --    1.22642   1.26270   1.26621   1.28014   1.29247
 Alpha virt. eigenvalues --    1.31759   1.32864   1.35352   1.36716   1.38738
 Alpha virt. eigenvalues --    1.39549   1.39677   1.40210   1.40764   1.41036
 Alpha virt. eigenvalues --    1.44514   1.45688   1.51226   1.52022   1.53888
 Alpha virt. eigenvalues --    1.56844   1.73789   1.73919   1.75464   1.76558
 Alpha virt. eigenvalues --    1.77681   1.78239   1.79516   1.80472   1.81217
 Alpha virt. eigenvalues --    1.81513   1.86267   1.86598   1.92002   1.92495
 Alpha virt. eigenvalues --    1.93759   1.94371   1.95840   1.96924   1.97489
 Alpha virt. eigenvalues --    1.98177   1.99712   2.01646   2.03164   2.03571
 Alpha virt. eigenvalues --    2.07275   2.07646   2.08534   2.10286   2.12354
 Alpha virt. eigenvalues --    2.12488   2.16444   2.16526   2.23742   2.24026
 Alpha virt. eigenvalues --    2.26117   2.26302   2.29957   2.30137   2.32772
 Alpha virt. eigenvalues --    2.33087   2.35122   2.35264   2.40340   2.40713
 Alpha virt. eigenvalues --    2.40819   2.40894   2.44293   2.45228   2.45978
 Alpha virt. eigenvalues --    2.46059   2.46309   2.46539   2.47969   2.48147
 Alpha virt. eigenvalues --    2.51689   2.52025   2.55301   2.56366   2.58500
 Alpha virt. eigenvalues --    2.58597   2.58982   2.59123   2.64753   2.64904
 Alpha virt. eigenvalues --    2.68756   2.68847   2.73255   2.74120   2.74728
 Alpha virt. eigenvalues --    2.74888   2.75415   2.75477   2.85411   2.85483
 Alpha virt. eigenvalues --    2.97816   2.97909   2.98941   2.99144   3.04922
 Alpha virt. eigenvalues --    3.05332   3.17452   3.18438   3.24434   3.24623
 Alpha virt. eigenvalues --    3.27825   3.27868   3.27952   3.28003   3.35897
 Alpha virt. eigenvalues --    3.36229   3.48068   3.48299   3.52697   3.52964
 Alpha virt. eigenvalues --    3.76273   3.78892   3.89499   4.02243   4.03383
 Alpha virt. eigenvalues --    4.03717   4.12748   4.13410   4.14740   4.15929
 Alpha virt. eigenvalues --    4.17495   4.20510   4.41127   4.42247   4.42551
 Alpha virt. eigenvalues --    4.44481   4.79050   4.79494
          Condensed to atoms (all electrons):
               1          2          3          4          5          6
     1  N    6.818427   0.302308  -0.069898   0.004488   0.000585   0.000011
     2  C    0.302308   4.572095   0.529681  -0.016428  -0.034910   0.000671
     3  C   -0.069898   0.529681   4.936701   0.523686  -0.044484   0.005365
     4  C    0.004488  -0.016428   0.523686   4.861445   0.508586  -0.066527
     5  C    0.000585  -0.034910  -0.044484   0.508586   5.130707   0.245294
     6  S    0.000011   0.000671   0.005365  -0.066527   0.245294  15.880427
     7  S   -0.000000   0.000124  -0.000704  -0.005091  -0.050190   0.081772
     8  C    0.000000  -0.000003   0.000012  -0.000330  -0.001546  -0.049126
     9  C    0.000000  -0.000034  -0.000014   0.000136   0.001892  -0.005391
    10  C   -0.000000   0.000000  -0.000000   0.000002  -0.000018  -0.000290
    11  C   -0.000000   0.000000   0.000000   0.000000  -0.000004   0.000009
    12  N    0.000000  -0.000000   0.000000  -0.000000   0.000000  -0.000001
    13  C    0.000000  -0.000000   0.000000   0.000000   0.000014  -0.000463
    14  C   -0.000000  -0.000000   0.000000  -0.000001  -0.000213  -0.004576
    15  C    0.004470  -0.016884  -0.041202  -0.026644   0.517110  -0.058943
    16  C   -0.070294   0.533297  -0.053470  -0.041625  -0.046792   0.004669
    17  H    0.343664  -0.024348   0.005463  -0.000181   0.000006  -0.000000
    18  H    0.343543  -0.024465  -0.009032  -0.000048   0.000011  -0.000000
    19  H   -0.007354  -0.043114   0.368484  -0.035954   0.004959  -0.000255
    20  H   -0.000112   0.003817  -0.034607   0.374739  -0.047467  -0.003465
    21  H   -0.000001   0.000012   0.000062   0.000252   0.000188  -0.000223
    22  H    0.000000   0.000000  -0.000000  -0.000000  -0.000000   0.000009
    23  H    0.000000  -0.000000   0.000000   0.000000   0.000000  -0.000000
    24  H    0.000000  -0.000000   0.000000   0.000000   0.000000  -0.000000
    25  H   -0.000000   0.000000  -0.000000  -0.000000  -0.000000   0.000020
    26  H   -0.000000   0.000000  -0.000000   0.000000   0.000014   0.001018
    27  H   -0.000112   0.003885   0.000666   0.004639  -0.047369  -0.000716
    28  H   -0.007371  -0.043409   0.005184   0.000441   0.005126  -0.000262
               7          8          9         10         11         12
     1  N   -0.000000   0.000000   0.000000  -0.000000  -0.000000   0.000000
     2  C    0.000124  -0.000003  -0.000034   0.000000   0.000000  -0.000000
     3  C   -0.000704   0.000012  -0.000014  -0.000000   0.000000   0.000000
     4  C   -0.005091  -0.000330   0.000136   0.000002   0.000000  -0.000000
     5  C   -0.050190  -0.001546   0.001892  -0.000018  -0.000004   0.000000
     6  S    0.081772  -0.049126  -0.005391  -0.000290   0.000009  -0.000001
     7  S   15.879716   0.247842  -0.061240   0.005006   0.000372   0.000007
     8  C    0.247842   5.131158   0.514661  -0.046251  -0.035849   0.000515
     9  C   -0.061240   0.514661   4.850237   0.522816  -0.016183   0.004503
    10  C    0.005006  -0.046251   0.522816   4.939238   0.532781  -0.070371
    11  C    0.000372  -0.035849  -0.016183   0.532781   4.570212   0.303127
    12  N    0.000007   0.000515   0.004503  -0.070371   0.303127   6.817671
    13  C    0.005562  -0.044242  -0.041595  -0.053380   0.529875  -0.069991
    14  C   -0.066443   0.509467  -0.026506  -0.041799  -0.016033   0.004488
    15  C   -0.003689   0.001541   0.002258  -0.000107  -0.000026   0.000000
    16  C   -0.000452  -0.000015  -0.000112  -0.000048  -0.000000  -0.000000
    17  H    0.000000  -0.000000  -0.000000   0.000000   0.000000  -0.000000
    18  H    0.000000   0.000000  -0.000000   0.000000   0.000000  -0.000000
    19  H    0.000018  -0.000000  -0.000000   0.000000  -0.000000  -0.000000
    20  H    0.001833   0.000014   0.000000   0.000000   0.000000  -0.000000
    21  H   -0.001305  -0.047176   0.373457  -0.034577   0.003932  -0.000110
    22  H   -0.000242   0.005170  -0.036068   0.368570  -0.043382  -0.007377
    23  H   -0.000001  -0.000002  -0.000176   0.005414  -0.024192   0.343674
    24  H   -0.000001  -0.000001  -0.000045  -0.009113  -0.024247   0.343774
    25  H   -0.000255   0.005040   0.000443   0.005166  -0.043252  -0.007333
    26  H   -0.002564  -0.047562   0.004532   0.000680   0.003898  -0.000110
    27  H   -0.000061   0.000086   0.000333   0.000123   0.000020  -0.000000
    28  H    0.000005  -0.000000  -0.000002   0.000002  -0.000000   0.000000
              13         14         15         16         17         18
     1  N    0.000000  -0.000000   0.004470  -0.070294   0.343664   0.343543
     2  C   -0.000000  -0.000000  -0.016884   0.533297  -0.024348  -0.024465
     3  C    0.000000   0.000000  -0.041202  -0.053470   0.005463  -0.009032
     4  C    0.000000  -0.000001  -0.026644  -0.041625  -0.000181  -0.000048
     5  C    0.000014  -0.000213   0.517110  -0.046792   0.000006   0.000011
     6  S   -0.000463  -0.004576  -0.058943   0.004669  -0.000000  -0.000000
     7  S    0.005562  -0.066443  -0.003689  -0.000452   0.000000   0.000000
     8  C   -0.044242   0.509467   0.001541  -0.000015  -0.000000   0.000000
     9  C   -0.041595  -0.026506   0.002258  -0.000112  -0.000000  -0.000000
    10  C   -0.053380  -0.041799  -0.000107  -0.000048   0.000000   0.000000
    11  C    0.529875  -0.016033  -0.000026  -0.000000   0.000000   0.000000
    12  N   -0.069991   0.004488   0.000000  -0.000000  -0.000000  -0.000000
    13  C    4.937056   0.523459  -0.000002   0.000000  -0.000000  -0.000000
    14  C    0.523459   4.860356   0.000115   0.000002  -0.000000  -0.000000
    15  C   -0.000002   0.000115   4.846526   0.523134  -0.000051  -0.000185
    16  C    0.000000   0.000002   0.523134   4.938816  -0.009101   0.005478
    17  H   -0.000000  -0.000000  -0.000051  -0.009101   0.425961  -0.027946
    18  H   -0.000000  -0.000000  -0.000185   0.005478  -0.027946   0.426122
    19  H   -0.000000   0.000000   0.000465   0.005151  -0.000044   0.004503
    20  H   -0.000000   0.000000   0.004484   0.000705   0.000003  -0.000006
    21  H    0.000659   0.004608   0.000310   0.000156   0.000000   0.000000
    22  H    0.005172   0.000435  -0.000003   0.000002  -0.000000   0.000000
    23  H   -0.009128  -0.000051   0.000000   0.000000  -0.000000  -0.000000
    24  H    0.005415  -0.000177   0.000000  -0.000000  -0.000000  -0.000000
    25  H    0.368432  -0.035858  -0.000000   0.000000   0.000000   0.000000
    26  H   -0.034763   0.374713  -0.000000   0.000000   0.000000  -0.000000
    27  H    0.000007   0.000107   0.373182  -0.034521  -0.000006   0.000003
    28  H   -0.000000  -0.000000  -0.036213   0.368618   0.004413  -0.000048
              19         20         21         22         23         24
     1  N   -0.007354  -0.000112  -0.000001   0.000000   0.000000   0.000000
     2  C   -0.043114   0.003817   0.000012   0.000000  -0.000000  -0.000000
     3  C    0.368484  -0.034607   0.000062  -0.000000   0.000000   0.000000
     4  C   -0.035954   0.374739   0.000252  -0.000000   0.000000   0.000000
     5  C    0.004959  -0.047467   0.000188  -0.000000   0.000000   0.000000
     6  S   -0.000255  -0.003465  -0.000223   0.000009  -0.000000  -0.000000
     7  S    0.000018   0.001833  -0.001305  -0.000242  -0.000001  -0.000001
     8  C   -0.000000   0.000014  -0.047176   0.005170  -0.000002  -0.000001
     9  C   -0.000000   0.000000   0.373457  -0.036068  -0.000176  -0.000045
    10  C    0.000000   0.000000  -0.034577   0.368570   0.005414  -0.009113
    11  C   -0.000000   0.000000   0.003932  -0.043382  -0.024192  -0.024247
    12  N   -0.000000  -0.000000  -0.000110  -0.007377   0.343674   0.343774
    13  C   -0.000000  -0.000000   0.000659   0.005172  -0.009128   0.005415
    14  C    0.000000   0.000000   0.004608   0.000435  -0.000051  -0.000177
    15  C    0.000465   0.004484   0.000310  -0.000003   0.000000   0.000000
    16  C    0.005151   0.000705   0.000156   0.000002   0.000000  -0.000000
    17  H   -0.000044   0.000003   0.000000  -0.000000  -0.000000  -0.000000
    18  H    0.004503  -0.000006   0.000000   0.000000  -0.000000  -0.000000
    19  H    0.605506  -0.006238   0.000000  -0.000000  -0.000000   0.000000
    20  H   -0.006238   0.594221   0.000006  -0.000000  -0.000000   0.000000
    21  H    0.000000   0.000006   0.593516  -0.006392   0.000003  -0.000005
    22  H   -0.000000  -0.000000  -0.006392   0.606438  -0.000043   0.004468
    23  H   -0.000000  -0.000000   0.000003  -0.000043   0.425584  -0.027863
    24  H    0.000000   0.000000  -0.000005   0.004468  -0.027863   0.425434
    25  H    0.000000   0.000000   0.000014  -0.000181   0.004418  -0.000048
    26  H    0.000000   0.000000  -0.000168   0.000014  -0.000005   0.000003
    27  H    0.000014  -0.000169   0.000004   0.000000  -0.000000  -0.000000
    28  H   -0.000181   0.000014   0.000001  -0.000000  -0.000000  -0.000000
              25         26         27         28
     1  N   -0.000000  -0.000000  -0.000112  -0.007371
     2  C    0.000000   0.000000   0.003885  -0.043409
     3  C   -0.000000  -0.000000   0.000666   0.005184
     4  C   -0.000000   0.000000   0.004639   0.000441
     5  C   -0.000000   0.000014  -0.047369   0.005126
     6  S    0.000020   0.001018  -0.000716  -0.000262
     7  S   -0.000255  -0.002564  -0.000061   0.000005
     8  C    0.005040  -0.047562   0.000086  -0.000000
     9  C    0.000443   0.004532   0.000333  -0.000002
    10  C    0.005166   0.000680   0.000123   0.000002
    11  C   -0.043252   0.003898   0.000020  -0.000000
    12  N   -0.007333  -0.000110  -0.000000   0.000000
    13  C    0.368432  -0.034763   0.000007  -0.000000
    14  C   -0.035858   0.374713   0.000107  -0.000000
    15  C   -0.000000  -0.000000   0.373182  -0.036213
    16  C    0.000000   0.000000  -0.034521   0.368618
    17  H    0.000000   0.000000  -0.000006   0.004413
    18  H    0.000000  -0.000000   0.000003  -0.000048
    19  H    0.000000   0.000000   0.000014  -0.000181
    20  H    0.000000   0.000000  -0.000169   0.000014
    21  H    0.000014  -0.000168   0.000004   0.000001
    22  H   -0.000181   0.000014   0.000000  -0.000000
    23  H    0.004418  -0.000005  -0.000000  -0.000000
    24  H   -0.000048   0.000003  -0.000000  -0.000000
    25  H    0.605767  -0.006301   0.000000  -0.000000
    26  H   -0.006301   0.594353   0.000002  -0.000000
    27  H    0.000000   0.000002   0.594197  -0.006360
    28  H   -0.000000  -0.000000  -0.006360   0.606951
 Mulliken charges:
               1
     1  N   -0.662354
     2  C    0.257704
     3  C   -0.121892
     4  C   -0.085588
     5  C   -0.141498
     6  S   -0.029028
     7  S   -0.030020
     8  C   -0.143403
     9  C   -0.087902
    10  C   -0.123845
    11  C    0.258941
    12  N   -0.662465
    13  C   -0.122086
    14  C   -0.086096
    15  C   -0.089646
    16  C   -0.123597
    17  H    0.282166
    18  H    0.282070
    19  H    0.104040
    20  H    0.112228
    21  H    0.112779
    22  H    0.103410
    23  H    0.282368
    24  H    0.282404
    25  H    0.103928
    26  H    0.112245
    27  H    0.112046
    28  H    0.103092
 Sum of Mulliken charges =  -0.00000
 Mulliken charges with hydrogens summed into heavy atoms:
               1
     1  N   -0.098118
     2  C    0.257704
     3  C   -0.017853
     4  C    0.026639
     5  C   -0.141498
     6  S   -0.029028
     7  S   -0.030020
     8  C   -0.143403
     9  C    0.024877
    10  C   -0.020434
    11  C    0.258941
    12  N   -0.097693
    13  C   -0.018159
    14  C    0.026149
    15  C    0.022400
    16  C   -0.020505
 APT charges:
               1
     1  N   -1.610113
     2  C    0.244771
     3  C   -0.417699
     4  C   -0.553907
     5  C   -0.400050
     6  S   -0.065525
     7  S   -0.061285
     8  C   -0.457653
     9  C   -0.581830
    10  C   -0.460769
    11  C    0.160906
    12  N   -1.148378
    13  C   -0.452196
    14  C   -0.516957
    15  C   -0.607459
    16  C   -0.429064
    17  H    0.772926
    18  H    1.070647
    19  H    0.755184
    20  H    0.523197
    21  H    0.228955
    22  H    0.481029
    23  H    0.899451
    24  H    0.550901
    25  H    0.801896
    26  H    0.557472
    27  H    0.237264
    28  H    0.478289
 Sum of APT charges =  -0.00000
 APT charges with hydrogens summed into heavy atoms:
               1
     1  N    0.233460
     2  C    0.244771
     3  C    0.337485
     4  C   -0.030710
     5  C   -0.400050
     6  S   -0.065525
     7  S   -0.061285
     8  C   -0.457653
     9  C   -0.352876
    10  C    0.020260
    11  C    0.160906
    12  N    0.301974
    13  C    0.349700
    14  C    0.040515
    15  C   -0.370195
    16  C    0.049224
 Electronic spatial extent (au):  <R**2>=           5194.9487
 Charge=              0.0000 electrons
 Dipole moment (field-independent basis, Debye):
    X=             -1.3413    Y=              6.7397    Z=              1.8087  Tot=              7.1059
 Quadrupole moment (field-independent basis, Debye-Ang):
   XX=            -73.8140   YY=            -98.5034   ZZ=           -107.8220
   XY=             -0.8609   XZ=             10.9484   YZ=              5.9784
 Traceless Quadrupole moment (field-independent basis, Debye-Ang):
   XX=             19.5658   YY=             -5.1236   ZZ=            -14.4422
   XY=             -0.8609   XZ=             10.9484   YZ=              5.9784
 Octapole moment (field-independent basis, Debye-Ang**2):
  XXX=            -87.7540  YYY=             83.4838  ZZZ=              2.2271  XYY=              8.2043
  XXY=             84.3536  XXZ=             37.2901  XZZ=              3.2039  YZZ=             11.2149
  YYZ=             16.3255  XYZ=             -5.0836
 Hexadecapole moment (field-independent basis, Debye-Ang**3):
 XXXX=          -3844.6120 YYYY=          -1590.5312 ZZZZ=           -471.9359 XXXY=           -184.8822
 XXXZ=            354.7712 YYYX=             45.8366 YYYZ=             51.9525 ZZZX=             26.2729
 ZZZY=              9.0664 XXYY=           -805.4836 XXZZ=           -846.4890 YYZZ=           -364.6846
 XXYZ=            113.7807 YYXZ=              7.9595 ZZXY=             14.3492
 N-N= 1.234633001292D+03 E-N=-5.694417284415D+03  KE= 1.362424207800D+03
  Exact polarizability:   0.000   0.000   0.000   0.000   0.000   0.000
 Approx polarizability: 322.009  -3.366 339.518  59.085   1.031 202.205
 D2PCM: PCM CHGder 2nd derivatives, FixD1E=F FixD2E=F DoIter=F DoCFld=F I1PDM=0
 Calling FoFJK, ICntrl=    100147 FMM=F ISym2X=0 I1Cent= 0 IOpClX= 0 NMat=1 NMatS=1 NMatT=0.
 ***** Axes restored to original set *****
 -------------------------------------------------------------------
 Center     Atomic                   Forces (Hartrees/Bohr)
 Number     Number              X              Y              Z
 -------------------------------------------------------------------
      1        7           0.000944692   -0.001514590    0.007117754
      2        6          -0.000007854    0.002086750   -0.020701836
      3        6          -0.002474648    0.011302804    0.014095286
      4        6           0.010187714    0.000245810   -0.006995128
      5        6          -0.000013162   -0.002170863    0.004736264
      6       16           0.012467935   -0.008220318    0.011067569
      7       16          -0.012634880    0.011629625   -0.005002674
      8        6          -0.000060460    0.005588288    0.000062636
      9        6          -0.002734758   -0.005238590   -0.008539728
     10        6           0.015075787    0.005531986   -0.000281718
     11        6          -0.015979701    0.004022170   -0.012760095
     12        7           0.005669937   -0.002193718    0.004019737
     13        6           0.004242051    0.003246431    0.017479937
     14        6          -0.010114280   -0.006547724   -0.003573590
     15        6           0.003472603   -0.005072686   -0.007815256
     16        6          -0.009620012   -0.007683359    0.010226564
     17        1           0.002091692    0.002854835   -0.000437853
     18        1          -0.001186569   -0.003055701   -0.001528136
     19        1           0.001150810   -0.001297106   -0.000000201
     20        1          -0.000648797   -0.001280351   -0.000215703
     21        1          -0.001402796   -0.000165968    0.001537119
     22        1          -0.000564164   -0.001561607    0.000171360
     23        1           0.001268812    0.000030294   -0.003307444
     24        1          -0.002815677   -0.000806011    0.002110985
     25        1           0.000242910   -0.001301847   -0.000777832
     26        1           0.000860903    0.000233228   -0.001144435
     27        1           0.000955221    0.001565937    0.000342931
     28        1           0.001626690   -0.000227719    0.000113485
 -------------------------------------------------------------------
 Cartesian Forces:  Max     0.020701836 RMS     0.006427754
 FormGI is forming the generalized inverse of G from B-inverse, IUseBI=4.

 GradGradGradGradGradGradGradGradGradGradGradGradGradGradGradGradGradGrad
 Berny optimization.
 Internal  Forces:  Max     0.023801888 RMS     0.004133087
 Search for a local minimum.
 Step number   1 out of a maximum of  144
 All quantities printed in internal units (Hartrees-Bohrs-Radians)
 Mixed Optimization -- RFO/linear search
 Second derivative matrix not updated -- analytic derivatives used.
 ITU=  0
     Eigenvalues ---    0.00356   0.00489   0.00626   0.00629   0.01424
     Eigenvalues ---    0.01478   0.01668   0.01691   0.01733   0.01738
     Eigenvalues ---    0.01827   0.01889   0.02078   0.02095   0.02143
     Eigenvalues ---    0.02147   0.02316   0.02355   0.02366   0.02720
     Eigenvalues ---    0.02742   0.02762   0.02768   0.02934   0.02937
     Eigenvalues ---    0.11256   0.11264   0.11481   0.11495   0.11814
     Eigenvalues ---    0.11818   0.12642   0.12656   0.13478   0.13515
     Eigenvalues ---    0.14370   0.15357   0.15406   0.16381   0.16945
     Eigenvalues ---    0.17336   0.17501   0.18427   0.18623   0.19461
     Eigenvalues ---    0.19471   0.21675   0.21679   0.23205   0.23498
     Eigenvalues ---    0.28298   0.29016   0.31658   0.31779   0.35592
     Eigenvalues ---    0.35594   0.35858   0.35874   0.35890   0.35903
     Eigenvalues ---    0.35954   0.35975   0.38214   0.38470   0.41198
     Eigenvalues ---    0.41240   0.44468   0.44620   0.45547   0.45614
     Eigenvalues ---    0.45982   0.46056   0.46864   0.46952   0.47691
     Eigenvalues ---    0.47711   0.51566   0.51602
 RFO step:  Lambda=-1.05644196D-02 EMin= 3.55716238D-03
 Linear search not attempted -- first point.
 Iteration  1 RMS(Cart)=  0.16180962 RMS(Int)=  0.00166889
 Iteration  2 RMS(Cart)=  0.00585045 RMS(Int)=  0.00035430
 Iteration  3 RMS(Cart)=  0.00001285 RMS(Int)=  0.00035425
 Iteration  4 RMS(Cart)=  0.00000000 RMS(Int)=  0.00035425
 Variable       Old X    -DE/DX   Delta X   Delta X   Delta X     New X
                                 (Linear)    (Quad)   (Total)
    R1        2.64377  -0.00237   0.00000  -0.02447  -0.02447   2.61931
    R2        1.91846  -0.00250   0.00000  -0.00676  -0.00676   1.91170
    R3        1.91863  -0.00258   0.00000  -0.00699  -0.00699   1.91164
    R4        2.63940   0.01055   0.00000   0.02518   0.02525   2.66464
    R5        2.63910   0.00914   0.00000   0.02274   0.02279   2.66189
    R6        2.64341  -0.00683   0.00000  -0.01958  -0.01956   2.62385
    R7        2.05370  -0.00002   0.00000  -0.00022  -0.00022   2.05347
    R8        2.63920   0.00592   0.00000   0.01458   0.01453   2.65373
    R9        2.05450  -0.00128   0.00000  -0.00282  -0.00282   2.05167
   R10        3.36793   0.00617   0.00000   0.00336   0.00336   3.37128
   R11        2.63938   0.00517   0.00000   0.01356   0.01349   2.65287
   R12        3.88946   0.02380   0.00000   0.11924   0.11924   4.00870
   R13        3.36708   0.00599   0.00000   0.00367   0.00367   3.37076
   R14        2.63925   0.00550   0.00000   0.01420   0.01413   2.65338
   R15        2.63879   0.00616   0.00000   0.01503   0.01495   2.65374
   R16        2.64304  -0.00519   0.00000  -0.01671  -0.01670   2.62634
   R17        2.05529  -0.00186   0.00000  -0.00416  -0.00416   2.05113
   R18        2.63915   0.00942   0.00000   0.02311   0.02319   2.66235
   R19        2.05367  -0.00006   0.00000  -0.00039  -0.00039   2.05328
   R20        2.64326  -0.00269   0.00000  -0.02470  -0.02470   2.61855
   R21        2.63952   0.01043   0.00000   0.02491   0.02499   2.66451
   R22        1.91814  -0.00244   0.00000  -0.00651  -0.00651   1.91164
   R23        1.91826  -0.00254   0.00000  -0.00667  -0.00667   1.91158
   R24        2.64351  -0.00680   0.00000  -0.01961  -0.01962   2.62389
   R25        2.05362  -0.00004   0.00000  -0.00035  -0.00035   2.05327
   R26        2.05434  -0.00125   0.00000  -0.00273  -0.00273   2.05161
   R27        2.64307  -0.00502   0.00000  -0.01629  -0.01631   2.62676
   R28        2.05490  -0.00164   0.00000  -0.00373  -0.00373   2.05116
   R29        2.05353  -0.00003   0.00000  -0.00028  -0.00028   2.05324
    A1        1.98723   0.00234   0.00000   0.02992   0.02915   2.01638
    A2        1.98697   0.00234   0.00000   0.02971   0.02893   2.01590
    A3        1.95866  -0.00304   0.00000  -0.00546  -0.00656   1.95211
    A4        2.09905   0.00075   0.00000   0.00784   0.00639   2.10545
    A5        2.09888   0.00127   0.00000   0.01002   0.00857   2.10745
    A6        2.07035  -0.00142   0.00000  -0.00217  -0.00342   2.06693
    A7        2.10769  -0.00042   0.00000  -0.00165  -0.00155   2.10614
    A8        2.09898  -0.00109   0.00000  -0.01326  -0.01332   2.08566
    A9        2.07652   0.00150   0.00000   0.01490   0.01484   2.09136
   A10        2.09851   0.00187   0.00000   0.00935   0.00931   2.10782
   A11        2.08141  -0.00023   0.00000   0.00467   0.00464   2.08605
   A12        2.10312  -0.00163   0.00000  -0.01378  -0.01381   2.08931
   A13        2.10956   0.00127   0.00000   0.00565   0.00558   2.11514
   A14        2.08046  -0.00103   0.00000  -0.00863  -0.00884   2.07162
   A15        2.09312  -0.00023   0.00000   0.00323   0.00316   2.09628
   A16        1.77525   0.01903   0.00000   0.05992   0.05992   1.83517
   A17        1.77243   0.01960   0.00000   0.06373   0.06373   1.83616
   A18        2.09630  -0.00002   0.00000   0.00262   0.00271   2.09901
   A19        2.10587   0.00110   0.00000   0.00637   0.00646   2.11233
   A20        2.08074  -0.00108   0.00000  -0.00899  -0.00918   2.07157
   A21        2.09880   0.00170   0.00000   0.00913   0.00903   2.10784
   A22        2.10351  -0.00180   0.00000  -0.01430  -0.01426   2.08925
   A23        2.08086   0.00010   0.00000   0.00518   0.00523   2.08609
   A24        2.10737  -0.00062   0.00000  -0.00185  -0.00178   2.10559
   A25        2.07595   0.00171   0.00000   0.01541   0.01538   2.09132
   A26        2.09987  -0.00109   0.00000  -0.01357  -0.01360   2.08627
   A27        2.09908   0.00115   0.00000   0.00953   0.00818   2.10726
   A28        2.07010  -0.00129   0.00000  -0.00192  -0.00309   2.06701
   A29        2.09905   0.00072   0.00000   0.00760   0.00624   2.10528
   A30        1.98936   0.00225   0.00000   0.02819   0.02750   2.01687
   A31        1.98886   0.00227   0.00000   0.02872   0.02804   2.01690
   A32        1.96164  -0.00307   0.00000  -0.00699  -0.00796   1.95368
   A33        2.10773  -0.00048   0.00000  -0.00167  -0.00163   2.10610
   A34        2.09876  -0.00102   0.00000  -0.01318  -0.01320   2.08556
   A35        2.07669   0.00150   0.00000   0.01485   0.01483   2.09152
   A36        2.09823   0.00191   0.00000   0.00977   0.00964   2.10786
   A37        2.10305  -0.00169   0.00000  -0.01391  -0.01387   2.08919
   A38        2.08184  -0.00021   0.00000   0.00424   0.00429   2.08613
   A39        2.09906   0.00174   0.00000   0.00891   0.00878   2.10784
   A40        2.10274  -0.00175   0.00000  -0.01364  -0.01369   2.08905
   A41        2.08113   0.00003   0.00000   0.00521   0.00516   2.08630
   A42        2.10731  -0.00059   0.00000  -0.00166  -0.00159   2.10572
   A43        2.09923  -0.00099   0.00000  -0.01266  -0.01269   2.08654
   A44        2.07665   0.00159   0.00000   0.01431   0.01428   2.09093
    D1        2.79951  -0.00176   0.00000  -0.02405  -0.02393   2.77559
    D2       -0.52923   0.00178   0.00000   0.07324   0.07382  -0.45540
    D3        0.52423  -0.00182   0.00000  -0.07314  -0.07372   0.45051
    D4       -2.80451   0.00173   0.00000   0.02415   0.02403  -2.78048
    D5        3.03992   0.00187   0.00000   0.04281   0.04265   3.08256
    D6       -0.10263   0.00152   0.00000   0.03713   0.03703  -0.06560
    D7        0.08245  -0.00190   0.00000  -0.05418  -0.05412   0.02833
    D8       -3.06010  -0.00225   0.00000  -0.05986  -0.05974  -3.11984
    D9       -3.04017  -0.00151   0.00000  -0.03626  -0.03623  -3.07640
   D10        0.10150  -0.00158   0.00000  -0.03798  -0.03791   0.06359
   D11       -0.08268   0.00220   0.00000   0.06048   0.06041  -0.02227
   D12        3.05898   0.00213   0.00000   0.05877   0.05873   3.11772
   D13       -0.03946   0.00053   0.00000   0.02147   0.02148  -0.01799
   D14        3.12059   0.00016   0.00000   0.00669   0.00664   3.12722
   D15        3.10307   0.00088   0.00000   0.02709   0.02713   3.13020
   D16       -0.02007   0.00051   0.00000   0.01231   0.01229  -0.00777
   D17       -3.13610  -0.00058   0.00000  -0.02303  -0.02295   3.12414
   D18       -0.00484   0.00050   0.00000   0.00578   0.00583   0.00099
   D19       -0.01320  -0.00019   0.00000  -0.00786  -0.00788  -0.02108
   D20        3.11806   0.00089   0.00000   0.02095   0.02090   3.13896
   D21        1.31272   0.00137   0.00000   0.09939   0.09947   1.41219
   D22       -1.81847   0.00029   0.00000   0.07044   0.07036  -1.74811
   D23        0.00459  -0.00021   0.00000   0.00047   0.00049   0.00508
   D24       -3.11268  -0.00096   0.00000  -0.02261  -0.02249  -3.13517
   D25        3.13595   0.00087   0.00000   0.02902   0.02896  -3.11827
   D26        0.01867   0.00012   0.00000   0.00594   0.00599   0.02466
   D27        1.41896   0.00080   0.00000   0.02011   0.02011   1.43907
   D28       -1.73407   0.00048   0.00000   0.04727   0.04725  -1.68681
   D29        1.43308   0.00038   0.00000   0.04775   0.04776   1.48084
   D30       -3.13942   0.00023   0.00000   0.01706   0.01709  -3.12232
   D31       -0.00342   0.00031   0.00000   0.01789   0.01791   0.01449
   D32       -0.02301   0.00037   0.00000   0.01680   0.01682  -0.00619
   D33        3.11299   0.00044   0.00000   0.01764   0.01764   3.13063
   D34        3.13842  -0.00004   0.00000  -0.01305  -0.01306   3.12536
   D35        0.00884  -0.00046   0.00000  -0.02246  -0.02240  -0.01356
   D36        0.02215  -0.00015   0.00000  -0.01274  -0.01272   0.00943
   D37       -3.10743  -0.00058   0.00000  -0.02215  -0.02206  -3.12949
   D38       -0.03111   0.00060   0.00000   0.01696   0.01696  -0.01415
   D39        3.11151   0.00072   0.00000   0.01749   0.01750   3.12901
   D40        3.11600   0.00054   0.00000   0.01620   0.01620   3.13220
   D41       -0.02456   0.00065   0.00000   0.01673   0.01674  -0.00782
   D42        3.04182   0.00173   0.00000   0.03964   0.03961   3.08144
   D43        0.08465  -0.00185   0.00000  -0.05401  -0.05395   0.03070
   D44       -0.10081   0.00162   0.00000   0.03912   0.03909  -0.06172
   D45       -3.05799  -0.00196   0.00000  -0.05453  -0.05447  -3.11246
   D46        2.80445  -0.00178   0.00000  -0.02424  -0.02415   2.78029
   D47        0.52094  -0.00168   0.00000  -0.06931  -0.06983   0.45111
   D48       -0.52463   0.00165   0.00000   0.06996   0.07049  -0.45415
   D49       -2.80814   0.00175   0.00000   0.02490   0.02481  -2.78334
   D50       -0.08552   0.00206   0.00000   0.05811   0.05804  -0.02748
   D51        3.05608   0.00193   0.00000   0.05518   0.05515   3.11123
   D52       -3.04270  -0.00157   0.00000  -0.03574  -0.03562  -3.07832
   D53        0.09890  -0.00170   0.00000  -0.03867  -0.03852   0.06038
   D54        0.03283  -0.00105   0.00000  -0.02521  -0.02518   0.00765
   D55       -3.12063  -0.00064   0.00000  -0.01605  -0.01598  -3.13661
   D56       -3.10877  -0.00092   0.00000  -0.02232  -0.02228  -3.13105
   D57        0.02096  -0.00051   0.00000  -0.01315  -0.01308   0.00788
   D58        0.03997  -0.00110   0.00000  -0.03410  -0.03414   0.00583
   D59       -3.10170  -0.00103   0.00000  -0.03241  -0.03246  -3.13416
   D60       -3.12564  -0.00039   0.00000  -0.01156  -0.01147  -3.13711
   D61        0.01588  -0.00032   0.00000  -0.00987  -0.00979   0.00609
         Item               Value     Threshold  Converged?
 Maximum Force            0.023802     0.000450     NO 
 RMS     Force            0.004133     0.000300     NO 
 Maximum Displacement     0.526964     0.001800     NO 
 RMS     Displacement     0.165292     0.001200     NO 
 Predicted change in Energy=-5.949884D-03
 GradGradGradGradGradGradGradGradGradGradGradGradGradGradGradGradGradGrad

                          Input orientation:                          
 ---------------------------------------------------------------------
 Center     Atomic      Atomic             Coordinates (Angstroms)
 Number     Number       Type             X           Y           Z
 ---------------------------------------------------------------------
      1          7           0        4.684670   -0.579731   -1.294869
      2          6           0        3.744751   -0.274603   -0.322933
      3          6           0        3.798971    0.952967    0.368750
      4          6           0        2.818400    1.289461    1.292399
      5          6           0        1.740159    0.425237    1.542501
      6         16           0        0.488228    0.834247    2.745854
      7         16           0       -0.825505    2.167568    1.747686
      8          6           0       -1.928941    1.124163    0.812047
      9          6           0       -1.678059    0.866121   -0.545151
     10          6           0       -2.543116    0.073306   -1.289912
     11          6           0       -3.682225   -0.502659   -0.693621
     12          7           0       -4.583838   -1.234549   -1.449622
     13          6           0       -3.942359   -0.224696    0.664011
     14          6           0       -3.076842    0.571212    1.402493
     15          6           0        1.672434   -0.788661    0.840631
     16          6           0        2.655202   -1.133666   -0.079861
     17          1           0        4.790728   -1.563548   -1.505222
     18          1           0        5.578971   -0.117297   -1.196331
     19          1           0        4.620999    1.637973    0.179426
     20          1           0        2.885766    2.233614    1.824171
     21          1           0       -0.801086    1.293678   -1.020784
     22          1           0       -2.340393   -0.106781   -2.342080
     23          1           0       -5.172941   -1.871907   -0.929951
     24          1           0       -4.206299   -1.664036   -2.284050
     25          1           0       -4.831343   -0.636725    1.133608
     26          1           0       -3.292725    0.769461    2.447843
     27          1           0        0.842888   -1.466110    1.016901
     28          1           0        2.583504   -2.074040   -0.619401
 ---------------------------------------------------------------------
                    Distance matrix (angstroms):
                    1          2          3          4          5
     1  N    0.000000
     2  C    1.386077   0.000000
     3  C    2.429250   1.410068   0.000000
     4  C    3.697404   2.431814   1.388479   0.000000
     5  C    4.210793   2.826307   2.427941   1.404293   0.000000
     6  S    5.994740   4.609984   4.077467   2.783784   1.784006
     7  S    6.867811   5.580225   4.976193   3.775765   3.108126
     8  C    7.147181   5.952773   5.747590   4.774443   3.805831
     9  C    6.567868   5.545944   5.553432   4.875853   4.029501
    10  C    7.257229   6.371292   6.614154   6.073978   5.147122
    11  C    8.388824   7.439717   7.695178   7.029516   5.938306
    12  N    9.292900   8.459097   8.852299   8.287487   7.190315
    13  C    8.853750   7.750368   7.835959   6.956680   5.786637
    14  C    8.297077   7.087074   6.963559   5.939854   4.821245
    15  C    3.698320   2.431590   2.788923   2.415766   1.403837
    16  C    2.429368   1.408613   2.421465   2.789494   2.428897
    17  H    1.011629   2.037954   3.290623   4.456055   4.748669
    18  H    1.011597   2.037630   2.600644   3.974104   4.746792
    19  H    2.663796   2.162897   1.086650   2.146983   3.409977
    20  H    4.569396   3.411607   2.142954   1.085700   2.159162
    21  H    5.803301   4.859129   4.817407   4.295521   3.712485
    22  H    7.118416   6.413587   6.794369   6.463132   5.658968
    23  H    9.948637   9.079927   9.495353   8.876633   7.692908
    24  H    9.011300   8.306365   8.830085   8.417869   7.373460
    25  H    9.821164   8.706436   8.808771   7.890119   6.669302
    26  H    8.914428   7.635007   7.392458   6.241097   5.125236
    27  H    4.570474   3.411107   3.874333   3.401723   2.158366
    28  H    2.665354   2.162027   3.408309   3.875989   3.410490
                    6          7          8          9         10
     6  S    0.000000
     7  S    2.121315   0.000000
     8  C    3.109078   1.783728   0.000000
     9  C    3.940118   2.770869   1.404106   0.000000
    10  C    5.104457   4.069782   2.428939   1.389802   0.000000
    11  C    5.568661   4.609874   2.826233   2.431519   1.408853
    12  N    6.899840   5.993517   4.210362   3.697896   2.429103
    13  C    5.008546   4.075789   2.428001   2.789087   2.421673
    14  C    3.818838   2.781371   1.404300   2.415964   2.789591
    15  C    2.768764   3.975141   4.077943   3.985536   4.801361
    16  C    4.068553   5.133556   5.187259   4.795080   5.472067
    17  H    6.506350   7.486302   7.599176   6.976405   7.517375
    18  H    6.508605   7.409802   7.870423   7.352254   8.124862
    19  H    4.930754   5.692480   6.600449   6.387401   7.478749
    20  H    2.925050   3.712647   5.043478   5.320923   6.620967
    21  H    4.007614   2.903223   2.158717   1.085410   2.143924
    22  H    5.896923   4.918713   3.410724   2.148064   1.086548
    23  H    7.272114   6.510553   4.747055   4.456351   3.290806
    24  H    7.319832   6.508906   4.748287   3.977117   2.602469
    25  H    5.749864   4.928274   3.409995   3.875562   3.407869
    26  H    3.793232   2.920975   2.159062   3.402131   3.875223
    27  H    2.899432   4.064628   3.799279   3.772861   4.376781
    28  H    4.916631   5.934280   5.713117   5.177931   5.598474
                   11         12         13         14         15
    11  C    0.000000
    12  N    1.385679   0.000000
    13  C    1.409999   2.428733   0.000000
    14  C    2.431744   3.696806   1.388505   0.000000
    15  C    5.577464   6.677202   5.645809   4.971978   0.000000
    16  C    6.398269   7.368183   6.701297   6.161193   1.390023
    17  H    8.577594   9.380503   9.097522   8.655095   3.978345
    18  H    9.282832  10.227175   9.701966   9.063720   4.456565
    19  H    8.619051   9.779275   8.776985   7.867060   3.875536
    20  H    7.547514   8.862328   7.349323   6.204360   3.402010
    21  H    3.410986   4.570017   3.874479   3.401954   3.730858
    22  H    2.162095   2.664844   3.408340   3.876063   5.166952
    23  H    2.037873   1.011596   2.601605   3.975268   7.153149
    24  H    2.037870   1.011566   3.291265   4.456748   6.714866
    25  H    2.162686   2.663030   1.086546   2.147018   6.512146
    26  H    3.411568   4.568727   2.142995   1.085663   5.446437
    27  H    4.932624   5.965461   4.956232   4.434371   1.085429
    28  H    6.460194   7.263939   6.903196   6.566957   2.148008
                   16         17         18         19         20
    16  C    0.000000
    17  H    2.603253   0.000000
    18  H    3.290583   1.675823   0.000000
    19  H    3.407869   3.621682   2.427219   0.000000
    20  H    3.875186   5.397423   4.680125   2.463942   0.000000
    21  H    4.327038   6.298159   6.536574   5.563995   4.750802
    22  H    5.579256   7.326349   8.001823   7.606782   7.081513
    23  H    7.908696   9.985025  10.897396  10.462850   9.454271
    24  H    7.226337   9.031233   9.966296   9.741313   9.075601
    25  H    7.600514  10.020314  10.680499   9.768904   8.262535
    26  H    6.737136   9.295798   9.631891   8.278107   6.380161
    27  H    2.144268   4.685727   5.398905   4.960929   4.302672
    28  H    1.086530   2.432513   3.624157   4.309124   4.961682
                   21         22         23         24         25
    21  H    0.000000
    22  H    2.465071   0.000000
    23  H    5.398361   3.623964   0.000000
    24  H    4.683951   2.431053   1.676661   0.000000
    25  H    4.960931   4.308838   2.429123   3.623042   0.000000
    26  H    4.302840   4.961663   4.682043   5.398827   2.464126
    27  H    3.804109   4.823257   6.336016   6.035706   5.735713
    28  H    4.791459   5.575167   7.765291   7.002899   7.753636
                   26         27         28
    26  H    0.000000
    27  H    4.914129   0.000000
    28  H    7.212735   2.465118   0.000000
 Stoichiometry    C12H12N2S2
 Framework group  C1[X(C12H12N2S2)]
 Deg. of freedom    78
 Full point group                 C1      NOp   1
 Largest Abelian subgroup         C1      NOp   1
 Largest concise Abelian subgroup C1      NOp   1
                         Standard orientation:                         
 ---------------------------------------------------------------------
 Center     Atomic      Atomic             Coordinates (Angstroms)
 Number     Number       Type             X           Y           Z
 ---------------------------------------------------------------------
      1          7           0       -4.612144    2.315872   -0.338276
      2          6           0       -3.729978    1.293247   -0.026454
      3          6           0       -3.847230    0.030369   -0.642638
[...]
    26    C    2  dxy    Ryd( 3d)     0.00108
    27    C    2  dxz    Ryd( 3d)     0.00077
    28    C    2  dyz    Ryd( 3d)     0.00115
    29    C    2  dx2y2  Ryd( 3d)     0.00106
    30    C    2  dz2    Ryd( 3d)     0.00066

    31    C    3  S      Cor( 1S)     1.99904
    32    C    3  S      Val( 2S)     0.96183
    33    C    3  S      Ryd( 3S)     0.00061
    34    C    3  S      Ryd( 4S)     0.00004
    35    C    3  px     Val( 2p)     1.16074
    36    C    3  px     Ryd( 3p)     0.00392
    37    C    3  py     Val( 2p)     1.05281
    38    C    3  py     Ryd( 3p)     0.00387
    39    C    3  pz     Val( 2p)     1.07040
    40    C    3  pz     Ryd( 3p)     0.00175
    41    C    3  dxy    Ryd( 3d)     0.00048
    42    C    3  dxz    Ryd( 3d)     0.00051
    43    C    3  dyz    Ryd( 3d)     0.00053
    44    C    3  dx2y2  Ryd( 3d)     0.00067
    45    C    3  dz2    Ryd( 3d)     0.00036

    46    C    4  S      Cor( 1S)     1.99899
    47    C    4  S      Val( 2S)     0.96243
    48    C    4  S      Ryd( 3S)     0.00109
    49    C    4  S      Ryd( 4S)     0.00005
    50    C    4  px     Val( 2p)     1.04834
    51    C    4  px     Ryd( 3p)     0.00435
    52    C    4  py     Val( 2p)     1.18688
    53    C    4  py     Ryd( 3p)     0.00619
    54    C    4  pz     Val( 2p)     1.02257
    55    C    4  pz     Ryd( 3p)     0.00235
    56    C    4  dxy    Ryd( 3d)     0.00058
    57    C    4  dxz    Ryd( 3d)     0.00045
    58    C    4  dyz    Ryd( 3d)     0.00052
    59    C    4  dx2y2  Ryd( 3d)     0.00068
    60    C    4  dz2    Ryd( 3d)     0.00040

    61    C    5  S      Cor( 1S)     1.99881
    62    C    5  S      Val( 2S)     0.95841
    63    C    5  S      Ryd( 3S)     0.00135
    64    C    5  S      Ryd( 4S)     0.00006
    65    C    5  px     Val( 2p)     1.07195
    66    C    5  px     Ryd( 3p)     0.00718
    67    C    5  py     Val( 2p)     1.09199
    68    C    5  py     Ryd( 3p)     0.00634
    69    C    5  pz     Val( 2p)     1.04111
    70    C    5  pz     Ryd( 3p)     0.00305
    71    C    5  dxy    Ryd( 3d)     0.00114
    72    C    5  dxz    Ryd( 3d)     0.00067
    73    C    5  dyz    Ryd( 3d)     0.00075
    74    C    5  dx2y2  Ryd( 3d)     0.00106
    75    C    5  dz2    Ryd( 3d)     0.00068

    76    S    6  S      Cor( 1S)     2.00000
    77    S    6  S      Cor( 2S)     1.99951
    78    S    6  S      Val( 3S)     1.75405
    79    S    6  S      Ryd( 4S)     0.01031
    80    S    6  S      Ryd( 5S)     0.00001
    81    S    6  px     Cor( 2p)     1.99989
    82    S    6  px     Val( 3p)     1.31264
    83    S    6  px     Ryd( 4p)     0.01172
    84    S    6  py     Cor( 2p)     1.99991
    85    S    6  py     Val( 3p)     1.46377
    86    S    6  py     Ryd( 4p)     0.00512
    87    S    6  pz     Cor( 2p)     1.99993
    88    S    6  pz     Val( 3p)     1.54119
    89    S    6  pz     Ryd( 4p)     0.00542
    90    S    6  dxy    Ryd( 3d)     0.00505
    91    S    6  dxz    Ryd( 3d)     0.00604
    92    S    6  dyz    Ryd( 3d)     0.00268
    93    S    6  dx2y2  Ryd( 3d)     0.00255
    94    S    6  dz2    Ryd( 3d)     0.00384

    95    S    7  S      Cor( 1S)     2.00000
    96    S    7  S      Cor( 2S)     1.99951
    97    S    7  S      Val( 3S)     1.75402
    98    S    7  S      Ryd( 4S)     0.01032
    99    S    7  S      Ryd( 5S)     0.00001
   100    S    7  px     Cor( 2p)     1.99989
   101    S    7  px     Val( 3p)     1.31223
   102    S    7  px     Ryd( 4p)     0.01171
   103    S    7  py     Cor( 2p)     1.99991
   104    S    7  py     Val( 3p)     1.46223
   105    S    7  py     Ryd( 4p)     0.00508
   106    S    7  pz     Cor( 2p)     1.99993
   107    S    7  pz     Val( 3p)     1.54360
   108    S    7  pz     Ryd( 4p)     0.00546
   109    S    7  dxy    Ryd( 3d)     0.00507
   110    S    7  dxz    Ryd( 3d)     0.00602
   111    S    7  dyz    Ryd( 3d)     0.00266
   112    S    7  dx2y2  Ryd( 3d)     0.00257
   113    S    7  dz2    Ryd( 3d)     0.00384

   114    C    8  S      Cor( 1S)     1.99881
   115    C    8  S      Val( 2S)     0.95839
   116    C    8  S      Ryd( 3S)     0.00134
   117    C    8  S      Ryd( 4S)     0.00006
   118    C    8  px     Val( 2p)     1.07141
   119    C    8  px     Ryd( 3p)     0.00716
   120    C    8  py     Val( 2p)     1.09193
   121    C    8  py     Ryd( 3p)     0.00630
   122    C    8  pz     Val( 2p)     1.04152
   123    C    8  pz     Ryd( 3p)     0.00309
   124    C    8  dxy    Ryd( 3d)     0.00114
   125    C    8  dxz    Ryd( 3d)     0.00066
   126    C    8  dyz    Ryd( 3d)     0.00075
   127    C    8  dx2y2  Ryd( 3d)     0.00106
   128    C    8  dz2    Ryd( 3d)     0.00068

   129    C    9  S      Cor( 1S)     1.99900
   130    C    9  S      Val( 2S)     0.96269
   131    C    9  S      Ryd( 3S)     0.00103
   132    C    9  S      Ryd( 4S)     0.00005
   133    C    9  px     Val( 2p)     1.14718
   134    C    9  px     Ryd( 3p)     0.00535
   135    C    9  py     Val( 2p)     1.06363
   136    C    9  py     Ryd( 3p)     0.00487
   137    C    9  pz     Val( 2p)     1.04611
   138    C    9  pz     Ryd( 3p)     0.00251
   139    C    9  dxy    Ryd( 3d)     0.00057
   140    C    9  dxz    Ryd( 3d)     0.00052
   141    C    9  dyz    Ryd( 3d)     0.00056
   142    C    9  dx2y2  Ryd( 3d)     0.00063
   143    C    9  dz2    Ryd( 3d)     0.00033

   144    C   10  S      Cor( 1S)     1.99904
   145    C   10  S      Val( 2S)     0.96242
   146    C   10  S      Ryd( 3S)     0.00062
   147    C   10  S      Ryd( 4S)     0.00004
   148    C   10  px     Val( 2p)     1.04569
   149    C   10  px     Ryd( 3p)     0.00326
   150    C   10  py     Val( 2p)     1.18996
   151    C   10  py     Ryd( 3p)     0.00455
   152    C   10  pz     Val( 2p)     1.04316
   153    C   10  pz     Ryd( 3p)     0.00172
   154    C   10  dxy    Ryd( 3d)     0.00047
   155    C   10  dxz    Ryd( 3d)     0.00049
   156    C   10  dyz    Ryd( 3d)     0.00048
   157    C   10  dx2y2  Ryd( 3d)     0.00071
   158    C   10  dz2    Ryd( 3d)     0.00041

   159    C   11  S      Cor( 1S)     1.99901
   160    C   11  S      Val( 2S)     0.85005
   161    C   11  S      Ryd( 3S)     0.00122
   162    C   11  S      Ryd( 4S)     0.00009
   163    C   11  px     Val( 2p)     0.96914
   164    C   11  px     Ryd( 3p)     0.00471
   165    C   11  py     Val( 2p)     0.99465
   166    C   11  py     Ryd( 3p)     0.00482
   167    C   11  pz     Val( 2p)     0.99095
   168    C   11  pz     Ryd( 3p)     0.00209
   169    C   11  dxy    Ryd( 3d)     0.00113
   170    C   11  dxz    Ryd( 3d)     0.00080
   171    C   11  dyz    Ryd( 3d)     0.00102
   172    C   11  dx2y2  Ryd( 3d)     0.00106
   173    C   11  dz2    Ryd( 3d)     0.00070

   174    N   12  S      Cor( 1S)     1.99948
   175    N   12  S      Val( 2S)     1.35125
   176    N   12  S      Ryd( 3S)     0.00012
   177    N   12  S      Ryd( 4S)     0.00001
   178    N   12  px     Val( 2p)     1.46319
   179    N   12  px     Ryd( 3p)     0.00280
   180    N   12  py     Val( 2p)     1.37030
   181    N   12  py     Ryd( 3p)     0.00208
   182    N   12  pz     Val( 2p)     1.57569
   183    N   12  pz     Ryd( 3p)     0.00310
   184    N   12  dxy    Ryd( 3d)     0.00061
   185    N   12  dxz    Ryd( 3d)     0.00094
   186    N   12  dyz    Ryd( 3d)     0.00022
   187    N   12  dx2y2  Ryd( 3d)     0.00051
   188    N   12  dz2    Ryd( 3d)     0.00067

   189    C   13  S      Cor( 1S)     1.99904
   190    C   13  S      Val( 2S)     0.96183
   191    C   13  S      Ryd( 3S)     0.00061
   192    C   13  S      Ryd( 4S)     0.00004
   193    C   13  px     Val( 2p)     1.15970
   194    C   13  px     Ryd( 3p)     0.00377
   195    C   13  py     Val( 2p)     1.05242
   196    C   13  py     Ryd( 3p)     0.00390
   197    C   13  pz     Val( 2p)     1.07174
   198    C   13  pz     Ryd( 3p)     0.00187
   199    C   13  dxy    Ryd( 3d)     0.00047
   200    C   13  dxz    Ryd( 3d)     0.00052
   201    C   13  dyz    Ryd( 3d)     0.00053
   202    C   13  dx2y2  Ryd( 3d)     0.00068
   203    C   13  dz2    Ryd( 3d)     0.00034

   204    C   14  S      Cor( 1S)     1.99899
   205    C   14  S      Val( 2S)     0.96245
   206    C   14  S      Ryd( 3S)     0.00109
   207    C   14  S      Ryd( 4S)     0.00006
   208    C   14  px     Val( 2p)     1.04873
   209    C   14  px     Ryd( 3p)     0.00432
   210    C   14  py     Val( 2p)     1.18465
   211    C   14  py     Ryd( 3p)     0.00616
   212    C   14  pz     Val( 2p)     1.02458
   213    C   14  pz     Ryd( 3p)     0.00243
   214    C   14  dxy    Ryd( 3d)     0.00057
   215    C   14  dxz    Ryd( 3d)     0.00045
   216    C   14  dyz    Ryd( 3d)     0.00053
   217    C   14  dx2y2  Ryd( 3d)     0.00067
   218    C   14  dz2    Ryd( 3d)     0.00040

   219    C   15  S      Cor( 1S)     1.99900
   220    C   15  S      Val( 2S)     0.96267
   221    C   15  S      Ryd( 3S)     0.00103
   222    C   15  S      Ryd( 4S)     0.00005
   223    C   15  px     Val( 2p)     1.14637
   224    C   15  px     Ryd( 3p)     0.00534
   225    C   15  py     Val( 2p)     1.06461
   226    C   15  py     Ryd( 3p)     0.00487
   227    C   15  pz     Val( 2p)     1.04598
   228    C   15  pz     Ryd( 3p)     0.00252
   229    C   15  dxy    Ryd( 3d)     0.00057
   230    C   15  dxz    Ryd( 3d)     0.00052
   231    C   15  dyz    Ryd( 3d)     0.00056
   232    C   15  dx2y2  Ryd( 3d)     0.00063
   233    C   15  dz2    Ryd( 3d)     0.00033

   234    C   16  S      Cor( 1S)     1.99904
   235    C   16  S      Val( 2S)     0.96237
   236    C   16  S      Ryd( 3S)     0.00061
   237    C   16  S      Ryd( 4S)     0.00004
   238    C   16  px     Val( 2p)     1.04585
   239    C   16  px     Ryd( 3p)     0.00335
   240    C   16  py     Val( 2p)     1.19075
   241    C   16  py     Ryd( 3p)     0.00450
   242    C   16  pz     Val( 2p)     1.04248
   243    C   16  pz     Ryd( 3p)     0.00168
   244    C   16  dxy    Ryd( 3d)     0.00047
   245    C   16  dxz    Ryd( 3d)     0.00048
   246    C   16  dyz    Ryd( 3d)     0.00047
   247    C   16  dx2y2  Ryd( 3d)     0.00072
   248    C   16  dz2    Ryd( 3d)     0.00040

   249    H   17  S      Val( 1S)     0.56682
   250    H   17  S      Ryd( 2S)     0.00118
   251    H   17  px     Ryd( 2p)     0.00020
   252    H   17  py     Ryd( 2p)     0.00050
   253    H   17  pz     Ryd( 2p)     0.00051

   254    H   18  S      Val( 1S)     0.56648
   255    H   18  S      Ryd( 2S)     0.00116
   256    H   18  px     Ryd( 2p)     0.00058
   257    H   18  py     Ryd( 2p)     0.00023
   258    H   18  pz     Ryd( 2p)     0.00040

   259    H   19  S      Val( 1S)     0.74445
   260    H   19  S      Ryd( 2S)     0.00094
   261    H   19  px     Ryd( 2p)     0.00031
   262    H   19  py     Ryd( 2p)     0.00008
   263    H   19  pz     Ryd( 2p)     0.00020

   264    H   20  S      Val( 1S)     0.74206
   265    H   20  S      Ryd( 2S)     0.00127
   266    H   20  px     Ryd( 2p)     0.00008
   267    H   20  py     Ryd( 2p)     0.00038
   268    H   20  pz     Ryd( 2p)     0.00014

   269    H   21  S      Val( 1S)     0.74163
   270    H   21  S      Ryd( 2S)     0.00156
   271    H   21  px     Ryd( 2p)     0.00032
   272    H   21  py     Ryd( 2p)     0.00009
   273    H   21  pz     Ryd( 2p)     0.00019

   274    H   22  S      Val( 1S)     0.74419
   275    H   22  S      Ryd( 2S)     0.00094
   276    H   22  px     Ryd( 2p)     0.00008
   277    H   22  py     Ryd( 2p)     0.00036
   278    H   22  pz     Ryd( 2p)     0.00015

   279    H   23  S      Val( 1S)     0.56647
   280    H   23  S      Ryd( 2S)     0.00113
   281    H   23  px     Ryd( 2p)     0.00044
   282    H   23  py     Ryd( 2p)     0.00018
   283    H   23  pz     Ryd( 2p)     0.00059

   284    H   24  S      Val( 1S)     0.56651
   285    H   24  S      Ryd( 2S)     0.00113
   286    H   24  px     Ryd( 2p)     0.00029
   287    H   24  py     Ryd( 2p)     0.00057
   288    H   24  pz     Ryd( 2p)     0.00034

   289    H   25  S      Val( 1S)     0.74443
   290    H   25  S      Ryd( 2S)     0.00094
   291    H   25  px     Ryd( 2p)     0.00031
   292    H   25  py     Ryd( 2p)     0.00008
   293    H   25  pz     Ryd( 2p)     0.00020

   294    H   26  S      Val( 1S)     0.74204
   295    H   26  S      Ryd( 2S)     0.00128
   296    H   26  px     Ryd( 2p)     0.00008
   297    H   26  py     Ryd( 2p)     0.00038
   298    H   26  pz     Ryd( 2p)     0.00014

   299    H   27  S      Val( 1S)     0.74172
   300    H   27  S      Ryd( 2S)     0.00155
   301    H   27  px     Ryd( 2p)     0.00032
   302    H   27  py     Ryd( 2p)     0.00009
   303    H   27  pz     Ryd( 2p)     0.00019

   304    H   28  S      Val( 1S)     0.74432
   305    H   28  S      Ryd( 2S)     0.00094
   306    H   28  px     Ryd( 2p)     0.00008
   307    H   28  py     Ryd( 2p)     0.00036
   308    H   28  pz     Ryd( 2p)     0.00014

 WARNING:  1 low occupancy (<1.9990e) core orbital  found on  C    4
           1 low occupancy (<1.9990e) core orbital  found on  C    5
           1 low occupancy (<1.9990e) core orbital  found on  C    8
           1 low occupancy (<1.9990e) core orbital  found on  C    9
           1 low occupancy (<1.9990e) core orbital  found on  C   14
           1 low occupancy (<1.9990e) core orbital  found on  C   15


 Summary of Natural Population Analysis:                  
                                                          
                                       Natural Population 
                Natural  -----------------------------------------------
    Atom  No    Charge         Core      Valence    Rydberg      Total
 -----------------------------------------------------------------------
      N    1   -0.77164      1.99948     5.76112    0.01105     7.77164
      C    2    0.17862      1.99901     3.80470    0.01767     5.82138
      C    3   -0.25756      1.99904     4.24578    0.01273     6.25756
      C    4   -0.23588      1.99899     4.22022    0.01666     6.23588
      C    5   -0.18454      1.99881     4.16345    0.02228     6.18454
      S    6   -0.12364      9.99924     6.07166    0.05274    16.12364
      S    7   -0.12407      9.99924     6.07209    0.05275    16.12407
      C    8   -0.18430      1.99881     4.16324    0.02225     6.18430
      C    9   -0.23503      1.99900     4.21960    0.01643     6.23503
      C   10   -0.25301      1.99904     4.24123    0.01274     6.25301
      C   11    0.17854      1.99901     3.80480    0.01765     5.82146
      N   12   -0.77097      1.99948     5.76042    0.01107     7.77097
      C   13   -0.25747      1.99904     4.24569    0.01273     6.25747
      C   14   -0.23608      1.99899     4.22041    0.01667     6.23608
      C   15   -0.23506      1.99900     4.21963    0.01644     6.23506
      C   16   -0.25323      1.99904     4.24145    0.01273     6.25323
      H   17    0.43079      0.00000     0.56682    0.00239     0.56921
      H   18    0.43116      0.00000     0.56648    0.00237     0.56884
      H   19    0.25402      0.00000     0.74445    0.00153     0.74598
      H   20    0.25608      0.00000     0.74206    0.00187     0.74392
      H   21    0.25621      0.00000     0.74163    0.00216     0.74379
      H   22    0.25428      0.00000     0.74419    0.00153     0.74572
      H   23    0.43120      0.00000     0.56647    0.00233     0.56880
      H   24    0.43115      0.00000     0.56651    0.00234     0.56885
      H   25    0.25404      0.00000     0.74443    0.00153     0.74596
      H   26    0.25609      0.00000     0.74204    0.00188     0.74391
      H   27    0.25613      0.00000     0.74172    0.00215     0.74387
      H   28    0.25416      0.00000     0.74432    0.00153     0.74584
 =======================================================================
   * Total *   -0.00000     47.98522    81.66662    0.34816   130.00000

                                 Natural Population      
 --------------------------------------------------------
   Core                      47.98522 ( 99.9692% of  48)
   Valence                   81.66662 ( 99.5934% of  82)
   Natural Minimal Basis    129.65184 ( 99.7322% of 130)
   Natural Rydberg Basis      0.34816 (  0.2678% of 130)
 --------------------------------------------------------

    Atom  No          Natural Electron Configuration
 ----------------------------------------------------------------------------
      N    1      [core]2S( 1.35)2p( 4.41)3p( 0.01)
      C    2      [core]2S( 0.85)2p( 2.95)3p( 0.01)
      C    3      [core]2S( 0.96)2p( 3.28)3p( 0.01)
      C    4      [core]2S( 0.96)2p( 3.26)3p( 0.01)
      C    5      [core]2S( 0.96)2p( 3.21)3p( 0.02)
      S    6      [core]3S( 1.75)3p( 4.32)4S( 0.01)3d( 0.02)4p( 0.02)
      S    7      [core]3S( 1.75)3p( 4.32)4S( 0.01)3d( 0.02)4p( 0.02)
      C    8      [core]2S( 0.96)2p( 3.20)3p( 0.02)
      C    9      [core]2S( 0.96)2p( 3.26)3p( 0.01)
      C   10      [core]2S( 0.96)2p( 3.28)3p( 0.01)
      C   11      [core]2S( 0.85)2p( 2.95)3p( 0.01)
      N   12      [core]2S( 1.35)2p( 4.41)3p( 0.01)
      C   13      [core]2S( 0.96)2p( 3.28)3p( 0.01)
      C   14      [core]2S( 0.96)2p( 3.26)3p( 0.01)
      C   15      [core]2S( 0.96)2p( 3.26)3p( 0.01)
      C   16      [core]2S( 0.96)2p( 3.28)3p( 0.01)
      H   17            1S( 0.57)
      H   18            1S( 0.57)
      H   19            1S( 0.74)
      H   20            1S( 0.74)
      H   21            1S( 0.74)
      H   22            1S( 0.74)
      H   23            1S( 0.57)
      H   24            1S( 0.57)
      H   25            1S( 0.74)
      H   26            1S( 0.74)
      H   27            1S( 0.74)
      H   28            1S( 0.74)


 NBO analysis skipped by request.
 1\1\GINC-DRG2-W002\SP\RB3LYP TD-FC\6-31G(d,p)\C12H12N2S2\QDUEZ\18-Jul-
 2024\0\\# TD(NStates=10, Root=1) B3LYP/6-31G** SCRF=(Solvent=water) vo
 lume pop=NPA density=current Geom=AllCheck Guess=Read\\MERLDGDYUMSLAY-
 UHFFFAOYSA-N_conf_1\\0,1\N,0,4.8090721278,-0.5262690449,-1.2555703204\
 C,0,3.8335678355,-0.2244042032,-0.3245707102\C,0,3.9411592845,0.925872
 5829,0.4864105758\C,0,2.9330252356,1.2573270857,1.3811729835\C,0,1.784
 0906864,0.456856608,1.5021936625\S,0,0.51662442,0.8518199049,2.6882595
 111\S,0,-0.8589155182,2.1575133295,1.6728871396\C,0,-1.9745971284,1.09
 57341738,0.7800842326\C,0,-1.7111459617,0.7446784903,-0.5552134178\C,0
 ,-2.5954062337,-0.0526867721,-1.270116966\C,0,-3.7797691062,-0.5291556
 576,-0.6697213982\N,0,-4.6903617119,-1.2742560759,-1.3942857935\C,0,-4
 .0423487299,-0.1757182823,0.6713410064\C,0,-3.1540593628,0.6216402234,
 1.3797338222\C,0,1.675765147,-0.689845772,0.6966092664\C,0,2.680424377
 6,-1.0276104605,-0.2007338096\H,0,4.8465116977,-1.4843330037,-1.575417
 2245\H,0,5.725081453,-0.1307422418,-1.094105166\H,0,4.8240248517,1.554
 3282759,0.4072219352\H,0,3.0352427313,2.1447626575,1.9980983904\H,0,-0
 .8047593305,1.1011013631,-1.0341358506\H,0,-2.3779883581,-0.312150903,
 -2.3025777143\H,0,-5.3383288593,-1.8370325476,-0.8604774083\H,0,-4.334
 1471484,-1.753598156,-2.2097253825\H,0,-4.9511191065,-0.5318285701,1.1
 488055883\H,0,-3.3722385769,0.8802872231,2.4112817167\H,0,0.7983080752
 ,-1.3230277025,0.7808386427\H,0,2.5822872093,-1.919262525,-0.813753436
 9\\Version=ES64L-G16RevA.03\State=1-A\HF=-1370.4310431\RMSD=4.400e-09\
 Dipole=0.701234,-3.5664096,-3.8153021\Quadrupole=33.66587,-14.664037,-
 19.001833,9.7699062,-3.4418,6.7878312\PG=C01 [X(C12H12N2S2)]\\@


 Sometimes the fool who rushes in gets the job done.
                                    -- Al Bernstein
 Job cpu time:       0 days  0 hours 43 minutes 33.5 seconds.
 Elapsed time:       0 days  0 hours 14 minutes 41.3 seconds.
 File lengths (MBytes):  RWF=    798 Int=      0 D2E=      0 Chk=     49 Scr=      1
 Normal termination of Gaussian 16 at Thu Jul 18 14:08:03 2024.
