 Entering Gaussian System, Link 0=g16
 Initial command:
 /opt/sw/arch/manual/gaussian/G16_A03/g16/l1.exe "/scratch/1030802.jesse.materianova.be/Gau-26767.inp" -scrdir="/scratch/1030802.jesse.materianova.be/"
 Entering Link 1 = /opt/sw/arch/manual/gaussian/G16_A03/g16/l1.exe PID=     26771.
  
 Copyright (c) 1988,1990,1992,1993,1995,1998,2003,2009,2016,
            Gaussian, Inc.  All Rights Reserved.
  
 This is part of the Gaussian(R) 16 program.  It is based on
 the Gaussian(R) 09 system (copyright 2009, Gaussian, Inc.),
 the Gaussian(R) 03 system (copyright 2003, Gaussian, Inc.),
 the Gaussian(R) 98 system (copyright 1998, Gaussian, Inc.),
 the Gaussian(R) 94 system (copyright 1995, Gaussian, Inc.),
 the Gaussian 92(TM) system (copyright 1992, Gaussian, Inc.),
 the Gaussian 90(TM) system (copyright 1990, Gaussian, Inc.),
 the Gaussian 88(TM) system (copyright 1988, Gaussian, Inc.),
 the Gaussian 86(TM) system (copyright 1986, Carnegie Mellon
 University), and the Gaussian 82(TM) system (copyright 1983,
 Carnegie Mellon University). Gaussian is a federally registered
 trademark of Gaussian, Inc.
  
 This software contains proprietary and confidential information,
 including trade secrets, belonging to Gaussian, Inc.
  
 This software is provided under written license and may be
 used, copied, transmitted, or stored only in accord with that
 written license.
  
 The following legend is applicable only to US Government
 contracts under FAR:
  
                    RESTRICTED RIGHTS LEGEND
  
 Use, reproduction and disclosure by the US Government is
 subject to restrictions as set forth in subparagraphs (a)
 and (c) of the Commercial Computer Software - Restricted
 Rights clause in FAR 52.227-19.
  
 Gaussian, Inc.
 340 Quinnipiac St., Bldg. 40, Wallingford CT 06492
  
  
 ---------------------------------------------------------------
 Warning -- This program may not be used in any manner that
 competes with the business of Gaussian, Inc. or will provide
 assistance to any competitor of Gaussian, Inc.  The licensee
 of this program is prohibited from giving any competitor of
 Gaussian, Inc. access to this program.  By using this program,
 the user acknowledges that Gaussian, Inc. is engaged in the
 business of creating and licensing software in the field of
 computational chemistry and represents and warrants to the
 licensee that it is not a competitor of Gaussian, Inc. and that
 it will not use this program in any manner prohibited above.
 ---------------------------------------------------------------
  

 Cite this work as:
 Gaussian 16, Revision A.03,
 M. J. Frisch, G. W. Trucks, H. B. Schlegel, G. E. Scuseria, 
 M. A. Robb, J. R. Cheeseman, G. Scalmani, V. Barone, 
 G. A. Petersson, H. Nakatsuji, X. Li, M. Caricato, A. V. Marenich, 
 J. Bloino, B. G. Janesko, R. Gomperts, B. Mennucci, H. P. Hratchian, 
 J. V. Ortiz, A. F. Izmaylov, J. L. Sonnenberg, D. Williams-Young, 
 F. Ding, F. Lipparini, F. Egidi, J. Goings, B. Peng, A. Petrone, 
 T. Henderson, D. Ranasinghe, V. G. Zakrzewski, J. Gao, N. Rega, 
 G. Zheng, W. Liang, M. Hada, M. Ehara, K. Toyota, R. Fukuda, 
 J. Hasegawa, M. Ishida, T. Nakajima, Y. Honda, O. Kitao, H. Nakai, 
 T. Vreven, K. Throssell, J. A. Montgomery, Jr., J. E. Peralta, 
 F. Ogliaro, M. J. Bearpark, J. J. Heyd, E. N. Brothers, K. N. Kudin, 
 V. N. Staroverov, T. A. Keith, R. Kobayashi, J. Normand, 
 K. Raghavachari, A. P. Rendell, J. C. Burant, S. S. Iyengar, 
 J. Tomasi, M. Cossi, J. M. Millam, M. Klene, C. Adamo, R. Cammi, 
 J. W. Ochterski, R. L. Martin, K. Morokuma, O. Farkas, 
 J. B. Foresman, and D. J. Fox, Gaussian, Inc., Wallingford CT, 2016.
 
 ******************************************
 Gaussian 16:  EM64L-G16RevA.03 25-Dec-2016
                 9-Jul-2024 
 ******************************************
 %nprocshared=2
 Will use up to    2 processors via shared memory.
 %mem=4GB
 %Chk=AOHJOMMDDJHIJH-VKHMYHEASA-N_conf_0_0.chk
 -------------------------------------------------------
 # opt=CalcFc B3LYP/6-31G** SCRF=(Solvent=water) scf=xqc
 -------------------------------------------------------
 1/10=4,18=20,19=15,26=3,38=1/1,3;
 2/9=110,12=2,17=6,18=5,40=1/2;
 3/5=1,6=6,7=101,11=2,25=1,30=1,70=2201,71=2,72=1,74=-5,140=1/1,2,3;
 4//1;
 5/5=2,8=3,13=1,38=5,53=1/2,8;
 8/6=4,10=90,11=11/1;
 11/6=1,8=1,9=11,15=111,16=1/1,2,10;
 10/6=1,13=1/2;
 6/7=2,8=2,9=2,10=2,28=1/1;
 7/10=1,18=20,25=1/1,2,3,16;
 1/10=4,18=20,19=15,26=3/3(2);
 2/9=110/2;
 99//99;
 2/9=110/2;
 3/5=1,6=6,7=101,11=2,25=1,30=1,70=2205,71=1,72=1,74=-5/1,2,3;
 4/5=5,16=3,69=1/1;
 5/5=2,8=3,13=1,38=5,53=1/2,8;
 7//1,2,3,16;
 1/18=20,19=15,26=3/3(-5);
 2/9=110/2;
 6/7=2,8=2,9=2,10=2,19=2,28=1/1;
 99/9=1/99;
 ----------------------------------
 AOHJOMMDDJHIJH-VKHMYHEASA-N_conf_0
 ----------------------------------
 Symbolic Z-matrix:
 Charge =  0 Multiplicity = 1
 C                    -1.30859  -1.14268  -0.23399 
 C                    -0.2131   -0.22885   0.30774 
 N                    -0.78039   1.08499   0.64587 
 C                     0.94853  -0.10557  -0.70911 
 N                     1.92129   0.92961  -0.33824 
 H                    -1.75491  -0.73623  -1.14849 
 H                    -0.90408  -2.13334  -0.46779 
 H                    -2.1091   -1.27654   0.50202 
 H                     0.17946  -0.66901   1.23299 
 H                    -1.56039   0.96204   1.29084 
 H                    -0.08186   1.62891   1.14916 
 H                     1.46862  -1.06655  -0.78975 
 H                     0.559     0.13562  -1.70517 
 H                     1.43057   1.82487  -0.36558 
 H                     2.20497   0.79274   0.6295 
 

 GradGradGradGradGradGradGradGradGradGradGradGradGradGradGradGradGradGrad
 Berny optimization.
 Initialization pass.
                           ----------------------------
                           !    Initial Parameters    !
                           ! (Angstroms and Degrees)  !
 --------------------------                            --------------------------
 ! Name  Definition              Value          Derivative Info.                !
 --------------------------------------------------------------------------------
 ! R1    R(1,2)                  1.526          calculate D2E/DX2 analytically  !
 ! R2    R(1,6)                  1.0958         calculate D2E/DX2 analytically  !
 ! R3    R(1,7)                  1.0953         calculate D2E/DX2 analytically  !
 ! R4    R(1,8)                  1.0956         calculate D2E/DX2 analytically  !
 ! R5    R(2,3)                  1.4705         calculate D2E/DX2 analytically  !
 ! R6    R(2,4)                  1.5487         calculate D2E/DX2 analytically  !
 ! R7    R(2,9)                  1.0972         calculate D2E/DX2 analytically  !
 ! R8    R(3,10)                 1.0196         calculate D2E/DX2 analytically  !
 ! R9    R(3,11)                 1.0184         calculate D2E/DX2 analytically  !
 ! R10   R(4,5)                  1.4681         calculate D2E/DX2 analytically  !
 ! R11   R(4,12)                 1.0957         calculate D2E/DX2 analytically  !
 ! R12   R(4,13)                 1.0964         calculate D2E/DX2 analytically  !
 ! R13   R(5,14)                 1.0213         calculate D2E/DX2 analytically  !
 ! R14   R(5,15)                 1.0177         calculate D2E/DX2 analytically  !
 ! A1    A(2,1,6)              111.5034         calculate D2E/DX2 analytically  !
 ! A2    A(2,1,7)              110.6266         calculate D2E/DX2 analytically  !
 ! A3    A(2,1,8)              111.0507         calculate D2E/DX2 analytically  !
 ! A4    A(6,1,7)              107.925          calculate D2E/DX2 analytically  !
 ! A5    A(6,1,8)              107.9601         calculate D2E/DX2 analytically  !
 ! A6    A(7,1,8)              107.6209         calculate D2E/DX2 analytically  !
 ! A7    A(1,2,3)              109.8605         calculate D2E/DX2 analytically  !
 ! A8    A(1,2,4)              110.6732         calculate D2E/DX2 analytically  !
 ! A9    A(1,2,9)              108.4192         calculate D2E/DX2 analytically  !
 ! A10   A(3,2,4)              111.6673         calculate D2E/DX2 analytically  !
 ! A11   A(3,2,9)              107.6102         calculate D2E/DX2 analytically  !
 ! A12   A(4,2,9)              108.4959         calculate D2E/DX2 analytically  !
 ! A13   A(2,3,10)             109.442          calculate D2E/DX2 analytically  !
 ! A14   A(2,3,11)             109.0403         calculate D2E/DX2 analytically  !
 ! A15   A(10,3,11)            106.0537         calculate D2E/DX2 analytically  !
 ! A16   A(2,4,5)              112.783          calculate D2E/DX2 analytically  !
 ! A17   A(2,4,12)             109.5452         calculate D2E/DX2 analytically  !
 ! A18   A(2,4,13)             110.3356         calculate D2E/DX2 analytically  !
 ! A19   A(5,4,12)             108.8143         calculate D2E/DX2 analytically  !
 ! A20   A(5,4,13)             108.0467         calculate D2E/DX2 analytically  !
 ! A21   A(12,4,13)            107.1412         calculate D2E/DX2 analytically  !
 ! A22   A(4,5,14)             107.0352         calculate D2E/DX2 analytically  !
 ! A23   A(4,5,15)             109.2732         calculate D2E/DX2 analytically  !
 ! A24   A(14,5,15)            106.0978         calculate D2E/DX2 analytically  !
 ! D1    D(6,1,2,3)             61.2296         calculate D2E/DX2 analytically  !
 ! D2    D(6,1,2,4)            -62.5418         calculate D2E/DX2 analytically  !
 ! D3    D(6,1,2,9)            178.5739         calculate D2E/DX2 analytically  !
 ! D4    D(7,1,2,3)           -178.6546         calculate D2E/DX2 analytically  !
 ! D5    D(7,1,2,4)             57.574          calculate D2E/DX2 analytically  !
 ! D6    D(7,1,2,9)            -61.3103         calculate D2E/DX2 analytically  !
 ! D7    D(8,1,2,3)            -59.2185         calculate D2E/DX2 analytically  !
 ! D8    D(8,1,2,4)            177.0101         calculate D2E/DX2 analytically  !
 ! D9    D(8,1,2,9)             58.1258         calculate D2E/DX2 analytically  !
 ! D10   D(1,2,3,10)            54.9022         calculate D2E/DX2 analytically  !
 ! D11   D(1,2,3,11)           170.5            calculate D2E/DX2 analytically  !
 ! D12   D(4,2,3,10)           178.0915         calculate D2E/DX2 analytically  !
 ! D13   D(4,2,3,11)           -66.3106         calculate D2E/DX2 analytically  !
 ! D14   D(9,2,3,10)           -62.9455         calculate D2E/DX2 analytically  !
 ! D15   D(9,2,3,11)            52.6524         calculate D2E/DX2 analytically  !
 ! D16   D(1,2,4,5)            170.5367         calculate D2E/DX2 analytically  !
 ! D17   D(1,2,4,12)           -68.1116         calculate D2E/DX2 analytically  !
 ! D18   D(1,2,4,13)            49.6056         calculate D2E/DX2 analytically  !
 ! D19   D(3,2,4,5)             47.8102         calculate D2E/DX2 analytically  !
 ! D20   D(3,2,4,12)           169.1618         calculate D2E/DX2 analytically  !
 ! D21   D(3,2,4,13)           -73.1209         calculate D2E/DX2 analytically  !
 ! D22   D(9,2,4,5)            -70.6255         calculate D2E/DX2 analytically  !
 ! D23   D(9,2,4,12)            50.7261         calculate D2E/DX2 analytically  !
 ! D24   D(9,2,4,13)           168.4434         calculate D2E/DX2 analytically  !
 ! D25   D(2,4,5,14)           -63.9962         calculate D2E/DX2 analytically  !
 ! D26   D(2,4,5,15)            50.4827         calculate D2E/DX2 analytically  !
 ! D27   D(12,4,5,14)          174.2382         calculate D2E/DX2 analytically  !
 ! D28   D(12,4,5,15)          -71.2829         calculate D2E/DX2 analytically  !
 ! D29   D(13,4,5,14)           58.2311         calculate D2E/DX2 analytically  !
 ! D30   D(13,4,5,15)          172.71           calculate D2E/DX2 analytically  !
 --------------------------------------------------------------------------------
 Trust Radius=3.00D-01 FncErr=1.00D-07 GrdErr=1.00D-06 EigMax=2.50D+02 EigMin=1.00D-04
 Number of steps in this run=     78 maximum allowed number of steps=    100.
 GradGradGradGradGradGradGradGradGradGradGradGradGradGradGradGradGradGrad

                          Input orientation:                          
 ---------------------------------------------------------------------
 Center     Atomic      Atomic             Coordinates (Angstroms)
 Number     Number       Type             X           Y           Z
 ---------------------------------------------------------------------
      1          6           0       -1.308595   -1.142680   -0.233994
      2          6           0       -0.213099   -0.228848    0.307740
      3          7           0       -0.780388    1.084992    0.645875
      4          6           0        0.948529   -0.105573   -0.709107
      5          7           0        1.921289    0.929611   -0.338242
      6          1           0       -1.754914   -0.736234   -1.148492
      7          1           0       -0.904082   -2.133341   -0.467787
      8          1           0       -2.109102   -1.276537    0.502016
      9          1           0        0.179460   -0.669011    1.232986
     10          1           0       -1.560394    0.962036    1.290840
     11          1           0       -0.081863    1.628910    1.149163
     12          1           0        1.468625   -1.066553   -0.789752
     13          1           0        0.558998    0.135617   -1.705166
     14          1           0        1.430567    1.824866   -0.365582
     15          1           0        2.204969    0.792744    0.629505
 ---------------------------------------------------------------------
                    Distance matrix (angstroms):
                    1          2          3          4          5
     1  C    0.000000
     2  C    1.525999   0.000000
     3  N    2.452691   1.470486   0.000000
     4  C    2.529018   1.548726   2.498514   0.000000
     5  N    3.838933   2.512953   2.879529   1.468131   0.000000
     6  H    1.095768   2.180653   2.736114   2.810587   4.116554
     7  H    1.095308   2.169330   3.407816   2.757217   4.169074
     8  H    1.095646   2.174908   2.713485   3.491001   4.670886
     9  H    2.142591   1.097235   2.083875   2.163482   2.838718
    10  H    2.611197   2.049365   1.019562   3.381460   3.844096
    11  H    3.331621   2.043644   1.018372   2.742864   2.591141
    12  H    2.833304   2.175875   3.427569   1.095667   2.096053
    13  H    2.699314   2.186495   2.867519   1.096376   2.086802
    14  H    4.040625   2.715280   2.541413   2.019150   1.021292
    15  H    4.103246   2.644662   2.999672   2.043893   1.017714
                    6          7          8          9         10
     6  H    0.000000
     7  H    1.771774   0.000000
     8  H    1.772443   1.768249   0.000000
     9  H    3.068837   2.492179   2.478089   0.000000
    10  H    2.978641   3.620065   2.436090   2.385530   0.000000
    11  H    3.697597   4.176733   3.601405   2.314251   1.628142
    12  H    3.260216   2.621342   3.809578   2.431348   4.197498
    13  H    2.534600   2.969829   3.739598   3.069888   3.761761
    14  H    4.161667   4.596568   4.785466   3.215604   3.526196
    15  H    4.602143   4.408199   4.786376   2.569748   3.826746
                   11         12         13         14         15
    11  H    0.000000
    12  H    3.664550   0.000000
    13  H    3.284482   1.763694   0.000000
    14  H    2.149487   2.922614   2.325442   0.000000
    15  H    2.489743   2.452239   2.931164   1.629471   0.000000
 Stoichiometry    C3H10N2
 Framework group  C1[X(C3H10N2)]
 Deg. of freedom    39
 Full point group                 C1      NOp   1
 Largest Abelian subgroup         C1      NOp   1
 Largest concise Abelian subgroup C1      NOp   1
                         Standard orientation:                         
 ---------------------------------------------------------------------
 Center     Atomic      Atomic             Coordinates (Angstroms)
 Number     Number       Type             X           Y           Z
 ---------------------------------------------------------------------
      1          6           0       -1.783283   -0.633518   -0.054521
      2          6           0       -0.465648    0.033960    0.328863
      3          7           0       -0.416307    1.395902   -0.223413
      4          6           0        0.737326   -0.818927   -0.144414
      5          7           0        2.020912   -0.121186    0.000410
      6          1           0       -1.888453   -0.719667   -1.141823
      7          1           0       -1.843537   -1.641047    0.370864
      8          1           0       -2.638420   -0.062247    0.323408
      9          1           0       -0.424504    0.117389    1.422148
     10          1           0       -1.237726    1.916343    0.083048
     11          1           0        0.387931    1.883727    0.166856
     12          1           0        0.774825   -1.750779    0.430679
     13          1           0        0.617625   -1.094529   -1.198812
     14          1           0        1.992491    0.689450   -0.620154
     15          1           0        2.097157    0.249258    0.945238
 ---------------------------------------------------------------------
 Rotational constants (GHZ):           7.8391595           3.5824290           2.6889920
 Standard basis: 6-31G(d,p) (6D, 7F)
 There are   125 symmetry adapted cartesian basis functions of A   symmetry.
 There are   125 symmetry adapted basis functions of A   symmetry.
   125 basis functions,   210 primitive gaussians,   125 cartesian basis functions
    21 alpha electrons       21 beta electrons
       nuclear repulsion energy       195.1747735084 Hartrees.
 NAtoms=   15 NActive=   15 NUniq=   15 SFac= 1.00D+00 NAtFMM=   60 NAOKFM=F Big=F
 Integral buffers will be    131072 words long.
 Raffenetti 2 integral format.
 Two-electron integral symmetry is turned on.
 Force inversion solution in PCM.
 ------------------------------------------------------------------------------
 Polarizable Continuum Model (PCM)
 =================================
 Model                : PCM.
 Atomic radii         : UFF (Universal Force Field).
 Polarization charges : Total charges.
 Charge compensation  : None.
 Solution method      : Matrix inversion.
 Cavity type          : Scaled VdW (van der Waals Surface) (Alpha=1.100).
 Cavity algorithm     : GePol (No added spheres)
                        Default sphere list used, NSphG=   15.
                        Lebedev-Laikov grids with approx.  5.0 points / Ang**2.
                        Smoothing algorithm: York/Karplus (Gamma=1.0000).
                        Polarization charges: spherical gaussians, with
                                              point-specific exponents (IZeta= 3).
                        Self-potential: point-specific (ISelfS= 7).
                        Self-field    : sphere-specific E.n sum rule (ISelfD= 2).
 1st derivatives      : Analytical E(r).r(x)/FMM algorithm (CHGder, D1EAlg=3).
                        Cavity 1st derivative terms included.
 2nd derivatives      : Analytical E(r).r(xy)/FMM algorithm (CHGder, D2EAlg=3).
                        Cavity 2nd derivative terms included.
 Solvent              : Water, Eps=  78.355300 Eps(inf)=   1.777849
 ------------------------------------------------------------------------------
 Spheres list:
 ISph  on   Nord     Re0    Alpha      Xe            Ye            Ze
    1   C      1    1.9255  1.100     -1.783283     -0.633518     -0.054521
    2   C      2    1.9255  1.100     -0.465648      0.033960      0.328863
    3   N      3    1.8300  1.100     -0.416307      1.395902     -0.223413
    4   C      4    1.9255  1.100      0.737326     -0.818927     -0.144414
    5   N      5    1.8300  1.100      2.020912     -0.121186      0.000410
    6   H      6    1.4430  1.100     -1.888453     -0.719667     -1.141823
    7   H      7    1.4430  1.100     -1.843537     -1.641047      0.370864
    8   H      8    1.4430  1.100     -2.638420     -0.062247      0.323408
    9   H      9    1.4430  1.100     -0.424504      0.117389      1.422148
   10   H     10    1.4430  1.100     -1.237726      1.916343      0.083048
   11   H     11    1.4430  1.100      0.387931      1.883727      0.166856
   12   H     12    1.4430  1.100      0.774825     -1.750779      0.430679
   13   H     13    1.4430  1.100      0.617625     -1.094529     -1.198812
   14   H     14    1.4430  1.100      1.992491      0.689450     -0.620154
   15   H     15    1.4430  1.100      2.097157      0.249258      0.945238
 ------------------------------------------------------------------------------
 One-electron integrals computed using PRISM.
 NBasis=   125 RedAO= T EigKep=  3.53D-03  NBF=   125
 NBsUse=   125 1.00D-06 EigRej= -1.00D+00 NBFU=   125
 ExpMin= 1.61D-01 ExpMax= 4.17D+03 ExpMxC= 6.27D+02 IAcc=3 IRadAn=         5 AccDes= 0.00D+00
 Harris functional with IExCor=  402 and IRadAn=       5 diagonalized for initial guess.
 HarFok:  IExCor=  402 AccDes= 0.00D+00 IRadAn=         5 IDoV= 1 UseB2=F ITyADJ=14
 ICtDFT=  3500011 ScaDFX=  1.000000  1.000000  1.000000  1.000000
 FoFCou: FMM=F IPFlag=           0 FMFlag=      100000 FMFlg1=           0
         NFxFlg=           0 DoJE=T BraDBF=F KetDBF=T FulRan=T
         wScrn=  0.000000 ICntrl=       500 IOpCl=  0 I1Cent=   200000004 NGrid=           0
         NMat0=    1 NMatS0=      1 NMatT0=    0 NMatD0=    1 NMtDS0=    0 NMtDT0=    0
 Petite list used in FoFCou.
 Keep R1 ints in memory in canonical form, NReq=32913836.
 Requested convergence on RMS density matrix=1.00D-08 within  32 cycles.
 Requested convergence on MAX density matrix=1.00D-06.
 Requested convergence on             energy=1.00D-06.
 No special actions if energy rises.
 Inv3:  Mode=1 IEnd=     3736368.
 Iteration    1 A*A^-1 deviation from unit magnitude is 5.88D-15 for    157.
 Iteration    1 A*A^-1 deviation from orthogonality  is 2.41D-15 for    780    665.
 Iteration    1 A^-1*A deviation from unit magnitude is 5.88D-15 for    157.
 Iteration    1 A^-1*A deviation from orthogonality  is 2.03D-15 for   1043    409.
 Error on total polarization charges =  0.00714
 SCF Done:  E(RB3LYP) =  -229.854187800     A.U. after   11 cycles
            NFock= 11  Conv=0.21D-08     -V/T= 2.0097
 QCSCF skips out because SCF is already converged.
 DoSCS=F DFT=T ScalE2(SS,OS)=  1.000000  1.000000
 Range of M.O.s used for correlation:     1   125
 NBasis=   125 NAE=    21 NBE=    21 NFC=     0 NFV=     0
 NROrb=    125 NOA=    21 NOB=    21 NVA=   104 NVB=   104
 Symmetrizing basis deriv contribution to polar:
 IMax=3 JMax=2 DiffMx= 0.00D+00
 G2DrvN: will do    16 centers at a time, making    1 passes.
 Calling FoFCou, ICntrl=  3107 FMM=F I1Cent=   0 AccDes= 0.00D+00.
 NEqPCM:  Using equilibrium solvation (IEInf=0, Eps=  78.3553, EpsInf=   1.7778)
 G2PCM: DoFxE=T DoFxN=T DoGrad=T DoDP/DQ/DG/TGxP=FFFF NFrqRd=   0 IEInf=0 SqF1=F DoCFld=F IF1Alg=4.
 End of G2Drv F.D. properties file   721 does not exist.
 End of G2Drv F.D. properties file   722 does not exist.
 End of G2Drv F.D. properties file   788 does not exist.
          IDoAtm=111111111111111
 NEqPCM:  Using equilibrium solvation (IEInf=0, Eps=  78.3553, EpsInf=   1.7778)
          Differentiating once with respect to nuclear coordinates.
 Keep R1 ints in memory in canonical form, NReq=35292952.
          There are    48 degrees of freedom in the 1st order CPHF.  IDoFFX=6 NUNeed=     0.
     42 vectors produced by pass  0 Test12= 4.55D-15 2.08D-09 XBig12= 8.50D-02 7.64D-02.
 AX will form    42 AO Fock derivatives at one time.
     42 vectors produced by pass  1 Test12= 4.55D-15 2.08D-09 XBig12= 6.17D-03 1.36D-02.
     42 vectors produced by pass  2 Test12= 4.55D-15 2.08D-09 XBig12= 6.17D-05 1.37D-03.
     42 vectors produced by pass  3 Test12= 4.55D-15 2.08D-09 XBig12= 1.66D-07 6.98D-05.
     42 vectors produced by pass  4 Test12= 4.55D-15 2.08D-09 XBig12= 1.64D-10 1.65D-06.
     16 vectors produced by pass  5 Test12= 4.55D-15 2.08D-09 XBig12= 9.45D-14 3.11D-08.
 InvSVY:  IOpt=1 It=  1 EMax= 1.55D-15
 Solved reduced A of dimension   226 with    42 vectors.
 End of Minotr F.D. properties file   721 does not exist.
 End of Minotr F.D. properties file   722 does not exist.
 End of Minotr F.D. properties file   788 does not exist.

 **********************************************************************

            Population analysis using the SCF density.

 **********************************************************************

 Orbital symmetries:
       Occupied  (A) (A) (A) (A) (A) (A) (A) (A) (A) (A) (A) (A)
                 (A) (A) (A) (A) (A) (A) (A) (A) (A)
       Virtual   (A) (A) (A) (A) (A) (A) (A) (A) (A) (A) (A) (A)
                 (A) (A) (A) (A) (A) (A) (A) (A) (A) (A) (A) (A)
                 (A) (A) (A) (A) (A) (A) (A) (A) (A) (A) (A) (A)
                 (A) (A) (A) (A) (A) (A) (A) (A) (A) (A) (A) (A)
                 (A) (A) (A) (A) (A) (A) (A) (A) (A) (A) (A) (A)
                 (A) (A) (A) (A) (A) (A) (A) (A) (A) (A) (A) (A)
                 (A) (A) (A) (A) (A) (A) (A) (A) (A) (A) (A) (A)
                 (A) (A) (A) (A) (A) (A) (A) (A) (A) (A) (A) (A)
                 (A) (A) (A) (A) (A) (A) (A) (A)
 The electronic state is 1-A.
 Alpha  occ. eigenvalues --  -14.31106 -14.30752 -10.20557 -10.20123 -10.17110
 Alpha  occ. eigenvalues --   -0.89586  -0.85530  -0.73667  -0.65499  -0.57018
 Alpha  occ. eigenvalues --   -0.49839  -0.47972  -0.45042  -0.43699  -0.38747
 Alpha  occ. eigenvalues --   -0.36848  -0.35987  -0.35222  -0.34782  -0.24232
 Alpha  occ. eigenvalues --   -0.22877
 Alpha virt. eigenvalues --    0.07282   0.10727   0.13077   0.13718   0.15938
 Alpha virt. eigenvalues --    0.16214   0.18391   0.18810   0.19028   0.20812
 Alpha virt. eigenvalues --    0.24404   0.25764   0.26603   0.28625   0.52954
 Alpha virt. eigenvalues --    0.54984   0.55158   0.57074   0.58210   0.65287
 Alpha virt. eigenvalues --    0.66283   0.69020   0.71077   0.71723   0.74509
 Alpha virt. eigenvalues --    0.76708   0.81953   0.83299   0.85411   0.86930
 Alpha virt. eigenvalues --    0.89017   0.89693   0.90860   0.91886   0.92675
 Alpha virt. eigenvalues --    0.93867   0.97001   0.98571   1.05553   1.08866
 Alpha virt. eigenvalues --    1.23144   1.29581   1.33435   1.42146   1.44497
 Alpha virt. eigenvalues --    1.46721   1.55075   1.61390   1.67098   1.72269
 Alpha virt. eigenvalues --    1.79417   1.81542   1.84963   1.87160   1.91607
 Alpha virt. eigenvalues --    1.96276   1.99309   2.03050   2.05127   2.07485
 Alpha virt. eigenvalues --    2.09918   2.10897   2.15354   2.18499   2.23426
 Alpha virt. eigenvalues --    2.24481   2.27975   2.29007   2.31487   2.35107
 Alpha virt. eigenvalues --    2.35986   2.39006   2.43707   2.48019   2.54604
 Alpha virt. eigenvalues --    2.58470   2.65070   2.68448   2.72733   2.73280
 Alpha virt. eigenvalues --    2.74447   2.78074   2.82643   2.89053   2.90763
 Alpha virt. eigenvalues --    2.94820   2.96383   2.98252   3.00853   3.19534
 Alpha virt. eigenvalues --    3.26328   3.29837   3.33413   3.35014   3.40766
 Alpha virt. eigenvalues --    3.45488   3.49569   3.51973   3.59496   3.96702
 Alpha virt. eigenvalues --    4.03155   4.38132   4.52005   4.68713
          Condensed to atoms (all electrons):
               1          2          3          4          5          6
     1  C    4.985986   0.350279  -0.057039  -0.033572   0.005066   0.376152
     2  C    0.350279   4.854447   0.289771   0.365640  -0.061387  -0.033109
     3  N   -0.057039   0.289771   6.863814  -0.052995  -0.013492   0.002127
     4  C   -0.033572   0.365640  -0.052995   4.846850   0.321965  -0.009203
     5  N    0.005066  -0.061387  -0.013492   0.321965   6.769982   0.000003
     6  H    0.376152  -0.033109   0.002127  -0.009203   0.000003   0.606517
     7  H    0.375940  -0.029817   0.004244  -0.004289   0.000081  -0.028849
     8  H    0.374583  -0.024077  -0.003738   0.004157  -0.000154  -0.033621
     9  H   -0.049353   0.388105  -0.061538  -0.054870  -0.002872   0.006675
    10  H   -0.006427  -0.030939   0.335694   0.006166   0.000343  -0.000471
    11  H    0.007581  -0.032861   0.320763  -0.007431   0.012848  -0.000059
    12  H   -0.001176  -0.040086   0.003796   0.376822  -0.038401   0.000103
    13  H   -0.006598  -0.041217   0.000985   0.376242  -0.039103   0.006525
    14  H   -0.000088  -0.007715   0.010884  -0.043741   0.342132   0.000061
    15  H    0.000057  -0.001780  -0.001614  -0.046789   0.346251   0.000020
               7          8          9         10         11         12
     1  C    0.375940   0.374583  -0.049353  -0.006427   0.007581  -0.001176
     2  C   -0.029817  -0.024077   0.388105  -0.030939  -0.032861  -0.040086
     3  N    0.004244  -0.003738  -0.061538   0.335694   0.320763   0.003796
     4  C   -0.004289   0.004157  -0.054870   0.006166  -0.007431   0.376822
     5  N    0.000081  -0.000154  -0.002872   0.000343   0.012848  -0.038401
     6  H   -0.028849  -0.033621   0.006675  -0.000471  -0.000059   0.000103
     7  H    0.603358  -0.030397  -0.000681  -0.000164  -0.000265   0.003515
     8  H   -0.030397   0.611720  -0.005858   0.004837  -0.000152  -0.000235
     9  H   -0.000681  -0.005858   0.701106  -0.003080  -0.005121  -0.002923
    10  H   -0.000164   0.004837  -0.003080   0.472307  -0.029803  -0.000192
    11  H   -0.000265  -0.000152  -0.005121  -0.029803   0.490371   0.000042
    12  H    0.003515  -0.000235  -0.002923  -0.000192   0.000042   0.626269
    13  H    0.000146  -0.000095   0.006737  -0.000126  -0.000032  -0.034564
    14  H    0.000015  -0.000005   0.000791  -0.000290   0.001308   0.006836
    15  H    0.000002   0.000001   0.004645  -0.000049   0.002476  -0.003734
              13         14         15
     1  C   -0.006598  -0.000088   0.000057
     2  C   -0.041217  -0.007715  -0.001780
     3  N    0.000985   0.010884  -0.001614
     4  C    0.376242  -0.043741  -0.046789
     5  N   -0.039103   0.342132   0.346251
     6  H    0.006525   0.000061   0.000020
     7  H    0.000146   0.000015   0.000002
     8  H   -0.000095  -0.000005   0.000001
     9  H    0.006737   0.000791   0.004645
    10  H   -0.000126  -0.000290  -0.000049
    11  H   -0.000032   0.001308   0.002476
    12  H   -0.034564   0.006836  -0.003734
    13  H    0.628314  -0.005489   0.006615
    14  H   -0.005489   0.477858  -0.034705
    15  H    0.006615  -0.034705   0.477905
 Mulliken charges:
               1
     1  C   -0.321390
     2  C    0.054744
     3  N   -0.641663
     4  C   -0.044952
     5  N   -0.643262
     6  H    0.107128
     7  H    0.107162
     8  H    0.103032
     9  H    0.078237
    10  H    0.252194
    11  H    0.240334
    12  H    0.103927
    13  H    0.101660
    14  H    0.252147
    15  H    0.250702
 Sum of Mulliken charges =  -0.00000
 Mulliken charges with hydrogens summed into heavy atoms:
               1
     1  C   -0.004068
     2  C    0.132981
     3  N   -0.149136
     4  C    0.160635
     5  N   -0.140413
 APT charges:
               1
     1  C   -1.087141
     2  C   -0.276048
     3  N   -1.134202
     4  C   -0.621528
     5  N   -0.874394
     6  H    0.328017
     7  H    0.381185
     8  H    0.427194
     9  H    0.309052
    10  H    0.582273
    11  H    0.446104
    12  H    0.386902
    13  H    0.324216
    14  H    0.377187
    15  H    0.431182
 Sum of APT charges =  -0.00000
 APT charges with hydrogens summed into heavy atoms:
               1
     1  C    0.049256
     2  C    0.033003
     3  N   -0.105824
     4  C    0.089590
     5  N   -0.066025
 Electronic spatial extent (au):  <R**2>=            509.0475
 Charge=             -0.0000 electrons
 Dipole moment (field-independent basis, Debye):
    X=             -1.3322    Y=              1.2986    Z=              2.0079  Tot=              2.7373
 Quadrupole moment (field-independent basis, Debye-Ang):
   XX=            -36.7228   YY=            -30.5515   ZZ=            -33.0513
   XY=              2.8830   XZ=              0.5525   YZ=              2.2067
 Traceless Quadrupole moment (field-independent basis, Debye-Ang):
   XX=             -3.2809   YY=              2.8903   ZZ=              0.3905
   XY=              2.8830   XZ=              0.5525   YZ=              2.2067
 Octapole moment (field-independent basis, Debye-Ang**2):
  XXX=            -15.8884  YYY=              9.4238  ZZZ=              1.8990  XYY=              0.0939
  XXY=             13.3755  XXZ=              4.1950  XZZ=              4.4078  YZZ=             -0.6753
  YYZ=              4.5819  XYZ=             -1.6335
 Hexadecapole moment (field-independent basis, Debye-Ang**3):
 XXXX=           -453.3348 YYYY=           -174.8418 ZZZZ=            -65.9550 XXXY=             14.6840
 XXXZ=              6.4855 YYYX=             -2.1203 YYYZ=              4.5659 ZZZX=              2.6397
 ZZZY=              3.5972 XXYY=            -93.3869 XXZZ=            -73.3296 YYZZ=            -45.9173
 XXYZ=             -0.1359 YYXZ=             -1.9892 ZZXY=              2.1999
 N-N= 1.951747735084D+02 E-N=-9.238668334966D+02  KE= 2.276426265117D+02
  Exact polarizability:   0.000   0.000   0.000   0.000   0.000   0.000
 Approx polarizability:  63.888   1.209  64.938   0.782  -0.438  60.166
 D2PCM: PCM CHGder 2nd derivatives, FixD1E=F FixD2E=F DoIter=F DoCFld=F I1PDM=0
 Calling FoFJK, ICntrl=    100147 FMM=F ISym2X=0 I1Cent= 0 IOpClX= 0 NMat=1 NMatS=1 NMatT=0.
 ***** Axes restored to original set *****
 -------------------------------------------------------------------
 Center     Atomic                   Forces (Hartrees/Bohr)
 Number     Number              X              Y              Z
 -------------------------------------------------------------------
      1        6          -0.001690765   -0.002782427    0.000866602
      2        6          -0.004289204   -0.004241153    0.000102089
      3        7          -0.001445930    0.006749656   -0.008958488
      4        6          -0.002630473    0.006767247    0.010565055
      5        7           0.001539992    0.003387707   -0.006509584
      6        1           0.000640137    0.001363202    0.000463251
      7        1          -0.000093361    0.000030381    0.000184504
      8        1          -0.000363619   -0.000408564   -0.000279552
      9        1           0.005856759   -0.008100675   -0.000001261
     10        1           0.002190481   -0.000509525   -0.000731448
     11        1          -0.002115726   -0.000836987    0.001018405
     12        1          -0.001441915   -0.001065515    0.000836463
     13        1          -0.001315578    0.000703918    0.000500814
     14        1           0.003811155   -0.000998910    0.000906333
     15        1           0.001348047   -0.000058354    0.001036817
 -------------------------------------------------------------------
 Cartesian Forces:  Max     0.010565055 RMS     0.003452767
 FormGI is forming the generalized inverse of G from B-inverse, IUseBI=4.

 GradGradGradGradGradGradGradGradGradGradGradGradGradGradGradGradGradGrad
 Berny optimization.
 Internal  Forces:  Max     0.017075935 RMS     0.003279735
 Search for a local minimum.
 Step number   1 out of a maximum of   78
 All quantities printed in internal units (Hartrees-Bohrs-Radians)
 Mixed Optimization -- RFO/linear search
 Second derivative matrix not updated -- analytic derivatives used.
 ITU=  0
     Eigenvalues ---    0.00108   0.00269   0.00304   0.00658   0.03207
     Eigenvalues ---    0.03712   0.03884   0.04447   0.04547   0.04578
     Eigenvalues ---    0.04776   0.05163   0.05742   0.08182   0.11573
     Eigenvalues ---    0.12283   0.13093   0.13929   0.14571   0.14958
     Eigenvalues ---    0.15749   0.18640   0.18882   0.20055   0.23352
     Eigenvalues ---    0.29427   0.30432   0.31203   0.33138   0.33346
     Eigenvalues ---    0.33561   0.33693   0.34307   0.35315   0.37071
     Eigenvalues ---    0.43590   0.44042   0.44477   0.44537
 RFO step:  Lambda=-4.37098437D-03 EMin= 1.08479539D-03
 Linear search not attempted -- first point.
 Iteration  1 RMS(Cart)=  0.06785637 RMS(Int)=  0.00228103
 Iteration  2 RMS(Cart)=  0.00290156 RMS(Int)=  0.00024611
 Iteration  3 RMS(Cart)=  0.00000417 RMS(Int)=  0.00024608
 Iteration  4 RMS(Cart)=  0.00000000 RMS(Int)=  0.00024608
 Variable       Old X    -DE/DX   Delta X   Delta X   Delta X     New X
                                 (Linear)    (Quad)   (Total)
    R1        2.88372   0.00172   0.00000   0.00596   0.00596   2.88968
    R2        2.07070  -0.00014   0.00000  -0.00033  -0.00033   2.07037
    R3        2.06983  -0.00010   0.00000  -0.00089  -0.00089   2.06895
    R4        2.07047   0.00013   0.00000  -0.00027  -0.00027   2.07020
    R5        2.77882   0.00336   0.00000   0.00394   0.00394   2.78276
    R6        2.92667  -0.00314   0.00000  -0.01783  -0.01783   2.90884
    R7        2.07347   0.00534   0.00000   0.01650   0.01650   2.08997
    R8        1.92669  -0.00208   0.00000  -0.00190  -0.00190   1.92479
    R9        1.92444  -0.00139   0.00000  -0.00042  -0.00042   1.92402
   R10        2.77437   0.00493   0.00000  -0.00094  -0.00094   2.77343
   R11        2.07051   0.00019   0.00000   0.00268   0.00268   2.07319
   R12        2.07185   0.00017   0.00000   0.00187   0.00187   2.07372
   R13        1.92996  -0.00273   0.00000  -0.00661  -0.00661   1.92336
   R14        1.92320   0.00137   0.00000   0.00306   0.00306   1.92626
    A1        1.94610  -0.00238   0.00000  -0.01748  -0.01750   1.92860
    A2        1.93080   0.00033   0.00000   0.00542   0.00543   1.93623
    A3        1.93820   0.00120   0.00000   0.00154   0.00150   1.93970
    A4        1.88365   0.00098   0.00000   0.00867   0.00870   1.89235
    A5        1.88426   0.00036   0.00000   0.00110   0.00105   1.88531
    A6        1.87834  -0.00044   0.00000   0.00148   0.00146   1.87980
    A7        1.91743  -0.00152   0.00000  -0.00807  -0.00861   1.90881
    A8        1.93161   0.00423   0.00000   0.00248   0.00194   1.93355
    A9        1.89227  -0.00210   0.00000  -0.00748  -0.00782   1.88446
   A10        1.94896  -0.00465   0.00000  -0.03832  -0.03830   1.91066
   A11        1.87815   0.00625   0.00000   0.07159   0.07167   1.94982
   A12        1.89361  -0.00213   0.00000  -0.01760  -0.01711   1.87650
   A13        1.91012  -0.00192   0.00000  -0.00820  -0.00824   1.90188
   A14        1.90311   0.00121   0.00000  -0.00161  -0.00166   1.90146
   A15        1.85099  -0.00071   0.00000  -0.01829  -0.01839   1.83259
   A16        1.96844   0.01708   0.00000   0.06457   0.06469   2.03313
   A17        1.91192  -0.00583   0.00000  -0.02257  -0.02289   1.88903
   A18        1.92572  -0.00566   0.00000  -0.02943  -0.02983   1.89589
   A19        1.89917  -0.00470   0.00000  -0.01159  -0.01139   1.88777
   A20        1.88577  -0.00440   0.00000  -0.00487  -0.00454   1.88123
   A21        1.86997   0.00290   0.00000   0.00133   0.00073   1.87070
   A22        1.86812   0.00508   0.00000   0.03919   0.03894   1.90706
   A23        1.90718   0.00072   0.00000   0.00922   0.00896   1.91614
   A24        1.85176  -0.00149   0.00000   0.00018  -0.00035   1.85140
    D1        1.06866  -0.00332   0.00000  -0.05281  -0.05275   1.01591
    D2       -1.09156   0.00074   0.00000  -0.00020  -0.00009  -1.09166
    D3        3.11670   0.00213   0.00000   0.02441   0.02430   3.14101
    D4       -3.11811  -0.00343   0.00000  -0.04980  -0.04977   3.11531
    D5        1.00486   0.00063   0.00000   0.00281   0.00288   1.00774
    D6       -1.07007   0.00202   0.00000   0.02742   0.02728  -1.04279
    D7       -1.03356  -0.00299   0.00000  -0.04340  -0.04336  -1.07692
    D8        3.08941   0.00107   0.00000   0.00921   0.00929   3.09869
    D9        1.01449   0.00246   0.00000   0.03382   0.03368   1.04817
   D10        0.95822  -0.00002   0.00000   0.02109   0.02109   0.97931
   D11        2.97579  -0.00125   0.00000  -0.00619  -0.00614   2.96965
   D12        3.10828   0.00111   0.00000  -0.00798  -0.00752   3.10076
   D13       -1.15734  -0.00012   0.00000  -0.03526  -0.03474  -1.19208
   D14       -1.09861  -0.00027   0.00000  -0.00676  -0.00731  -1.10591
   D15        0.91896  -0.00150   0.00000  -0.03404  -0.03453   0.88443
   D16        2.97643   0.00061   0.00000   0.07194   0.07197   3.04839
   D17       -1.18877   0.00195   0.00000   0.08453   0.08437  -1.10440
   D18        0.86578  -0.00140   0.00000   0.05497   0.05540   0.92118
   D19        0.83445   0.00280   0.00000   0.10752   0.10747   0.94192
   D20        2.95243   0.00415   0.00000   0.12012   0.11988   3.07231
   D21       -1.27620   0.00079   0.00000   0.09056   0.09091  -1.18529
   D22       -1.23265  -0.00077   0.00000   0.05344   0.05325  -1.17940
   D23        0.88534   0.00058   0.00000   0.06604   0.06565   0.95099
   D24        2.93989  -0.00278   0.00000   0.03648   0.03668   2.97658
   D25       -1.11694  -0.00051   0.00000   0.00522   0.00498  -1.11197
   D26        0.88109   0.00077   0.00000   0.03053   0.03058   0.91167
   D27        3.04103  -0.00107   0.00000  -0.00061  -0.00086   3.04017
   D28       -1.24412   0.00020   0.00000   0.02469   0.02474  -1.21938
   D29        1.01632   0.00035   0.00000   0.00656   0.00660   1.02293
   D30        3.01436   0.00162   0.00000   0.03186   0.03221   3.04657
         Item               Value     Threshold  Converged?
 Maximum Force            0.017076     0.000450     NO 
 RMS     Force            0.003280     0.000300     NO 
 Maximum Displacement     0.233768     0.001800     NO 
 RMS     Displacement     0.067794     0.001200     NO 
 Predicted change in Energy=-2.380678D-03
 GradGradGradGradGradGradGradGradGradGradGradGradGradGradGradGradGradGrad

                          Input orientation:                          
 ---------------------------------------------------------------------
 Center     Atomic      Atomic             Coordinates (Angstroms)
 Number     Number       Type             X           Y           Z
 ---------------------------------------------------------------------
      1          6           0       -1.300683   -1.170413   -0.216569
      2          6           0       -0.227445   -0.225596    0.325457
      3          7           0       -0.828071    1.091197    0.597067
      4          6           0        0.921756   -0.066578   -0.686208
      5          7           0        1.963805    0.909012   -0.345171
      6          1           0       -1.749427   -0.759102   -1.127491
      7          1           0       -0.875376   -2.151221   -0.452795
      8          1           0       -2.100444   -1.321909    0.516613
      9          1           0        0.195580   -0.679156    1.241149
     10          1           0       -1.611751    0.972076    1.236687
     11          1           0       -0.156468    1.662094    1.106628
     12          1           0        1.399763   -1.045043   -0.819313
     13          1           0        0.497364    0.221553   -1.656301
     14          1           0        1.554272    1.840204   -0.312432
     15          1           0        2.317125    0.722882    0.592679
 ---------------------------------------------------------------------
                    Distance matrix (angstroms):
                    1          2          3          4          5
     1  C    0.000000
     2  C    1.529153   0.000000
     3  N    2.449540   1.472572   0.000000
     4  C    2.525519   1.539290   2.459499   0.000000
     5  N    3.872651   2.557079   2.952215   1.467634   0.000000
     6  H    1.095594   2.170740   2.691952   2.794555   4.145204
     7  H    1.094839   2.175665   3.408478   2.762227   4.175830
     8  H    1.095502   2.178662   2.729192   3.486592   4.715697
     9  H    2.145945   1.105966   2.144027   2.148788   2.857501
    10  H    2.607485   2.044765   1.018557   3.345891   3.910352
    11  H    3.329139   2.044172   1.018147   2.713878   2.677762
    12  H    2.769733   2.151696   3.396011   1.097087   2.088369
    13  H    2.691351   2.157001   2.755127   1.097365   2.083774
    14  H    4.150153   2.801598   2.657773   2.043430   1.017796
    15  H    4.162689   2.728709   3.166691   2.050817   1.019334
                    6          7          8          9         10
     6  H    0.000000
     7  H    1.776844   0.000000
     8  H    1.772863   1.768700   0.000000
     9  H    3.065926   2.486638   2.491949   0.000000
    10  H    2.933474   3.626511   2.453507   2.448068   0.000000
    11  H    3.659370   4.182104   3.609907   2.371389   1.615824
    12  H    3.177126   2.556213   3.756700   2.414422   4.167148
    13  H    2.507866   2.993810   3.721886   3.049192   3.658010
    14  H    4.281955   4.674865   4.903389   3.256814   3.630030
    15  H    4.657478   4.421034   4.868456   2.624343   3.989099
                   11         12         13         14         15
    11  H    0.000000
    12  H    3.668745   0.000000
    13  H    3.183776   1.766108   0.000000
    14  H    2.229817   2.933505   2.354373   0.000000
    15  H    2.695353   2.441481   2.936116   1.627753   0.000000
 Stoichiometry    C3H10N2
 Framework group  C1[X(C3H10N2)]
 Deg. of freedom    39
 Full point group                 C1      NOp   1
 Largest Abelian subgroup         C1      NOp   1
 Largest concise Abelian subgroup C1      NOp   1
                         Standard orientation:                         
 ---------------------------------------------------------------------
 Center     Atomic      Atomic             Coordinates (Angstroms)
 Number     Number       Type             X           Y           Z
 ---------------------------------------------------------------------
      1          6           0       -1.781078   -0.661378   -0.043868
      2          6           0       -0.474354    0.032988    0.341667
      3          7           0       -0.458348    1.392433   -0.224126
      4          6           0        0.738822   -0.755649   -0.183376
      5          7           0        2.055564   -0.137399    0.011312
      6          1           0       -1.888638   -0.698948   -1.133522
      7          1           0       -1.808542   -1.685576    0.342053
      8          1           0       -2.646919   -0.128354    0.363968
      9          1           0       -0.408913    0.048384    1.445588
     10          1           0       -1.284345    1.894475    0.097032
     11          1           0        0.329913    1.904205    0.167483
     12          1           0        0.746856   -1.738189    0.304629
     13          1           0        0.605524   -0.928870   -1.258754
     14          1           0        2.099528    0.732163   -0.515791
     15          1           0        2.174681    0.119703    0.990471
 ---------------------------------------------------------------------
 Rotational constants (GHZ):           7.9333190           3.4941877           2.6588778
 Standard basis: 6-31G(d,p) (6D, 7F)
 There are   125 symmetry adapted cartesian basis functions of A   symmetry.
 There are   125 symmetry adapted basis functions of A   symmetry.
   125 basis functions,   210 primitive gaussians,   125 cartesian basis functions
    21 alpha electrons       21 beta electrons
       nuclear repulsion energy       194.6901328507 Hartrees.
 NAtoms=   15 NActive=   15 NUniq=   15 SFac= 1.00D+00 NAtFMM=   60 NAOKFM=F Big=F
 Integral buffers will be    131072 words long.
 Raffenetti 2 integral format.
 Two-electron integral symmetry is turned on.
 ------------------------------------------------------------------------------
 Polarizable Continuum Model (PCM)
 =================================
 Model                : PCM.
 Atomic radii         : UFF (Universal Force Field).
 Polarization charges : Total charges.
 Charge compensation  : None.
 Solution method      : Matrix inversion.
 Cavity type          : Scaled VdW (van der Waals Surface) (Alpha=1.100).
 Cavity algorithm     : GePol (No added spheres)
                        Default sphere list used, NSphG=   15.
                        Lebedev-Laikov grids with approx.  5.0 points / Ang**2.
                        Smoothing algorithm: York/Karplus (Gamma=1.0000).
                        Polarization charges: spherical gaussians, with
                                              point-specific exponents (IZeta= 3).
                        Self-potential: point-specific (ISelfS= 7).
                        Self-field    : sphere-specific E.n sum rule (ISelfD= 2).
 1st derivatives      : Analytical E(r).r(x)/FMM algorithm (CHGder, D1EAlg=3).
                        Cavity 1st derivative terms included.
 Solvent              : Water, Eps=  78.355300 Eps(inf)=   1.777849
 ------------------------------------------------------------------------------
 Spheres list:
 ISph  on   Nord     Re0    Alpha      Xe            Ye            Ze
    1   C      1    1.9255  1.100     -1.781078     -0.661378     -0.043868
    2   C      2    1.9255  1.100     -0.474354      0.032988      0.341667
    3   N      3    1.8300  1.100     -0.458348      1.392433     -0.224126
    4   C      4    1.9255  1.100      0.738822     -0.755649     -0.183376
    5   N      5    1.8300  1.100      2.055564     -0.137399      0.011312
    6   H      6    1.4430  1.100     -1.888638     -0.698948     -1.133522
    7   H      7    1.4430  1.100     -1.808542     -1.685576      0.342053
    8   H      8    1.4430  1.100     -2.646919     -0.128354      0.363968
    9   H      9    1.4430  1.100     -0.408913      0.048384      1.445588
   10   H     10    1.4430  1.100     -1.284345      1.894475      0.097032
   11   H     11    1.4430  1.100      0.329913      1.904205      0.167483
   12   H     12    1.4430  1.100      0.746856     -1.738189      0.304629
   13   H     13    1.4430  1.100      0.605524     -0.928870     -1.258754
   14   H     14    1.4430  1.100      2.099528      0.732163     -0.515791
   15   H     15    1.4430  1.100      2.174681      0.119703      0.990471
 ------------------------------------------------------------------------------
 One-electron integrals computed using PRISM.
 NBasis=   125 RedAO= T EigKep=  3.60D-03  NBF=   125
 NBsUse=   125 1.00D-06 EigRej= -1.00D+00 NBFU=   125
 Initial guess from the checkpoint file:  "AOHJOMMDDJHIJH-VKHMYHEASA-N_conf_0_0.chk"
 B after Tr=     0.000000    0.000000    0.000000
         Rot=    0.999902   -0.013073   -0.000972   -0.004905 Ang=  -1.60 deg.
 ExpMin= 1.61D-01 ExpMax= 4.17D+03 ExpMxC= 6.27D+02 IAcc=2 IRadAn=         4 AccDes= 0.00D+00
 Harris functional with IExCor=  402 and IRadAn=       4 diagonalized for initial guess.
 HarFok:  IExCor=  402 AccDes= 0.00D+00 IRadAn=         4 IDoV= 1 UseB2=F ITyADJ=14
 ICtDFT=  3500011 ScaDFX=  1.000000  1.000000  1.000000  1.000000
 FoFCou: FMM=F IPFlag=           0 FMFlag=      100000 FMFlg1=           0
         NFxFlg=           0 DoJE=T BraDBF=F KetDBF=T FulRan=T
         wScrn=  0.000000 ICntrl=       500 IOpCl=  0 I1Cent=   200000004 NGrid=           0
         NMat0=    1 NMatS0=      1 NMatT0=    0 NMatD0=    1 NMtDS0=    0 NMtDT0=    0
 Petite list used in FoFCou.
 Keep R1 ints in memory in canonical form, NReq=32913836.
 Requested convergence on RMS density matrix=1.00D-08 within  32 cycles.
 Requested convergence on MAX density matrix=1.00D-06.
 Requested convergence on             energy=1.00D-06.
 No special actions if energy rises.
 Inv3:  Mode=1 IEnd=     3783387.
 Iteration    1 A*A^-1 deviation from unit magnitude is 5.33D-15 for    739.
 Iteration    1 A*A^-1 deviation from orthogonality  is 3.42D-15 for    978     79.
 Iteration    1 A^-1*A deviation from unit magnitude is 4.88D-15 for    154.
 Iteration    1 A^-1*A deviation from orthogonality  is 2.53D-15 for   1075    484.
 Error on total polarization charges =  0.00715
 SCF Done:  E(RB3LYP) =  -229.856598342     A.U. after    9 cycles
            NFock=  9  Conv=0.69D-08     -V/T= 2.0098
 QCSCF skips out because SCF is already converged.
 D1PCM: PCM CHGder 1st derivatives, ID1Alg=3 FixD1E=F DoIter=F DoCFld=F I1PDM=0.
 Calling FoFJK, ICntrl=      2127 FMM=F ISym2X=0 I1Cent= 0 IOpClX= 0 NMat=1 NMatS=1 NMatT=0.
 ***** Axes restored to original set *****
 -------------------------------------------------------------------
 Center     Atomic                   Forces (Hartrees/Bohr)
 Number     Number              X              Y              Z
 -------------------------------------------------------------------
      1        6           0.000166818   -0.000405152    0.000052218
      2        6          -0.000767191   -0.000342860    0.000807858
      3        7          -0.000607204    0.000606642   -0.000853929
      4        6           0.000157592    0.000085978    0.000507555
      5        7           0.000397581   -0.000070188   -0.000196437
      6        1          -0.000014773    0.000076332    0.000044699
      7        1           0.000018509    0.000015464   -0.000034098
      8        1          -0.000022480   -0.000008606   -0.000010682
      9        1           0.000525664   -0.000116343   -0.000046059
     10        1          -0.000025874   -0.000001149    0.000038759
     11        1          -0.000098844    0.000010898    0.000210911
     12        1          -0.000216981   -0.000142338   -0.000491703
     13        1           0.000187852    0.000287167    0.000008337
     14        1           0.000148475    0.000110954    0.000144329
     15        1           0.000150858   -0.000106799   -0.000181758
 -------------------------------------------------------------------
 Cartesian Forces:  Max     0.000853929 RMS     0.000313373

 GradGradGradGradGradGradGradGradGradGradGradGradGradGradGradGradGradGrad
 Berny optimization.
 Using GEDIIS/GDIIS optimizer.
 FormGI is forming the generalized inverse of G from B-inverse, IUseBI=4.
 Internal  Forces:  Max     0.001185127 RMS     0.000282105
 Search for a local minimum.
 Step number   2 out of a maximum of   78
 All quantities printed in internal units (Hartrees-Bohrs-Radians)
 Mixed Optimization -- En-DIIS/RFO-DIIS
 Update second derivatives using D2CorX and points    1    2
 DE= -2.41D-03 DEPred=-2.38D-03 R= 1.01D+00
 TightC=F SS=  1.41D+00  RLast= 2.99D-01 DXNew= 5.0454D-01 8.9656D-01
 Trust test= 1.01D+00 RLast= 2.99D-01 DXMaxT set to 5.05D-01
 ITU=  1  0
 Use linear search instead of GDIIS.
     Eigenvalues ---    0.00109   0.00269   0.00306   0.00656   0.03209
     Eigenvalues ---    0.03717   0.03883   0.04446   0.04545   0.04578
     Eigenvalues ---    0.04771   0.05144   0.05739   0.08184   0.11558
     Eigenvalues ---    0.12283   0.13087   0.13934   0.14528   0.14953
     Eigenvalues ---    0.15743   0.18673   0.18875   0.20040   0.23369
     Eigenvalues ---    0.29437   0.30232   0.31258   0.33131   0.33255
     Eigenvalues ---    0.33523   0.33663   0.34303   0.35312   0.36534
     Eigenvalues ---    0.43592   0.44055   0.44473   0.44547
 RFO step:  Lambda=-2.33586275D-04 EMin= 1.08642170D-03
 Quartic linear search produced a step of  0.12028.
 Iteration  1 RMS(Cart)=  0.05517779 RMS(Int)=  0.00121120
 Iteration  2 RMS(Cart)=  0.00167148 RMS(Int)=  0.00003167
 Iteration  3 RMS(Cart)=  0.00000089 RMS(Int)=  0.00003167
 Variable       Old X    -DE/DX   Delta X   Delta X   Delta X     New X
                                 (Linear)    (Quad)   (Total)
    R1        2.88968   0.00007   0.00072  -0.00055   0.00016   2.88984
    R2        2.07037  -0.00001  -0.00004   0.00009   0.00005   2.07042
    R3        2.06895   0.00000  -0.00011  -0.00013  -0.00023   2.06871
    R4        2.07020   0.00001  -0.00003   0.00006   0.00003   2.07022
    R5        2.78276   0.00075   0.00047   0.00114   0.00162   2.78438
    R6        2.90884   0.00077  -0.00214  -0.00077  -0.00292   2.90592
    R7        2.08997   0.00021   0.00198  -0.00106   0.00092   2.09089
    R8        1.92479   0.00004  -0.00023   0.00063   0.00040   1.92520
    R9        1.92402   0.00004  -0.00005   0.00081   0.00076   1.92477
   R10        2.77343   0.00039  -0.00011   0.00098   0.00087   2.77430
   R11        2.07319   0.00009   0.00032   0.00038   0.00070   2.07389
   R12        2.07372  -0.00001   0.00022  -0.00023  -0.00001   2.07371
   R13        1.92336   0.00005  -0.00079   0.00067  -0.00013   1.92323
   R14        1.92626  -0.00010   0.00037  -0.00066  -0.00029   1.92597
    A1        1.92860  -0.00008  -0.00210   0.00239   0.00029   1.92889
    A2        1.93623  -0.00000   0.00065  -0.00029   0.00037   1.93659
    A3        1.93970   0.00004   0.00018  -0.00103  -0.00085   1.93885
    A4        1.89235   0.00005   0.00105  -0.00022   0.00083   1.89318
    A5        1.88531  -0.00000   0.00013  -0.00137  -0.00125   1.88406
    A6        1.87980   0.00001   0.00018   0.00044   0.00061   1.88042
    A7        1.90881  -0.00022  -0.00104   0.00119   0.00008   1.90890
    A8        1.93355  -0.00007   0.00023   0.00102   0.00119   1.93475
    A9        1.88446   0.00001  -0.00094   0.00300   0.00202   1.88647
   A10        1.91066   0.00013  -0.00461   0.00213  -0.00247   1.90819
   A11        1.94982   0.00036   0.00862  -0.00359   0.00503   1.95485
   A12        1.87650  -0.00021  -0.00206  -0.00382  -0.00582   1.87068
   A13        1.90188  -0.00003  -0.00099   0.00072  -0.00028   1.90160
   A14        1.90146   0.00011  -0.00020  -0.00087  -0.00108   1.90038
   A15        1.83259  -0.00010  -0.00221  -0.00073  -0.00296   1.82964
   A16        2.03313   0.00119   0.00778  -0.00707   0.00073   2.03385
   A17        1.88903  -0.00019  -0.00275   0.00345   0.00066   1.88969
   A18        1.89589  -0.00030  -0.00359   0.00343  -0.00020   1.89569
   A19        1.88777  -0.00046  -0.00137   0.00154   0.00019   1.88797
   A20        1.88123  -0.00034  -0.00055   0.00009  -0.00042   1.88082
   A21        1.87070   0.00003   0.00009  -0.00115  -0.00113   1.86957
   A22        1.90706   0.00036   0.00468   0.00306   0.00771   1.91476
   A23        1.91614   0.00002   0.00108  -0.00180  -0.00076   1.91538
   A24        1.85140  -0.00007  -0.00004   0.00129   0.00117   1.85257
    D1        1.01591  -0.00014  -0.00634   0.00689   0.00055   1.01647
    D2       -1.09166  -0.00012  -0.00001   0.00282   0.00282  -1.08884
    D3        3.14101   0.00017   0.00292   0.00507   0.00798  -3.13420
    D4        3.11531  -0.00014  -0.00599   0.00801   0.00203   3.11734
    D5        1.00774  -0.00012   0.00035   0.00394   0.00430   1.01203
    D6       -1.04279   0.00017   0.00328   0.00620   0.00946  -1.03333
    D7       -1.07692  -0.00011  -0.00522   0.00770   0.00249  -1.07444
    D8        3.09869  -0.00009   0.00112   0.00362   0.00475   3.10344
    D9        1.04817   0.00020   0.00405   0.00588   0.00991   1.05808
   D10        0.97931   0.00005   0.00254   0.00985   0.01238   0.99169
   D11        2.96965  -0.00002  -0.00074   0.00890   0.00818   2.97783
   D12        3.10076  -0.00008  -0.00090   0.01320   0.01235   3.11311
   D13       -1.19208  -0.00016  -0.00418   0.01226   0.00814  -1.18394
   D14       -1.10591  -0.00004  -0.00088   0.00758   0.00663  -1.09928
   D15        0.88443  -0.00011  -0.00415   0.00664   0.00242   0.88685
   D16        3.04839   0.00033   0.00866   0.08746   0.09612  -3.13867
   D17       -1.10440   0.00041   0.01015   0.08728   0.09741  -1.00699
   D18        0.92118   0.00018   0.00666   0.08961   0.09632   1.01751
   D19        0.94192   0.00056   0.01293   0.08395   0.09687   1.03879
   D20        3.07231   0.00063   0.01442   0.08377   0.09816  -3.11271
   D21       -1.18529   0.00041   0.01094   0.08609   0.09707  -1.08822
   D22       -1.17940   0.00017   0.00641   0.08938   0.09575  -1.08365
   D23        0.95099   0.00025   0.00790   0.08920   0.09704   1.04803
   D24        2.97658   0.00003   0.00441   0.09152   0.09595   3.07253
   D25       -1.11197   0.00005   0.00060  -0.02420  -0.02363  -1.13560
   D26        0.91167   0.00018   0.00368  -0.02192  -0.01823   0.89344
   D27        3.04017  -0.00017  -0.00010  -0.02502  -0.02516   3.01501
   D28       -1.21938  -0.00004   0.00298  -0.02275  -0.01976  -1.23914
   D29        1.02293   0.00021   0.00079  -0.02452  -0.02372   0.99921
   D30        3.04657   0.00034   0.00387  -0.02224  -0.01832   3.02824
         Item               Value     Threshold  Converged?
 Maximum Force            0.001185     0.000450     NO 
 RMS     Force            0.000282     0.000300     YES
 Maximum Displacement     0.177400     0.001800     NO 
 RMS     Displacement     0.055170     0.001200     NO 
 Predicted change in Energy=-1.496707D-04
 GradGradGradGradGradGradGradGradGradGradGradGradGradGradGradGradGradGrad

                          Input orientation:                          
 ---------------------------------------------------------------------
 Center     Atomic      Atomic             Coordinates (Angstroms)
 Number     Number       Type             X           Y           Z
 ---------------------------------------------------------------------
      1          6           0       -1.286607   -1.190532   -0.198492
      2          6           0       -0.234062   -0.209590    0.319652
      3          7           0       -0.865144    1.098591    0.567415
      4          6           0        0.905141   -0.040377   -0.699294
      5          7           0        1.989613    0.875422   -0.324417
      6          1           0       -1.748387   -0.809099   -1.115909
      7          1           0       -0.839733   -2.166180   -0.414861
      8          1           0       -2.080549   -1.343571    0.540690
      9          1           0        0.210217   -0.636279    1.238777
     10          1           0       -1.635954    0.975453    1.222078
     11          1           0       -0.201572    1.697526    1.055664
     12          1           0        1.342787   -1.027929   -0.893249
     13          1           0        0.478618    0.315429   -1.645699
     14          1           0        1.628971    1.824642   -0.255949
     15          1           0        2.336664    0.636494    0.603593
 ---------------------------------------------------------------------
                    Distance matrix (angstroms):
                    1          2          3          4          5
     1  C    0.000000
     2  C    1.529239   0.000000
     3  N    2.450374   1.473428   0.000000
     4  C    2.525355   1.537747   2.456768   0.000000
     5  N    3.875261   2.556718   2.999135   1.468094   0.000000
     6  H    1.095621   2.171043   2.693136   2.793871   4.175730
     7  H    1.094715   2.175911   3.409435   2.764874   4.155084
     8  H    1.095516   2.178138   2.728018   3.485717   4.715778
     9  H    2.147888   1.106453   2.148698   2.143393   2.809816
    10  H    2.613725   2.045484   1.018771   3.343762   3.942892
    11  H    3.330329   2.044471   1.018547   2.706473   2.716942
    12  H    2.724489   2.151106   3.395672   1.097457   2.089186
    13  H    2.734657   2.155495   2.704979   1.097361   2.083863
    14  H    4.194660   2.817855   2.725011   2.049092   1.017728
    15  H    4.136359   2.721234   3.235185   2.050592   1.019182
                    6          7          8          9         10
     6  H    0.000000
     7  H    1.777298   0.000000
     8  H    1.772092   1.769007   0.000000
     9  H    3.067661   2.485460   2.497038   0.000000
    10  H    2.943374   3.630895   2.457606   2.450777   0.000000
    11  H    3.659445   4.183051   3.611652   2.376919   1.614477
    12  H    3.106899   2.507561   3.724921   2.445739   4.166659
    13  H    2.550450   3.067800   3.752588   3.049260   3.623699
    14  H    4.368372   4.695361   4.942949   3.209859   3.683126
    15  H    4.661981   4.356803   4.841115   2.558356   4.034738
                   11         12         13         14         15
    11  H    0.000000
    12  H    3.689365   0.000000
    13  H    3.109696   1.765666   0.000000
    14  H    2.255521   2.936871   2.352113   0.000000
    15  H    2.787974   2.449210   2.935086   1.628293   0.000000
 Stoichiometry    C3H10N2
 Framework group  C1[X(C3H10N2)]
 Deg. of freedom    39
 Full point group                 C1      NOp   1
 Largest Abelian subgroup         C1      NOp   1
 Largest concise Abelian subgroup C1      NOp   1
                         Standard orientation:                         
 ---------------------------------------------------------------------
 Center     Atomic      Atomic             Coordinates (Angstroms)
 Number     Number       Type             X           Y           Z
 ---------------------------------------------------------------------
      1          6           0       -1.769967   -0.688723   -0.020237
      2          6           0       -0.468637    0.033119    0.331979
      3          7           0       -0.497261    1.394615   -0.230604
      4          6           0        0.746488   -0.724062   -0.229102
      5          7           0        2.065638   -0.139171    0.041166
      6          1           0       -1.905965   -0.726933   -1.106713
      7          1           0       -1.766029   -1.713383    0.365063
      8          1           0       -2.635535   -0.173485    0.410433
      9          1           0       -0.368045    0.041872    1.433815
     10          1           0       -1.318942    1.881776    0.123527
     11          1           0        0.295049    1.919428    0.135803
     12          1           0        0.734306   -1.743460    0.177213
     13          1           0        0.634447   -0.808779   -1.317436
     14          1           0        2.145339    0.759844   -0.429143
     15          1           0        2.159429    0.053004    1.037662
 ---------------------------------------------------------------------
 Rotational constants (GHZ):           7.9061772           3.4703537           2.6489630
 Standard basis: 6-31G(d,p) (6D, 7F)
 There are   125 symmetry adapted cartesian basis functions of A   symmetry.
 There are   125 symmetry adapted basis functions of A   symmetry.
   125 basis functions,   210 primitive gaussians,   125 cartesian basis functions
    21 alpha electrons       21 beta electrons
       nuclear repulsion energy       194.4902486883 Hartrees.
 NAtoms=   15 NActive=   15 NUniq=   15 SFac= 1.00D+00 NAtFMM=   60 NAOKFM=F Big=F
 Integral buffers will be    131072 words long.
 Raffenetti 2 integral format.
 Two-electron integral symmetry is turned on.
 ------------------------------------------------------------------------------
 Polarizable Continuum Model (PCM)
 =================================
 Model                : PCM.
 Atomic radii         : UFF (Universal Force Field).
 Polarization charges : Total charges.
 Charge compensation  : None.
 Solution method      : Matrix inversion.
 Cavity type          : Scaled VdW (van der Waals Surface) (Alpha=1.100).
 Cavity algorithm     : GePol (No added spheres)
                        Default sphere list used, NSphG=   15.
                        Lebedev-Laikov grids with approx.  5.0 points / Ang**2.
                        Smoothing algorithm: York/Karplus (Gamma=1.0000).
                        Polarization charges: spherical gaussians, with
                                              point-specific exponents (IZeta= 3).
                        Self-potential: point-specific (ISelfS= 7).
                        Self-field    : sphere-specific E.n sum rule (ISelfD= 2).
 1st derivatives      : Analytical E(r).r(x)/FMM algorithm (CHGder, D1EAlg=3).
                        Cavity 1st derivative terms included.
 Solvent              : Water, Eps=  78.355300 Eps(inf)=   1.777849
 ------------------------------------------------------------------------------
 Spheres list:
 ISph  on   Nord     Re0    Alpha      Xe            Ye            Ze
    1   C      1    1.9255  1.100     -1.769967     -0.688723     -0.020237
    2   C      2    1.9255  1.100     -0.468637      0.033119      0.331979
    3   N      3    1.8300  1.100     -0.497261      1.394615     -0.230604
    4   C      4    1.9255  1.100      0.746488     -0.724062     -0.229102
    5   N      5    1.8300  1.100      2.065638     -0.139171      0.041166
    6   H      6    1.4430  1.100     -1.905965     -0.726933     -1.106713
    7   H      7    1.4430  1.100     -1.766029     -1.713383      0.365063
    8   H      8    1.4430  1.100     -2.635535     -0.173485      0.410433
    9   H      9    1.4430  1.100     -0.368045      0.041872      1.433815
   10   H     10    1.4430  1.100     -1.318942      1.881776      0.123527
   11   H     11    1.4430  1.100      0.295049      1.919428      0.135803
   12   H     12    1.4430  1.100      0.734306     -1.743460      0.177213
   13   H     13    1.4430  1.100      0.634447     -0.808779     -1.317436
   14   H     14    1.4430  1.100      2.145339      0.759844     -0.429143
   15   H     15    1.4430  1.100      2.159429      0.053004      1.037662
 ------------------------------------------------------------------------------
 One-electron integrals computed using PRISM.
 NBasis=   125 RedAO= T EigKep=  3.68D-03  NBF=   125
 NBsUse=   125 1.00D-06 EigRej= -1.00D+00 NBFU=   125
 Initial guess from the checkpoint file:  "AOHJOMMDDJHIJH-VKHMYHEASA-N_conf_0_0.chk"
 B after Tr=    -0.000000    0.000000   -0.000000
         Rot=    0.999963   -0.006530   -0.000846   -0.005451 Ang=  -0.98 deg.
 ExpMin= 1.61D-01 ExpMax= 4.17D+03 ExpMxC= 6.27D+02 IAcc=2 IRadAn=         4 AccDes= 0.00D+00
 Harris functional with IExCor=  402 and IRadAn=       4 diagonalized for initial guess.
 HarFok:  IExCor=  402 AccDes= 0.00D+00 IRadAn=         4 IDoV= 1 UseB2=F ITyADJ=14
 ICtDFT=  3500011 ScaDFX=  1.000000  1.000000  1.000000  1.000000
 FoFCou: FMM=F IPFlag=           0 FMFlag=      100000 FMFlg1=           0
         NFxFlg=           0 DoJE=T BraDBF=F KetDBF=T FulRan=T
         wScrn=  0.000000 ICntrl=       500 IOpCl=  0 I1Cent=   200000004 NGrid=           0
         NMat0=    1 NMatS0=      1 NMatT0=    0 NMatD0=    1 NMtDS0=    0 NMtDT0=    0
 Petite list used in FoFCou.
 Keep R1 ints in memory in canonical form, NReq=32913836.
 Requested convergence on RMS density matrix=1.00D-08 within  32 cycles.
 Requested convergence on MAX density matrix=1.00D-06.
 Requested convergence on             energy=1.00D-06.
 No special actions if energy rises.
 Inv3:  Mode=1 IEnd=     3756483.
 Iteration    1 A*A^-1 deviation from unit magnitude is 5.22D-15 for    256.
 Iteration    1 A*A^-1 deviation from orthogonality  is 2.98D-15 for    980     15.
 Iteration    1 A^-1*A deviation from unit magnitude is 5.00D-15 for    256.
 Iteration    1 A^-1*A deviation from orthogonality  is 2.54D-15 for   1106    343.
 Error on total polarization charges =  0.00716
 SCF Done:  E(RB3LYP) =  -229.856728827     A.U. after    9 cycles
            NFock=  9  Conv=0.30D-08     -V/T= 2.0098
 QCSCF skips out because SCF is already converged.
 D1PCM: PCM CHGder 1st derivatives, ID1Alg=3 FixD1E=F DoIter=F DoCFld=F I1PDM=0.
 Calling FoFJK, ICntrl=      2127 FMM=F ISym2X=0 I1Cent= 0 IOpClX= 0 NMat=1 NMatS=1 NMatT=0.
 ***** Axes restored to original set *****
 -------------------------------------------------------------------
 Center     Atomic                   Forces (Hartrees/Bohr)
 Number     Number              X              Y              Z
 -------------------------------------------------------------------
      1        6          -0.000106279    0.000025729    0.000074024
      2        6          -0.000401181   -0.000018577    0.000059408
      3        7          -0.000272789    0.000090634    0.000169111
      4        6           0.000607195   -0.000061048   -0.000072104
      5        7           0.000229481   -0.000010578   -0.000357144
      6        1           0.000033953    0.000004660   -0.000018801
      7        1           0.000014292    0.000020722   -0.000001423
      8        1          -0.000046150    0.000005162   -0.000017799
      9        1          -0.000081083   -0.000038527   -0.000005610
     10        1           0.000003424   -0.000032903    0.000044951
     11        1           0.000008511    0.000075753    0.000000482
     12        1           0.000089549    0.000076330   -0.000025280
     13        1           0.000021537   -0.000100347    0.000040337
     14        1          -0.000127262   -0.000042836    0.000214483
     15        1           0.000026802    0.000005825   -0.000104635
 -------------------------------------------------------------------
 Cartesian Forces:  Max     0.000607195 RMS     0.000147230

 GradGradGradGradGradGradGradGradGradGradGradGradGradGradGradGradGradGrad
 Berny optimization.
 Using GEDIIS/GDIIS optimizer.
 FormGI is forming the generalized inverse of G from B-inverse, IUseBI=4.
 Internal  Forces:  Max     0.000818219 RMS     0.000143920
 Search for a local minimum.
 Step number   3 out of a maximum of   78
 All quantities printed in internal units (Hartrees-Bohrs-Radians)
 Mixed Optimization -- En-DIIS/RFO-DIIS
 Swapping is turned off.
 Update second derivatives using D2CorX and points    1    2    3
 DE= -1.30D-04 DEPred=-1.50D-04 R= 8.72D-01
 TightC=F SS=  1.41D+00  RLast= 2.97D-01 DXNew= 8.4853D-01 8.9003D-01
 Trust test= 8.72D-01 RLast= 2.97D-01 DXMaxT set to 8.49D-01
 ITU=  1  1  0
     Eigenvalues ---    0.00121   0.00267   0.00372   0.00578   0.03208
     Eigenvalues ---    0.03724   0.03887   0.04449   0.04541   0.04574
     Eigenvalues ---    0.04740   0.05128   0.05738   0.08184   0.11544
     Eigenvalues ---    0.12277   0.13075   0.13947   0.14488   0.14946
     Eigenvalues ---    0.15736   0.18665   0.18917   0.20021   0.23412
     Eigenvalues ---    0.29293   0.29898   0.31255   0.33038   0.33164
     Eigenvalues ---    0.33493   0.33647   0.34296   0.35258   0.36163
     Eigenvalues ---    0.43584   0.44058   0.44469   0.44550
 En-DIIS/RFO-DIIS/Sim-DIIS IScMMF=       -3 using points:     3    2
 RFO step:  Lambda=-2.28052843D-05.
 DidBck=F Rises=F RFO-DIIS coefs:    0.82989    0.17011
 Iteration  1 RMS(Cart)=  0.00968922 RMS(Int)=  0.00009279
 Iteration  2 RMS(Cart)=  0.00010535 RMS(Int)=  0.00000072
 Iteration  3 RMS(Cart)=  0.00000002 RMS(Int)=  0.00000072
 Variable       Old X    -DE/DX   Delta X   Delta X   Delta X     New X
                                 (Linear)    (Quad)   (Total)
    R1        2.88984   0.00002  -0.00003   0.00011   0.00008   2.88993
    R2        2.07042  -0.00000  -0.00001   0.00004   0.00003   2.07045
    R3        2.06871  -0.00001   0.00004  -0.00009  -0.00005   2.06866
    R4        2.07022   0.00002  -0.00000   0.00004   0.00004   2.07026
    R5        2.78438   0.00027  -0.00028   0.00137   0.00110   2.78547
    R6        2.90592   0.00082   0.00050   0.00304   0.00353   2.90945
    R7        2.09089  -0.00002  -0.00016   0.00004  -0.00012   2.09078
    R8        1.92520   0.00003  -0.00007   0.00013   0.00006   1.92526
    R9        1.92477   0.00005  -0.00013   0.00029   0.00016   1.92494
   R10        2.77430   0.00000  -0.00015  -0.00034  -0.00049   2.77381
   R11        2.07389  -0.00003  -0.00012  -0.00015  -0.00027   2.07362
   R12        2.07371  -0.00007   0.00000   0.00006   0.00006   2.07377
   R13        1.92323   0.00002   0.00002   0.00024   0.00026   1.92349
   R14        1.92597  -0.00009   0.00005  -0.00007  -0.00003   1.92595
    A1        1.92889  -0.00004  -0.00005  -0.00041  -0.00046   1.92843
    A2        1.93659  -0.00004  -0.00006  -0.00017  -0.00023   1.93636
    A3        1.93885   0.00006   0.00014   0.00042   0.00057   1.93942
    A4        1.89318   0.00001  -0.00014  -0.00013  -0.00027   1.89291
    A5        1.88406  -0.00000   0.00021  -0.00006   0.00015   1.88421
    A6        1.88042   0.00001  -0.00010   0.00036   0.00025   1.88067
    A7        1.90890  -0.00018  -0.00001  -0.00057  -0.00058   1.90832
    A8        1.93475  -0.00005  -0.00020  -0.00099  -0.00119   1.93356
    A9        1.88647   0.00005  -0.00034   0.00027  -0.00007   1.88640
   A10        1.90819   0.00027   0.00042   0.00054   0.00096   1.90915
   A11        1.95485  -0.00005  -0.00086   0.00092   0.00007   1.95492
   A12        1.87068  -0.00004   0.00099  -0.00020   0.00079   1.87147
   A13        1.90160  -0.00007   0.00005  -0.00099  -0.00094   1.90066
   A14        1.90038   0.00010   0.00018   0.00020   0.00038   1.90076
   A15        1.82964  -0.00001   0.00050  -0.00128  -0.00077   1.82886
   A16        2.03385   0.00042  -0.00012   0.00308   0.00295   2.03681
   A17        1.88969   0.00006  -0.00011   0.00092   0.00080   1.89049
   A18        1.89569  -0.00022   0.00003  -0.00221  -0.00218   1.89351
   A19        1.88797  -0.00022  -0.00003  -0.00079  -0.00083   1.88714
   A20        1.88082  -0.00009   0.00007  -0.00046  -0.00039   1.88043
   A21        1.86957   0.00002   0.00019  -0.00082  -0.00062   1.86894
   A22        1.91476  -0.00016  -0.00131  -0.00035  -0.00166   1.91310
   A23        1.91538   0.00005   0.00013  -0.00071  -0.00058   1.91480
   A24        1.85257  -0.00002  -0.00020  -0.00106  -0.00126   1.85131
    D1        1.01647   0.00013  -0.00009   0.00196   0.00187   1.01834
    D2       -1.08884  -0.00005  -0.00048   0.00228   0.00180  -1.08703
    D3       -3.13420  -0.00000  -0.00136   0.00292   0.00156  -3.13264
    D4        3.11734   0.00010  -0.00035   0.00142   0.00107   3.11841
    D5        1.01203  -0.00009  -0.00073   0.00174   0.00101   1.01304
    D6       -1.03333  -0.00003  -0.00161   0.00237   0.00076  -1.03257
    D7       -1.07444   0.00012  -0.00042   0.00204   0.00162  -1.07282
    D8        3.10344  -0.00006  -0.00081   0.00236   0.00155   3.10500
    D9        1.05808  -0.00001  -0.00169   0.00299   0.00131   1.05939
   D10        0.99169  -0.00001  -0.00211  -0.00902  -0.01113   0.98057
   D11        2.97783  -0.00001  -0.00139  -0.01094  -0.01233   2.96550
   D12        3.11311  -0.00001  -0.00210  -0.01025  -0.01235   3.10076
   D13       -1.18394  -0.00001  -0.00139  -0.01217  -0.01356  -1.19749
   D14       -1.09928   0.00008  -0.00113  -0.00957  -0.01069  -1.10998
   D15        0.88685   0.00008  -0.00041  -0.01149  -0.01190   0.87495
   D16       -3.13867  -0.00006  -0.01635   0.00305  -0.01331   3.13121
   D17       -1.00699  -0.00001  -0.01657   0.00489  -0.01168  -1.01867
   D18        1.01751  -0.00007  -0.01639   0.00324  -0.01314   1.00436
   D19        1.03879   0.00002  -0.01648   0.00402  -0.01246   1.02633
   D20       -3.11271   0.00007  -0.01670   0.00587  -0.01083  -3.12354
   D21       -1.08822   0.00001  -0.01651   0.00422  -0.01229  -1.10051
   D22       -1.08365  -0.00006  -0.01629   0.00271  -0.01358  -1.09723
   D23        1.04803  -0.00000  -0.01651   0.00455  -0.01195   1.03608
   D24        3.07253  -0.00006  -0.01632   0.00291  -0.01342   3.05911
   D25       -1.13560   0.00023   0.00402   0.02627   0.03028  -1.10531
   D26        0.89344   0.00013   0.00310   0.02437   0.02747   0.92091
   D27        3.01501   0.00003   0.00428   0.02353   0.02781   3.04282
   D28       -1.23914  -0.00007   0.00336   0.02163   0.02499  -1.21415
   D29        0.99921   0.00016   0.00404   0.02513   0.02916   1.02837
   D30        3.02824   0.00006   0.00312   0.02323   0.02635   3.05459
         Item               Value     Threshold  Converged?
 Maximum Force            0.000818     0.000450     NO 
 RMS     Force            0.000144     0.000300     YES
 Maximum Displacement     0.032376     0.001800     NO 
 RMS     Displacement     0.009690     0.001200     NO 
 Predicted change in Energy=-1.148218D-05
 GradGradGradGradGradGradGradGradGradGradGradGradGradGradGradGradGradGrad

                          Input orientation:                          
 ---------------------------------------------------------------------
 Center     Atomic      Atomic             Coordinates (Angstroms)
 Number     Number       Type             X           Y           Z
 ---------------------------------------------------------------------
      1          6           0       -1.287850   -1.187497   -0.199340
[...]
                 (A) (A) (A) (A) (A) (A) (A) (A) (A)
       Virtual   (A) (A) (A) (A) (A) (A) (A) (A) (A) (A) (A) (A)
                 (A) (A) (A) (A) (A) (A) (A) (A) (A) (A) (A) (A)
                 (A) (A) (A) (A) (A) (A) (A) (A) (A) (A) (A) (A)
                 (A) (A) (A) (A) (A) (A) (A) (A) (A) (A) (A) (A)
                 (A) (A) (A) (A) (A) (A) (A) (A) (A) (A) (A) (A)
                 (A) (A) (A) (A) (A) (A) (A) (A) (A) (A) (A) (A)
                 (A) (A) (A) (A) (A) (A) (A) (A) (A) (A) (A) (A)
                 (A) (A) (A) (A) (A) (A) (A) (A) (A) (A) (A) (A)
                 (A) (A) (A) (A) (A) (A) (A) (A)
 The electronic state is 1-A.
 Alpha  occ. eigenvalues --  -14.31192 -14.30873 -10.20605 -10.19953 -10.17145
 Alpha  occ. eigenvalues --   -0.89323  -0.85637  -0.73722  -0.65650  -0.56845
 Alpha  occ. eigenvalues --   -0.49849  -0.47745  -0.45204  -0.43781  -0.38474
 Alpha  occ. eigenvalues --   -0.36929  -0.36012  -0.35007  -0.34327  -0.24561
 Alpha  occ. eigenvalues --   -0.23012
 Alpha virt. eigenvalues --    0.07363   0.10670   0.13218   0.13400   0.15642
 Alpha virt. eigenvalues --    0.16047   0.18228   0.18827   0.20096   0.20901
 Alpha virt. eigenvalues --    0.24786   0.25425   0.26808   0.27774   0.52729
 Alpha virt. eigenvalues --    0.54854   0.55157   0.57051   0.58170   0.65894
 Alpha virt. eigenvalues --    0.66289   0.68778   0.70321   0.72039   0.74453
 Alpha virt. eigenvalues --    0.76819   0.82349   0.84273   0.86224   0.86884
 Alpha virt. eigenvalues --    0.89300   0.90133   0.90831   0.91745   0.92961
 Alpha virt. eigenvalues --    0.93912   0.96984   0.97680   1.05637   1.08632
 Alpha virt. eigenvalues --    1.21205   1.30025   1.33575   1.40861   1.46798
 Alpha virt. eigenvalues --    1.47633   1.56138   1.61724   1.65667   1.71495
 Alpha virt. eigenvalues --    1.78249   1.83640   1.84905   1.86836   1.92282
 Alpha virt. eigenvalues --    1.95682   1.97610   2.02979   2.04874   2.08353
 Alpha virt. eigenvalues --    2.09204   2.10784   2.15086   2.19111   2.23599
 Alpha virt. eigenvalues --    2.25713   2.28248   2.30010   2.30834   2.33251
 Alpha virt. eigenvalues --    2.36184   2.39301   2.43421   2.48032   2.55259
 Alpha virt. eigenvalues --    2.58684   2.64512   2.68231   2.72174   2.74264
 Alpha virt. eigenvalues --    2.74826   2.78959   2.82186   2.89558   2.90690
 Alpha virt. eigenvalues --    2.94346   2.96242   2.97712   3.00979   3.19673
 Alpha virt. eigenvalues --    3.26665   3.29749   3.32897   3.34317   3.40709
 Alpha virt. eigenvalues --    3.45128   3.50526   3.51708   3.59532   3.97807
 Alpha virt. eigenvalues --    4.01475   4.40019   4.52990   4.68170
          Condensed to atoms (all electrons):
               1          2          3          4          5          6
     1  C    5.055229   0.369133  -0.074077  -0.037004   0.001727   0.382873
     2  C    0.369133   5.107796   0.335785   0.325699  -0.018661  -0.030293
     3  N   -0.074077   0.335785   7.831818  -0.066308   0.042560  -0.002750
     4  C   -0.037004   0.325699  -0.066308   5.079120   0.243942  -0.007277
     5  N    0.001727  -0.018661   0.042560   0.243942   7.846177  -0.000103
     6  H    0.382873  -0.030293  -0.002750  -0.007277  -0.000103   0.579154
     7  H    0.318640  -0.062105   0.001496  -0.021918  -0.000676  -0.028246
     8  H    0.341576  -0.043242  -0.012959   0.001191  -0.000226  -0.027784
     9  H   -0.050077   0.217486  -0.127504  -0.055846  -0.050172   0.005304
    10  H   -0.002737  -0.059706  -0.148677   0.005184  -0.005445   0.000313
    11  H    0.012977  -0.056638  -0.358968   0.007559  -0.098621   0.000135
    12  H   -0.001688  -0.060901   0.000052   0.290316  -0.079556  -0.000358
    13  H   -0.003238  -0.028527  -0.013439   0.326780  -0.068809   0.004744
    14  H    0.001371  -0.006004  -0.057678  -0.012482  -0.282603   0.000023
    15  H    0.001109  -0.029212  -0.021477  -0.012653  -0.217214   0.000021
               7          8          9         10         11         12
     1  C    0.318640   0.341576  -0.050077  -0.002737   0.012977  -0.001688
     2  C   -0.062105  -0.043242   0.217486  -0.059706  -0.056638  -0.060901
     3  N    0.001496  -0.012959  -0.127504  -0.148677  -0.358968   0.000052
     4  C   -0.021918   0.001191  -0.055846   0.005184   0.007559   0.290316
     5  N   -0.000676  -0.000226  -0.050172  -0.005445  -0.098621  -0.079556
     6  H   -0.028246  -0.027784   0.005304   0.000313   0.000135  -0.000358
     7  H    0.657877  -0.007695   0.016591   0.003335   0.001013   0.016025
     8  H   -0.007695   0.601186   0.009083   0.021672   0.002896   0.000935
     9  H    0.016591   0.009083   0.761302   0.042680   0.057785   0.017387
    10  H    0.003335   0.021672   0.042680   0.803559   0.188599   0.000974
    11  H    0.001013   0.002896   0.057785   0.188599   1.039256   0.004426
    12  H    0.016025   0.000935   0.017387   0.000974   0.004426   0.652877
    13  H    0.003019   0.000538   0.010801   0.002447   0.008349  -0.011243
    14  H    0.000305   0.000103   0.014732   0.007611   0.122906   0.022858
    15  H    0.000657   0.000116   0.043188   0.003039   0.048837   0.031295
              13         14         15
     1  C   -0.003238   0.001371   0.001109
     2  C   -0.028527  -0.006004  -0.029212
     3  N   -0.013439  -0.057678  -0.021477
     4  C    0.326780  -0.012482  -0.012653
     5  N   -0.068809  -0.282603  -0.217214
     6  H    0.004744   0.000023   0.000021
     7  H    0.003019   0.000305   0.000657
     8  H    0.000538   0.000103   0.000116
     9  H    0.010801   0.014732   0.043188
    10  H    0.002447   0.007611   0.003039
    11  H    0.008349   0.122906   0.048837
    12  H   -0.011243   0.022858   0.031295
    13  H    0.599273   0.020868   0.015983
    14  H    0.020868   0.927789   0.182319
    15  H    0.015983   0.182319   0.860438
 Mulliken charges:
               1
     1  C   -0.315815
     2  C    0.039388
     3  N   -0.327874
     4  C   -0.066304
     5  N   -0.312322
     6  H    0.124244
     7  H    0.101681
     8  H    0.112610
     9  H    0.087262
    10  H    0.137153
    11  H    0.019489
    12  H    0.116599
    13  H    0.132454
    14  H    0.057880
    15  H    0.093554
 Sum of Mulliken charges =   0.00000
 Mulliken charges with hydrogens summed into heavy atoms:
               1
     1  C    0.022720
     2  C    0.126650
     3  N   -0.171232
     4  C    0.182750
     5  N   -0.160888
 Electronic spatial extent (au):  <R**2>=            522.1628
 Charge=             -0.0000 electrons
 Dipole moment (field-independent basis, Debye):
    X=             -1.7237    Y=             -1.2656    Z=              0.6123  Tot=              2.2244
 Quadrupole moment (field-independent basis, Debye-Ang):
   XX=            -37.1679   YY=            -35.8364   ZZ=            -34.7194
   XY=             -0.2790   XZ=             -0.1775   YZ=              1.0487
 Traceless Quadrupole moment (field-independent basis, Debye-Ang):
   XX=             -1.2600   YY=              0.0715   ZZ=              1.1885
   XY=             -0.2790   XZ=             -0.1775   YZ=              1.0487
 Octapole moment (field-independent basis, Debye-Ang**2):
  XXX=            -11.9840  YYY=             -5.1658  ZZZ=             -2.2004  XYY=             -3.0382
  XXY=              2.1337  XXZ=              1.6848  XZZ=             -0.4237  YZZ=             -2.5094
  YYZ=              0.7051  XYZ=             -0.6852
 Hexadecapole moment (field-independent basis, Debye-Ang**3):
 XXXX=           -456.9758 YYYY=           -213.7612 ZZZZ=            -75.2493 XXXY=              2.2463
 XXXZ=              2.1690 YYYX=             -8.8782 YYYZ=             -0.5095 ZZZX=             -0.2082
 ZZZY=              1.5648 XXYY=           -111.8448 XXZZ=            -85.1851 YYZZ=            -50.5723
 XXYZ=              0.7154 YYXZ=             -1.5514 ZZXY=             -0.7018
 N-N= 1.944259269044D+02 E-N=-9.210223313985D+02  KE= 2.278174187315D+02
 Evaluate density.
 Using the total density.
 Monte-Carlo method of calculating molar volume:
 based on  0.001 e/bohr**3 density envelope.
 Number of points per bohr**3 =   20 CutOff= 1.00D-04
 Using the CI density.
 There are       326 points.  Will hold       326 in memory.
 LenV=   536813108 MDV=   536870912.
 Box volume = 4336.191 fraction occupied=0.166
 Integrated density= 1.8200901505231712D+01 error=-2.3799098494768288D+01
 Molar volume =  718.265 bohr**3/mol ( 64.097 cm**3/mol)
 Recommended a0 for SCRF calculation =  3.74 angstrom (  7.06 bohr)
 ******************************Gaussian NBO Version 3.1******************************
             N A T U R A L   A T O M I C   O R B I T A L   A N D
          N A T U R A L   B O N D   O R B I T A L   A N A L Y S I S
 ******************************Gaussian NBO Version 3.1******************************
       /RESON  / : Allow strongly delocalized NBO set

 Analyzing the CI density

 Job title: AOHJOMMDDJHIJH-VKHMYHEASA-N_conf_0                              

 Storage needed:     47690 in NPA ( 536869637 available)
 GSVD:  LWork=        8191 too small for GESVD, short by        6146 words or        6146 for optimal perf.


 NATURAL POPULATIONS:  Natural atomic orbital occupancies 
                                                          
   NAO  Atom  No  lang   Type(AO)    Occupancy
 --------------------------------------------
     1    C    1  S      Cor( 1S)     1.99941
     2    C    1  S      Val( 2S)     1.10527
     3    C    1  S      Ryd( 3S)     0.00051
     4    C    1  S      Ryd( 4S)     0.00002
     5    C    1  px     Val( 2p)     1.12696
     6    C    1  px     Ryd( 3p)     0.00214
     7    C    1  py     Val( 2p)     1.22071
     8    C    1  py     Ryd( 3p)     0.00339
     9    C    1  pz     Val( 2p)     1.24716
    10    C    1  pz     Ryd( 3p)     0.00154
    11    C    1  dxy    Ryd( 3d)     0.00054
    12    C    1  dxz    Ryd( 3d)     0.00035
    13    C    1  dyz    Ryd( 3d)     0.00036
    14    C    1  dx2y2  Ryd( 3d)     0.00062
    15    C    1  dz2    Ryd( 3d)     0.00084

    16    C    2  S      Cor( 1S)     1.99915
    17    C    2  S      Val( 2S)     0.98458
    18    C    2  S      Ryd( 3S)     0.00200
    19    C    2  S      Ryd( 4S)     0.00003
    20    C    2  px     Val( 2p)     1.03341
    21    C    2  px     Ryd( 3p)     0.00221
    22    C    2  py     Val( 2p)     0.89445
    23    C    2  py     Ryd( 3p)     0.00324
    24    C    2  pz     Val( 2p)     1.16816
    25    C    2  pz     Ryd( 3p)     0.00312
    26    C    2  dxy    Ryd( 3d)     0.00096
    27    C    2  dxz    Ryd( 3d)     0.00056
    28    C    2  dyz    Ryd( 3d)     0.00103
    29    C    2  dx2y2  Ryd( 3d)     0.00120
    30    C    2  dz2    Ryd( 3d)     0.00125

    31    N    3  S      Cor( 1S)     1.99946
    32    N    3  S      Val( 2S)     1.49081
    33    N    3  S      Ryd( 3S)     0.00720
    34    N    3  S      Ryd( 4S)     0.00004
    35    N    3  px     Val( 2p)     1.40935
    36    N    3  px     Ryd( 3p)     0.00140
    37    N    3  py     Val( 2p)     1.29231
    38    N    3  py     Ryd( 3p)     0.00300
    39    N    3  pz     Val( 2p)     1.46506
    40    N    3  pz     Ryd( 3p)     0.00313
    41    N    3  dxy    Ryd( 3d)     0.00053
    42    N    3  dxz    Ryd( 3d)     0.00100
    43    N    3  dyz    Ryd( 3d)     0.00096
    44    N    3  dx2y2  Ryd( 3d)     0.00025
    45    N    3  dz2    Ryd( 3d)     0.00065

    46    C    4  S      Cor( 1S)     1.99929
    47    C    4  S      Val( 2S)     1.04029
    48    C    4  S      Ryd( 3S)     0.00209
    49    C    4  S      Ryd( 4S)     0.00005
    50    C    4  px     Val( 2p)     0.88224
    51    C    4  px     Ryd( 3p)     0.00627
    52    C    4  py     Val( 2p)     1.15753
    53    C    4  py     Ryd( 3p)     0.00329
    54    C    4  pz     Val( 2p)     1.22828
    55    C    4  pz     Ryd( 3p)     0.00354
    56    C    4  dxy    Ryd( 3d)     0.00100
    57    C    4  dxz    Ryd( 3d)     0.00061
    58    C    4  dyz    Ryd( 3d)     0.00056
    59    C    4  dx2y2  Ryd( 3d)     0.00129
    60    C    4  dz2    Ryd( 3d)     0.00119

    61    N    5  S      Cor( 1S)     1.99952
    62    N    5  S      Val( 2S)     1.45875
    63    N    5  S      Ryd( 3S)     0.00807
    64    N    5  S      Ryd( 4S)     0.00002
    65    N    5  px     Val( 2p)     1.32655
    66    N    5  px     Ryd( 3p)     0.00217
    67    N    5  py     Val( 2p)     1.43674
    68    N    5  py     Ryd( 3p)     0.00451
    69    N    5  pz     Val( 2p)     1.40756
    70    N    5  pz     Ryd( 3p)     0.00138
    71    N    5  dxy    Ryd( 3d)     0.00036
    72    N    5  dxz    Ryd( 3d)     0.00031
    73    N    5  dyz    Ryd( 3d)     0.00037
    74    N    5  dx2y2  Ryd( 3d)     0.00100
    75    N    5  dz2    Ryd( 3d)     0.00080

    76    H    6  S      Val( 1S)     0.75394
    77    H    6  S      Ryd( 2S)     0.00129
    78    H    6  px     Ryd( 2p)     0.00009
    79    H    6  py     Ryd( 2p)     0.00008
    80    H    6  pz     Ryd( 2p)     0.00034

    81    H    7  S      Val( 1S)     0.76633
    82    H    7  S      Ryd( 2S)     0.00588
    83    H    7  px     Ryd( 2p)     0.00008
    84    H    7  py     Ryd( 2p)     0.00032
    85    H    7  pz     Ryd( 2p)     0.00011

    86    H    8  S      Val( 1S)     0.74986
    87    H    8  S      Ryd( 2S)     0.00590
    88    H    8  px     Ryd( 2p)     0.00026
    89    H    8  py     Ryd( 2p)     0.00014
    90    H    8  pz     Ryd( 2p)     0.00012

    91    H    9  S      Val( 1S)     0.73831
    92    H    9  S      Ryd( 2S)     0.02967
    93    H    9  px     Ryd( 2p)     0.00012
    94    H    9  py     Ryd( 2p)     0.00007
    95    H    9  pz     Ryd( 2p)     0.00041

    96    H   10  S      Val( 1S)     0.66277
    97    H   10  S      Ryd( 2S)     0.03877
    98    H   10  px     Ryd( 2p)     0.00048
    99    H   10  py     Ryd( 2p)     0.00033
   100    H   10  pz     Ryd( 2p)     0.00047

   101    H   11  S      Val( 1S)     0.72399
   102    H   11  S      Ryd( 2S)     0.06909
   103    H   11  px     Ryd( 2p)     0.00050
   104    H   11  py     Ryd( 2p)     0.00032
   105    H   11  pz     Ryd( 2p)     0.00041

   106    H   12  S      Val( 1S)     0.74461
   107    H   12  S      Ryd( 2S)     0.01207
   108    H   12  px     Ryd( 2p)     0.00008
   109    H   12  py     Ryd( 2p)     0.00035
   110    H   12  pz     Ryd( 2p)     0.00011

   111    H   13  S      Val( 1S)     0.73823
   112    H   13  S      Ryd( 2S)     0.00684
   113    H   13  px     Ryd( 2p)     0.00006
   114    H   13  py     Ryd( 2p)     0.00009
   115    H   13  pz     Ryd( 2p)     0.00038

   116    H   14  S      Val( 1S)     0.69919
   117    H   14  S      Ryd( 2S)     0.06139
   118    H   14  px     Ryd( 2p)     0.00026
   119    H   14  py     Ryd( 2p)     0.00071
   120    H   14  pz     Ryd( 2p)     0.00032

   121    H   15  S      Val( 1S)     0.66927
   122    H   15  S      Ryd( 2S)     0.05832
   123    H   15  px     Ryd( 2p)     0.00028
   124    H   15  py     Ryd( 2p)     0.00031
   125    H   15  pz     Ryd( 2p)     0.00072


 Summary of Natural Population Analysis:                  
                                                          
                                       Natural Population 
                Natural  -----------------------------------------------
    Atom  No    Charge         Core      Valence    Rydberg      Total
 -----------------------------------------------------------------------
      C    1   -0.70980      1.99941     4.70009    0.01031     6.70980
      C    2   -0.09533      1.99915     4.08060    0.01558     6.09533
      N    3   -0.67516      1.99946     5.65754    0.01816     7.67516
      C    4   -0.32753      1.99929     4.30834    0.01990     6.32753
      N    5   -0.64812      1.99952     5.62961    0.01900     7.64812
      H    6    0.24426      0.00000     0.75394    0.00180     0.75574
      H    7    0.22729      0.00000     0.76633    0.00638     0.77271
      H    8    0.24372      0.00000     0.74986    0.00642     0.75628
      H    9    0.23142      0.00000     0.73831    0.03027     0.76858
      H   10    0.29718      0.00000     0.66277    0.04005     0.70282
      H   11    0.20569      0.00000     0.72399    0.07032     0.79431
      H   12    0.24278      0.00000     0.74461    0.01261     0.75722
      H   13    0.25440      0.00000     0.73823    0.00737     0.74560
      H   14    0.23813      0.00000     0.69919    0.06268     0.76187
      H   15    0.27110      0.00000     0.66927    0.05964     0.72890
 =======================================================================
   * Total *   -0.00000      9.99682    31.62268    0.38050    42.00000

                                 Natural Population      
 --------------------------------------------------------
   Core                       9.99682 ( 99.9682% of  10)
   Valence                   31.62268 ( 98.8209% of  32)
   Natural Minimal Basis     41.61950 ( 99.0940% of  42)
   Natural Rydberg Basis      0.38050 (  0.9060% of  42)
 --------------------------------------------------------

    Atom  No          Natural Electron Configuration
 ----------------------------------------------------------------------------
      C    1      [core]2S( 1.11)2p( 3.59)3p( 0.01)
      C    2      [core]2S( 0.98)2p( 3.10)3p( 0.01)
      N    3      [core]2S( 1.49)2p( 4.17)3S( 0.01)3p( 0.01)
      C    4      [core]2S( 1.04)2p( 3.27)3p( 0.01)
      N    5      [core]2S( 1.46)2p( 4.17)3S( 0.01)3p( 0.01)
      H    6            1S( 0.75)
      H    7            1S( 0.77)2S( 0.01)
      H    8            1S( 0.75)2S( 0.01)
      H    9            1S( 0.74)2S( 0.03)
      H   10            1S( 0.66)2S( 0.04)
      H   11            1S( 0.72)2S( 0.07)
      H   12            1S( 0.74)2S( 0.01)
      H   13            1S( 0.74)2S( 0.01)
      H   14            1S( 0.70)2S( 0.06)
      H   15            1S( 0.67)2S( 0.06)


 NBO analysis skipped by request.
 1\1\GINC-CN33\SP\RB3LYP TD-FC\6-31G(d,p)\C3H10N2\QDUEZ\09-Jul-2024\0\\
 # TD(NStates=10, Root=1) B3LYP/6-31G** SCRF=(Solvent=water) volume pop
 =NPA density=current Geom=AllCheck Guess=Read\\AOHJOMMDDJHIJH-VKHMYHEA
 SA-N_conf_0\\0,1\C,0,-1.2874002331,-1.1884492325,-0.1995751968\C,0,-0.
 2343574126,-0.2092716759,0.3210789553\N,0,-0.8656773427,1.0990629752,0
 .5697507409\C,0,0.906957012,-0.0416485058,-0.6981882747\N,0,1.98865505
 73,0.8803801168,-0.3314072704\H,0,-1.7443366703,-0.8072732423,-1.11952
 93005\H,0,-0.8418878646,-2.1653834788,-0.4128752746\H,0,-2.0848180458,
 -1.338547973,0.5364925682\H,0,0.2075592445,-0.6372209819,1.2406215904\
 H,0,-1.6385603064,0.9739161902,1.2216202768\H,0,-0.2040492402,1.696887
 4454,1.0621369154\H,0,1.3489187027,-1.0282761585,-0.8859821758\H,0,0.4
 784864659,0.3055377049,-1.6469372587\H,0,1.6188439939,1.8248515529,-0.
 2460488659\H,0,2.3516666395,0.6354352633,0.5888425704\\Version=EM64L-G
 16RevA.03\State=1-A\HF=-229.8567397\RMSD=1.615e-09\Dipole=-0.373944,-0
 .7908626,0.0235101\Quadrupole=-0.7686497,-0.6019838,1.3706334,-0.27997
 42,0.0675785,0.0088915\PG=C01 [X(C3H10N2)]\\@


 THESE ARE THE TIMES THAT TRY MENS SOULS.
 THE SUMMER SOLDIER AND THE SUNSHINE PATRIOT WILL IN THIS CRISIS,
 SHRINK FROM THE SERVICE OF HIS COUNTRY.  BUT HE THAT STANDS NOW,
 DESERVES THE LOVE AND THANKS OF MAN AND WOMAN.
 TYRANNY, LIKE HELL, IS NOT EASILY CONQUERED,
 YET WE HAVE THIS CONSOLATION WITH US,
 THAT THE HARDER THE CONFLICT, THE MORE GLORIOUS THE TRIUMPH.
 WHAT WE OBTAIN TOO CHEAP, WE ESTEEM TOO LIGHTLY, 
 'TIS DEARNESS ONLY THAT GIVES EVERYTHING ITS VALUE.

                                              -- TOM PAINE
 Job cpu time:       0 days  0 hours 21 minutes  7.5 seconds.
 Elapsed time:       0 days  0 hours 18 minutes 15.9 seconds.
 File lengths (MBytes):  RWF=    191 Int=      0 D2E=      0 Chk=     12 Scr=      1
 Normal termination of Gaussian 16 at Tue Jul  9 18:37:55 2024.
