 Entering Gaussian System, Link 0=g16
 Initial command:
 /opt/sw/arch/manual/gaussian/G16_A03/g16/l1.exe "/scratch/1030803.jesse.materianova.be/Gau-26765.inp" -scrdir="/scratch/1030803.jesse.materianova.be/"
 Entering Link 1 = /opt/sw/arch/manual/gaussian/G16_A03/g16/l1.exe PID=     26769.
  
 Copyright (c) 1988,1990,1992,1993,1995,1998,2003,2009,2016,
            Gaussian, Inc.  All Rights Reserved.
  
 This is part of the Gaussian(R) 16 program.  It is based on
 the Gaussian(R) 09 system (copyright 2009, Gaussian, Inc.),
 the Gaussian(R) 03 system (copyright 2003, Gaussian, Inc.),
 the Gaussian(R) 98 system (copyright 1998, Gaussian, Inc.),
 the Gaussian(R) 94 system (copyright 1995, Gaussian, Inc.),
 the Gaussian 92(TM) system (copyright 1992, Gaussian, Inc.),
 the Gaussian 90(TM) system (copyright 1990, Gaussian, Inc.),
 the Gaussian 88(TM) system (copyright 1988, Gaussian, Inc.),
 the Gaussian 86(TM) system (copyright 1986, Carnegie Mellon
 University), and the Gaussian 82(TM) system (copyright 1983,
 Carnegie Mellon University). Gaussian is a federally registered
 trademark of Gaussian, Inc.
  
 This software contains proprietary and confidential information,
 including trade secrets, belonging to Gaussian, Inc.
  
 This software is provided under written license and may be
 used, copied, transmitted, or stored only in accord with that
 written license.
  
 The following legend is applicable only to US Government
 contracts under FAR:
  
                    RESTRICTED RIGHTS LEGEND
  
 Use, reproduction and disclosure by the US Government is
 subject to restrictions as set forth in subparagraphs (a)
 and (c) of the Commercial Computer Software - Restricted
 Rights clause in FAR 52.227-19.
  
 Gaussian, Inc.
 340 Quinnipiac St., Bldg. 40, Wallingford CT 06492
  
  
 ---------------------------------------------------------------
 Warning -- This program may not be used in any manner that
 competes with the business of Gaussian, Inc. or will provide
 assistance to any competitor of Gaussian, Inc.  The licensee
 of this program is prohibited from giving any competitor of
 Gaussian, Inc. access to this program.  By using this program,
 the user acknowledges that Gaussian, Inc. is engaged in the
 business of creating and licensing software in the field of
 computational chemistry and represents and warrants to the
 licensee that it is not a competitor of Gaussian, Inc. and that
 it will not use this program in any manner prohibited above.
 ---------------------------------------------------------------
  

 Cite this work as:
 Gaussian 16, Revision A.03,
 M. J. Frisch, G. W. Trucks, H. B. Schlegel, G. E. Scuseria, 
 M. A. Robb, J. R. Cheeseman, G. Scalmani, V. Barone, 
 G. A. Petersson, H. Nakatsuji, X. Li, M. Caricato, A. V. Marenich, 
 J. Bloino, B. G. Janesko, R. Gomperts, B. Mennucci, H. P. Hratchian, 
 J. V. Ortiz, A. F. Izmaylov, J. L. Sonnenberg, D. Williams-Young, 
 F. Ding, F. Lipparini, F. Egidi, J. Goings, B. Peng, A. Petrone, 
 T. Henderson, D. Ranasinghe, V. G. Zakrzewski, J. Gao, N. Rega, 
 G. Zheng, W. Liang, M. Hada, M. Ehara, K. Toyota, R. Fukuda, 
 J. Hasegawa, M. Ishida, T. Nakajima, Y. Honda, O. Kitao, H. Nakai, 
 T. Vreven, K. Throssell, J. A. Montgomery, Jr., J. E. Peralta, 
 F. Ogliaro, M. J. Bearpark, J. J. Heyd, E. N. Brothers, K. N. Kudin, 
 V. N. Staroverov, T. A. Keith, R. Kobayashi, J. Normand, 
 K. Raghavachari, A. P. Rendell, J. C. Burant, S. S. Iyengar, 
 J. Tomasi, M. Cossi, J. M. Millam, M. Klene, C. Adamo, R. Cammi, 
 J. W. Ochterski, R. L. Martin, K. Morokuma, O. Farkas, 
 J. B. Foresman, and D. J. Fox, Gaussian, Inc., Wallingford CT, 2016.
 
 ******************************************
 Gaussian 16:  EM64L-G16RevA.03 25-Dec-2016
                 9-Jul-2024 
 ******************************************
 %nprocshared=2
 Will use up to    2 processors via shared memory.
 %mem=4GB
 %Chk=AOHJOMMDDJHIJH-VKHMYHEASA-N_conf_1_0.chk
 -------------------------------------------------------
 # opt=CalcFc B3LYP/6-31G** SCRF=(Solvent=water) scf=xqc
 -------------------------------------------------------
 1/10=4,18=20,19=15,26=3,38=1/1,3;
 2/9=110,12=2,17=6,18=5,40=1/2;
 3/5=1,6=6,7=101,11=2,25=1,30=1,70=2201,71=2,72=1,74=-5,140=1/1,2,3;
 4//1;
 5/5=2,8=3,13=1,38=5,53=1/2,8;
 8/6=4,10=90,11=11/1;
 11/6=1,8=1,9=11,15=111,16=1/1,2,10;
 10/6=1,13=1/2;
 6/7=2,8=2,9=2,10=2,28=1/1;
 7/10=1,18=20,25=1/1,2,3,16;
 1/10=4,18=20,19=15,26=3/3(2);
 2/9=110/2;
 99//99;
 2/9=110/2;
 3/5=1,6=6,7=101,11=2,25=1,30=1,70=2205,71=1,72=1,74=-5/1,2,3;
 4/5=5,16=3,69=1/1;
 5/5=2,8=3,13=1,38=5,53=1/2,8;
 7//1,2,3,16;
 1/18=20,19=15,26=3/3(-5);
 2/9=110/2;
 6/7=2,8=2,9=2,10=2,19=2,28=1/1;
 99/9=1/99;
 ----------------------------------
 AOHJOMMDDJHIJH-VKHMYHEASA-N_conf_1
 ----------------------------------
 Symbolic Z-matrix:
 Charge =  0 Multiplicity = 1
 C                    -1.14585  -0.82873  -0.4807 
 C                    -0.12932   0.31414  -0.48352 
 N                    -0.83906   1.60115  -0.4837 
 C                     0.83569   0.2418    0.72427 
 N                     1.64961  -0.97512   0.73516 
 H                    -1.83029  -0.74646  -1.33262 
 H                    -0.64774  -1.80068  -0.55805 
 H                    -1.74643  -0.82847   0.43582 
 H                     0.45796   0.25922  -1.40816 
 H                    -1.47025   1.63489  -1.28405 
 H                    -1.43688   1.65683   0.34105 
 H                     0.26768   0.28946   1.66098 
 H                     1.50842   1.10784   0.70928 
 H                     2.23349  -0.99222  -0.10075 
 H                     2.29299  -0.93365   1.52497 
 

 GradGradGradGradGradGradGradGradGradGradGradGradGradGradGradGradGradGrad
 Berny optimization.
 Initialization pass.
                           ----------------------------
                           !    Initial Parameters    !
                           ! (Angstroms and Degrees)  !
 --------------------------                            --------------------------
 ! Name  Definition              Value          Derivative Info.                !
 --------------------------------------------------------------------------------
 ! R1    R(1,2)                  1.5295         calculate D2E/DX2 analytically  !
 ! R2    R(1,6)                  1.0959         calculate D2E/DX2 analytically  !
 ! R3    R(1,7)                  1.0949         calculate D2E/DX2 analytically  !
 ! R4    R(1,8)                  1.0958         calculate D2E/DX2 analytically  !
 ! R5    R(2,3)                  1.4697         calculate D2E/DX2 analytically  !
 ! R6    R(2,4)                  1.5477         calculate D2E/DX2 analytically  !
 ! R7    R(2,9)                  1.0968         calculate D2E/DX2 analytically  !
 ! R8    R(3,10)                 1.0198         calculate D2E/DX2 analytically  !
 ! R9    R(3,11)                 1.0202         calculate D2E/DX2 analytically  !
 ! R10   R(4,5)                  1.4641         calculate D2E/DX2 analytically  !
 ! R11   R(4,12)                 1.0965         calculate D2E/DX2 analytically  !
 ! R12   R(4,13)                 1.0967         calculate D2E/DX2 analytically  !
 ! R13   R(5,14)                 1.0198         calculate D2E/DX2 analytically  !
 ! R14   R(5,15)                 1.0195         calculate D2E/DX2 analytically  !
 ! A1    A(2,1,6)              110.9501         calculate D2E/DX2 analytically  !
 ! A2    A(2,1,7)              111.1502         calculate D2E/DX2 analytically  !
 ! A3    A(2,1,8)              111.4464         calculate D2E/DX2 analytically  !
 ! A4    A(6,1,7)              107.2086         calculate D2E/DX2 analytically  !
 ! A5    A(6,1,8)              107.9317         calculate D2E/DX2 analytically  !
 ! A6    A(7,1,8)              107.9772         calculate D2E/DX2 analytically  !
 ! A7    A(1,2,3)              109.4729         calculate D2E/DX2 analytically  !
 ! A8    A(1,2,4)              112.212          calculate D2E/DX2 analytically  !
 ! A9    A(1,2,9)              108.6636         calculate D2E/DX2 analytically  !
 ! A10   A(3,2,4)              110.0068         calculate D2E/DX2 analytically  !
 ! A11   A(3,2,9)              107.5971         calculate D2E/DX2 analytically  !
 ! A12   A(4,2,9)              108.7665         calculate D2E/DX2 analytically  !
 ! A13   A(2,3,10)             109.144          calculate D2E/DX2 analytically  !
 ! A14   A(2,3,11)             109.3104         calculate D2E/DX2 analytically  !
 ! A15   A(10,3,11)            105.6621         calculate D2E/DX2 analytically  !
 ! A16   A(2,4,5)              113.0351         calculate D2E/DX2 analytically  !
 ! A17   A(2,4,12)             109.9764         calculate D2E/DX2 analytically  !
 ! A18   A(2,4,13)             109.5661         calculate D2E/DX2 analytically  !
 ! A19   A(5,4,12)             108.5276         calculate D2E/DX2 analytically  !
 ! A20   A(5,4,13)             108.3885         calculate D2E/DX2 analytically  !
 ! A21   A(12,4,13)            107.1636         calculate D2E/DX2 analytically  !
 ! A22   A(4,5,14)             109.0347         calculate D2E/DX2 analytically  !
 ! A23   A(4,5,15)             108.831          calculate D2E/DX2 analytically  !
 ! A24   A(14,5,15)            105.9242         calculate D2E/DX2 analytically  !
 ! D1    D(6,1,2,3)             56.4489         calculate D2E/DX2 analytically  !
 ! D2    D(6,1,2,4)            178.8852         calculate D2E/DX2 analytically  !
 ! D3    D(6,1,2,9)            -60.8024         calculate D2E/DX2 analytically  !
 ! D4    D(7,1,2,3)            175.6448         calculate D2E/DX2 analytically  !
 ! D5    D(7,1,2,4)            -61.919          calculate D2E/DX2 analytically  !
 ! D6    D(7,1,2,9)             58.3934         calculate D2E/DX2 analytically  !
 ! D7    D(8,1,2,3)            -63.8561         calculate D2E/DX2 analytically  !
 ! D8    D(8,1,2,4)             58.5802         calculate D2E/DX2 analytically  !
 ! D9    D(8,1,2,9)            178.8925         calculate D2E/DX2 analytically  !
 ! D10   D(1,2,3,10)           -56.2768         calculate D2E/DX2 analytically  !
 ! D11   D(1,2,3,11)            58.8384         calculate D2E/DX2 analytically  !
 ! D12   D(4,2,3,10)           179.9804         calculate D2E/DX2 analytically  !
 ! D13   D(4,2,3,11)           -64.9044         calculate D2E/DX2 analytically  !
 ! D14   D(9,2,3,10)            61.643          calculate D2E/DX2 analytically  !
 ! D15   D(9,2,3,11)           176.7582         calculate D2E/DX2 analytically  !
 ! D16   D(1,2,4,5)             62.034          calculate D2E/DX2 analytically  !
 ! D17   D(1,2,4,12)           -59.4298         calculate D2E/DX2 analytically  !
 ! D18   D(1,2,4,13)          -176.9739         calculate D2E/DX2 analytically  !
 ! D19   D(3,2,4,5)           -175.833          calculate D2E/DX2 analytically  !
 ! D20   D(3,2,4,12)            62.7032         calculate D2E/DX2 analytically  !
 ! D21   D(3,2,4,13)           -54.8409         calculate D2E/DX2 analytically  !
 ! D22   D(9,2,4,5)            -58.2187         calculate D2E/DX2 analytically  !
 ! D23   D(9,2,4,12)          -179.6825         calculate D2E/DX2 analytically  !
 ! D24   D(9,2,4,13)            62.7734         calculate D2E/DX2 analytically  !
 ! D25   D(2,4,5,14)            61.9177         calculate D2E/DX2 analytically  !
 ! D26   D(2,4,5,15)           177.0244         calculate D2E/DX2 analytically  !
 ! D27   D(12,4,5,14)         -175.8047         calculate D2E/DX2 analytically  !
 ! D28   D(12,4,5,15)          -60.698          calculate D2E/DX2 analytically  !
 ! D29   D(13,4,5,14)          -59.7398         calculate D2E/DX2 analytically  !
 ! D30   D(13,4,5,15)           55.3669         calculate D2E/DX2 analytically  !
 --------------------------------------------------------------------------------
 Trust Radius=3.00D-01 FncErr=1.00D-07 GrdErr=1.00D-06 EigMax=2.50D+02 EigMin=1.00D-04
 Number of steps in this run=     78 maximum allowed number of steps=    100.
 GradGradGradGradGradGradGradGradGradGradGradGradGradGradGradGradGradGrad

                          Input orientation:                          
 ---------------------------------------------------------------------
 Center     Atomic      Atomic             Coordinates (Angstroms)
 Number     Number       Type             X           Y           Z
 ---------------------------------------------------------------------
      1          6           0       -1.145850   -0.828726   -0.480703
      2          6           0       -0.129319    0.314139   -0.483521
      3          7           0       -0.839060    1.601147   -0.483702
      4          6           0        0.835693    0.241798    0.724274
      5          7           0        1.649606   -0.975118    0.735162
      6          1           0       -1.830287   -0.746463   -1.332617
      7          1           0       -0.647742   -1.800675   -0.558050
      8          1           0       -1.746430   -0.828474    0.435821
      9          1           0        0.457955    0.259223   -1.408158
     10          1           0       -1.470247    1.634894   -1.284047
     11          1           0       -1.436885    1.656830    0.341053
     12          1           0        0.267677    0.289462    1.660981
     13          1           0        1.508416    1.107835    0.709285
     14          1           0        2.233486   -0.992216   -0.100746
     15          1           0        2.292985   -0.933654    1.524966
 ---------------------------------------------------------------------
                    Distance matrix (angstroms):
                    1          2          3          4          5
     1  C    0.000000
     2  C    1.529537   0.000000
     3  N    2.449165   1.469736   0.000000
     4  C    2.554311   1.547659   2.472213   0.000000
     5  N    3.051939   2.512358   3.783680   1.464056   0.000000
     6  H    1.095892   2.176955   2.685974   3.509260   4.054337
     7  H    1.094888   2.178705   3.408009   2.831366   2.762562
     8  H    1.095770   2.183072   2.751709   2.809991   3.412356
     9  H    2.148487   1.096750   2.082698   2.165700   2.745442
    10  H    2.611516   2.045318   1.019847   3.360272   4.541239
    11  H    2.634002   2.047552   1.020155   2.704401   4.075402
    12  H    2.799144   2.181078   2.746825   1.096510   2.089505
    13  H    3.494491   2.175986   2.679033   1.096723   2.087894
    14  H    3.404557   2.726889   4.038902   2.038939   1.019780
    15  H    3.982374   3.385050   4.502186   2.036295   1.019532
                    6          7          8          9         10
     6  H    0.000000
     7  H    1.763443   0.000000
     8  H    1.772324   1.772024   0.000000
     9  H    2.500632   2.487655   3.072891   0.000000
    10  H    2.408909   3.606483   3.017019   2.371885   0.000000
    11  H    2.954953   3.658616   2.506299   2.933166   1.625591
    12  H    3.799502   3.182885   2.609104   3.075180   3.674746
    13  H    4.330672   3.835960   3.797118   2.511409   3.622651
    14  H    4.253487   3.027244   4.019260   2.535337   4.692499
    15  H    5.020179   3.706556   4.184994   3.659714   5.352561
                   11         12         13         14         15
    11  H    0.000000
    12  H    2.552927   0.000000
    13  H    3.018574   1.764906   0.000000
    14  H    4.547994   2.934414   2.364760   0.000000
    15  H    4.692993   2.369891   2.334216   1.627855   0.000000
 Stoichiometry    C3H10N2
 Framework group  C1[X(C3H10N2)]
 Deg. of freedom    39
 Full point group                 C1      NOp   1
 Largest Abelian subgroup         C1      NOp   1
 Largest concise Abelian subgroup C1      NOp   1
                         Standard orientation:                         
 ---------------------------------------------------------------------
 Center     Atomic      Atomic             Coordinates (Angstroms)
 Number     Number       Type             X           Y           Z
 ---------------------------------------------------------------------
      1          6           0        0.785888    1.357435    0.157647
      2          6           0        0.468080   -0.049870   -0.350266
      3          7           0        1.595423   -0.944523   -0.052243
      4          6           0       -0.833751   -0.614680    0.267371
      5          7           0       -2.018588    0.175646   -0.071753
      6          1           0        1.720704    1.729093   -0.277058
      7          1           0       -0.003232    2.064544   -0.118156
      8          1           0        0.890296    1.375680    1.248279
      9          1           0        0.353960   -0.012110   -1.440409
     10          1           0        2.445290   -0.560556   -0.465019
     11          1           0        1.759429   -0.956674    0.954569
     12          1           0       -0.743178   -0.655784    1.359360
     13          1           0       -0.991073   -1.641875   -0.083230
     14          1           0       -2.150087    0.160739   -1.082909
     15          1           0       -2.841259   -0.278237    0.324035
 ---------------------------------------------------------------------
 Rotational constants (GHZ):           7.9085711           3.3824928           2.6351141
 Standard basis: 6-31G(d,p) (6D, 7F)
 There are   125 symmetry adapted cartesian basis functions of A   symmetry.
 There are   125 symmetry adapted basis functions of A   symmetry.
   125 basis functions,   210 primitive gaussians,   125 cartesian basis functions
    21 alpha electrons       21 beta electrons
       nuclear repulsion energy       193.8648632783 Hartrees.
 NAtoms=   15 NActive=   15 NUniq=   15 SFac= 1.00D+00 NAtFMM=   60 NAOKFM=F Big=F
 Integral buffers will be    131072 words long.
 Raffenetti 2 integral format.
 Two-electron integral symmetry is turned on.
 Force inversion solution in PCM.
 ------------------------------------------------------------------------------
 Polarizable Continuum Model (PCM)
 =================================
 Model                : PCM.
 Atomic radii         : UFF (Universal Force Field).
 Polarization charges : Total charges.
 Charge compensation  : None.
 Solution method      : Matrix inversion.
 Cavity type          : Scaled VdW (van der Waals Surface) (Alpha=1.100).
 Cavity algorithm     : GePol (No added spheres)
                        Default sphere list used, NSphG=   15.
                        Lebedev-Laikov grids with approx.  5.0 points / Ang**2.
                        Smoothing algorithm: York/Karplus (Gamma=1.0000).
                        Polarization charges: spherical gaussians, with
                                              point-specific exponents (IZeta= 3).
                        Self-potential: point-specific (ISelfS= 7).
                        Self-field    : sphere-specific E.n sum rule (ISelfD= 2).
 1st derivatives      : Analytical E(r).r(x)/FMM algorithm (CHGder, D1EAlg=3).
                        Cavity 1st derivative terms included.
 2nd derivatives      : Analytical E(r).r(xy)/FMM algorithm (CHGder, D2EAlg=3).
                        Cavity 2nd derivative terms included.
 Solvent              : Water, Eps=  78.355300 Eps(inf)=   1.777849
 ------------------------------------------------------------------------------
 Spheres list:
 ISph  on   Nord     Re0    Alpha      Xe            Ye            Ze
    1   C      1    1.9255  1.100      0.785888      1.357435      0.157647
    2   C      2    1.9255  1.100      0.468080     -0.049870     -0.350266
    3   N      3    1.8300  1.100      1.595423     -0.944523     -0.052243
    4   C      4    1.9255  1.100     -0.833751     -0.614680      0.267371
    5   N      5    1.8300  1.100     -2.018588      0.175646     -0.071753
    6   H      6    1.4430  1.100      1.720704      1.729093     -0.277058
    7   H      7    1.4430  1.100     -0.003232      2.064544     -0.118156
    8   H      8    1.4430  1.100      0.890296      1.375680      1.248279
    9   H      9    1.4430  1.100      0.353960     -0.012110     -1.440409
   10   H     10    1.4430  1.100      2.445290     -0.560556     -0.465019
   11   H     11    1.4430  1.100      1.759429     -0.956674      0.954569
   12   H     12    1.4430  1.100     -0.743178     -0.655784      1.359360
   13   H     13    1.4430  1.100     -0.991073     -1.641875     -0.083230
   14   H     14    1.4430  1.100     -2.150087      0.160739     -1.082909
   15   H     15    1.4430  1.100     -2.841259     -0.278237      0.324035
 ------------------------------------------------------------------------------
 One-electron integrals computed using PRISM.
 NBasis=   125 RedAO= T EigKep=  3.67D-03  NBF=   125
 NBsUse=   125 1.00D-06 EigRej= -1.00D+00 NBFU=   125
 ExpMin= 1.61D-01 ExpMax= 4.17D+03 ExpMxC= 6.27D+02 IAcc=3 IRadAn=         5 AccDes= 0.00D+00
 Harris functional with IExCor=  402 and IRadAn=       5 diagonalized for initial guess.
 HarFok:  IExCor=  402 AccDes= 0.00D+00 IRadAn=         5 IDoV= 1 UseB2=F ITyADJ=14
 ICtDFT=  3500011 ScaDFX=  1.000000  1.000000  1.000000  1.000000
 FoFCou: FMM=F IPFlag=           0 FMFlag=      100000 FMFlg1=           0
         NFxFlg=           0 DoJE=T BraDBF=F KetDBF=T FulRan=T
         wScrn=  0.000000 ICntrl=       500 IOpCl=  0 I1Cent=   200000004 NGrid=           0
         NMat0=    1 NMatS0=      1 NMatT0=    0 NMatD0=    1 NMtDS0=    0 NMtDT0=    0
 Petite list used in FoFCou.
 Keep R1 ints in memory in canonical form, NReq=32913836.
 Requested convergence on RMS density matrix=1.00D-08 within  32 cycles.
 Requested convergence on MAX density matrix=1.00D-06.
 Requested convergence on             energy=1.00D-06.
 No special actions if energy rises.
 Inv3:  Mode=1 IEnd=     3864675.
 Iteration    1 A*A^-1 deviation from unit magnitude is 4.66D-15 for      4.
 Iteration    1 A*A^-1 deviation from orthogonality  is 2.91D-15 for   1006    112.
 Iteration    1 A^-1*A deviation from unit magnitude is 5.11D-15 for      4.
 Iteration    1 A^-1*A deviation from orthogonality  is 2.03D-15 for    900    425.
 Error on total polarization charges =  0.00702
 SCF Done:  E(RB3LYP) =  -229.852328488     A.U. after   11 cycles
            NFock= 11  Conv=0.22D-08     -V/T= 2.0097
 QCSCF skips out because SCF is already converged.
 DoSCS=F DFT=T ScalE2(SS,OS)=  1.000000  1.000000
 Range of M.O.s used for correlation:     1   125
 NBasis=   125 NAE=    21 NBE=    21 NFC=     0 NFV=     0
 NROrb=    125 NOA=    21 NOB=    21 NVA=   104 NVB=   104
 Symmetrizing basis deriv contribution to polar:
 IMax=3 JMax=2 DiffMx= 0.00D+00
 G2DrvN: will do    16 centers at a time, making    1 passes.
 Calling FoFCou, ICntrl=  3107 FMM=F I1Cent=   0 AccDes= 0.00D+00.
 NEqPCM:  Using equilibrium solvation (IEInf=0, Eps=  78.3553, EpsInf=   1.7778)
 G2PCM: DoFxE=T DoFxN=T DoGrad=T DoDP/DQ/DG/TGxP=FFFF NFrqRd=   0 IEInf=0 SqF1=F DoCFld=F IF1Alg=4.
 End of G2Drv F.D. properties file   721 does not exist.
 End of G2Drv F.D. properties file   722 does not exist.
 End of G2Drv F.D. properties file   788 does not exist.
          IDoAtm=111111111111111
 NEqPCM:  Using equilibrium solvation (IEInf=0, Eps=  78.3553, EpsInf=   1.7778)
          Differentiating once with respect to nuclear coordinates.
 Keep R1 ints in memory in canonical form, NReq=35384146.
          There are    48 degrees of freedom in the 1st order CPHF.  IDoFFX=6 NUNeed=     0.
     42 vectors produced by pass  0 Test12= 4.55D-15 2.08D-09 XBig12= 7.55D-02 6.86D-02.
 AX will form    42 AO Fock derivatives at one time.
     42 vectors produced by pass  1 Test12= 4.55D-15 2.08D-09 XBig12= 5.12D-03 1.37D-02.
     42 vectors produced by pass  2 Test12= 4.55D-15 2.08D-09 XBig12= 3.89D-05 1.13D-03.
     42 vectors produced by pass  3 Test12= 4.55D-15 2.08D-09 XBig12= 7.93D-08 4.03D-05.
     42 vectors produced by pass  4 Test12= 4.55D-15 2.08D-09 XBig12= 8.15D-11 1.30D-06.
     16 vectors produced by pass  5 Test12= 4.55D-15 2.08D-09 XBig12= 5.05D-14 2.66D-08.
 InvSVY:  IOpt=1 It=  1 EMax= 3.00D-15
 Solved reduced A of dimension   226 with    42 vectors.
 End of Minotr F.D. properties file   721 does not exist.
 End of Minotr F.D. properties file   722 does not exist.
 End of Minotr F.D. properties file   788 does not exist.

 **********************************************************************

            Population analysis using the SCF density.

 **********************************************************************

 Orbital symmetries:
       Occupied  (A) (A) (A) (A) (A) (A) (A) (A) (A) (A) (A) (A)
                 (A) (A) (A) (A) (A) (A) (A) (A) (A)
       Virtual   (A) (A) (A) (A) (A) (A) (A) (A) (A) (A) (A) (A)
                 (A) (A) (A) (A) (A) (A) (A) (A) (A) (A) (A) (A)
                 (A) (A) (A) (A) (A) (A) (A) (A) (A) (A) (A) (A)
                 (A) (A) (A) (A) (A) (A) (A) (A) (A) (A) (A) (A)
                 (A) (A) (A) (A) (A) (A) (A) (A) (A) (A) (A) (A)
                 (A) (A) (A) (A) (A) (A) (A) (A) (A) (A) (A) (A)
                 (A) (A) (A) (A) (A) (A) (A) (A) (A) (A) (A) (A)
                 (A) (A) (A) (A) (A) (A) (A) (A) (A) (A) (A) (A)
                 (A) (A) (A) (A) (A) (A) (A) (A)
 The electronic state is 1-A.
 Alpha  occ. eigenvalues --  -14.30807 -14.30673 -10.20896 -10.20054 -10.16469
 Alpha  occ. eigenvalues --   -0.88927  -0.86234  -0.72405  -0.65975  -0.57465
 Alpha  occ. eigenvalues --   -0.48386  -0.47874  -0.45151  -0.41673  -0.39762
 Alpha  occ. eigenvalues --   -0.38714  -0.37492  -0.34521  -0.32563  -0.23310
 Alpha  occ. eigenvalues --   -0.22967
 Alpha virt. eigenvalues --    0.08595   0.08908   0.12313   0.15520   0.16016
 Alpha virt. eigenvalues --    0.16387   0.18143   0.18637   0.19370   0.20762
 Alpha virt. eigenvalues --    0.24336   0.25845   0.26334   0.27730   0.52369
 Alpha virt. eigenvalues --    0.53339   0.55395   0.56591   0.58123   0.63994
 Alpha virt. eigenvalues --    0.67371   0.70550   0.72569   0.73330   0.75057
 Alpha virt. eigenvalues --    0.78419   0.79806   0.83042   0.87092   0.87418
 Alpha virt. eigenvalues --    0.88954   0.89393   0.91370   0.92683   0.93026
 Alpha virt. eigenvalues --    0.95113   0.96078   0.99139   1.01475   1.07773
 Alpha virt. eigenvalues --    1.23248   1.30842   1.33636   1.38424   1.47565
 Alpha virt. eigenvalues --    1.49386   1.54278   1.59707   1.65422   1.76286
 Alpha virt. eigenvalues --    1.76434   1.82147   1.85989   1.88007   1.92779
 Alpha virt. eigenvalues --    1.95656   2.00228   2.02254   2.05592   2.08234
 Alpha virt. eigenvalues --    2.10754   2.11939   2.12284   2.17466   2.22197
 Alpha virt. eigenvalues --    2.25137   2.26314   2.29421   2.32907   2.35007
 Alpha virt. eigenvalues --    2.35955   2.40081   2.49110   2.51351   2.54549
 Alpha virt. eigenvalues --    2.56576   2.62960   2.67562   2.72487   2.73060
 Alpha virt. eigenvalues --    2.76361   2.78427   2.83089   2.88448   2.91355
 Alpha virt. eigenvalues --    2.92828   2.97421   2.98072   3.01940   3.19285
 Alpha virt. eigenvalues --    3.26239   3.30074   3.31388   3.34229   3.43950
 Alpha virt. eigenvalues --    3.47180   3.50005   3.54032   3.56916   3.95582
 Alpha virt. eigenvalues --    4.07831   4.38505   4.54317   4.67623
          Condensed to atoms (all electrons):
               1          2          3          4          5          6
     1  C    5.036983   0.369043  -0.077929  -0.056029   0.000909   0.377528
     2  C    0.369043   4.796889   0.312217   0.372146  -0.047299  -0.030878
     3  N   -0.077929   0.312217   6.798363  -0.046452   0.002131  -0.002613
     4  C   -0.056029   0.372146  -0.046452   4.841185   0.284758   0.004941
     5  N    0.000909  -0.047299   0.002131   0.284758   6.808444   0.000120
     6  H    0.377528  -0.030878  -0.002613   0.004941   0.000120   0.615564
     7  H    0.347671  -0.026702   0.006632  -0.003007   0.009355  -0.029331
     8  H    0.377575  -0.032089  -0.002534  -0.006476  -0.000155  -0.033437
     9  H   -0.056395   0.391465  -0.042052  -0.041655  -0.003506  -0.003997
    10  H   -0.001973  -0.037451   0.342082   0.005965  -0.000129   0.005041
    11  H   -0.004060  -0.041091   0.340063  -0.007410  -0.000079  -0.000210
    12  H   -0.010466  -0.027469  -0.003194   0.377823  -0.041379  -0.000059
    13  H    0.007365  -0.047136   0.007084   0.380139  -0.050785  -0.000162
    14  H   -0.000520  -0.005364  -0.000064  -0.039684   0.340870  -0.000039
    15  H    0.000035   0.005340  -0.000132  -0.031095   0.339628   0.000002
               7          8          9         10         11         12
     1  C    0.347671   0.377575  -0.056395  -0.001973  -0.004060  -0.010466
     2  C   -0.026702  -0.032089   0.391465  -0.037451  -0.041091  -0.027469
     3  N    0.006632  -0.002534  -0.042052   0.342082   0.340063  -0.003194
     4  C   -0.003007  -0.006476  -0.041655   0.005965  -0.007410   0.377823
     5  N    0.009355  -0.000155  -0.003506  -0.000129  -0.000079  -0.041379
     6  H   -0.029331  -0.033437  -0.003997   0.005041  -0.000210  -0.000059
     7  H    0.624939  -0.027215  -0.001229   0.000010   0.000007  -0.000205
     8  H   -0.027215   0.609810   0.005718  -0.000322   0.005527   0.005210
     9  H   -0.001229   0.005718   0.648941  -0.005135   0.007061   0.005993
    10  H    0.000010  -0.000322  -0.005135   0.475752  -0.033368  -0.000158
    11  H    0.000007   0.005527   0.007061  -0.033368   0.484143   0.004670
    12  H   -0.000205   0.005210   0.005993  -0.000158   0.004670   0.636002
    13  H    0.000109  -0.000066  -0.007005  -0.000152  -0.000574  -0.047966
    14  H   -0.000122   0.000076   0.005433  -0.000002   0.000020   0.006712
    15  H   -0.000141  -0.000034  -0.000075   0.000004  -0.000000  -0.003943
              13         14         15
     1  C    0.007365  -0.000520   0.000035
     2  C   -0.047136  -0.005364   0.005340
     3  N    0.007084  -0.000064  -0.000132
     4  C    0.380139  -0.039684  -0.031095
     5  N   -0.050785   0.340870   0.339628
     6  H   -0.000162  -0.000039   0.000002
     7  H    0.000109  -0.000122  -0.000141
     8  H   -0.000066   0.000076  -0.000034
     9  H   -0.007005   0.005433  -0.000075
    10  H   -0.000152  -0.000002   0.000004
    11  H   -0.000574   0.000020  -0.000000
    12  H   -0.047966   0.006712  -0.003943
    13  H    0.685349  -0.005420  -0.004449
    14  H   -0.005420   0.480419  -0.032275
    15  H   -0.004449  -0.032275   0.472954
 Mulliken charges:
               1
     1  C   -0.309737
     2  C    0.048381
     3  N   -0.633602
     4  C   -0.035149
     5  N   -0.642884
     6  H    0.097530
     7  H    0.099229
     8  H    0.098413
     9  H    0.096438
    10  H    0.249835
    11  H    0.245302
    12  H    0.098431
    13  H    0.083669
    14  H    0.249962
    15  H    0.254182
 Sum of Mulliken charges =  -0.00000
 Mulliken charges with hydrogens summed into heavy atoms:
               1
     1  C   -0.014565
     2  C    0.144819
     3  N   -0.138465
     4  C    0.146951
     5  N   -0.138740
 APT charges:
               1
     1  C   -1.003811
     2  C   -0.312331
     3  N   -1.124658
     4  C   -0.533585
     5  N   -1.271778
     6  H    0.426996
     7  H    0.301868
     8  H    0.318438
     9  H    0.336039
    10  H    0.581981
    11  H    0.448264
    12  H    0.324897
    13  H    0.353598
    14  H    0.475674
    15  H    0.678409
 Sum of APT charges =  -0.00000
 APT charges with hydrogens summed into heavy atoms:
               1
     1  C    0.043492
     2  C    0.023708
     3  N   -0.094414
     4  C    0.144910
     5  N   -0.117696
 Electronic spatial extent (au):  <R**2>=            519.4085
 Charge=             -0.0000 electrons
 Dipole moment (field-independent basis, Debye):
    X=              0.0238    Y=             -0.0765    Z=             -0.0686  Tot=              0.1055
 Quadrupole moment (field-independent basis, Debye-Ang):
   XX=            -27.4887   YY=            -38.3319   ZZ=            -30.1422
   XY=              5.1282   XZ=              2.0256   YZ=             -2.0156
 Traceless Quadrupole moment (field-independent basis, Debye-Ang):
   XX=              4.4989   YY=             -6.3443   ZZ=              1.8454
   XY=              5.1282   XZ=              2.0256   YZ=             -2.0156
 Octapole moment (field-independent basis, Debye-Ang**2):
  XXX=             -3.3266  YYY=              2.7427  ZZZ=             -0.5244  XYY=             -3.5407
  XXY=             -6.1398  XXZ=             -1.9718  XZZ=             -1.0884  YZZ=             -1.4761
  YYZ=              1.1828  XYZ=             -0.8715
 Hexadecapole moment (field-independent basis, Debye-Ang**3):
 XXXX=           -323.3023 YYYY=           -212.6698 ZZZZ=            -66.6194 XXXY=             15.2045
 XXXZ=              1.2457 YYYX=              8.9304 YYYZ=             -4.0873 ZZZX=              6.4004
 ZZZY=             -2.2777 XXYY=           -111.0853 XXZZ=            -68.0379 YYZZ=            -45.2134
 XXYZ=             -7.3078 YYXZ=              3.6277 ZZXY=             -2.0446
 N-N= 1.938648632783D+02 E-N=-9.214130476080D+02  KE= 2.276339571800D+02
  Exact polarizability:   0.000   0.000   0.000   0.000   0.000   0.000
 Approx polarizability:  66.072  -1.180  57.217   0.251  -3.249  63.911
 D2PCM: PCM CHGder 2nd derivatives, FixD1E=F FixD2E=F DoIter=F DoCFld=F I1PDM=0
 Calling FoFJK, ICntrl=    100147 FMM=F ISym2X=0 I1Cent= 0 IOpClX= 0 NMat=1 NMatS=1 NMatT=0.
 ***** Axes restored to original set *****
 -------------------------------------------------------------------
 Center     Atomic                   Forces (Hartrees/Bohr)
 Number     Number              X              Y              Z
 -------------------------------------------------------------------
      1        6           0.004805661   -0.012375242   -0.003412990
      2        6          -0.010476628   -0.003856860    0.008584737
      3        7           0.007836839    0.011859158    0.000562611
      4        6           0.007221698    0.006104521   -0.005600667
      5        7          -0.003440199   -0.011609413   -0.001002871
      6        1           0.000299168    0.001347876    0.000116344
      7        1          -0.000779200   -0.001487281    0.001466715
      8        1           0.000490119    0.001268127    0.000810333
      9        1           0.001851169    0.000955488   -0.000325928
     10        1           0.001002072   -0.000815234    0.001843374
     11        1           0.000025829   -0.001339057   -0.000973564
     12        1          -0.002079116   -0.000409814   -0.000311258
     13        1          -0.006185819    0.009579984   -0.001354708
     14        1           0.000348206    0.000831765    0.001724902
     15        1          -0.000919798   -0.000054018   -0.002127030
 -------------------------------------------------------------------
 Cartesian Forces:  Max     0.012375242 RMS     0.004770916
 FormGI is forming the generalized inverse of G from B-inverse, IUseBI=4.

 GradGradGradGradGradGradGradGradGradGradGradGradGradGradGradGradGradGrad
 Berny optimization.
 Internal  Forces:  Max     0.012453156 RMS     0.003691884
 Search for a local minimum.
 Step number   1 out of a maximum of   78
 All quantities printed in internal units (Hartrees-Bohrs-Radians)
 Mixed Optimization -- RFO/linear search
 Second derivative matrix not updated -- analytic derivatives used.
 ITU=  0
     Eigenvalues ---    0.00153   0.00222   0.00271   0.00347   0.03326
     Eigenvalues ---    0.03345   0.03969   0.04465   0.04482   0.04583
     Eigenvalues ---    0.04756   0.05100   0.05578   0.08340   0.11730
     Eigenvalues ---    0.12236   0.13046   0.13508   0.14431   0.14824
     Eigenvalues ---    0.16321   0.17239   0.18564   0.19543   0.22762
     Eigenvalues ---    0.27265   0.28711   0.31936   0.32613   0.32931
     Eigenvalues ---    0.33440   0.33688   0.34217   0.35944   0.37159
     Eigenvalues ---    0.43780   0.43835   0.44030   0.44140
 RFO step:  Lambda=-5.29635416D-03 EMin= 1.52534632D-03
 Linear search not attempted -- first point.
 Iteration  1 RMS(Cart)=  0.04049752 RMS(Int)=  0.00087990
 Iteration  2 RMS(Cart)=  0.00094099 RMS(Int)=  0.00033924
 Iteration  3 RMS(Cart)=  0.00000084 RMS(Int)=  0.00033924
 Variable       Old X    -DE/DX   Delta X   Delta X   Delta X     New X
                                 (Linear)    (Quad)   (Total)
    R1        2.89041   0.00520   0.00000   0.00793   0.00793   2.89834
    R2        2.07093  -0.00017   0.00000  -0.00026  -0.00026   2.07068
    R3        2.06904   0.00085   0.00000  -0.00230  -0.00230   2.06673
    R4        2.07071   0.00041   0.00000   0.00295   0.00295   2.07365
    R5        2.77740   0.00422   0.00000   0.00884   0.00884   2.78624
    R6        2.92465  -0.01013   0.00000  -0.02557  -0.02557   2.89908
    R7        2.07256   0.00122   0.00000   0.00644   0.00644   2.07899
    R8        1.92723  -0.00210   0.00000  -0.00162  -0.00162   1.92561
    R9        1.92781  -0.00088   0.00000   0.00104   0.00104   1.92885
   R10        2.76666   0.00678   0.00000   0.00917   0.00917   2.77583
   R11        2.07210   0.00079   0.00000   0.00442   0.00442   2.07652
   R12        2.07251   0.00379   0.00000   0.00971   0.00971   2.08222
   R13        1.92710  -0.00123   0.00000  -0.00101  -0.00101   1.92610
   R14        1.92664  -0.00224   0.00000  -0.00303  -0.00303   1.92360
    A1        1.93644  -0.00160   0.00000  -0.00669  -0.00678   1.92966
    A2        1.93994   0.00296   0.00000   0.00510   0.00509   1.94503
    A3        1.94511  -0.00265   0.00000  -0.01799  -0.01808   1.92702
    A4        1.87114   0.00041   0.00000   0.02033   0.02032   1.89146
    A5        1.88376   0.00135   0.00000   0.00088   0.00071   1.88447
    A6        1.88456  -0.00037   0.00000  -0.00016  -0.00017   1.88438
    A7        1.91066   0.01245   0.00000   0.07051   0.07074   1.98141
    A8        1.95847  -0.00252   0.00000   0.00726   0.00757   1.96604
    A9        1.89654  -0.00220   0.00000  -0.00524  -0.00508   1.89146
   A10        1.91998  -0.00783   0.00000  -0.03593  -0.03704   1.88294
   A11        1.87792  -0.00186   0.00000  -0.01909  -0.02014   1.85778
   A12        1.89833   0.00193   0.00000  -0.01905  -0.01973   1.87861
   A13        1.90492  -0.00091   0.00000  -0.00737  -0.00748   1.89744
   A14        1.90783  -0.00171   0.00000  -0.01580  -0.01592   1.89191
   A15        1.84415   0.00025   0.00000  -0.01382  -0.01407   1.83008
   A16        1.97283  -0.00756   0.00000  -0.02068  -0.02084   1.95200
   A17        1.91945   0.00075   0.00000  -0.02012  -0.02079   1.89866
   A18        1.91229  -0.00400   0.00000  -0.03017  -0.03025   1.88204
   A19        1.89416   0.00122   0.00000  -0.00955  -0.01035   1.88381
   A20        1.89174   0.01110   0.00000   0.08856   0.08865   1.98039
   A21        1.87036  -0.00103   0.00000  -0.00574  -0.00673   1.86363
   A22        1.90301  -0.00045   0.00000  -0.00605  -0.00606   1.89695
   A23        1.89946   0.00021   0.00000   0.00192   0.00191   1.90137
   A24        1.84873  -0.00065   0.00000  -0.01319  -0.01322   1.83550
    D1        0.98522   0.00147   0.00000   0.00655   0.00631   0.99153
    D2        3.12214  -0.00140   0.00000   0.01560   0.01604   3.13818
    D3       -1.06120  -0.00204   0.00000  -0.00717  -0.00724  -1.06844
    D4        3.06558   0.00287   0.00000   0.03104   0.03076   3.09634
    D5       -1.08069   0.00001   0.00000   0.04009   0.04049  -1.04020
    D6        1.01916  -0.00063   0.00000   0.01733   0.01721   1.03637
    D7       -1.11450   0.00263   0.00000   0.02209   0.02176  -1.09274
    D8        1.02242  -0.00024   0.00000   0.03114   0.03149   1.05391
    D9        3.12226  -0.00088   0.00000   0.00837   0.00821   3.13048
   D10       -0.98222  -0.00059   0.00000   0.00754   0.00729  -0.97493
   D11        1.02692  -0.00173   0.00000  -0.02165  -0.02175   1.00517
   D12        3.14125  -0.00060   0.00000  -0.02509  -0.02466   3.11659
   D13       -1.13280  -0.00173   0.00000  -0.05428  -0.05371  -1.18650
   D14        1.07587   0.00253   0.00000   0.02896   0.02856   1.10443
   D15        3.08501   0.00139   0.00000  -0.00023  -0.00049   3.08453
   D16        1.08270  -0.00695   0.00000  -0.05520  -0.05481   1.02789
   D17       -1.03725  -0.00388   0.00000  -0.01423  -0.01401  -1.05126
   D18       -3.08878  -0.00068   0.00000   0.02259   0.02254  -3.06624
   D19       -3.06887   0.00169   0.00000   0.01448   0.01431  -3.05456
   D20        1.09438   0.00477   0.00000   0.05545   0.05511   1.14949
   D21       -0.95715   0.00796   0.00000   0.09227   0.09166  -0.86549
   D22       -1.01611  -0.00391   0.00000  -0.04045  -0.04005  -1.05616
   D23       -3.13605  -0.00084   0.00000   0.00053   0.00075  -3.13530
   D24        1.09560   0.00236   0.00000   0.03735   0.03730   1.13291
   D25        1.08067   0.00107   0.00000   0.06134   0.06126   1.14193
   D26        3.08966   0.00017   0.00000   0.04346   0.04340   3.13306
   D27       -3.06837  -0.00213   0.00000   0.01512   0.01501  -3.05336
   D28       -1.05938  -0.00303   0.00000  -0.00275  -0.00285  -1.06223
   D29       -1.04266   0.00325   0.00000   0.05068   0.05084  -0.99181
   D30        0.96633   0.00235   0.00000   0.03280   0.03298   0.99932
         Item               Value     Threshold  Converged?
 Maximum Force            0.012453     0.000450     NO 
 RMS     Force            0.003692     0.000300     NO 
 Maximum Displacement     0.115617     0.001800     NO 
 RMS     Displacement     0.040476     0.001200     NO 
 Predicted change in Energy=-2.799459D-03
 GradGradGradGradGradGradGradGradGradGradGradGradGradGradGradGradGradGrad

                          Input orientation:                          
 ---------------------------------------------------------------------
 Center     Atomic      Atomic             Coordinates (Angstroms)
 Number     Number       Type             X           Y           Z
 ---------------------------------------------------------------------
      1          6           0       -1.132669   -0.865711   -0.476608
      2          6           0       -0.144322    0.307110   -0.474879
      3          7           0       -0.798794    1.628279   -0.466430
      4          6           0        0.830253    0.256548    0.708840
      5          7           0        1.618650   -0.982839    0.715056
      6          1           0       -1.813275   -0.794168   -1.332374
      7          1           0       -0.612847   -1.826522   -0.528964
      8          1           0       -1.737712   -0.857631    0.438810
      9          1           0        0.450905    0.260347   -1.398926
     10          1           0       -1.432222    1.684473   -1.262642
     11          1           0       -1.403920    1.682795    0.353743
     12          1           0        0.253928    0.295653    1.643607
     13          1           0        1.447234    1.168925    0.677161
     14          1           0        2.221243   -0.990690   -0.106945
     15          1           0        2.253548   -0.966569    1.510552
 ---------------------------------------------------------------------
                    Distance matrix (angstroms):
                    1          2          3          4          5
     1  C    0.000000
     2  C    1.533734   0.000000
     3  N    2.516260   1.474413   0.000000
     4  C    2.553001   1.534126   2.432426   0.000000
     5  N    3.000589   2.487565   3.749384   1.468907   0.000000
     6  H    1.095755   2.175664   2.765372   3.501256   4.000709
     7  H    1.093669   2.185137   3.460366   2.820261   2.690532
     8  H    1.097329   2.174934   2.807272   2.812250   3.370037
     9  H    2.150903   1.100157   2.074254   2.141634   2.716258
    10  H    2.685334   2.043621   1.018990   3.323327   4.509286
    11  H    2.694057   2.041008   1.020703   2.674286   4.046243
    12  H    2.786885   2.155624   2.708573   1.098849   2.087873
    13  H    3.482360   2.145454   2.561923   1.101863   2.158914
    14  H    3.376536   2.723152   4.013583   2.038617   1.019247
    15  H    3.927523   3.363625   4.467492   2.040717   1.017927
                    6          7          8          9         10
     6  H    0.000000
     7  H    1.775457   0.000000
     8  H    1.773931   1.772189   0.000000
     9  H    2.498588   2.498685   3.068744   0.000000
    10  H    2.508730   3.679231   3.074175   2.364926   0.000000
    11  H    3.024220   3.704088   2.563673   2.921572   1.616633
    12  H    3.783847   3.158320   2.597736   3.049107   3.635684
    13  H    4.303823   3.830323   3.782542   2.475545   3.509971
    14  H    4.221094   2.984758   3.998609   2.523570   4.673322
    15  H    4.964977   3.621514   4.134084   3.635919   5.320106
                   11         12         13         14         15
    11  H    0.000000
    12  H    2.517215   0.000000
    13  H    2.915089   1.766522   0.000000
    14  H    4.527865   2.930774   2.424428   0.000000
    15  H    4.662017   2.368415   2.430024   1.617999   0.000000
 Stoichiometry    C3H10N2
 Framework group  C1[X(C3H10N2)]
 Deg. of freedom    39
 Full point group                 C1      NOp   1
 Largest Abelian subgroup         C1      NOp   1
 Largest concise Abelian subgroup C1      NOp   1
                         Standard orientation:                         
 ---------------------------------------------------------------------
 Center     Atomic      Atomic             Coordinates (Angstroms)
 Number     Number       Type             X           Y           Z
 ---------------------------------------------------------------------
      1          6           0        0.718831    1.405628    0.151297
      2          6           0        0.474694   -0.028444   -0.334685
      3          7           0        1.595336   -0.944191   -0.052797
      4          6           0       -0.798311   -0.644831    0.259509
      5          7           0       -1.993280    0.141756   -0.073687
      6          1           0        1.636255    1.810664   -0.290244
      7          1           0       -0.112143    2.064925   -0.115014
      8          1           0        0.830718    1.425994    1.242717
      9          1           0        0.356307   -0.008558   -1.428272
     10          1           0        2.444302   -0.558058   -0.463283
     11          1           0        1.767139   -0.942929    0.953342
     12          1           0       -0.702728   -0.667902    1.353950
     13          1           0       -0.854736   -1.692533   -0.077003
     14          1           0       -2.140922    0.100477   -1.081339
     15          1           0       -2.809859   -0.309153    0.333811
 ---------------------------------------------------------------------
 Rotational constants (GHZ):           7.6428442           3.4851489           2.6582969
 Standard basis: 6-31G(d,p) (6D, 7F)
 There are   125 symmetry adapted cartesian basis functions of A   symmetry.
 There are   125 symmetry adapted basis functions of A   symmetry.
   125 basis functions,   210 primitive gaussians,   125 cartesian basis functions
    21 alpha electrons       21 beta electrons
       nuclear repulsion energy       194.1184278586 Hartrees.
 NAtoms=   15 NActive=   15 NUniq=   15 SFac= 1.00D+00 NAtFMM=   60 NAOKFM=F Big=F
 Integral buffers will be    131072 words long.
 Raffenetti 2 integral format.
 Two-electron integral symmetry is turned on.
 ------------------------------------------------------------------------------
 Polarizable Continuum Model (PCM)
 =================================
 Model                : PCM.
 Atomic radii         : UFF (Universal Force Field).
 Polarization charges : Total charges.
 Charge compensation  : None.
 Solution method      : Matrix inversion.
 Cavity type          : Scaled VdW (van der Waals Surface) (Alpha=1.100).
 Cavity algorithm     : GePol (No added spheres)
                        Default sphere list used, NSphG=   15.
                        Lebedev-Laikov grids with approx.  5.0 points / Ang**2.
                        Smoothing algorithm: York/Karplus (Gamma=1.0000).
                        Polarization charges: spherical gaussians, with
                                              point-specific exponents (IZeta= 3).
                        Self-potential: point-specific (ISelfS= 7).
                        Self-field    : sphere-specific E.n sum rule (ISelfD= 2).
 1st derivatives      : Analytical E(r).r(x)/FMM algorithm (CHGder, D1EAlg=3).
                        Cavity 1st derivative terms included.
 Solvent              : Water, Eps=  78.355300 Eps(inf)=   1.777849
 ------------------------------------------------------------------------------
 Spheres list:
 ISph  on   Nord     Re0    Alpha      Xe            Ye            Ze
    1   C      1    1.9255  1.100      0.718831      1.405628      0.151297
    2   C      2    1.9255  1.100      0.474694     -0.028444     -0.334685
    3   N      3    1.8300  1.100      1.595336     -0.944191     -0.052797
    4   C      4    1.9255  1.100     -0.798311     -0.644831      0.259509
    5   N      5    1.8300  1.100     -1.993280      0.141756     -0.073687
    6   H      6    1.4430  1.100      1.636255      1.810664     -0.290244
    7   H      7    1.4430  1.100     -0.112143      2.064925     -0.115014
    8   H      8    1.4430  1.100      0.830718      1.425994      1.242717
    9   H      9    1.4430  1.100      0.356307     -0.008558     -1.428272
   10   H     10    1.4430  1.100      2.444302     -0.558058     -0.463283
   11   H     11    1.4430  1.100      1.767139     -0.942929      0.953342
   12   H     12    1.4430  1.100     -0.702728     -0.667902      1.353950
   13   H     13    1.4430  1.100     -0.854736     -1.692533     -0.077003
   14   H     14    1.4430  1.100     -2.140922      0.100477     -1.081339
   15   H     15    1.4430  1.100     -2.809859     -0.309153      0.333811
 ------------------------------------------------------------------------------
 One-electron integrals computed using PRISM.
 NBasis=   125 RedAO= T EigKep=  3.58D-03  NBF=   125
 NBsUse=   125 1.00D-06 EigRej= -1.00D+00 NBFU=   125
 Initial guess from the checkpoint file:  "AOHJOMMDDJHIJH-VKHMYHEASA-N_conf_1_0.chk"
 B after Tr=    -0.000000   -0.000000   -0.000000
         Rot=    0.999927    0.001362    0.000235   -0.012019 Ang=   1.39 deg.
 ExpMin= 1.61D-01 ExpMax= 4.17D+03 ExpMxC= 6.27D+02 IAcc=2 IRadAn=         4 AccDes= 0.00D+00
 Harris functional with IExCor=  402 and IRadAn=       4 diagonalized for initial guess.
 HarFok:  IExCor=  402 AccDes= 0.00D+00 IRadAn=         4 IDoV= 1 UseB2=F ITyADJ=14
 ICtDFT=  3500011 ScaDFX=  1.000000  1.000000  1.000000  1.000000
 FoFCou: FMM=F IPFlag=           0 FMFlag=      100000 FMFlg1=           0
         NFxFlg=           0 DoJE=T BraDBF=F KetDBF=T FulRan=T
         wScrn=  0.000000 ICntrl=       500 IOpCl=  0 I1Cent=   200000004 NGrid=           0
         NMat0=    1 NMatS0=      1 NMatT0=    0 NMatD0=    1 NMtDS0=    0 NMtDT0=    0
 Petite list used in FoFCou.
 Keep R1 ints in memory in canonical form, NReq=32913836.
 Requested convergence on RMS density matrix=1.00D-08 within  32 cycles.
 Requested convergence on MAX density matrix=1.00D-06.
 Requested convergence on             energy=1.00D-06.
 No special actions if energy rises.
 Inv3:  Mode=1 IEnd=     3776652.
 Iteration    1 A*A^-1 deviation from unit magnitude is 6.00D-15 for    581.
 Iteration    1 A*A^-1 deviation from orthogonality  is 2.90D-15 for    881    182.
 Iteration    1 A^-1*A deviation from unit magnitude is 5.33D-15 for    581.
 Iteration    1 A^-1*A deviation from orthogonality  is 1.81D-14 for    889    881.
 Error on total polarization charges =  0.00702
 SCF Done:  E(RB3LYP) =  -229.855175512     A.U. after    9 cycles
            NFock=  9  Conv=0.63D-08     -V/T= 2.0098
 QCSCF skips out because SCF is already converged.
 D1PCM: PCM CHGder 1st derivatives, ID1Alg=3 FixD1E=F DoIter=F DoCFld=F I1PDM=0.
 Calling FoFJK, ICntrl=      2127 FMM=F ISym2X=0 I1Cent= 0 IOpClX= 0 NMat=1 NMatS=1 NMatT=0.
 ***** Axes restored to original set *****
 -------------------------------------------------------------------
 Center     Atomic                   Forces (Hartrees/Bohr)
 Number     Number              X              Y              Z
 -------------------------------------------------------------------
      1        6           0.000374068   -0.000835243   -0.000245276
      2        6          -0.001441074    0.000087472    0.000197946
      3        7           0.000359154    0.001216850   -0.000111559
      4        6           0.001579028    0.000203287   -0.000013421
      5        7          -0.000201642   -0.001072302   -0.000352775
      6        1           0.000054873   -0.000070954    0.000039659
      7        1           0.000043167   -0.000119736    0.000355529
      8        1          -0.000085874    0.000068910   -0.000048496
      9        1           0.000098164   -0.000052680   -0.000043613
     10        1          -0.000035396    0.000066947    0.000060590
     11        1          -0.000189075   -0.000023678   -0.000120959
     12        1          -0.000066558    0.000008358    0.000075304
     13        1          -0.000713270    0.000472633   -0.000063774
     14        1           0.000320668    0.000154056    0.000201979
     15        1          -0.000096233   -0.000103920    0.000068865
 -------------------------------------------------------------------
 Cartesian Forces:  Max     0.001579028 RMS     0.000463635

 GradGradGradGradGradGradGradGradGradGradGradGradGradGradGradGradGradGrad
 Berny optimization.
 Using GEDIIS/GDIIS optimizer.
 FormGI is forming the generalized inverse of G from B-inverse, IUseBI=4.
 Internal  Forces:  Max     0.001075314 RMS     0.000308937
 Search for a local minimum.
 Step number   2 out of a maximum of   78
 All quantities printed in internal units (Hartrees-Bohrs-Radians)
 Mixed Optimization -- En-DIIS/RFO-DIIS
 Update second derivatives using D2CorX and points    1    2
 DE= -2.85D-03 DEPred=-2.80D-03 R= 1.02D+00
 TightC=F SS=  1.41D+00  RLast= 2.39D-01 DXNew= 5.0454D-01 7.1709D-01
 Trust test= 1.02D+00 RLast= 2.39D-01 DXMaxT set to 5.05D-01
 ITU=  1  0
 Use linear search instead of GDIIS.
     Eigenvalues ---    0.00153   0.00222   0.00271   0.00347   0.03331
     Eigenvalues ---    0.03344   0.03958   0.04464   0.04479   0.04582
     Eigenvalues ---    0.04742   0.05111   0.05572   0.08314   0.11768
     Eigenvalues ---    0.12254   0.13028   0.13519   0.14420   0.14823
     Eigenvalues ---    0.16364   0.17205   0.18590   0.19281   0.22674
     Eigenvalues ---    0.27278   0.28695   0.31968   0.32611   0.32927
     Eigenvalues ---    0.33437   0.33670   0.34229   0.35887   0.36856
     Eigenvalues ---    0.43784   0.43843   0.44030   0.44142
 RFO step:  Lambda=-1.81390524D-04 EMin= 1.52515146D-03
 Quartic linear search produced a step of  0.07774.
 Iteration  1 RMS(Cart)=  0.04062098 RMS(Int)=  0.00167895
 Iteration  2 RMS(Cart)=  0.00176457 RMS(Int)=  0.00002629
 Iteration  3 RMS(Cart)=  0.00000438 RMS(Int)=  0.00002607
 Iteration  4 RMS(Cart)=  0.00000000 RMS(Int)=  0.00002607
 Variable       Old X    -DE/DX   Delta X   Delta X   Delta X     New X
                                 (Linear)    (Quad)   (Total)
    R1        2.89834   0.00047   0.00062  -0.00039   0.00023   2.89857
    R2        2.07068  -0.00006  -0.00002  -0.00003  -0.00005   2.07063
    R3        2.06673   0.00010  -0.00018   0.00012  -0.00006   2.06668
    R4        2.07365   0.00000   0.00023   0.00007   0.00030   2.07395
    R5        2.78624   0.00108   0.00069   0.00154   0.00223   2.78846
    R6        2.89908   0.00047  -0.00199   0.00588   0.00389   2.90297
    R7        2.07899   0.00009   0.00050  -0.00009   0.00041   2.07941
    R8        1.92561  -0.00003  -0.00013   0.00039   0.00026   1.92587
    R9        1.92885   0.00001   0.00008   0.00020   0.00028   1.92913
   R10        2.77583   0.00089   0.00071   0.00010   0.00081   2.77665
   R11        2.07652   0.00010   0.00034  -0.00047  -0.00012   2.07640
   R12        2.08222  -0.00001   0.00076  -0.00078  -0.00003   2.08219
   R13        1.92610   0.00002  -0.00008  -0.00023  -0.00031   1.92578
   R14        1.92360  -0.00001  -0.00024   0.00024   0.00001   1.92361
    A1        1.92966   0.00007  -0.00053   0.00396   0.00343   1.93309
    A2        1.94503   0.00005   0.00040  -0.00387  -0.00347   1.94155
    A3        1.92702  -0.00006  -0.00141  -0.00038  -0.00180   1.92522
    A4        1.89146   0.00005   0.00158   0.00153   0.00311   1.89457
    A5        1.88447  -0.00004   0.00006  -0.00104  -0.00100   1.88347
    A6        1.88438  -0.00007  -0.00001  -0.00019  -0.00021   1.88417
    A7        1.98141   0.00088   0.00550   0.00109   0.00662   1.98802
    A8        1.96604  -0.00070   0.00059  -0.00535  -0.00477   1.96128
    A9        1.89146  -0.00001  -0.00039  -0.00063  -0.00102   1.89044
   A10        1.88294   0.00006  -0.00288   0.00748   0.00452   1.88745
   A11        1.85778  -0.00030  -0.00157  -0.00023  -0.00187   1.85591
   A12        1.87861   0.00004  -0.00153  -0.00235  -0.00395   1.87466
   A13        1.89744   0.00012  -0.00058  -0.00033  -0.00092   1.89652
   A14        1.89191   0.00006  -0.00124   0.00120  -0.00005   1.89186
   A15        1.83008  -0.00014  -0.00109  -0.00150  -0.00262   1.82746
   A16        1.95200  -0.00030  -0.00162  -0.00108  -0.00271   1.94928
   A17        1.89866  -0.00007  -0.00162   0.00114  -0.00053   1.89813
   A18        1.88204  -0.00025  -0.00235   0.00097  -0.00139   1.88065
   A19        1.88381   0.00001  -0.00080  -0.00135  -0.00223   1.88159
   A20        1.98039   0.00071   0.00689   0.00081   0.00771   1.98810
   A21        1.86363  -0.00011  -0.00052  -0.00043  -0.00104   1.86260
   A22        1.89695   0.00004  -0.00047   0.00164   0.00117   1.89812
   A23        1.90137   0.00005   0.00015   0.00061   0.00075   1.90212
   A24        1.83550  -0.00011  -0.00103   0.00115   0.00012   1.83562
    D1        0.99153   0.00004   0.00049   0.03983   0.04030   1.03183
    D2        3.13818   0.00025   0.00125   0.04648   0.04776  -3.09725
    D3       -1.06844  -0.00013  -0.00056   0.03987   0.03930  -1.02914
    D4        3.09634   0.00018   0.00239   0.04187   0.04424   3.14058
    D5       -1.04020   0.00039   0.00315   0.04852   0.05169  -0.98851
    D6        1.03637   0.00001   0.00134   0.04191   0.04324   1.07961
    D7       -1.09274   0.00007   0.00169   0.03884   0.04051  -1.05223
    D8        1.05391   0.00029   0.00245   0.04549   0.04796   1.10187
    D9        3.13048  -0.00009   0.00064   0.03888   0.03951  -3.11320
   D10       -0.97493  -0.00020   0.00057  -0.01124  -0.01067  -0.98560
   D11        1.00517  -0.00027  -0.00169  -0.01255  -0.01423   0.99094
   D12        3.11659   0.00003  -0.00192  -0.01078  -0.01268   3.10391
   D13       -1.18650  -0.00003  -0.00418  -0.01209  -0.01623  -1.20273
   D14        1.10443   0.00010   0.00222  -0.01153  -0.00934   1.09509
   D15        3.08453   0.00004  -0.00004  -0.01284  -0.01290   3.07163
   D16        1.02789  -0.00055  -0.00426   0.04104   0.03682   1.06470
   D17       -1.05126  -0.00033  -0.00109   0.04263   0.04157  -1.00969
   D18       -3.06624  -0.00003   0.00175   0.04204   0.04380  -3.02244
   D19       -3.05456   0.00015   0.00111   0.04430   0.04540  -3.00915
   D20        1.14949   0.00036   0.00428   0.04590   0.05015   1.19964
   D21       -0.86549   0.00066   0.00713   0.04531   0.05238  -0.81311
   D22       -1.05616  -0.00015  -0.00311   0.04657   0.04348  -1.01267
   D23       -3.13530   0.00007   0.00006   0.04817   0.04824  -3.08707
   D24        1.13291   0.00037   0.00290   0.04757   0.05046   1.18337
   D25        1.14193   0.00029   0.00476   0.08817   0.09292   1.23485
   D26        3.13306   0.00021   0.00337   0.09070   0.09407  -3.05606
   D27       -3.05336   0.00003   0.00117   0.08806   0.08922  -2.96414
   D28       -1.06223  -0.00005  -0.00022   0.09059   0.09037  -0.97186
   D29       -0.99181   0.00032   0.00395   0.08710   0.09107  -0.90075
   D30        0.99932   0.00024   0.00256   0.08964   0.09222   1.09154
         Item               Value     Threshold  Converged?
 Maximum Force            0.001075     0.000450     NO 
 RMS     Force            0.000309     0.000300     NO 
 Maximum Displacement     0.154275     0.001800     NO 
 RMS     Displacement     0.040509     0.001200     NO 
 Predicted change in Energy=-1.152846D-04
 GradGradGradGradGradGradGradGradGradGradGradGradGradGradGradGradGradGrad

                          Input orientation:                          
 ---------------------------------------------------------------------
 Center     Atomic      Atomic             Coordinates (Angstroms)
 Number     Number       Type             X           Y           Z
 ---------------------------------------------------------------------
      1          6           0       -1.146625   -0.863752   -0.463885
      2          6           0       -0.152462    0.304254   -0.474851
      3          7           0       -0.792139    1.633983   -0.472938
      4          6           0        0.831947    0.245290    0.702997
      5          7           0        1.644183   -0.978721    0.671002
      6          1           0       -1.805918   -0.820788   -1.338020
      7          1           0       -0.627268   -1.826200   -0.466760
      8          1           0       -1.774692   -0.820912    0.435099
      9          1           0        0.438646    0.246497   -1.401177
     10          1           0       -1.420644    1.694674   -1.272889
     11          1           0       -1.403474    1.696221    0.342252
     12          1           0        0.260386    0.244847    1.641422
     13          1           0        1.423990    1.174511    0.692887
     14          1           0        2.302882   -0.914678   -0.103945
     15          1           0        2.221190   -1.015225    1.508805
 ---------------------------------------------------------------------
                    Distance matrix (angstroms):
                    1          2          3          4          5
     1  C    0.000000
     2  C    1.533857   0.000000
     3  N    2.522781   1.475592   0.000000
     4  C    2.550752   1.536185   2.439046   0.000000
     5  N    3.014928   2.487355   3.751064   1.469337   0.000000
     6  H    1.095730   2.178232   2.793209   3.501515   3.995536
     7  H    1.093639   2.182737   3.464114   2.790826   2.678099
     8  H    1.097486   2.173853   2.795792   2.828979   3.430635
     9  H    2.150407   1.100375   2.074024   2.140616   2.692286
    10  H    2.697242   2.044118   1.019128   3.328513   4.507650
    11  H    2.696162   2.042122   1.020852   2.689321   4.068366
    12  H    2.764234   2.156985   2.740078   1.098783   2.086559
    13  H    3.478606   2.146197   2.545877   1.101848   2.164572
    14  H    3.468608   2.766239   4.026286   2.039688   1.019081
    15  H    3.905973   3.363054   4.475015   2.041622   1.017931
                    6          7          8          9         10
     6  H    0.000000
     7  H    1.777404   0.000000
     8  H    1.773394   1.772155   0.000000
     9  H    2.486192   2.511052   3.067595   0.000000
    10  H    2.545629   3.698086   3.061167   2.360218   0.000000
    11  H    3.052968   3.696545   2.546053   2.921413   1.615233
    12  H    3.779188   3.085708   2.594725   3.047817   3.663477
    13  H    4.305590   3.815325   3.778854   2.493435   3.496682
    14  H    4.291153   3.090030   4.114118   2.550788   4.694655
    15  H    4.935566   3.560091   4.142182   3.638324   5.323938
                   11         12         13         14         15
    11  H    0.000000
    12  H    2.561788   0.000000
    13  H    2.896494   1.765777   0.000000
    14  H    4.555542   2.926191   2.402520   0.000000
    15  H    4.674503   2.334550   2.469047   1.617944   0.000000
 Stoichiometry    C3H10N2
 Framework group  C1[X(C3H10N2)]
 Deg. of freedom    39
 Full point group                 C1      NOp   1
 Largest Abelian subgroup         C1      NOp   1
 Largest concise Abelian subgroup C1      NOp   1
                         Standard orientation:                         
 ---------------------------------------------------------------------
 Center     Atomic      Atomic             Coordinates (Angstroms)
 Number     Number       Type             X           Y           Z
 ---------------------------------------------------------------------
      1          6           0        0.727440    1.407972    0.144530
      2          6           0        0.475539   -0.029162   -0.328659
      3          7           0        1.593211   -0.953119   -0.055745
      4          6           0       -0.800950   -0.629713    0.279435
      5          7           0       -1.995648    0.137134   -0.099504
      6          1           0        1.617675    1.825593   -0.338895
      7          1           0       -0.125800    2.054290   -0.079747
      8          1           0        0.891456    1.428507    1.229497
      9          1           0        0.344924   -0.015585   -1.421170
     10          1           0        2.437718   -0.579775   -0.487075
     11          1           0        1.785938   -0.938406    0.946642
     12          1           0       -0.717344   -0.602080    1.374684
     13          1           0       -0.842496   -1.692440   -0.008580
     14          1           0       -2.184138   -0.017667   -1.088966
     15          1           0       -2.803052   -0.245123    0.388516
 ---------------------------------------------------------------------
 Rotational constants (GHZ):           7.6212747           3.4687781           2.6521896
 Standard basis: 6-31G(d,p) (6D, 7F)
 There are   125 symmetry adapted cartesian basis functions of A   symmetry.
 There are   125 symmetry adapted basis functions of A   symmetry.
   125 basis functions,   210 primitive gaussians,   125 cartesian basis functions
    21 alpha electrons       21 beta electrons
       nuclear repulsion energy       193.9247162332 Hartrees.
 NAtoms=   15 NActive=   15 NUniq=   15 SFac= 1.00D+00 NAtFMM=   60 NAOKFM=F Big=F
 Integral buffers will be    131072 words long.
 Raffenetti 2 integral format.
 Two-electron integral symmetry is turned on.
 ------------------------------------------------------------------------------
 Polarizable Continuum Model (PCM)
 =================================
 Model                : PCM.
 Atomic radii         : UFF (Universal Force Field).
 Polarization charges : Total charges.
 Charge compensation  : None.
 Solution method      : Matrix inversion.
 Cavity type          : Scaled VdW (van der Waals Surface) (Alpha=1.100).
 Cavity algorithm     : GePol (No added spheres)
                        Default sphere list used, NSphG=   15.
                        Lebedev-Laikov grids with approx.  5.0 points / Ang**2.
                        Smoothing algorithm: York/Karplus (Gamma=1.0000).
                        Polarization charges: spherical gaussians, with
                                              point-specific exponents (IZeta= 3).
                        Self-potential: point-specific (ISelfS= 7).
                        Self-field    : sphere-specific E.n sum rule (ISelfD= 2).
 1st derivatives      : Analytical E(r).r(x)/FMM algorithm (CHGder, D1EAlg=3).
                        Cavity 1st derivative terms included.
 Solvent              : Water, Eps=  78.355300 Eps(inf)=   1.777849
 ------------------------------------------------------------------------------
 Spheres list:
 ISph  on   Nord     Re0    Alpha      Xe            Ye            Ze
    1   C      1    1.9255  1.100      0.727440      1.407972      0.144530
    2   C      2    1.9255  1.100      0.475539     -0.029162     -0.328659
    3   N      3    1.8300  1.100      1.593211     -0.953119     -0.055745
    4   C      4    1.9255  1.100     -0.800950     -0.629713      0.279435
    5   N      5    1.8300  1.100     -1.995648      0.137134     -0.099504
    6   H      6    1.4430  1.100      1.617675      1.825593     -0.338895
    7   H      7    1.4430  1.100     -0.125800      2.054290     -0.079747
    8   H      8    1.4430  1.100      0.891456      1.428507      1.229497
    9   H      9    1.4430  1.100      0.344924     -0.015585     -1.421170
   10   H     10    1.4430  1.100      2.437718     -0.579775     -0.487075
   11   H     11    1.4430  1.100      1.785938     -0.938406      0.946642
   12   H     12    1.4430  1.100     -0.717344     -0.602080      1.374684
   13   H     13    1.4430  1.100     -0.842496     -1.692440     -0.008580
   14   H     14    1.4430  1.100     -2.184138     -0.017667     -1.088966
   15   H     15    1.4430  1.100     -2.803052     -0.245123      0.388516
 ------------------------------------------------------------------------------
 One-electron integrals computed using PRISM.
 NBasis=   125 RedAO= T EigKep=  3.63D-03  NBF=   125
 NBsUse=   125 1.00D-06 EigRej= -1.00D+00 NBFU=   125
 Initial guess from the checkpoint file:  "AOHJOMMDDJHIJH-VKHMYHEASA-N_conf_1_0.chk"
 B after Tr=    -0.000000   -0.000000    0.000000
         Rot=    0.999975    0.006780   -0.001699    0.000783 Ang=   0.81 deg.
 ExpMin= 1.61D-01 ExpMax= 4.17D+03 ExpMxC= 6.27D+02 IAcc=2 IRadAn=         4 AccDes= 0.00D+00
 Harris functional with IExCor=  402 and IRadAn=       4 diagonalized for initial guess.
 HarFok:  IExCor=  402 AccDes= 0.00D+00 IRadAn=         4 IDoV= 1 UseB2=F ITyADJ=14
 ICtDFT=  3500011 ScaDFX=  1.000000  1.000000  1.000000  1.000000
 FoFCou: FMM=F IPFlag=           0 FMFlag=      100000 FMFlg1=           0
         NFxFlg=           0 DoJE=T BraDBF=F KetDBF=T FulRan=T
         wScrn=  0.000000 ICntrl=       500 IOpCl=  0 I1Cent=   200000004 NGrid=           0
         NMat0=    1 NMatS0=      1 NMatT0=    0 NMatD0=    1 NMtDS0=    0 NMtDT0=    0
 Petite list used in FoFCou.
 Keep R1 ints in memory in canonical form, NReq=32913836.
 Requested convergence on RMS density matrix=1.00D-08 within  32 cycles.
 Requested convergence on MAX density matrix=1.00D-06.
 Requested convergence on             energy=1.00D-06.
 No special actions if energy rises.
 Inv3:  Mode=1 IEnd=     3763200.
 Iteration    1 A*A^-1 deviation from unit magnitude is 4.55D-15 for    654.
 Iteration    1 A*A^-1 deviation from orthogonality  is 2.67D-15 for    871    179.
 Iteration    1 A^-1*A deviation from unit magnitude is 5.00D-15 for    609.
 Iteration    1 A^-1*A deviation from orthogonality  is 2.53D-15 for    988    161.
 Error on total polarization charges =  0.00702
 SCF Done:  E(RB3LYP) =  -229.855271748     A.U. after    9 cycles
            NFock=  9  Conv=0.39D-08     -V/T= 2.0098
 QCSCF skips out because SCF is already converged.
 D1PCM: PCM CHGder 1st derivatives, ID1Alg=3 FixD1E=F DoIter=F DoCFld=F I1PDM=0.
 Calling FoFJK, ICntrl=      2127 FMM=F ISym2X=0 I1Cent= 0 IOpClX= 0 NMat=1 NMatS=1 NMatT=0.
 ***** Axes restored to original set *****
 -------------------------------------------------------------------
 Center     Atomic                   Forces (Hartrees/Bohr)
 Number     Number              X              Y              Z
 -------------------------------------------------------------------
      1        6          -0.000126858   -0.000063009    0.000010845
      2        6           0.000033463    0.000048056   -0.000135867
      3        7           0.000020436    0.000086430    0.000051543
      4        6          -0.000197409    0.000149669    0.000053761
      5        7           0.000248015   -0.000045626   -0.000003627
      6        1           0.000045224   -0.000089005    0.000047614
      7        1           0.000095869   -0.000024056   -0.000025701
      8        1          -0.000059614    0.000005079   -0.000002969
      9        1           0.000032705    0.000021558    0.000043109
     10        1          -0.000009206   -0.000004070    0.000020185
     11        1          -0.000019771    0.000019511    0.000016845
     12        1          -0.000061938    0.000086671    0.000018892
     13        1          -0.000041694   -0.000099295   -0.000020844
     14        1           0.000024061   -0.000130219    0.000020198
     15        1           0.000016717    0.000038307   -0.000093983
 -------------------------------------------------------------------
 Cartesian Forces:  Max     0.000248015 RMS     0.000076587

 GradGradGradGradGradGradGradGradGradGradGradGradGradGradGradGradGradGrad
 Berny optimization.
 Using GEDIIS/GDIIS optimizer.
 FormGI is forming the generalized inverse of G from B-inverse, IUseBI=4.
 Internal  Forces:  Max     0.000299207 RMS     0.000069267
 Search for a local minimum.
 Step number   3 out of a maximum of   78
 All quantities printed in internal units (Hartrees-Bohrs-Radians)
 Mixed Optimization -- En-DIIS/RFO-DIIS
 Swapping is turned off.
 Update second derivatives using D2CorX and points    1    2    3
 DE= -9.62D-05 DEPred=-1.15D-04 R= 8.35D-01
 TightC=F SS=  1.41D+00  RLast= 2.97D-01 DXNew= 8.4853D-01 8.9090D-01
 Trust test= 8.35D-01 RLast= 2.97D-01 DXMaxT set to 8.49D-01
 ITU=  1  1  0
     Eigenvalues ---    0.00177   0.00241   0.00264   0.00343   0.03331
     Eigenvalues ---    0.03347   0.03920   0.04461   0.04479   0.04583
     Eigenvalues ---    0.04752   0.05128   0.05506   0.08248   0.11767
     Eigenvalues ---    0.12239   0.12967   0.13495   0.14408   0.14826
     Eigenvalues ---    0.16365   0.17293   0.18589   0.19168   0.22634
     Eigenvalues ---    0.26966   0.28674   0.31971   0.32575   0.32923
     Eigenvalues ---    0.33428   0.33647   0.34229   0.35726   0.36534
     Eigenvalues ---    0.43785   0.43842   0.44028   0.44137
 En-DIIS/RFO-DIIS/Sim-DIIS IScMMF=       -3 using points:     3    2
 RFO step:  Lambda=-5.52698974D-06.
 DidBck=F Rises=F RFO-DIIS coefs:    0.90829    0.09171
 Iteration  1 RMS(Cart)=  0.00559408 RMS(Int)=  0.00003563
 Iteration  2 RMS(Cart)=  0.00003670 RMS(Int)=  0.00000063
 Iteration  3 RMS(Cart)=  0.00000000 RMS(Int)=  0.00000063
 Variable       Old X    -DE/DX   Delta X   Delta X   Delta X     New X
                                 (Linear)    (Quad)   (Total)
    R1        2.89857   0.00015  -0.00002   0.00040   0.00038   2.89895
    R2        2.07063  -0.00006   0.00000  -0.00016  -0.00016   2.07047
    R3        2.06668   0.00006   0.00001   0.00016   0.00016   2.06684
    R4        2.07395   0.00003  -0.00003   0.00006   0.00004   2.07399
    R5        2.78846   0.00010  -0.00020   0.00035   0.00015   2.78861
    R6        2.90297  -0.00003  -0.00036   0.00028  -0.00008   2.90289
    R7        2.07941  -0.00002  -0.00004  -0.00001  -0.00005   2.07936
    R8        1.92587  -0.00002  -0.00002  -0.00000  -0.00002   1.92585
    R9        1.92913   0.00002  -0.00003   0.00006   0.00003   1.92916
   R10        2.77665   0.00030  -0.00007   0.00094   0.00086   2.77751
   R11        2.07640   0.00005   0.00001   0.00020   0.00021   2.07661
   R12        2.08219  -0.00011   0.00000  -0.00034  -0.00034   2.08185
   R13        1.92578  -0.00001   0.00003  -0.00003   0.00000   1.92579
   R14        1.92361  -0.00007  -0.00000  -0.00015  -0.00015   1.92346
    A1        1.93309   0.00009  -0.00031   0.00085   0.00054   1.93363
    A2        1.94155  -0.00012   0.00032  -0.00138  -0.00107   1.94049
    A3        1.92522   0.00004   0.00017   0.00015   0.00031   1.92553
    A4        1.89457  -0.00001  -0.00029   0.00006  -0.00022   1.89435
    A5        1.88347  -0.00005   0.00009  -0.00011  -0.00002   1.88345
    A6        1.88417   0.00005   0.00002   0.00046   0.00048   1.88465
    A7        1.98802   0.00013  -0.00061   0.00171   0.00110   1.98912
    A8        1.96128  -0.00003   0.00044  -0.00048  -0.00004   1.96124
    A9        1.89044  -0.00001   0.00009  -0.00002   0.00008   1.89051
   A10        1.88745  -0.00009  -0.00041  -0.00030  -0.00072   1.88673
   A11        1.85591   0.00000   0.00017  -0.00015   0.00002   1.85593
   A12        1.87466   0.00000   0.00036  -0.00088  -0.00052   1.87414
   A13        1.89652   0.00002   0.00008   0.00006   0.00015   1.89667
   A14        1.89186   0.00004   0.00000   0.00012   0.00012   1.89199
   A15        1.82746  -0.00001   0.00024  -0.00022   0.00002   1.82748
   A16        1.94928   0.00008   0.00025   0.00039   0.00064   1.94992
   A17        1.89813  -0.00003   0.00005  -0.00011  -0.00006   1.89806
   A18        1.88065  -0.00005   0.00013  -0.00085  -0.00072   1.87992
   A19        1.88159   0.00004   0.00020   0.00043   0.00063   1.88222
   A20        1.98810  -0.00004  -0.00071   0.00039  -0.00031   1.98779
   A21        1.86260   0.00001   0.00009  -0.00029  -0.00020   1.86240
   A22        1.89812   0.00024  -0.00011   0.00106   0.00096   1.89908
   A23        1.90212  -0.00001  -0.00007  -0.00019  -0.00026   1.90186
   A24        1.83562  -0.00008  -0.00001  -0.00042  -0.00043   1.83519
    D1        1.03183   0.00008  -0.00370   0.00896   0.00526   1.03710
    D2       -3.09725   0.00003  -0.00438   0.00951   0.00513  -3.09213
    D3       -1.02914   0.00001  -0.00360   0.00812   0.00452  -1.02463
    D4        3.14058   0.00004  -0.00406   0.00869   0.00463  -3.13797
    D5       -0.98851  -0.00001  -0.00474   0.00923   0.00449  -0.98401
    D6        1.07961  -0.00003  -0.00397   0.00785   0.00388   1.08349
    D7       -1.05223   0.00005  -0.00372   0.00846   0.00474  -1.04748
    D8        1.10187   0.00000  -0.00440   0.00901   0.00461   1.10648
    D9       -3.11320  -0.00002  -0.00362   0.00762   0.00400  -3.10920
   D10       -0.98560  -0.00003   0.00098  -0.00073   0.00025  -0.98535
   D11        0.99094  -0.00001   0.00131  -0.00089   0.00041   0.99135
   D12        3.10391  -0.00001   0.00116  -0.00109   0.00007   3.10398
   D13       -1.20273   0.00001   0.00149  -0.00126   0.00023  -1.20250
   D14        1.09509   0.00003   0.00086   0.00014   0.00100   1.09609
   D15        3.07163   0.00004   0.00118  -0.00002   0.00116   3.07279
   D16        1.06470  -0.00001  -0.00338  -0.00282  -0.00620   1.05850
   D17       -1.00969  -0.00009  -0.00381  -0.00351  -0.00733  -1.01702
   D18       -3.02244  -0.00005  -0.00402  -0.00267  -0.00668  -3.02912
   D19       -3.00915   0.00006  -0.00416  -0.00118  -0.00535  -3.01450
   D20        1.19964  -0.00001  -0.00460  -0.00188  -0.00648   1.19316
   D21       -0.81311   0.00002  -0.00480  -0.00103  -0.00583  -0.81894
   D22       -1.01267   0.00002  -0.00399  -0.00195  -0.00594  -1.01861
   D23       -3.08707  -0.00005  -0.00442  -0.00264  -0.00707  -3.09413
   D24        1.18337  -0.00002  -0.00463  -0.00180  -0.00642   1.17695
   D25        1.23485  -0.00006  -0.00852  -0.00506  -0.01358   1.22127
   D26       -3.05606  -0.00004  -0.00863  -0.00508  -0.01371  -3.06977
   D27       -2.96414  -0.00004  -0.00818  -0.00469  -0.01287  -2.97701
   D28       -0.97186  -0.00001  -0.00829  -0.00472  -0.01301  -0.98486
   D29       -0.90075  -0.00003  -0.00835  -0.00453  -0.01288  -0.91363
   D30        1.09154  -0.00000  -0.00846  -0.00456  -0.01302   1.07852
         Item               Value     Threshold  Converged?
 Maximum Force            0.000299     0.000450     YES
 RMS     Force            0.000069     0.000300     YES
 Maximum Displacement     0.022806     0.001800     NO 
 RMS     Displacement     0.005598     0.001200     NO 
 Predicted change in Energy=-2.764654D-06
 GradGradGradGradGradGradGradGradGradGradGradGradGradGradGradGradGradGrad

                          Input orientation:                          
 ---------------------------------------------------------------------
 Center     Atomic      Atomic             Coordinates (Angstroms)
 Number     Number       Type             X           Y           Z
 ---------------------------------------------------------------------
      1          6           0       -1.144792   -0.864520   -0.465383
[...]
 End of Minotr F.D. properties file   722 does not exist.
 End of Minotr F.D. properties file   788 does not exist.

 **********************************************************************

            Population analysis using the CI density.

 **********************************************************************

 Orbital symmetries:
       Occupied  (A) (A) (A) (A) (A) (A) (A) (A) (A) (A) (A) (A)
                 (A) (A) (A) (A) (A) (A) (A) (A) (A)
       Virtual   (A) (A) (A) (A) (A) (A) (A) (A) (A) (A) (A) (A)
                 (A) (A) (A) (A) (A) (A) (A) (A) (A) (A) (A) (A)
                 (A) (A) (A) (A) (A) (A) (A) (A) (A) (A) (A) (A)
                 (A) (A) (A) (A) (A) (A) (A) (A) (A) (A) (A) (A)
                 (A) (A) (A) (A) (A) (A) (A) (A) (A) (A) (A) (A)
                 (A) (A) (A) (A) (A) (A) (A) (A) (A) (A) (A) (A)
                 (A) (A) (A) (A) (A) (A) (A) (A) (A) (A) (A) (A)
                 (A) (A) (A) (A) (A) (A) (A) (A) (A) (A) (A) (A)
                 (A) (A) (A) (A) (A) (A) (A) (A)
 The electronic state is 1-A.
 Alpha  occ. eigenvalues --  -14.30990 -14.30854 -10.20644 -10.19907 -10.16505
 Alpha  occ. eigenvalues --   -0.88868  -0.86099  -0.72580  -0.66059  -0.57150
 Alpha  occ. eigenvalues --   -0.48062  -0.47727  -0.45560  -0.41342  -0.39820
 Alpha  occ. eigenvalues --   -0.38772  -0.36982  -0.34012  -0.32179  -0.23818
 Alpha  occ. eigenvalues --   -0.23533
 Alpha virt. eigenvalues --    0.08701   0.09045   0.12366   0.15525   0.16075
 Alpha virt. eigenvalues --    0.16445   0.18036   0.18910   0.19365   0.20334
 Alpha virt. eigenvalues --    0.24404   0.25273   0.26425   0.28483   0.52130
 Alpha virt. eigenvalues --    0.53659   0.55541   0.56803   0.57783   0.64323
 Alpha virt. eigenvalues --    0.68402   0.70877   0.72570   0.73712   0.74443
 Alpha virt. eigenvalues --    0.76806   0.79870   0.82768   0.87149   0.87657
 Alpha virt. eigenvalues --    0.89085   0.89932   0.90979   0.92770   0.93279
 Alpha virt. eigenvalues --    0.94932   0.95612   0.98867   1.02016   1.07723
 Alpha virt. eigenvalues --    1.23960   1.30910   1.34046   1.38751   1.47265
 Alpha virt. eigenvalues --    1.48972   1.55224   1.59424   1.66636   1.71979
 Alpha virt. eigenvalues --    1.76716   1.83219   1.86222   1.88015   1.93237
 Alpha virt. eigenvalues --    1.94673   2.00100   2.03411   2.05252   2.06972
 Alpha virt. eigenvalues --    2.10470   2.12279   2.12927   2.15656   2.23642
 Alpha virt. eigenvalues --    2.25839   2.27292   2.29573   2.32554   2.35240
 Alpha virt. eigenvalues --    2.36892   2.40281   2.48357   2.51332   2.54418
 Alpha virt. eigenvalues --    2.57170   2.61026   2.69215   2.70611   2.72725
 Alpha virt. eigenvalues --    2.75386   2.80105   2.83347   2.88808   2.92446
 Alpha virt. eigenvalues --    2.93428   2.96875   2.98773   3.01664   3.19249
 Alpha virt. eigenvalues --    3.25828   3.30015   3.31043   3.33200   3.44539
 Alpha virt. eigenvalues --    3.47209   3.49993   3.52980   3.57354   3.95851
 Alpha virt. eigenvalues --    4.08033   4.37870   4.54334   4.68415
          Condensed to atoms (all electrons):
               1          2          3          4          5          6
     1  C    5.142119   0.397727  -0.067081  -0.060480   0.002515   0.324281
     2  C    0.397727   4.959028   0.282974   0.343273  -0.047735  -0.057749
     3  N   -0.067081   0.282974   6.819398  -0.106810   0.000651   0.004064
     4  C   -0.060480   0.343273  -0.106810   5.629097   0.189672   0.001702
     5  N    0.002515  -0.047735   0.000651   0.189672   9.004046  -0.000438
     6  H    0.324281  -0.057749   0.004064   0.001702  -0.000438   0.645820
     7  H    0.293656  -0.038660   0.006963  -0.007314  -0.014774  -0.006467
     8  H    0.352198  -0.035400  -0.000449  -0.012982  -0.001035  -0.022105
     9  H   -0.062473   0.254418  -0.011796  -0.084411  -0.042520   0.008817
    10  H   -0.001497  -0.032915   0.339396   0.007344  -0.000124   0.003029
    11  H   -0.004428  -0.038972   0.331787   0.001709   0.000087  -0.001044
    12  H   -0.012371  -0.017705   0.008459   0.142812  -0.145689   0.001416
    13  H    0.005996  -0.024414   0.022156   0.067329  -0.183032   0.000348
    14  H   -0.004447  -0.022368   0.002047   0.011521  -0.880991   0.001038
    15  H   -0.001708   0.011254   0.000465  -0.032488  -0.861760   0.000186
               7          8          9         10         11         12
     1  C    0.293656   0.352198  -0.062473  -0.001497  -0.004428  -0.012371
     2  C   -0.038660  -0.035400   0.254418  -0.032915  -0.038972  -0.017705
     3  N    0.006963  -0.000449  -0.011796   0.339396   0.331787   0.008459
     4  C   -0.007314  -0.012982  -0.084411   0.007344   0.001709   0.142812
     5  N   -0.014774  -0.001035  -0.042520  -0.000124   0.000087  -0.145689
     6  H   -0.006467  -0.022105   0.008817   0.003029  -0.001044   0.001416
     7  H    0.655775  -0.019684   0.012364  -0.000085  -0.000209   0.006262
     8  H   -0.019684   0.610004   0.008147  -0.000413   0.004609   0.011310
     9  H    0.012364   0.008147   0.747991  -0.007040   0.005525   0.015821
    10  H   -0.000085  -0.000413  -0.007040   0.467945  -0.031498  -0.000370
    11  H   -0.000209   0.004609   0.005525  -0.031498   0.486271   0.001083
    12  H    0.006262   0.011310   0.015821  -0.000370   0.001083   0.725024
    13  H    0.001436   0.000722   0.024906  -0.000458  -0.003342   0.055646
    14  H    0.014287   0.000817   0.057158  -0.000038  -0.000107   0.038005
    15  H    0.005569   0.000642   0.007371  -0.000002  -0.000089   0.075981
              13         14         15
     1  C    0.005996  -0.004447  -0.001708
     2  C   -0.024414  -0.022368   0.011254
     3  N    0.022156   0.002047   0.000465
     4  C    0.067329   0.011521  -0.032488
     5  N   -0.183032  -0.880991  -0.861760
     6  H    0.000348   0.001038   0.000186
     7  H    0.001436   0.014287   0.005569
     8  H    0.000722   0.000817   0.000642
     9  H    0.024906   0.057158   0.007371
    10  H   -0.000458  -0.000038  -0.000002
    11  H   -0.003342  -0.000107  -0.000089
    12  H    0.055646   0.038005   0.075981
    13  H    0.749595   0.086618   0.081872
    14  H    0.086618   1.331740   0.415806
    15  H    0.081872   0.415806   1.339577
 Mulliken charges:
               1
     1  C   -0.304008
     2  C    0.067242
     3  N   -0.632223
     4  C   -0.089976
     5  N   -0.018875
     6  H    0.097104
     7  H    0.090880
     8  H    0.103618
     9  H    0.065722
    10  H    0.256728
    11  H    0.248617
    12  H    0.094314
    13  H    0.114621
    14  H   -0.051087
    15  H   -0.042676
 Sum of Mulliken charges =  -0.00000
 Mulliken charges with hydrogens summed into heavy atoms:
               1
     1  C   -0.012406
     2  C    0.132964
     3  N   -0.126878
     4  C    0.118959
     5  N   -0.112638
 Electronic spatial extent (au):  <R**2>=            526.1893
 Charge=              0.0000 electrons
 Dipole moment (field-independent basis, Debye):
    X=              1.7450    Y=              1.2697    Z=              1.3531  Tot=              2.5472
 Quadrupole moment (field-independent basis, Debye-Ang):
   XX=            -35.6121   YY=            -37.7249   ZZ=            -35.1677
   XY=              0.8080   XZ=              0.1278   YZ=             -1.4822
 Traceless Quadrupole moment (field-independent basis, Debye-Ang):
   XX=              0.5561   YY=             -1.5566   ZZ=              1.0005
   XY=              0.8080   XZ=              0.1278   YZ=             -1.4822
 Octapole moment (field-independent basis, Debye-Ang**2):
  XXX=             34.1887  YYY=              4.3780  ZZZ=              5.3599  XYY=             -2.1145
  XXY=              4.5268  XXZ=              0.7775  XZZ=              9.3837  YZZ=             -0.6776
  YYZ=              2.4403  XYZ=             -1.9930
 Hexadecapole moment (field-independent basis, Debye-Ang**3):
 XXXX=           -459.6009 YYYY=           -220.5009 ZZZZ=            -88.6393 XXXY=            -17.4084
 XXXZ=             -2.0754 YYYX=              1.3796 YYYZ=             -3.8331 ZZZX=             -3.0166
 ZZZY=             -1.4740 XXYY=           -116.5763 XXZZ=            -92.8390 YYZZ=            -49.9419
 XXYZ=             -3.1205 YYXZ=              1.9340 ZZXY=             -4.1265
 N-N= 1.939199539962D+02 E-N=-9.200238792971D+02  KE= 2.278436233776D+02
 Evaluate density.
 Using the total density.
 Monte-Carlo method of calculating molar volume:
 based on  0.001 e/bohr**3 density envelope.
 Number of points per bohr**3 =   20 CutOff= 1.00D-04
 Using the CI density.
 There are       323 points.  Will hold       323 in memory.
 LenV=   536813495 MDV=   536870912.
 Box volume = 4246.609 fraction occupied=0.211
 Integrated density= 2.8233345324234620D+01 error=-1.3766654675765380D+01
 Molar volume =  894.023 bohr**3/mol ( 79.782 cm**3/mol)
 Recommended a0 for SCRF calculation =  3.98 angstrom (  7.52 bohr)
 ******************************Gaussian NBO Version 3.1******************************
             N A T U R A L   A T O M I C   O R B I T A L   A N D
          N A T U R A L   B O N D   O R B I T A L   A N A L Y S I S
 ******************************Gaussian NBO Version 3.1******************************
       /RESON  / : Allow strongly delocalized NBO set

 Analyzing the CI density

 Job title: AOHJOMMDDJHIJH-VKHMYHEASA-N_conf_1                              

 Storage needed:     47690 in NPA ( 536869637 available)
 GSVD:  LWork=        8191 too small for GESVD, short by        6146 words or        6146 for optimal perf.


 NATURAL POPULATIONS:  Natural atomic orbital occupancies 
                                                          
   NAO  Atom  No  lang   Type(AO)    Occupancy
 --------------------------------------------
     1    C    1  S      Cor( 1S)     1.99940
     2    C    1  S      Val( 2S)     1.11493
     3    C    1  S      Ryd( 3S)     0.00048
     4    C    1  S      Ryd( 4S)     0.00002
     5    C    1  px     Val( 2p)     1.24783
     6    C    1  px     Ryd( 3p)     0.00201
     7    C    1  py     Val( 2p)     1.10490
     8    C    1  py     Ryd( 3p)     0.00203
     9    C    1  pz     Val( 2p)     1.23059
    10    C    1  pz     Ryd( 3p)     0.00125
    11    C    1  dxy    Ryd( 3d)     0.00079
    12    C    1  dxz    Ryd( 3d)     0.00036
    13    C    1  dyz    Ryd( 3d)     0.00030
    14    C    1  dx2y2  Ryd( 3d)     0.00044
    15    C    1  dz2    Ryd( 3d)     0.00090

    16    C    2  S      Cor( 1S)     1.99922
    17    C    2  S      Val( 2S)     0.96382
    18    C    2  S      Ryd( 3S)     0.00184
    19    C    2  S      Ryd( 4S)     0.00004
    20    C    2  px     Val( 2p)     0.92730
    21    C    2  px     Ryd( 3p)     0.00493
    22    C    2  py     Val( 2p)     0.97179
    23    C    2  py     Ryd( 3p)     0.00510
    24    C    2  pz     Val( 2p)     1.19599
    25    C    2  pz     Ryd( 3p)     0.00228
    26    C    2  dxy    Ryd( 3d)     0.00140
    27    C    2  dxz    Ryd( 3d)     0.00067
    28    C    2  dyz    Ryd( 3d)     0.00055
    29    C    2  dx2y2  Ryd( 3d)     0.00121
    30    C    2  dz2    Ryd( 3d)     0.00132

    31    N    3  S      Cor( 1S)     1.99966
    32    N    3  S      Val( 2S)     1.44410
    33    N    3  S      Ryd( 3S)     0.00056
    34    N    3  S      Ryd( 4S)     0.00001
    35    N    3  px     Val( 2p)     1.32554
    36    N    3  px     Ryd( 3p)     0.00219
    37    N    3  py     Val( 2p)     1.72289
    38    N    3  py     Ryd( 3p)     0.00557
    39    N    3  pz     Val( 2p)     1.42347
    40    N    3  pz     Ryd( 3p)     0.00270
    41    N    3  dxy    Ryd( 3d)     0.00134
    42    N    3  dxz    Ryd( 3d)     0.00031
    43    N    3  dyz    Ryd( 3d)     0.00088
    44    N    3  dx2y2  Ryd( 3d)     0.00097
    45    N    3  dz2    Ryd( 3d)     0.00109

    46    C    4  S      Cor( 1S)     1.99925
    47    C    4  S      Val( 2S)     1.06048
    48    C    4  S      Ryd( 3S)     0.00277
    49    C    4  S      Ryd( 4S)     0.00003
    50    C    4  px     Val( 2p)     0.93688
    51    C    4  px     Ryd( 3p)     0.01052
    52    C    4  py     Val( 2p)     1.13545
    53    C    4  py     Ryd( 3p)     0.00324
    54    C    4  pz     Val( 2p)     1.22537
    55    C    4  pz     Ryd( 3p)     0.00298
    56    C    4  dxy    Ryd( 3d)     0.00116
    57    C    4  dxz    Ryd( 3d)     0.00067
    58    C    4  dyz    Ryd( 3d)     0.00042
    59    C    4  dx2y2  Ryd( 3d)     0.00081
    60    C    4  dz2    Ryd( 3d)     0.00128

    61    N    5  S      Cor( 1S)     1.99934
    62    N    5  S      Val( 2S)     1.52832
    63    N    5  S      Ryd( 3S)     0.02055
    64    N    5  S      Ryd( 4S)     0.00003
    65    N    5  px     Val( 2p)     1.34096
    66    N    5  px     Ryd( 3p)     0.00364
    67    N    5  py     Val( 2p)     1.08313
    68    N    5  py     Ryd( 3p)     0.00000
    69    N    5  pz     Val( 2p)     1.40825
    70    N    5  pz     Ryd( 3p)     0.00189
    71    N    5  dxy    Ryd( 3d)     0.00072
    72    N    5  dxz    Ryd( 3d)     0.00033
    73    N    5  dyz    Ryd( 3d)     0.00031
    74    N    5  dx2y2  Ryd( 3d)     0.00001
    75    N    5  dz2    Ryd( 3d)     0.00050

    76    H    6  S      Val( 1S)     0.76720
    77    H    6  S      Ryd( 2S)     0.00467
    78    H    6  px     Ryd( 2p)     0.00025
    79    H    6  py     Ryd( 2p)     0.00012
    80    H    6  pz     Ryd( 2p)     0.00013

    81    H    7  S      Val( 1S)     0.76634
    82    H    7  S      Ryd( 2S)     0.00610
    83    H    7  px     Ryd( 2p)     0.00025
    84    H    7  py     Ryd( 2p)     0.00019
    85    H    7  pz     Ryd( 2p)     0.00010

    86    H    8  S      Val( 1S)     0.76667
    87    H    8  S      Ryd( 2S)     0.00297
    88    H    8  px     Ryd( 2p)     0.00009
    89    H    8  py     Ryd( 2p)     0.00008
    90    H    8  pz     Ryd( 2p)     0.00034

    91    H    9  S      Val( 1S)     0.76226
    92    H    9  S      Ryd( 2S)     0.02137
    93    H    9  px     Ryd( 2p)     0.00011
    94    H    9  py     Ryd( 2p)     0.00009
    95    H    9  pz     Ryd( 2p)     0.00040

    96    H   10  S      Val( 1S)     0.60179
    97    H   10  S      Ryd( 2S)     0.00117
    98    H   10  px     Ryd( 2p)     0.00050
    99    H   10  py     Ryd( 2p)     0.00053
   100    H   10  pz     Ryd( 2p)     0.00039

   101    H   11  S      Val( 1S)     0.61408
   102    H   11  S      Ryd( 2S)     0.00180
   103    H   11  px     Ryd( 2p)     0.00033
   104    H   11  py     Ryd( 2p)     0.00050
   105    H   11  pz     Ryd( 2p)     0.00059

   106    H   12  S      Val( 1S)     0.75749
   107    H   12  S      Ryd( 2S)     0.01937
   108    H   12  px     Ryd( 2p)     0.00007
   109    H   12  py     Ryd( 2p)     0.00008
   110    H   12  pz     Ryd( 2p)     0.00037

   111    H   13  S      Val( 1S)     0.70926
   112    H   13  S      Ryd( 2S)     0.02998
   113    H   13  px     Ryd( 2p)     0.00007
   114    H   13  py     Ryd( 2p)     0.00037
   115    H   13  pz     Ryd( 2p)     0.00011

   116    H   14  S      Val( 1S)     0.75031
   117    H   14  S      Ryd( 2S)     0.08997
   118    H   14  px     Ryd( 2p)     0.00024
   119    H   14  py     Ryd( 2p)     0.00019
   120    H   14  pz     Ryd( 2p)     0.00075

   121    H   15  S      Val( 1S)     0.74899
   122    H   15  S      Ryd( 2S)     0.08689
   123    H   15  px     Ryd( 2p)     0.00054
   124    H   15  py     Ryd( 2p)     0.00029
   125    H   15  pz     Ryd( 2p)     0.00031


 Summary of Natural Population Analysis:                  
                                                          
                                       Natural Population 
                Natural  -----------------------------------------------
    Atom  No    Charge         Core      Valence    Rydberg      Total
 -----------------------------------------------------------------------
      C    1   -0.70623      1.99940     4.69825    0.00858     6.70623
      C    2   -0.07746      1.99922     4.05890    0.01934     6.07746
      N    3   -0.93125      1.99966     5.91599    0.01560     7.93125
      C    4   -0.38131      1.99925     4.35818    0.02388     6.38131
      N    5   -0.38798      1.99934     5.36066    0.02799     7.38798
      H    6    0.22762      0.00000     0.76720    0.00518     0.77238
      H    7    0.22703      0.00000     0.76634    0.00663     0.77297
      H    8    0.22985      0.00000     0.76667    0.00348     0.77015
      H    9    0.21577      0.00000     0.76226    0.02197     0.78423
      H   10    0.39561      0.00000     0.60179    0.00260     0.60439
      H   11    0.38270      0.00000     0.61408    0.00323     0.61730
      H   12    0.22261      0.00000     0.75749    0.01990     0.77739
      H   13    0.26021      0.00000     0.70926    0.03053     0.73979
      H   14    0.15855      0.00000     0.75031    0.09114     0.84145
      H   15    0.16297      0.00000     0.74899    0.08804     0.83703
 =======================================================================
   * Total *   -0.00131      9.99687    31.63636    0.36807    42.00131

                                 Natural Population      
 --------------------------------------------------------
   Core                       9.99687 ( 99.9687% of  10)
   Valence                   31.63636 ( 98.8636% of  32)
   Natural Minimal Basis     41.63324 ( 99.1268% of  42)
   Natural Rydberg Basis      0.36807 (  0.8764% of  42)
 --------------------------------------------------------

    Atom  No          Natural Electron Configuration
 ----------------------------------------------------------------------------
      C    1      [core]2S( 1.11)2p( 3.58)3p( 0.01)
      C    2      [core]2S( 0.96)2p( 3.10)3p( 0.01)3d( 0.01)
      N    3      [core]2S( 1.44)2p( 4.47)3p( 0.01)
      C    4      [core]2S( 1.06)2p( 3.30)3p( 0.02)
      N    5      [core]2S( 1.53)2p( 3.83)3S( 0.02)
      H    6            1S( 0.77)
      H    7            1S( 0.77)2S( 0.01)
      H    8            1S( 0.77)
      H    9            1S( 0.76)2S( 0.02)
      H   10            1S( 0.60)
      H   11            1S( 0.61)
      H   12            1S( 0.76)2S( 0.02)
      H   13            1S( 0.71)2S( 0.03)
      H   14            1S( 0.75)2S( 0.09)
      H   15            1S( 0.75)2S( 0.09)


 NBO analysis skipped by request.
 1\1\GINC-CN33\SP\RB3LYP TD-FC\6-31G(d,p)\C3H10N2\QDUEZ\09-Jul-2024\0\\
 # TD(NStates=10, Root=1) B3LYP/6-31G** SCRF=(Solvent=water) volume pop
 =NPA density=current Geom=AllCheck Guess=Read\\AOHJOMMDDJHIJH-VKHMYHEA
 SA-N_conf_1\\0,1\C,0,-1.1452216991,-0.8644870384,-0.4653375213\C,0,-0.
 1525832858,0.3051427608,-0.4744691593\N,0,-0.7928333886,1.6346776634,-
 0.4705188653\C,0,0.8315277768,0.24611016,0.7035870475\N,0,1.6414237773
 ,-0.9800134108,0.6749757383\H,0,-1.8008912965,-0.8250290182,-1.3422353
 326\H,0,-0.6232669903,-1.8256242238,-0.4644640073\H,0,-1.7771880228,-0
 .8212667785,0.4309138777\H,0,0.439254425,0.2493057665,-1.4004086974\H,
 0,-1.4217927242,1.6963398893,-1.2700146178\H,0,-1.4036513412,1.6958422
 952,0.3451574459\H,0,0.2598874676,0.2501155669,1.6420671608\H,0,1.4259
 147466,1.1735882483,0.6906896883\H,0,2.2925601466,-0.9253908284,-0.107
 0580079\H,0,2.2268604086,-1.0093110523,1.5071152503\\Version=EM64L-G16
 RevA.03\State=1-A\HF=-229.8552752\RMSD=1.686e-09\Dipole=-0.9884192,-0.
 1363549,0.093373\Quadrupole=0.2768587,-1.3460631,1.0692045,-0.7157642,
 0.1651936,0.7486853\PG=C01 [X(C3H10N2)]\\@


 NOT WHAT WE DID SHALL BE THE TEST
 WHEN ACT AND WILL ARE DONE,
 BUT WHAT OUR LORD INFERS WE WOULD-
 HAD WE DIVINER BEEN.
           EMILY DICKINSON  POEMS NO. CLXXV
 Job cpu time:       0 days  0 hours 20 minutes 49.9 seconds.
 Elapsed time:       0 days  0 hours 18 minutes  9.1 seconds.
 File lengths (MBytes):  RWF=    191 Int=      0 D2E=      0 Chk=     11 Scr=      1
 Normal termination of Gaussian 16 at Tue Jul  9 18:36:45 2024.
