 Entering Gaussian System, Link 0=g16
 Initial command:
 /opt/sw/arch/manual/gaussian/G16_A03/g16/l1.exe "/scratch/1032110.jesse.materianova.be/Gau-38060.inp" -scrdir="/scratch/1032110.jesse.materianova.be/"
 Entering Link 1 = /opt/sw/arch/manual/gaussian/G16_A03/g16/l1.exe PID=     38061.
  
 Copyright (c) 1988,1990,1992,1993,1995,1998,2003,2009,2016,
            Gaussian, Inc.  All Rights Reserved.
  
 This is part of the Gaussian(R) 16 program.  It is based on
 the Gaussian(R) 09 system (copyright 2009, Gaussian, Inc.),
 the Gaussian(R) 03 system (copyright 2003, Gaussian, Inc.),
 the Gaussian(R) 98 system (copyright 1998, Gaussian, Inc.),
 the Gaussian(R) 94 system (copyright 1995, Gaussian, Inc.),
 the Gaussian 92(TM) system (copyright 1992, Gaussian, Inc.),
 the Gaussian 90(TM) system (copyright 1990, Gaussian, Inc.),
 the Gaussian 88(TM) system (copyright 1988, Gaussian, Inc.),
 the Gaussian 86(TM) system (copyright 1986, Carnegie Mellon
 University), and the Gaussian 82(TM) system (copyright 1983,
 Carnegie Mellon University). Gaussian is a federally registered
 trademark of Gaussian, Inc.
  
 This software contains proprietary and confidential information,
 including trade secrets, belonging to Gaussian, Inc.
  
 This software is provided under written license and may be
 used, copied, transmitted, or stored only in accord with that
 written license.
  
 The following legend is applicable only to US Government
 contracts under FAR:
  
                    RESTRICTED RIGHTS LEGEND
  
 Use, reproduction and disclosure by the US Government is
 subject to restrictions as set forth in subparagraphs (a)
 and (c) of the Commercial Computer Software - Restricted
 Rights clause in FAR 52.227-19.
  
 Gaussian, Inc.
 340 Quinnipiac St., Bldg. 40, Wallingford CT 06492
  
  
 ---------------------------------------------------------------
 Warning -- This program may not be used in any manner that
 competes with the business of Gaussian, Inc. or will provide
 assistance to any competitor of Gaussian, Inc.  The licensee
 of this program is prohibited from giving any competitor of
 Gaussian, Inc. access to this program.  By using this program,
 the user acknowledges that Gaussian, Inc. is engaged in the
 business of creating and licensing software in the field of
 computational chemistry and represents and warrants to the
 licensee that it is not a competitor of Gaussian, Inc. and that
 it will not use this program in any manner prohibited above.
 ---------------------------------------------------------------
  

 Cite this work as:
 Gaussian 16, Revision A.03,
 M. J. Frisch, G. W. Trucks, H. B. Schlegel, G. E. Scuseria, 
 M. A. Robb, J. R. Cheeseman, G. Scalmani, V. Barone, 
 G. A. Petersson, H. Nakatsuji, X. Li, M. Caricato, A. V. Marenich, 
 J. Bloino, B. G. Janesko, R. Gomperts, B. Mennucci, H. P. Hratchian, 
 J. V. Ortiz, A. F. Izmaylov, J. L. Sonnenberg, D. Williams-Young, 
 F. Ding, F. Lipparini, F. Egidi, J. Goings, B. Peng, A. Petrone, 
 T. Henderson, D. Ranasinghe, V. G. Zakrzewski, J. Gao, N. Rega, 
 G. Zheng, W. Liang, M. Hada, M. Ehara, K. Toyota, R. Fukuda, 
 J. Hasegawa, M. Ishida, T. Nakajima, Y. Honda, O. Kitao, H. Nakai, 
 T. Vreven, K. Throssell, J. A. Montgomery, Jr., J. E. Peralta, 
 F. Ogliaro, M. J. Bearpark, J. J. Heyd, E. N. Brothers, K. N. Kudin, 
 V. N. Staroverov, T. A. Keith, R. Kobayashi, J. Normand, 
 K. Raghavachari, A. P. Rendell, J. C. Burant, S. S. Iyengar, 
 J. Tomasi, M. Cossi, J. M. Millam, M. Klene, C. Adamo, R. Cammi, 
 J. W. Ochterski, R. L. Martin, K. Morokuma, O. Farkas, 
 J. B. Foresman, and D. J. Fox, Gaussian, Inc., Wallingford CT, 2016.
 
 ******************************************
 Gaussian 16:  EM64L-G16RevA.03 25-Dec-2016
                11-Jul-2024 
 ******************************************
 %nprocshared=3
 Will use up to    3 processors via shared memory.
 %mem=6GB
 %Chk=XTBLDMQMUSHDEN-UHFFFAOYSA-N_conf_1_0.chk
 -------------------------------------------------------
 # opt=CalcFc B3LYP/6-31G** SCRF=(Solvent=water) scf=xqc
 -------------------------------------------------------
 1/10=4,18=20,19=15,26=3,38=1/1,3;
 2/9=110,12=2,17=6,18=5,40=1/2;
 3/5=1,6=6,7=101,11=2,25=1,30=1,70=2201,71=2,72=1,74=-5,140=1/1,2,3;
 4//1;
 5/5=2,8=3,13=1,38=5,53=1/2,8;
 8/6=4,10=90,11=11/1;
 11/6=1,8=1,9=11,15=111,16=1/1,2,10;
 10/6=1,13=1/2;
 6/7=2,8=2,9=2,10=2,28=1/1;
 7/10=1,18=20,25=1/1,2,3,16;
 1/10=4,18=20,19=15,26=3/3(2);
 2/9=110/2;
 99//99;
 2/9=110/2;
 3/5=1,6=6,7=101,11=2,25=1,30=1,70=2205,71=1,72=1,74=-5/1,2,3;
 4/5=5,16=3,69=1/1;
 5/5=2,8=3,13=1,38=5,53=1/2,8;
 7//1,2,3,16;
 1/18=20,19=15,26=3/3(-5);
 2/9=110/2;
 6/7=2,8=2,9=2,10=2,19=2,28=1/1;
 99/9=1/99;
 ----------------------------------
 XTBLDMQMUSHDEN-UHFFFAOYSA-N_conf_1
 ----------------------------------
 Symbolic Z-matrix:
 Charge =  0 Multiplicity = 1
 N                    -2.93431  -0.9579   -1.19166 
 C                    -1.69995  -0.49552  -0.67716 
 C                    -1.6748    0.62698   0.17279 
 N                    -2.89073   1.18483   0.63374 
 C                    -0.45721   1.05215   0.71047 
 C                     0.75591   0.48733   0.28322 
 C                     1.98919   0.93611   0.78397 
 C                     3.18774   0.38106   0.33279 
 C                     3.16932  -0.62871  -0.62449 
 C                     1.95207  -1.08964  -1.12846 
 C                     0.73675  -0.54548  -0.68122 
 C                    -0.49681  -1.01498  -1.16194 
 H                    -2.87793  -1.91812  -1.517 
 H                    -3.65263  -0.85993  -0.47546 
 H                    -2.7741    2.1383    0.96285 
 H                    -3.58257   1.14178  -0.11328 
 H                    -0.44973   1.84991   1.44825 
 H                     2.02448   1.72812   1.52867 
 H                     4.13464   0.73979   0.72764 
 H                     4.10178  -1.06065  -0.97826 
 H                     1.95812  -1.88327  -1.87226 
 H                    -0.51922  -1.81215  -1.90005 
 

 GradGradGradGradGradGradGradGradGradGradGradGradGradGradGradGradGradGrad
 Berny optimization.
 Initialization pass.
                           ----------------------------
                           !    Initial Parameters    !
                           ! (Angstroms and Degrees)  !
 --------------------------                            --------------------------
 ! Name  Definition              Value          Derivative Info.                !
 --------------------------------------------------------------------------------
 ! R1    R(1,2)                  1.415          calculate D2E/DX2 analytically  !
 ! R2    R(1,13)                 1.0154         calculate D2E/DX2 analytically  !
 ! R3    R(1,14)                 1.0191         calculate D2E/DX2 analytically  !
 ! R4    R(2,3)                  1.4082         calculate D2E/DX2 analytically  !
 ! R5    R(2,12)                 1.3973         calculate D2E/DX2 analytically  !
 ! R6    R(3,4)                  1.415          calculate D2E/DX2 analytically  !
 ! R7    R(3,5)                  1.3973         calculate D2E/DX2 analytically  !
 ! R8    R(4,15)                 1.0154         calculate D2E/DX2 analytically  !
 ! R9    R(4,16)                 1.0191         calculate D2E/DX2 analytically  !
 ! R10   R(5,6)                  1.4047         calculate D2E/DX2 analytically  !
 ! R11   R(5,17)                 1.0866         calculate D2E/DX2 analytically  !
 ! R12   R(6,7)                  1.4047         calculate D2E/DX2 analytically  !
 ! R13   R(6,11)                 1.4132         calculate D2E/DX2 analytically  !
 ! R14   R(7,8)                  1.3958         calculate D2E/DX2 analytically  !
 ! R15   R(7,18)                 1.0877         calculate D2E/DX2 analytically  !
 ! R16   R(8,9)                  1.3915         calculate D2E/DX2 analytically  !
 ! R17   R(8,19)                 1.0868         calculate D2E/DX2 analytically  !
 ! R18   R(9,10)                 1.3958         calculate D2E/DX2 analytically  !
 ! R19   R(9,20)                 1.0868         calculate D2E/DX2 analytically  !
 ! R20   R(10,11)                1.4047         calculate D2E/DX2 analytically  !
 ! R21   R(10,21)                1.0877         calculate D2E/DX2 analytically  !
 ! R22   R(11,12)                1.4047         calculate D2E/DX2 analytically  !
 ! R23   R(12,22)                1.0866         calculate D2E/DX2 analytically  !
 ! A1    A(2,1,13)             112.1532         calculate D2E/DX2 analytically  !
 ! A2    A(2,1,14)             109.1436         calculate D2E/DX2 analytically  !
 ! A3    A(13,1,14)            110.8077         calculate D2E/DX2 analytically  !
 ! A4    A(1,2,3)              119.7044         calculate D2E/DX2 analytically  !
 ! A5    A(1,2,12)             120.2324         calculate D2E/DX2 analytically  !
 ! A6    A(3,2,12)             119.3645         calculate D2E/DX2 analytically  !
 ! A7    A(2,3,4)              119.7044         calculate D2E/DX2 analytically  !
 ! A8    A(2,3,5)              119.3646         calculate D2E/DX2 analytically  !
 ! A9    A(4,3,5)              120.2323         calculate D2E/DX2 analytically  !
 ! A10   A(3,4,15)             112.1532         calculate D2E/DX2 analytically  !
 ! A11   A(3,4,16)             109.1437         calculate D2E/DX2 analytically  !
 ! A12   A(15,4,16)            110.8078         calculate D2E/DX2 analytically  !
 ! A13   A(3,5,6)              120.8746         calculate D2E/DX2 analytically  !
 ! A14   A(3,5,17)             119.3829         calculate D2E/DX2 analytically  !
 ! A15   A(6,5,17)             119.7199         calculate D2E/DX2 analytically  !
 ! A16   A(5,6,7)              121.4222         calculate D2E/DX2 analytically  !
 ! A17   A(5,6,11)             119.3217         calculate D2E/DX2 analytically  !
 ! A18   A(7,6,11)             119.253          calculate D2E/DX2 analytically  !
 ! A19   A(6,7,8)              120.7734         calculate D2E/DX2 analytically  !
 ! A20   A(6,7,18)             120.344          calculate D2E/DX2 analytically  !
 ! A21   A(8,7,18)             118.8818         calculate D2E/DX2 analytically  !
 ! A22   A(7,8,9)              119.9718         calculate D2E/DX2 analytically  !
 ! A23   A(7,8,19)             119.9639         calculate D2E/DX2 analytically  !
 ! A24   A(9,8,19)             120.0641         calculate D2E/DX2 analytically  !
 ! A25   A(8,9,10)             119.9718         calculate D2E/DX2 analytically  !
 ! A26   A(8,9,20)             120.0642         calculate D2E/DX2 analytically  !
 ! A27   A(10,9,20)            119.9639         calculate D2E/DX2 analytically  !
 ! A28   A(9,10,11)            120.7735         calculate D2E/DX2 analytically  !
 ! A29   A(9,10,21)            118.8818         calculate D2E/DX2 analytically  !
 ! A30   A(11,10,21)           120.3441         calculate D2E/DX2 analytically  !
 ! A31   A(6,11,10)            119.253          calculate D2E/DX2 analytically  !
 ! A32   A(6,11,12)            119.3217         calculate D2E/DX2 analytically  !
 ! A33   A(10,11,12)           121.4222         calculate D2E/DX2 analytically  !
 ! A34   A(2,12,11)            120.8746         calculate D2E/DX2 analytically  !
 ! A35   A(2,12,22)            119.3828         calculate D2E/DX2 analytically  !
 ! A36   A(11,12,22)           119.7199         calculate D2E/DX2 analytically  !
 ! D1    D(13,1,2,3)          -160.7143         calculate D2E/DX2 analytically  !
 ! D2    D(13,1,2,12)           28.923          calculate D2E/DX2 analytically  !
 ! D3    D(14,1,2,3)           -37.5303         calculate D2E/DX2 analytically  !
 ! D4    D(14,1,2,12)          152.107          calculate D2E/DX2 analytically  !
 ! D5    D(1,2,3,4)              7.5542         calculate D2E/DX2 analytically  !
 ! D6    D(1,2,3,5)            178.0013         calculate D2E/DX2 analytically  !
 ! D7    D(12,2,3,4)           178.0009         calculate D2E/DX2 analytically  !
 ! D8    D(12,2,3,5)           -11.5519         calculate D2E/DX2 analytically  !
 ! D9    D(1,2,12,11)          178.6343         calculate D2E/DX2 analytically  !
 ! D10   D(1,2,12,22)           -3.1025         calculate D2E/DX2 analytically  !
 ! D11   D(3,2,12,11)            8.239          calculate D2E/DX2 analytically  !
 ! D12   D(3,2,12,22)         -173.4978         calculate D2E/DX2 analytically  !
 ! D13   D(2,3,4,15)          -160.7143         calculate D2E/DX2 analytically  !
 ! D14   D(2,3,4,16)           -37.53           calculate D2E/DX2 analytically  !
 ! D15   D(5,3,4,15)            28.9226         calculate D2E/DX2 analytically  !
 ! D16   D(5,3,4,16)           152.1068         calculate D2E/DX2 analytically  !
 ! D17   D(2,3,5,6)              8.2386         calculate D2E/DX2 analytically  !
 ! D18   D(2,3,5,17)          -173.4983         calculate D2E/DX2 analytically  !
 ! D19   D(4,3,5,6)            178.6344         calculate D2E/DX2 analytically  !
 ! D20   D(4,3,5,17)            -3.1025         calculate D2E/DX2 analytically  !
 ! D21   D(3,5,6,7)            177.8989         calculate D2E/DX2 analytically  !
 ! D22   D(3,5,6,11)            -1.4516         calculate D2E/DX2 analytically  !
 ! D23   D(17,5,6,7)            -0.3584         calculate D2E/DX2 analytically  !
 ! D24   D(17,5,6,11)         -179.7089         calculate D2E/DX2 analytically  !
 ! D25   D(5,6,7,8)           -178.8804         calculate D2E/DX2 analytically  !
 ! D26   D(5,6,7,18)             0.8159         calculate D2E/DX2 analytically  !
 ! D27   D(11,6,7,8)             0.4706         calculate D2E/DX2 analytically  !
 ! D28   D(11,6,7,18)         -179.8331         calculate D2E/DX2 analytically  !
 ! D29   D(5,6,11,10)          178.654          calculate D2E/DX2 analytically  !
 ! D30   D(5,6,11,12)           -1.9812         calculate D2E/DX2 analytically  !
 ! D31   D(7,6,11,10)           -0.7108         calculate D2E/DX2 analytically  !
 ! D32   D(7,6,11,12)          178.6541         calculate D2E/DX2 analytically  !
 ! D33   D(6,7,8,9)              0.0253         calculate D2E/DX2 analytically  !
 ! D34   D(6,7,8,19)           179.8661         calculate D2E/DX2 analytically  !
 ! D35   D(18,7,8,9)          -179.6754         calculate D2E/DX2 analytically  !
 ! D36   D(18,7,8,19)            0.1654         calculate D2E/DX2 analytically  !
 ! D37   D(7,8,9,10)            -0.276          calculate D2E/DX2 analytically  !
 ! D38   D(7,8,9,20)           179.8833         calculate D2E/DX2 analytically  !
 ! D39   D(19,8,9,10)          179.8833         calculate D2E/DX2 analytically  !
 ! D40   D(19,8,9,20)            0.0426         calculate D2E/DX2 analytically  !
 ! D41   D(8,9,10,11)            0.0252         calculate D2E/DX2 analytically  !
 ! D42   D(8,9,10,21)         -179.6753         calculate D2E/DX2 analytically  !
 ! D43   D(20,9,10,11)         179.866          calculate D2E/DX2 analytically  !
 ! D44   D(20,9,10,21)           0.1655         calculate D2E/DX2 analytically  !
 ! D45   D(9,10,11,6)            0.4706         calculate D2E/DX2 analytically  !
 ! D46   D(9,10,11,12)        -178.8804         calculate D2E/DX2 analytically  !
 ! D47   D(21,10,11,6)        -179.8332         calculate D2E/DX2 analytically  !
 ! D48   D(21,10,11,12)          0.8157         calculate D2E/DX2 analytically  !
 ! D49   D(6,11,12,2)           -1.452          calculate D2E/DX2 analytically  !
 ! D50   D(6,11,12,22)        -179.7094         calculate D2E/DX2 analytically  !
 ! D51   D(10,11,12,2)         177.8986         calculate D2E/DX2 analytically  !
 ! D52   D(10,11,12,22)         -0.3588         calculate D2E/DX2 analytically  !
 --------------------------------------------------------------------------------
 Trust Radius=3.00D-01 FncErr=1.00D-07 GrdErr=1.00D-06 EigMax=2.50D+02 EigMin=1.00D-04
 Number of steps in this run=    121 maximum allowed number of steps=    132.
 GradGradGradGradGradGradGradGradGradGradGradGradGradGradGradGradGradGrad

                          Input orientation:                          
 ---------------------------------------------------------------------
 Center     Atomic      Atomic             Coordinates (Angstroms)
 Number     Number       Type             X           Y           Z
 ---------------------------------------------------------------------
      1          7           0       -2.934312   -0.957904   -1.191661
      2          6           0       -1.699953   -0.495519   -0.677162
      3          6           0       -1.674799    0.626983    0.172789
      4          7           0       -2.890732    1.184826    0.633737
      5          6           0       -0.457206    1.052150    0.710467
      6          6           0        0.755906    0.487333    0.283221
      7          6           0        1.989186    0.936107    0.783972
      8          6           0        3.187740    0.381060    0.332794
      9          6           0        3.169325   -0.628709   -0.624487
     10          6           0        1.952066   -1.089643   -1.128461
     11          6           0        0.736748   -0.545480   -0.681222
     12          6           0       -0.496814   -1.014983   -1.161940
     13          1           0       -2.877932   -1.918116   -1.516996
     14          1           0       -3.652628   -0.859925   -0.475464
     15          1           0       -2.774102    2.138298    0.962852
     16          1           0       -3.582565    1.141780   -0.113277
     17          1           0       -0.449734    1.849905    1.448246
     18          1           0        2.024482    1.728120    1.528673
     19          1           0        4.134641    0.739789    0.727637
     20          1           0        4.101784   -1.060653   -0.978256
     21          1           0        1.958121   -1.883269   -1.872258
     22          1           0       -0.519219   -1.812150   -1.900052
 ---------------------------------------------------------------------
                    Distance matrix (angstroms):
                    1          2          3          4          5
     1  N    0.000000
     2  C    1.414974   0.000000
     3  C    2.441304   1.408212   0.000000
     4  N    2.815185   2.441304   1.414974   0.000000
     5  C    3.714089   2.421820   1.397282   2.438347   0.000000
     6  C    4.228675   2.814174   2.437217   3.729252   1.404705
     7  C    5.633049   4.218319   3.727451   4.888562   2.450246
     8  C    6.449521   5.067342   4.871383   6.138765   3.725404
     9  C    6.138765   4.871384   5.067341   6.449521   4.214156
    10  C    4.888562   3.727452   4.218318   5.633049   3.711269
    11  C    3.729253   2.437217   2.814173   4.228675   2.432026
    12  C    2.438347   1.397281   2.421818   3.714088   2.789357
    13  H    1.015397   2.028975   3.283357   3.775456   4.432154
    14  H    1.019076   1.996600   2.557916   2.447819   3.908092
    15  H    3.775455   3.283358   2.028975   1.015396   2.571269
    16  H    2.447818   2.557917   1.996602   1.019076   3.233335
    17  H    4.585415   3.403149   2.150143   2.657862   1.086641
    18  H    6.261356   4.866385   4.090918   5.025476   2.699106
    19  H    7.519040   6.127147   5.836966   7.040081   4.602491
    20  H    7.040081   5.836967   6.127147   7.519040   5.300954
    21  H    5.025477   4.090918   4.866384   6.261357   4.595754
    22  H    2.657862   2.150142   3.403147   4.585414   3.875935
                    6          7          8          9         10
     6  C    0.000000
     7  C    1.404682   0.000000
     8  C    2.434661   1.395768   0.000000
     9  C    2.809639   2.413530   1.391531   0.000000
    10  C    2.431151   2.786115   2.413529   1.395768   0.000000
    11  C    1.413231   2.431151   2.809639   2.434661   1.404682
    12  C    2.432026   3.711269   4.214156   3.725404   2.450247
    13  H    4.715055   6.093430   6.745393   6.247276   4.915914
    14  H    4.671817   6.053262   6.998854   6.827496   5.647279
    15  H    3.955824   4.915911   6.247274   6.745391   6.093428
    16  H    4.405433   5.647280   6.827497   6.998856   6.053262
    17  H    2.160429   2.687865   4.078352   4.851529   4.587919
    18  H    2.167946   1.087709   2.144264   3.391372   3.873679
    19  H    3.417176   2.155154   1.086834   2.152408   3.399346
    20  H    3.896471   3.399347   2.152409   1.086834   2.155154
    21  H    3.422158   3.873680   3.391372   2.144264   1.087710
    22  H    3.417638   4.587919   4.851528   4.078352   2.687865
                   11         12         13         14         15
    11  C    0.000000
    12  C    1.404706   0.000000
    13  H    3.955826   2.571272   0.000000
    14  H    4.405432   3.233334   1.674727   0.000000
    15  H    4.715053   4.432151   4.755516   3.439463   0.000000
    16  H    4.671817   3.908091   3.439462   2.035414   1.674729
    17  H    3.417638   3.875935   5.374644   4.615449   2.391959
    18  H    3.422157   4.595753   6.826771   6.553176   4.849207
    19  H    3.896470   5.300953   7.828092   8.040404   7.052793
    20  H    3.417177   4.602492   7.052795   7.773287   7.828090
    21  H    2.167948   2.699108   4.849210   5.871863   6.826771
    22  H    2.160429   1.086640   2.391963   3.571335   5.374641
                   16         17         18         19         20
    16  H    0.000000
    17  H    3.571335   0.000000
    18  H    5.871863   2.478516   0.000000
    19  H    7.773288   4.771595   2.463986   0.000000
    20  H    8.040405   5.922463   4.286855   2.480472   0.000000
    21  H    6.553178   5.546179   4.961136   4.286855   2.463986
    22  H    4.615448   4.962517   5.546178   5.922462   4.771596
                   21         22
    21  H    0.000000
    22  H    2.478517   0.000000
 Stoichiometry    C10H10N2
 Framework group  C1[X(C10H10N2)]
 Deg. of freedom    60
 Full point group                 C1      NOp   1
 Largest Abelian subgroup         C1      NOp   1
 Largest concise Abelian subgroup C1      NOp   1
                         Standard orientation:                         
 ---------------------------------------------------------------------
 Center     Atomic      Atomic             Coordinates (Angstroms)
 Number     Number       Type             X           Y           Z
 ---------------------------------------------------------------------
      1          7           0       -2.943558   -1.407572    0.007478
      2          6           0       -1.717191   -0.702716    0.044234
      3          6           0       -1.717190    0.702715   -0.044231
      4          7           0       -2.943558    1.407573   -0.007478
      5          6           0       -0.505618    1.394239    0.035034
      6          6           0        0.718939    0.706042    0.028472
      7          6           0        1.944459    1.391599    0.063727
      8          6           0        3.153570    0.694969    0.033282
      9          6           0        3.153570   -0.694969   -0.033281
     10          6           0        1.944459   -1.391599   -0.063727
     11          6           0        0.718939   -0.706041   -0.028473
     12          6           0       -0.505618   -1.394238   -0.035036
     13          1           0       -2.856968   -2.346512    0.384207
     14          1           0       -3.649335   -0.877017    0.516305
     15          1           0       -2.856966    2.346512   -0.384207
     16          1           0       -3.649336    0.877017   -0.516303
     17          1           0       -0.513091    2.480159    0.073897
     18          1           0        1.965155    2.478109    0.110408
     19          1           0        4.094187    1.238832    0.058978
     20          1           0        4.094187   -1.238834   -0.058976
     21          1           0        1.965156   -2.478110   -0.110406
     22          1           0       -0.513092   -2.480157   -0.073908
 ---------------------------------------------------------------------
 Rotational constants (GHZ):           2.2397283           0.6757713           0.5202990
 Standard basis: 6-31G(d,p) (6D, 7F)
 There are   230 symmetry adapted cartesian basis functions of A   symmetry.
 There are   230 symmetry adapted basis functions of A   symmetry.
   230 basis functions,   406 primitive gaussians,   230 cartesian basis functions
    42 alpha electrons       42 beta electrons
       nuclear repulsion energy       642.6631176067 Hartrees.
 NAtoms=   22 NActive=   22 NUniq=   22 SFac= 1.00D+00 NAtFMM=   60 NAOKFM=F Big=F
 Integral buffers will be    131072 words long.
 Raffenetti 2 integral format.
 Two-electron integral symmetry is turned on.
 Force inversion solution in PCM.
 ------------------------------------------------------------------------------
 Polarizable Continuum Model (PCM)
 =================================
 Model                : PCM.
 Atomic radii         : UFF (Universal Force Field).
 Polarization charges : Total charges.
 Charge compensation  : None.
 Solution method      : Matrix inversion.
 Cavity type          : Scaled VdW (van der Waals Surface) (Alpha=1.100).
 Cavity algorithm     : GePol (No added spheres)
                        Default sphere list used, NSphG=   22.
                        Lebedev-Laikov grids with approx.  5.0 points / Ang**2.
                        Smoothing algorithm: York/Karplus (Gamma=1.0000).
                        Polarization charges: spherical gaussians, with
                                              point-specific exponents (IZeta= 3).
                        Self-potential: point-specific (ISelfS= 7).
                        Self-field    : sphere-specific E.n sum rule (ISelfD= 2).
 1st derivatives      : Analytical E(r).r(x)/FMM algorithm (CHGder, D1EAlg=3).
                        Cavity 1st derivative terms included.
 2nd derivatives      : Analytical E(r).r(xy)/FMM algorithm (CHGder, D2EAlg=3).
                        Cavity 2nd derivative terms included.
 Solvent              : Water, Eps=  78.355300 Eps(inf)=   1.777849
 ------------------------------------------------------------------------------
 One-electron integrals computed using PRISM.
 NBasis=   230 RedAO= T EigKep=  2.84D-04  NBF=   230
 NBsUse=   230 1.00D-06 EigRej= -1.00D+00 NBFU=   230
 ExpMin= 1.61D-01 ExpMax= 4.17D+03 ExpMxC= 6.27D+02 IAcc=3 IRadAn=         5 AccDes= 0.00D+00
 Harris functional with IExCor=  402 and IRadAn=       5 diagonalized for initial guess.
 HarFok:  IExCor=  402 AccDes= 0.00D+00 IRadAn=         5 IDoV= 1 UseB2=F ITyADJ=14
 ICtDFT=  3500011 ScaDFX=  1.000000  1.000000  1.000000  1.000000
 FoFCou: FMM=F IPFlag=           0 FMFlag=      100000 FMFlg1=           0
         NFxFlg=           0 DoJE=T BraDBF=F KetDBF=T FulRan=T
         wScrn=  0.000000 ICntrl=       500 IOpCl=  0 I1Cent=   200000004 NGrid=           0
         NMat0=    1 NMatS0=      1 NMatT0=    0 NMatD0=    1 NMtDS0=    0 NMtDT0=    0
 Petite list used in FoFCou.
 Keep R1 ints in memory in canonical form, NReq=359027436.
 Requested convergence on RMS density matrix=1.00D-08 within  32 cycles.
 Requested convergence on MAX density matrix=1.00D-06.
 Requested convergence on             energy=1.00D-06.
 No special actions if energy rises.
 Inv3:  Mode=1 IEnd=     8426928.
 Iteration    1 A*A^-1 deviation from unit magnitude is 6.33D-15 for   1628.
 Iteration    1 A*A^-1 deviation from orthogonality  is 4.28D-15 for   1429    680.
 Iteration    1 A^-1*A deviation from unit magnitude is 6.44D-15 for    669.
 Iteration    1 A^-1*A deviation from orthogonality  is 3.51D-15 for   1444    666.
 Error on total polarization charges =  0.00871
 SCF Done:  E(RB3LYP) =  -496.626868009     A.U. after   12 cycles
            NFock= 12  Conv=0.72D-08     -V/T= 2.0095
 QCSCF skips out because SCF is already converged.
 DoSCS=F DFT=T ScalE2(SS,OS)=  1.000000  1.000000
 Range of M.O.s used for correlation:     1   230
 NBasis=   230 NAE=    42 NBE=    42 NFC=     0 NFV=     0
 NROrb=    230 NOA=    42 NOB=    42 NVA=   188 NVB=   188

 **** Warning!!: The largest alpha MO coefficient is  0.12593510D+02

 Symmetrizing basis deriv contribution to polar:
 IMax=3 JMax=2 DiffMx= 0.00D+00
 G2DrvN: will do    23 centers at a time, making    1 passes.
 Calling FoFCou, ICntrl=  3107 FMM=F I1Cent=   0 AccDes= 0.00D+00.
 NEqPCM:  Using equilibrium solvation (IEInf=0, Eps=  78.3553, EpsInf=   1.7778)
 G2PCM: DoFxE=T DoFxN=T DoGrad=T DoDP/DQ/DG/TGxP=FFFF NFrqRd=   0 IEInf=0 SqF1=F DoCFld=F IF1Alg=4.
 End of G2Drv F.D. properties file   721 does not exist.
 End of G2Drv F.D. properties file   722 does not exist.
 End of G2Drv F.D. properties file   788 does not exist.
          IDoAtm=1111111111111111111111
 NEqPCM:  Using equilibrium solvation (IEInf=0, Eps=  78.3553, EpsInf=   1.7778)
          Differentiating once with respect to nuclear coordinates.
 Keep R1 ints in memory in canonical form, NReq=360580420.
          There are    69 degrees of freedom in the 1st order CPHF.  IDoFFX=6 NUNeed=     0.
     63 vectors produced by pass  0 Test12= 1.14D-14 1.45D-09 XBig12= 1.29D-01 1.64D-01.
 AX will form    63 AO Fock derivatives at one time.
     63 vectors produced by pass  1 Test12= 1.14D-14 1.45D-09 XBig12= 2.63D-02 5.09D-02.
     63 vectors produced by pass  2 Test12= 1.14D-14 1.45D-09 XBig12= 2.53D-04 2.91D-03.
     63 vectors produced by pass  3 Test12= 1.14D-14 1.45D-09 XBig12= 9.25D-07 9.12D-05.
     63 vectors produced by pass  4 Test12= 1.14D-14 1.45D-09 XBig12= 1.30D-09 3.14D-06.
     46 vectors produced by pass  5 Test12= 1.14D-14 1.45D-09 XBig12= 1.14D-12 1.06D-07.
      7 vectors produced by pass  6 Test12= 1.14D-14 1.45D-09 XBig12= 1.05D-15 2.88D-09.
 InvSVY:  IOpt=1 It=  1 EMax= 7.22D-16
 Solved reduced A of dimension   368 with    69 vectors.
 End of Minotr F.D. properties file   721 does not exist.
 End of Minotr F.D. properties file   722 does not exist.
 End of Minotr F.D. properties file   788 does not exist.

 **********************************************************************

            Population analysis using the SCF density.

 **********************************************************************

 Orbital symmetries:
       Occupied  (A) (A) (A) (A) (A) (A) (A) (A) (A) (A) (A) (A)
                 (A) (A) (A) (A) (A) (A) (A) (A) (A) (A) (A) (A)
                 (A) (A) (A) (A) (A) (A) (A) (A) (A) (A) (A) (A)
                 (A) (A) (A) (A) (A) (A)
       Virtual   (A) (A) (A) (A) (A) (A) (A) (A) (A) (A) (A) (A)
                 (A) (A) (A) (A) (A) (A) (A) (A) (A) (A) (A) (A)
                 (A) (A) (A) (A) (A) (A) (A) (A) (A) (A) (A) (A)
                 (A) (A) (A) (A) (A) (A) (A) (A) (A) (A) (A) (A)
                 (A) (A) (A) (A) (A) (A) (A) (A) (A) (A) (A) (A)
                 (A) (A) (A) (A) (A) (A) (A) (A) (A) (A) (A) (A)
                 (A) (A) (A) (A) (A) (A) (A) (A) (A) (A) (A) (A)
                 (A) (A) (A) (A) (A) (A) (A) (A) (A) (A) (A) (A)
                 (A) (A) (A) (A) (A) (A) (A) (A) (A) (A) (A) (A)
                 (A) (A) (A) (A) (A) (A) (A) (A) (A) (A) (A) (A)
                 (A) (A) (A) (A) (A) (A) (A) (A) (A) (A) (A) (A)
                 (A) (A) (A) (A) (A) (A) (A) (A) (A) (A) (A) (A)
                 (A) (A) (A) (A) (A) (A) (A) (A) (A) (A) (A) (A)
                 (A) (A) (A) (A) (A) (A) (A) (A) (A) (A) (A) (A)
                 (A) (A) (A) (A) (A) (A) (A) (A) (A) (A) (A) (A)
                 (A) (A) (A) (A) (A) (A) (A) (A)
 The electronic state is 1-A.
 Alpha  occ. eigenvalues --  -14.34128 -14.34128 -10.22701 -10.22651 -10.18732
 Alpha  occ. eigenvalues --  -10.18685 -10.18263 -10.18261 -10.18158 -10.18105
 Alpha  occ. eigenvalues --  -10.18060 -10.18059  -0.93566  -0.89026  -0.86299
 Alpha  occ. eigenvalues --   -0.79826  -0.76363  -0.72204  -0.70106  -0.62883
 Alpha  occ. eigenvalues --   -0.59783  -0.59673  -0.53667  -0.51186  -0.50539
 Alpha  occ. eigenvalues --   -0.47956  -0.47783  -0.44198  -0.43753  -0.42170
 Alpha  occ. eigenvalues --   -0.40725  -0.40613  -0.39775  -0.37233  -0.36015
 Alpha  occ. eigenvalues --   -0.33636  -0.33108  -0.32012  -0.28305  -0.26882
 Alpha  occ. eigenvalues --   -0.20126  -0.19395
 Alpha virt. eigenvalues --   -0.03290   0.01071   0.03566   0.07265   0.10768
 Alpha virt. eigenvalues --    0.11245   0.11513   0.13567   0.14041   0.15472
 Alpha virt. eigenvalues --    0.16431   0.18222   0.18381   0.20996   0.21413
 Alpha virt. eigenvalues --    0.25037   0.25451   0.29440   0.30157   0.33657
 Alpha virt. eigenvalues --    0.34038   0.34438   0.36135   0.39204   0.50486
 Alpha virt. eigenvalues --    0.50498   0.51026   0.51842   0.52934   0.53266
 Alpha virt. eigenvalues --    0.54997   0.55283   0.56731   0.57808   0.58522
 Alpha virt. eigenvalues --    0.60080   0.60377   0.61482   0.61866   0.62373
 Alpha virt. eigenvalues --    0.62821   0.62934   0.64091   0.66848   0.68163
 Alpha virt. eigenvalues --    0.68403   0.69962   0.71225   0.76713   0.78080
 Alpha virt. eigenvalues --    0.80842   0.81490   0.81742   0.82425   0.82964
 Alpha virt. eigenvalues --    0.83368   0.84429   0.86079   0.86467   0.86918
 Alpha virt. eigenvalues --    0.88914   0.91629   0.93070   0.95626   0.96062
 Alpha virt. eigenvalues --    0.96070   0.97350   0.99619   1.01566   1.04287
 Alpha virt. eigenvalues --    1.07504   1.07506   1.09611   1.15149   1.16936
 Alpha virt. eigenvalues --    1.18138   1.21787   1.25541   1.27808   1.30088
 Alpha virt. eigenvalues --    1.31297   1.34691   1.34893   1.36478   1.39280
 Alpha virt. eigenvalues --    1.39646   1.41777   1.42186   1.44393   1.46619
 Alpha virt. eigenvalues --    1.48909   1.52498   1.63783   1.67835   1.73404
 Alpha virt. eigenvalues --    1.76862   1.79651   1.81424   1.81548   1.82450
 Alpha virt. eigenvalues --    1.83263   1.84782   1.86862   1.87605   1.87900
 Alpha virt. eigenvalues --    1.88535   1.90715   1.93275   1.96064   1.97784
 Alpha virt. eigenvalues --    2.00036   2.00661   2.01242   2.02784   2.06599
 Alpha virt. eigenvalues --    2.09419   2.10204   2.11604   2.18446   2.20449
 Alpha virt. eigenvalues --    2.24335   2.25890   2.26006   2.27822   2.29318
 Alpha virt. eigenvalues --    2.30396   2.30822   2.32031   2.33393   2.35312
 Alpha virt. eigenvalues --    2.38127   2.38977   2.39909   2.44251   2.44671
 Alpha virt. eigenvalues --    2.45445   2.46370   2.47822   2.52497   2.52879
 Alpha virt. eigenvalues --    2.55173   2.55524   2.57338   2.59145   2.61393
 Alpha virt. eigenvalues --    2.62595   2.64267   2.65885   2.69379   2.70547
 Alpha virt. eigenvalues --    2.74644   2.75351   2.77595   2.81603   2.83428
 Alpha virt. eigenvalues --    2.83782   2.92747   2.95378   2.96771   3.01106
 Alpha virt. eigenvalues --    3.06150   3.09902   3.15831   3.20494   3.24697
 Alpha virt. eigenvalues --    3.26119   3.29157   3.29276   3.31643   3.39685
 Alpha virt. eigenvalues --    3.43159   3.47798   3.48964   3.49280   3.70417
 Alpha virt. eigenvalues --    3.88293   4.01457   4.12305   4.13117   4.13940
 Alpha virt. eigenvalues --    4.16163   4.16184   4.19821   4.35381   4.42269
 Alpha virt. eigenvalues --    4.50826   4.64230   4.93335
          Condensed to atoms (all electrons):
               1          2          3          4          5          6
     1  N    6.864001   0.275537  -0.063842  -0.013709   0.004281   0.000859
     2  C    0.275537   4.768986   0.475400  -0.063842  -0.023069  -0.036966
     3  C   -0.063842   0.475400   4.768985   0.275537   0.473178   0.001281
     4  N   -0.013709  -0.063842   0.275537   6.864001  -0.064033   0.002622
     5  C    0.004281  -0.023069   0.473178  -0.064033   5.221763   0.429771
     6  C    0.000859  -0.036966   0.001281   0.002622   0.429771   4.729959
     7  C    0.000004  -0.000464   0.008593  -0.000145  -0.094289   0.445959
     8  C   -0.000000   0.000056  -0.000381   0.000001   0.008142  -0.010425
     9  C    0.000001  -0.000381   0.000056  -0.000000  -0.000625  -0.039279
    10  C   -0.000145   0.008593  -0.000464   0.000004   0.016666  -0.029540
    11  C    0.002622   0.001281  -0.036966   0.000859  -0.029892   0.486243
    12  C   -0.064033   0.473177  -0.023069   0.004281  -0.088151  -0.029892
    13  H    0.343394  -0.023724   0.006037   0.000153  -0.000163  -0.000001
    14  H    0.325652  -0.024280  -0.019204   0.014718  -0.000581   0.000069
    15  H    0.000153   0.006037  -0.023724   0.343394  -0.010567  -0.000108
    16  H    0.014718  -0.019204  -0.024280   0.325652   0.006487  -0.000239
    17  H   -0.000115   0.004035  -0.043254  -0.006458   0.360142  -0.031066
    18  H    0.000000   0.000013   0.000200  -0.000005  -0.008775  -0.039505
    19  H   -0.000000  -0.000001   0.000003  -0.000000  -0.000202   0.002907
    20  H   -0.000000   0.000003  -0.000001  -0.000000   0.000010   0.001055
    21  H   -0.000005   0.000200   0.000013   0.000000  -0.000209   0.004565
    22  H   -0.006458  -0.043254   0.004035  -0.000115   0.000714   0.004725
               7          8          9         10         11         12
     1  N    0.000004  -0.000000   0.000001  -0.000145   0.002622  -0.064033
     2  C   -0.000464   0.000056  -0.000381   0.008593   0.001281   0.473177
     3  C    0.008593  -0.000381   0.000056  -0.000464  -0.036966  -0.023069
     4  N   -0.000145   0.000001  -0.000000   0.000004   0.000859   0.004281
     5  C   -0.094289   0.008142  -0.000625   0.016666  -0.029892  -0.088151
     6  C    0.445959  -0.010425  -0.039279  -0.029540   0.486243  -0.029892
     7  C    5.090916   0.502717  -0.025795  -0.075621  -0.029540   0.016666
     8  C    0.502717   4.885488   0.505270  -0.025795  -0.039279  -0.000625
     9  C   -0.025795   0.505270   4.885488   0.502717  -0.010425   0.008142
    10  C   -0.075621  -0.025795   0.502717   5.090916   0.445959  -0.094289
    11  C   -0.029540  -0.039279  -0.010425   0.445959   4.729959   0.429771
    12  C    0.016666  -0.000625   0.008142  -0.094289   0.429771   5.221763
    13  H   -0.000000   0.000000  -0.000000  -0.000002  -0.000108  -0.010567
    14  H    0.000000  -0.000000  -0.000000   0.000003  -0.000239   0.006487
    15  H   -0.000002  -0.000000   0.000000  -0.000000  -0.000001  -0.000163
    16  H    0.000003  -0.000000  -0.000000   0.000000   0.000069  -0.000581
    17  H   -0.008781   0.000167   0.000020  -0.000221   0.004725   0.000714
    18  H    0.367316  -0.043552   0.004617   0.000616   0.004565  -0.000209
    19  H   -0.034758   0.367939  -0.040714   0.004400   0.001055   0.000010
    20  H    0.004400  -0.040714   0.367939  -0.034758   0.002907  -0.000202
    21  H    0.000616   0.004617  -0.043552   0.367316  -0.039504  -0.008775
    22  H   -0.000221   0.000020   0.000167  -0.008780  -0.031066   0.360142
              13         14         15         16         17         18
     1  N    0.343394   0.325652   0.000153   0.014718  -0.000115   0.000000
     2  C   -0.023724  -0.024280   0.006037  -0.019204   0.004035   0.000013
     3  C    0.006037  -0.019204  -0.023724  -0.024280  -0.043254   0.000200
     4  N    0.000153   0.014718   0.343394   0.325652  -0.006458  -0.000005
     5  C   -0.000163  -0.000581  -0.010567   0.006487   0.360142  -0.008775
     6  C   -0.000001   0.000069  -0.000108  -0.000239  -0.031066  -0.039505
     7  C   -0.000000   0.000000  -0.000002   0.000003  -0.008781   0.367316
     8  C    0.000000  -0.000000  -0.000000  -0.000000   0.000167  -0.043552
     9  C   -0.000000  -0.000000   0.000000  -0.000000   0.000020   0.004617
    10  C   -0.000002   0.000003  -0.000000   0.000000  -0.000221   0.000616
    11  C   -0.000108  -0.000239  -0.000001   0.000069   0.004725   0.004565
    12  C   -0.010567   0.006487  -0.000163  -0.000581   0.000714  -0.000209
    13  H    0.423228  -0.025809  -0.000001  -0.000268   0.000004   0.000000
    14  H   -0.025809   0.454190  -0.000268  -0.005817  -0.000008   0.000000
    15  H   -0.000001  -0.000268   0.423227  -0.025809   0.004802   0.000001
    16  H   -0.000268  -0.005817  -0.025809   0.454190   0.000020   0.000000
    17  H    0.000004  -0.000008   0.004802   0.000020   0.614055   0.005828
    18  H    0.000000   0.000000   0.000001   0.000000   0.005828   0.623118
    19  H   -0.000000  -0.000000  -0.000000   0.000000  -0.000012  -0.005660
    20  H   -0.000000   0.000000  -0.000000  -0.000000  -0.000000  -0.000200
    21  H    0.000001   0.000000   0.000000   0.000000   0.000002   0.000019
    22  H    0.004802   0.000020   0.000004  -0.000008   0.000019   0.000002
              19         20         21         22
     1  N   -0.000000  -0.000000  -0.000005  -0.006458
     2  C   -0.000001   0.000003   0.000200  -0.043254
     3  C    0.000003  -0.000001   0.000013   0.004035
     4  N   -0.000000  -0.000000   0.000000  -0.000115
     5  C   -0.000202   0.000010  -0.000209   0.000714
     6  C    0.002907   0.001055   0.004565   0.004725
     7  C   -0.034758   0.004400   0.000616  -0.000221
     8  C    0.367939  -0.040714   0.004617   0.000020
     9  C   -0.040714   0.367939  -0.043552   0.000167
    10  C    0.004400  -0.034758   0.367316  -0.008780
    11  C    0.001055   0.002907  -0.039504  -0.031066
    12  C    0.000010  -0.000202  -0.008775   0.360142
    13  H   -0.000000  -0.000000   0.000001   0.004802
    14  H   -0.000000   0.000000   0.000000   0.000020
    15  H   -0.000000  -0.000000   0.000000   0.000004
    16  H    0.000000  -0.000000   0.000000  -0.000008
    17  H   -0.000012  -0.000000   0.000002   0.000019
    18  H   -0.005660  -0.000200   0.000019   0.000002
    19  H    0.620138  -0.005688  -0.000200  -0.000000
    20  H   -0.005688   0.620138  -0.005660  -0.000012
    21  H   -0.000200  -0.005660   0.623118   0.005828
    22  H   -0.000000  -0.000012   0.005828   0.614055
 Mulliken charges:
               1
     1  N   -0.682913
     2  C    0.221864
     3  C    0.221864
     4  N   -0.682914
     5  C   -0.200598
     6  C    0.107007
     7  C   -0.167576
     8  C   -0.113647
     9  C   -0.113646
    10  C   -0.167576
    11  C    0.107007
    12  C   -0.200598
    13  H    0.283025
    14  H    0.275067
    15  H    0.283025
    16  H    0.275067
    17  H    0.095382
    18  H    0.091608
    19  H    0.090780
    20  H    0.090780
    21  H    0.091608
    22  H    0.095382
 Sum of Mulliken charges =  -0.00000
 Mulliken charges with hydrogens summed into heavy atoms:
               1
     1  N   -0.124821
     2  C    0.221864
     3  C    0.221864
     4  N   -0.124822
     5  C   -0.105216
     6  C    0.107007
     7  C   -0.075967
     8  C   -0.022866
     9  C   -0.022866
    10  C   -0.075968
    11  C    0.107007
    12  C   -0.105216
 APT charges:
               1
     1  N   -1.214715
     2  C    0.049441
     3  C    0.049438
     4  N   -1.214713
     5  C   -0.439350
     6  C   -0.468707
     7  C   -0.539424
     8  C   -0.446107
     9  C   -0.446106
    10  C   -0.539425
    11  C   -0.468707
    12  C   -0.439351
    13  H    0.642751
    14  H    0.647351
    15  H    0.642750
    16  H    0.647352
    17  H    0.487423
    18  H    0.516815
    19  H    0.764524
    20  H    0.764524
    21  H    0.516816
    22  H    0.487422
 Sum of APT charges =  -0.00000
 APT charges with hydrogens summed into heavy atoms:
               1
     1  N    0.075387
     2  C    0.049441
     3  C    0.049438
     4  N    0.075389
     5  C    0.048072
     6  C   -0.468707
     7  C   -0.022609
     8  C    0.318416
     9  C    0.318418
    10  C   -0.022609
    11  C   -0.468707
    12  C    0.048071
 Electronic spatial extent (au):  <R**2>=           2099.8017
 Charge=             -0.0000 electrons
 Dipole moment (field-independent basis, Debye):
    X=             -3.0511    Y=             -0.0000    Z=              0.0000  Tot=              3.0511
 Quadrupole moment (field-independent basis, Debye-Ang):
   XX=            -57.1406   YY=            -57.5817   ZZ=            -74.5606
   XY=              0.0000   XZ=             -0.0000   YZ=             -4.4098
 Traceless Quadrupole moment (field-independent basis, Debye-Ang):
   XX=              5.9537   YY=              5.5126   ZZ=            -11.4663
   XY=              0.0000   XZ=             -0.0000   YZ=             -4.4098
 Octapole moment (field-independent basis, Debye-Ang**2):
  XXX=            -42.8496  YYY=             -0.0000  ZZZ=              0.0000  XYY=            -17.1182
  XXY=             -0.0001  XXZ=              0.0001  XZZ=             -9.6201  YZZ=             -0.0000
  YYZ=             -0.0000  XYZ=             16.2201
 Hexadecapole moment (field-independent basis, Debye-Ang**3):
 XXXX=          -1776.7302 YYYY=           -577.3129 ZZZZ=            -79.9242 XXXY=              0.0002
 XXXZ=             -0.0000 YYYX=              0.0001 YYYZ=            -18.9641 ZZZX=             -0.0000
 ZZZY=             -4.8460 XXYY=           -391.3338 XXZZ=           -377.8470 YYZZ=           -137.4530
 XXYZ=            -50.1247 YYXZ=              0.0001 ZZXY=              0.0000
 N-N= 6.426631176067D+02 E-N=-2.437951342551D+03  KE= 4.919758520557D+02
  Exact polarizability:   0.000   0.000   0.000   0.000   0.000   0.000
 Approx polarizability: 343.536  -0.000 223.474  -0.000   4.591  65.442
 D2PCM: PCM CHGder 2nd derivatives, FixD1E=F FixD2E=F DoIter=F DoCFld=F I1PDM=0
 Calling FoFJK, ICntrl=    100147 FMM=F ISym2X=0 I1Cent= 0 IOpClX= 0 NMat=1 NMatS=1 NMatT=0.
 ***** Axes restored to original set *****
 -------------------------------------------------------------------
 Center     Atomic                   Forces (Hartrees/Bohr)
 Number     Number              X              Y              Z
 -------------------------------------------------------------------
      1        7           0.002168357    0.007876124    0.012914632
      2        6           0.007772337   -0.016858603   -0.033197295
      3        6           0.007603932    0.016260683    0.033533452
      4        7           0.002110807   -0.008043431   -0.012821168
      5        6          -0.018466834   -0.000880020   -0.007875491
      6        6           0.000488575    0.010297857    0.010194598
      7        6           0.024996027   -0.001375479    0.000759255
      8        6          -0.009021495    0.016371052    0.014732078
      9        6          -0.009615739   -0.015644946   -0.015139363
     10        6           0.025036242   -0.000574236    0.000333790
     11        6           0.000130799   -0.010322023   -0.010181249
     12        6          -0.018668059    0.002326219    0.007063833
     13        1          -0.002256084    0.001679756    0.000849008
     14        1          -0.001950830   -0.007067427   -0.004935788
     15        1          -0.002340777   -0.001500570   -0.000949527
     16        1          -0.001608511    0.007206193    0.004858122
     17        1           0.000008109    0.001011640   -0.000963235
     18        1          -0.002551647   -0.000241781   -0.000361734
     19        1          -0.000585687    0.000318373    0.000228604
     20        1          -0.000598404   -0.000272094   -0.000254363
     21        1          -0.002538574    0.000440597    0.000250854
     22        1          -0.000112543   -0.001007882    0.000960986
 -------------------------------------------------------------------
 Cartesian Forces:  Max     0.033533452 RMS     0.010421208
 FormGI is forming the generalized inverse of G from B-inverse, IUseBI=4.

 GradGradGradGradGradGradGradGradGradGradGradGradGradGradGradGradGradGrad
 Berny optimization.
 Internal  Forces:  Max     0.019343975 RMS     0.004925058
 Search for a local minimum.
 Step number   1 out of a maximum of  121
 All quantities printed in internal units (Hartrees-Bohrs-Radians)
 Mixed Optimization -- RFO/linear search
 Second derivative matrix not updated -- analytic derivatives used.
 ITU=  0
     Eigenvalues ---    0.00390   0.00767   0.01562   0.01586   0.01690
     Eigenvalues ---    0.01764   0.01800   0.01928   0.02141   0.02167
     Eigenvalues ---    0.02247   0.02286   0.02471   0.02508   0.02583
     Eigenvalues ---    0.02757   0.02814   0.03050   0.03595   0.10977
     Eigenvalues ---    0.11541   0.11813   0.12009   0.12373   0.12589
     Eigenvalues ---    0.14099   0.14500   0.16356   0.16668   0.18399
     Eigenvalues ---    0.18647   0.19192   0.19976   0.20200   0.20353
     Eigenvalues ---    0.22631   0.23078   0.29500   0.33809   0.35350
     Eigenvalues ---    0.35551   0.35618   0.35832   0.35885   0.35958
     Eigenvalues ---    0.36811   0.37687   0.39529   0.41735   0.43057
     Eigenvalues ---    0.44276   0.44580   0.45209   0.45639   0.45800
     Eigenvalues ---    0.45816   0.47711   0.48358   0.49509   0.51668
 RFO step:  Lambda=-1.08625816D-02 EMin= 3.90201507D-03
 Linear search not attempted -- first point.
 Iteration  1 RMS(Cart)=  0.03906005 RMS(Int)=  0.00208841
 Iteration  2 RMS(Cart)=  0.00220382 RMS(Int)=  0.00059168
 Iteration  3 RMS(Cart)=  0.00001005 RMS(Int)=  0.00059164
 Iteration  4 RMS(Cart)=  0.00000001 RMS(Int)=  0.00059164
 Variable       Old X    -DE/DX   Delta X   Delta X   Delta X     New X
                                 (Linear)    (Quad)   (Total)
    R1        2.67391  -0.00224   0.00000  -0.02246  -0.02246   2.65146
    R2        1.91882  -0.00199   0.00000  -0.00358  -0.00358   1.91524
    R3        1.92577  -0.00277   0.00000  -0.00675  -0.00675   1.91902
    R4        2.66113   0.01914   0.00000   0.05418   0.05413   2.71527
    R5        2.64048  -0.00888   0.00000  -0.03260  -0.03268   2.60780
    R6        2.67391  -0.00225   0.00000  -0.02246  -0.02246   2.65146
    R7        2.64048  -0.00888   0.00000  -0.03260  -0.03268   2.60780
    R8        1.91882  -0.00199   0.00000  -0.00358  -0.00358   1.91524
    R9        1.92577  -0.00277   0.00000  -0.00675  -0.00675   1.91902
   R10        2.65451   0.01187   0.00000   0.02799   0.02804   2.68254
   R11        2.05345   0.00009   0.00000   0.00184   0.00184   2.05529
   R12        2.65446   0.01211   0.00000   0.02779   0.02778   2.68224
   R13        2.67062   0.01810   0.00000   0.03586   0.03597   2.70659
   R14        2.63762  -0.01006   0.00000  -0.03011  -0.03010   2.60752
   R15        2.05547  -0.00051   0.00000  -0.00059  -0.00059   2.05488
   R16        2.62961   0.01934   0.00000   0.04208   0.04210   2.67171
   R17        2.05382  -0.00032   0.00000  -0.00109  -0.00109   2.05273
   R18        2.63762  -0.01006   0.00000  -0.03011  -0.03010   2.60752
   R19        2.05382  -0.00032   0.00000  -0.00109  -0.00109   2.05273
   R20        2.65446   0.01211   0.00000   0.02779   0.02778   2.68224
   R21        2.05547  -0.00051   0.00000  -0.00060  -0.00060   2.05488
   R22        2.65451   0.01187   0.00000   0.02799   0.02804   2.68254
   R23        2.05345   0.00009   0.00000   0.00184   0.00184   2.05529
    A1        1.95744   0.00061   0.00000   0.01791   0.01737   1.97481
    A2        1.90491   0.01029   0.00000   0.05669   0.05615   1.96106
    A3        1.93396  -0.00608   0.00000  -0.02269  -0.02361   1.91035
    A4        2.08924  -0.00563   0.00000  -0.03477  -0.03563   2.05361
    A5        2.09845   0.00525   0.00000   0.04270   0.04226   2.14071
    A6        2.08330   0.00076   0.00000   0.00319   0.00195   2.08526
    A7        2.08924  -0.00563   0.00000  -0.03477  -0.03563   2.05361
    A8        2.08331   0.00076   0.00000   0.00319   0.00195   2.08526
    A9        2.09845   0.00525   0.00000   0.04270   0.04226   2.14071
   A10        1.95744   0.00061   0.00000   0.01791   0.01737   1.97481
   A11        1.90492   0.01029   0.00000   0.05669   0.05615   1.96106
   A12        1.93396  -0.00608   0.00000  -0.02270  -0.02361   1.91035
   A13        2.10966   0.00303   0.00000   0.01391   0.01354   2.12320
   A14        2.08362  -0.00162   0.00000  -0.00161  -0.00141   2.08222
   A15        2.08951  -0.00140   0.00000  -0.01225  -0.01210   2.07741
   A16        2.11922   0.00587   0.00000   0.01726   0.01736   2.13658
   A17        2.08256  -0.00357   0.00000  -0.00991  -0.01003   2.07253
   A18        2.08136  -0.00230   0.00000  -0.00736  -0.00734   2.07401
   A19        2.10789   0.00011   0.00000   0.00371   0.00369   2.11158
   A20        2.10040  -0.00266   0.00000  -0.02627  -0.02626   2.07414
   A21        2.07488   0.00256   0.00000   0.02257   0.02258   2.09746
   A22        2.09390   0.00219   0.00000   0.00369   0.00368   2.09758
   A23        2.09376  -0.00174   0.00000   0.00095   0.00095   2.09471
   A24        2.09551  -0.00045   0.00000  -0.00463  -0.00462   2.09089
   A25        2.09390   0.00219   0.00000   0.00369   0.00368   2.09758
   A26        2.09552  -0.00045   0.00000  -0.00463  -0.00462   2.09089
   A27        2.09376  -0.00174   0.00000   0.00094   0.00095   2.09471
   A28        2.10789   0.00011   0.00000   0.00371   0.00369   2.11158
   A29        2.07488   0.00256   0.00000   0.02257   0.02258   2.09746
   A30        2.10040  -0.00266   0.00000  -0.02627  -0.02626   2.07414
   A31        2.08136  -0.00230   0.00000  -0.00736  -0.00734   2.07401
   A32        2.08256  -0.00357   0.00000  -0.00991  -0.01003   2.07253
   A33        2.11922   0.00587   0.00000   0.01726   0.01736   2.13658
   A34        2.10966   0.00303   0.00000   0.01391   0.01354   2.12320
   A35        2.08362  -0.00162   0.00000  -0.00161  -0.00141   2.08222
   A36        2.08951  -0.00140   0.00000  -0.01225  -0.01210   2.07741
    D1       -2.80499  -0.00034   0.00000  -0.06487  -0.06517  -2.87017
    D2        0.50480  -0.00298   0.00000  -0.14120  -0.14158   0.36322
    D3       -0.65503  -0.00036   0.00000  -0.04119  -0.04081  -0.69584
    D4        2.65477  -0.00299   0.00000  -0.11753  -0.11722   2.53755
    D5        0.13185  -0.00357   0.00000  -0.06476  -0.06194   0.06990
    D6        3.10671  -0.00051   0.00000   0.01478   0.01602   3.12273
    D7        3.10670  -0.00051   0.00000   0.01478   0.01602   3.12272
    D8       -0.20162   0.00254   0.00000   0.09432   0.09398  -0.10764
    D9        3.11776  -0.00005   0.00000   0.00240   0.00454   3.12230
   D10       -0.05415  -0.00002   0.00000   0.00384   0.00554  -0.04861
   D11        0.14380  -0.00206   0.00000  -0.07001  -0.06969   0.07410
   D12       -3.02811  -0.00203   0.00000  -0.06857  -0.06870  -3.09681
   D13       -2.80499  -0.00034   0.00000  -0.06487  -0.06518  -2.87017
   D14       -0.65502  -0.00036   0.00000  -0.04119  -0.04082  -0.69584
   D15        0.50479  -0.00298   0.00000  -0.14120  -0.14158   0.36322
   D16        2.65476  -0.00299   0.00000  -0.11752  -0.11722   2.53755
   D17        0.14379  -0.00206   0.00000  -0.07001  -0.06969   0.07410
   D18       -3.02812  -0.00203   0.00000  -0.06857  -0.06870  -3.09681
   D19        3.11776  -0.00005   0.00000   0.00240   0.00454   3.12230
   D20       -0.05415  -0.00002   0.00000   0.00384   0.00554  -0.04861
   D21        3.10492   0.00029   0.00000   0.01756   0.01783   3.12275
   D22       -0.02534   0.00015   0.00000   0.01841   0.01881  -0.00653
   D23       -0.00625   0.00027   0.00000   0.01593   0.01665   0.01040
   D24       -3.13651   0.00013   0.00000   0.01678   0.01763  -3.11888
   D25       -3.12205  -0.00009   0.00000  -0.00386  -0.00394  -3.12599
   D26        0.01424  -0.00009   0.00000  -0.00140  -0.00140   0.01284
   D27        0.00821   0.00005   0.00000  -0.00473  -0.00494   0.00327
   D28       -3.13868   0.00005   0.00000  -0.00226  -0.00240  -3.14108
   D29        3.11810   0.00016   0.00000   0.00694   0.00710   3.12520
   D30       -0.03458   0.00036   0.00000   0.00627   0.00632  -0.02826
   D31       -0.01241  -0.00004   0.00000   0.00760   0.00789  -0.00452
   D32        3.11810   0.00016   0.00000   0.00693   0.00710   3.12520
   D33        0.00044  -0.00007   0.00000  -0.00112  -0.00108  -0.00064
   D34        3.13926  -0.00004   0.00000   0.00103   0.00112   3.14038
   D35       -3.13593  -0.00006   0.00000  -0.00341  -0.00351  -3.13944
   D36        0.00289  -0.00002   0.00000  -0.00126  -0.00130   0.00158
   D37       -0.00482   0.00005   0.00000   0.00400   0.00410  -0.00072
   D38        3.13956   0.00001   0.00000   0.00184   0.00189   3.14144
   D39        3.13956   0.00001   0.00000   0.00184   0.00189   3.14144
   D40        0.00074  -0.00002   0.00000  -0.00033  -0.00032   0.00042
   D41        0.00044  -0.00007   0.00000  -0.00112  -0.00108  -0.00064
   D42       -3.13593  -0.00006   0.00000  -0.00341  -0.00351  -3.13944
   D43        3.13925  -0.00004   0.00000   0.00103   0.00113   3.14038
   D44        0.00289  -0.00002   0.00000  -0.00126  -0.00130   0.00159
   D45        0.00821   0.00005   0.00000  -0.00473  -0.00494   0.00327
   D46       -3.12205  -0.00009   0.00000  -0.00386  -0.00394  -3.12599
   D47       -3.13868   0.00005   0.00000  -0.00226  -0.00240  -3.14108
   D48        0.01424  -0.00009   0.00000  -0.00139  -0.00140   0.01284
   D49       -0.02534   0.00015   0.00000   0.01841   0.01881  -0.00653
   D50       -3.13652   0.00013   0.00000   0.01678   0.01764  -3.11888
   D51        3.10492   0.00029   0.00000   0.01756   0.01783   3.12275
   D52       -0.00626   0.00027   0.00000   0.01593   0.01666   0.01039
         Item               Value     Threshold  Converged?
 Maximum Force            0.019344     0.000450     NO 
 RMS     Force            0.004925     0.000300     NO 
 Maximum Displacement     0.152252     0.001800     NO 
 RMS     Displacement     0.039247     0.001200     NO 
 Predicted change in Energy=-6.230127D-03
 GradGradGradGradGradGradGradGradGradGradGradGradGradGradGradGradGradGrad

                          Input orientation:                          
 ---------------------------------------------------------------------
 Center     Atomic      Atomic             Coordinates (Angstroms)
 Number     Number       Type             X           Y           Z
 ---------------------------------------------------------------------
      1          7           0       -2.945996   -0.921893   -1.176429
      2          6           0       -1.696364   -0.491972   -0.704991
      3          6           0       -1.672714    0.623218    0.200741
      4          7           0       -2.904504    1.149807    0.617948
      5          6           0       -0.465793    1.062887    0.705117
      6          6           0        0.767128    0.498882    0.284521
      7          6           0        2.018776    0.953628    0.775674
      8          6           0        3.200699    0.396158    0.332685
      9          6           0        3.181052   -0.644769   -0.623838
     10          6           0        1.979813   -1.109398   -1.118910
     11          6           0        0.747085   -0.557870   -0.682052
     12          6           0       -0.506435   -1.025012   -1.156988
     13          1           0       -2.917463   -1.843312   -1.597565
     14          1           0       -3.659166   -0.902244   -0.453762
     15          1           0       -2.822809    2.066932    1.041493
     16          1           0       -3.584839    1.184443   -0.135172
     17          1           0       -0.454770    1.879985    1.422846
     18          1           0        2.034108    1.755593    1.509871
     19          1           0        4.149894    0.757061    0.718344
     20          1           0        4.115228   -1.079041   -0.968337
     21          1           0        1.964752   -1.911375   -1.853101
     22          1           0       -0.527683   -1.841709   -1.874943
 ---------------------------------------------------------------------
                    Distance matrix (angstroms):
                    1          2          3          4          5
     1  N    0.000000
     2  C    1.403091   0.000000
     3  C    2.430064   1.436858   0.000000
     4  N    2.741068   2.430064   1.403091   0.000000
     5  C    3.692015   2.433166   1.379986   2.441816   0.000000
     6  C    4.235595   2.833676   2.444445   3.743763   1.419542
     7  C    5.654842   4.252575   3.750576   4.929711   2.487971
     8  C    6.465024   5.083972   4.880483   6.158154   3.745183
     9  C    6.158155   4.880484   5.083972   6.465024   4.240482
    10  C    4.929711   3.750576   4.252575   5.654842   3.745249
    11  C    3.743764   2.444445   2.833676   4.235595   2.454010
    12  C    2.441816   1.379986   2.433166   3.692015   2.797929
    13  H    1.013500   2.028273   3.296525   3.723900   4.445112
    14  H    1.015502   2.020898   2.588706   2.434952   3.924585
    15  H    3.723900   3.296525   2.028273   1.013500   2.583946
    16  H    2.434951   2.588706   2.020898   1.015502   3.232539
    17  H    4.562122   3.419858   2.134571   2.679966   1.087615
    18  H    6.259918   4.886060   4.091042   5.054938   2.716059
    19  H    7.533970   6.145299   5.847101   7.066036   4.625827
    20  H    7.066036   5.847102   6.145299   7.533970   5.326730
    21  H    5.054938   4.091042   4.886061   6.259918   4.615004
    22  H    2.679966   2.134571   3.419858   4.562122   3.885514
                    6          7          8          9         10
     6  C    0.000000
     7  C    1.419382   0.000000
     8  C    2.436214   1.379838   0.000000
     9  C    2.821362   2.421651   1.413807   0.000000
    10  C    2.454952   2.801258   2.421651   1.379838   0.000000
    11  C    1.432268   2.454952   2.821362   2.436214   1.419382
    12  C    2.454010   3.745249   4.240482   3.745183   2.487971
    13  H    4.754402   6.149926   6.795071   6.290989   4.975043
    14  H    4.701095   6.098753   7.025816   6.847174   5.681849
    15  H    3.989917   4.975042   6.290989   6.795071   6.149926
    16  H    4.425579   5.681849   6.847175   7.025816   6.098753
    17  H    2.167087   2.719448   4.093000   4.876730   4.617806
    18  H    2.164727   1.087395   2.143540   3.410268   3.888652
    19  H    3.420228   2.140932   1.086258   2.169155   3.401239
    20  H    3.907590   3.401239   2.169155   1.086258   2.140932
    21  H    3.437014   3.888652   3.410268   2.143540   1.087395
    22  H    3.437759   4.617806   4.876730   4.093000   2.719448
                   11         12         13         14         15
    11  C    0.000000
    12  C    1.419542   0.000000
    13  H    3.989917   2.583946   0.000000
    14  H    4.425579   3.232539   1.656507   0.000000
    15  H    4.754402   4.445112   4.718431   3.428015   0.000000
    16  H    4.701095   3.924585   3.428014   2.112176   1.656508
    17  H    3.437759   3.885514   5.389868   4.640109   2.405823
    18  H    3.437014   4.615004   6.864862   6.582805   4.889371
    19  H    3.907590   5.326730   7.878636   8.068986   7.102026
    20  H    3.420229   4.625827   7.102026   7.793410   7.878636
    21  H    2.164727   2.716059   4.889372   5.882597   6.864862
    22  H    2.167087   1.087615   2.405824   3.564903   5.389868
                   16         17         18         19         20
    16  H    0.000000
    17  H    3.564902   0.000000
    18  H    5.882597   2.493504   0.000000
    19  H    7.793410   4.791682   2.469844   0.000000
    20  H    8.068986   5.946299   4.302060   2.493464   0.000000
    21  H    6.582805   5.564200   4.976047   4.302060   2.469844
    22  H    4.640108   4.973101   5.564200   5.946299   4.791682
                   21         22
    21  H    0.000000
    22  H    2.493504   0.000000
 Stoichiometry    C10H10N2
 Framework group  C1[X(C10H10N2)]
 Deg. of freedom    60
 Full point group                 C1      NOp   1
 Largest Abelian subgroup         C1      NOp   1
 Largest concise Abelian subgroup C1      NOp   1
                         Standard orientation:                         
 ---------------------------------------------------------------------
 Center     Atomic      Atomic             Coordinates (Angstroms)
 Number     Number       Type             X           Y           Z
 ---------------------------------------------------------------------
      1          7           0       -2.959904   -1.370521   -0.006026
      2          6           0       -1.717955   -0.718161    0.019606
      3          6           0       -1.717955    0.718161   -0.019605
      4          7           0       -2.959903    1.370521    0.006026
      5          6           0       -0.518336    1.398714    0.026462
      6          6           0        0.726125    0.715779    0.022545
      7          6           0        1.969551    1.399843    0.046903
      8          6           0        3.162320    0.706500    0.023888
      9          6           0        3.162320   -0.706500   -0.023888
     10          6           0        1.969551   -1.399843   -0.046903
     11          6           0        0.726125   -0.715779   -0.022545
     12          6           0       -0.518336   -1.398714   -0.026463
     13          1           0       -2.904735   -2.343419    0.272557
     14          1           0       -3.657350   -0.895868    0.559233
     15          1           0       -2.904734    2.343419   -0.272556
     16          1           0       -3.657350    0.895868   -0.559233
     17          1           0       -0.523453    2.486244    0.039031
     18          1           0        1.969687    2.486684    0.081625
     19          1           0        4.104945    1.246027    0.041933
     20          1           0        4.104945   -1.246027   -0.041931
     21          1           0        1.969687   -2.486684   -0.081624
     22          1           0       -0.523453   -2.486244   -0.039036
 ---------------------------------------------------------------------
 Rotational constants (GHZ):           2.2472546           0.6688628           0.5163901
 Standard basis: 6-31G(d,p) (6D, 7F)
 There are   230 symmetry adapted cartesian basis functions of A   symmetry.
 There are   230 symmetry adapted basis functions of A   symmetry.
   230 basis functions,   406 primitive gaussians,   230 cartesian basis functions
    42 alpha electrons       42 beta electrons
       nuclear repulsion energy       640.9344301167 Hartrees.
 NAtoms=   22 NActive=   22 NUniq=   22 SFac= 1.00D+00 NAtFMM=   60 NAOKFM=F Big=F
 Integral buffers will be    131072 words long.
 Raffenetti 2 integral format.
 Two-electron integral symmetry is turned on.
 ------------------------------------------------------------------------------
 Polarizable Continuum Model (PCM)
 =================================
 Model                : PCM.
 Atomic radii         : UFF (Universal Force Field).
 Polarization charges : Total charges.
 Charge compensation  : None.
 Solution method      : Matrix inversion.
 Cavity type          : Scaled VdW (van der Waals Surface) (Alpha=1.100).
 Cavity algorithm     : GePol (No added spheres)
                        Default sphere list used, NSphG=   22.
                        Lebedev-Laikov grids with approx.  5.0 points / Ang**2.
                        Smoothing algorithm: York/Karplus (Gamma=1.0000).
                        Polarization charges: spherical gaussians, with
                                              point-specific exponents (IZeta= 3).
                        Self-potential: point-specific (ISelfS= 7).
                        Self-field    : sphere-specific E.n sum rule (ISelfD= 2).
 1st derivatives      : Analytical E(r).r(x)/FMM algorithm (CHGder, D1EAlg=3).
                        Cavity 1st derivative terms included.
 Solvent              : Water, Eps=  78.355300 Eps(inf)=   1.777849
 ------------------------------------------------------------------------------
 One-electron integrals computed using PRISM.
 NBasis=   230 RedAO= T EigKep=  2.65D-04  NBF=   230
 NBsUse=   230 1.00D-06 EigRej= -1.00D+00 NBFU=   230
 Initial guess from the checkpoint file:  "XTBLDMQMUSHDEN-UHFFFAOYSA-N_conf_1_0.chk"
 B after Tr=     0.000000    0.000000   -0.000000
         Rot=    1.000000   -0.000050   -0.000000   -0.000000 Ang=  -0.01 deg.
 ExpMin= 1.61D-01 ExpMax= 4.17D+03 ExpMxC= 6.27D+02 IAcc=2 IRadAn=         4 AccDes= 0.00D+00
 Harris functional with IExCor=  402 and IRadAn=       4 diagonalized for initial guess.
 HarFok:  IExCor=  402 AccDes= 0.00D+00 IRadAn=         4 IDoV= 1 UseB2=F ITyADJ=14
 ICtDFT=  3500011 ScaDFX=  1.000000  1.000000  1.000000  1.000000
 FoFCou: FMM=F IPFlag=           0 FMFlag=      100000 FMFlg1=           0
         NFxFlg=           0 DoJE=T BraDBF=F KetDBF=T FulRan=T
         wScrn=  0.000000 ICntrl=       500 IOpCl=  0 I1Cent=   200000004 NGrid=           0
         NMat0=    1 NMatS0=      1 NMatT0=    0 NMatD0=    1 NMtDS0=    0 NMtDT0=    0
 Petite list used in FoFCou.
 Keep R1 ints in memory in canonical form, NReq=359027436.
 Requested convergence on RMS density matrix=1.00D-08 within  32 cycles.
 Requested convergence on MAX density matrix=1.00D-06.
 Requested convergence on             energy=1.00D-06.
 No special actions if energy rises.
 Inv3:  Mode=1 IEnd=     8467200.
 Iteration    1 A*A^-1 deviation from unit magnitude is 6.66D-15 for   1530.
 Iteration    1 A*A^-1 deviation from orthogonality  is 4.07D-15 for   1363     24.
 Iteration    1 A^-1*A deviation from unit magnitude is 6.22D-15 for   1530.
 Iteration    1 A^-1*A deviation from orthogonality  is 4.54D-15 for   1026    485.
 Error on total polarization charges =  0.00878
 SCF Done:  E(RB3LYP) =  -496.633122916     A.U. after   11 cycles
            NFock= 11  Conv=0.23D-08     -V/T= 2.0097
 QCSCF skips out because SCF is already converged.
 D1PCM: PCM CHGder 1st derivatives, ID1Alg=3 FixD1E=F DoIter=F DoCFld=F I1PDM=0.
 Calling FoFJK, ICntrl=      2127 FMM=F ISym2X=0 I1Cent= 0 IOpClX= 0 NMat=1 NMatS=1 NMatT=0.
 ***** Axes restored to original set *****
 -------------------------------------------------------------------
 Center     Atomic                   Forces (Hartrees/Bohr)
 Number     Number              X              Y              Z
 -------------------------------------------------------------------
      1        7          -0.000500831    0.000125363    0.002239539
      2        6          -0.000009199    0.001012091   -0.005144736
      3        6          -0.000312288   -0.000999420    0.005137581
      4        7          -0.000410913   -0.000089930   -0.002259374
      5        6           0.000036847    0.001606689   -0.001452431
      6        6          -0.000085375    0.000252130    0.001021928
      7        6           0.001037364    0.000262683    0.000426199
      8        6           0.000155798    0.001059183    0.000946995
      9        6           0.000114110   -0.001069697   -0.000941102
     10        6           0.001031393   -0.000343306   -0.000380969
     11        6          -0.000060038   -0.000246454   -0.001025134
     12        6          -0.000151607   -0.001602263    0.001449958
     13        1           0.000006265    0.000405150   -0.001058232
     14        1          -0.000239679   -0.001221862   -0.000336124
     15        1          -0.000071430   -0.000402602    0.001056780
     16        1          -0.000158362    0.001237385    0.000327414
     17        1           0.000066419    0.000363334   -0.000382391
     18        1          -0.000250967   -0.000001034   -0.000010675
     19        1           0.000016061   -0.000008524   -0.000024825
     20        1           0.000015571    0.000007299    0.000025517
     21        1          -0.000250359    0.000020600   -0.000000294
     22        1           0.000021221   -0.000366815    0.000384377
 -------------------------------------------------------------------
 Cartesian Forces:  Max     0.005144736 RMS     0.001170928

 GradGradGradGradGradGradGradGradGradGradGradGradGradGradGradGradGradGrad
 Berny optimization.
 Using GEDIIS/GDIIS optimizer.
 FormGI is forming the generalized inverse of G from B-inverse, IUseBI=4.
 Internal  Forces:  Max     0.002687972 RMS     0.000558851
 Search for a local minimum.
 Step number   2 out of a maximum of  121
 All quantities printed in internal units (Hartrees-Bohrs-Radians)
 Mixed Optimization -- En-DIIS/RFO-DIIS
 Update second derivatives using D2CorX and points    1    2
 DE= -6.25D-03 DEPred=-6.23D-03 R= 1.00D+00
 TightC=F SS=  1.41D+00  RLast= 3.84D-01 DXNew= 5.0454D-01 1.1507D+00
 Trust test= 1.00D+00 RLast= 3.84D-01 DXMaxT set to 5.05D-01
 ITU=  1  0
 Use linear search instead of GDIIS.
     Eigenvalues ---    0.00390   0.00781   0.01562   0.01585   0.01689
     Eigenvalues ---    0.01762   0.01800   0.01922   0.02144   0.02166
     Eigenvalues ---    0.02246   0.02286   0.02471   0.02511   0.02581
     Eigenvalues ---    0.02756   0.02814   0.03047   0.03602   0.10972
     Eigenvalues ---    0.11541   0.11812   0.12007   0.12373   0.12601
     Eigenvalues ---    0.14083   0.14432   0.16350   0.16526   0.18383
     Eigenvalues ---    0.18583   0.19170   0.19971   0.20196   0.20304
     Eigenvalues ---    0.22811   0.23037   0.29484   0.33808   0.35350
     Eigenvalues ---    0.35550   0.35618   0.35829   0.35889   0.35958
     Eigenvalues ---    0.36795   0.37684   0.39525   0.41844   0.43044
     Eigenvalues ---    0.44275   0.44609   0.45281   0.45633   0.45799
     Eigenvalues ---    0.45840   0.47711   0.47901   0.49619   0.50554
 RFO step:  Lambda=-8.55437062D-04 EMin= 3.90200298D-03
 Quartic linear search produced a step of  0.18262.
 Iteration  1 RMS(Cart)=  0.04061266 RMS(Int)=  0.00177507
 Iteration  2 RMS(Cart)=  0.00185343 RMS(Int)=  0.00021610
 Iteration  3 RMS(Cart)=  0.00000382 RMS(Int)=  0.00021608
 Iteration  4 RMS(Cart)=  0.00000000 RMS(Int)=  0.00021608
 Variable       Old X    -DE/DX   Delta X   Delta X   Delta X     New X
                                 (Linear)    (Quad)   (Total)
    R1        2.65146   0.00058  -0.00410   0.00008  -0.00402   2.64743
    R2        1.91524   0.00007  -0.00065   0.00024  -0.00041   1.91482
    R3        1.91902  -0.00009  -0.00123   0.00170   0.00047   1.91949
    R4        2.71527   0.00269   0.00989  -0.00329   0.00650   2.72176
    R5        2.60780   0.00073  -0.00597   0.00524  -0.00078   2.60701
    R6        2.65146   0.00058  -0.00410   0.00008  -0.00402   2.64743
    R7        2.60780   0.00073  -0.00597   0.00524  -0.00078   2.60701
    R8        1.91524   0.00007  -0.00065   0.00024  -0.00041   1.91482
    R9        1.91902  -0.00009  -0.00123   0.00170   0.00047   1.91949
   R10        2.68254   0.00083   0.00512  -0.00217   0.00299   2.68554
   R11        2.05529   0.00002   0.00034  -0.00017   0.00017   2.05546
   R12        2.68224   0.00097   0.00507  -0.00324   0.00182   2.68407
   R13        2.70659   0.00132   0.00657  -0.00396   0.00269   2.70929
   R14        2.60752   0.00022  -0.00550   0.00609   0.00061   2.60812
   R15        2.05488  -0.00001  -0.00011   0.00010  -0.00001   2.05487
   R16        2.67171   0.00158   0.00769  -0.00448   0.00323   2.67494
   R17        2.05273   0.00000  -0.00020   0.00016  -0.00004   2.05269
   R18        2.60752   0.00022  -0.00550   0.00609   0.00061   2.60812
   R19        2.05273   0.00000  -0.00020   0.00016  -0.00004   2.05269
   R20        2.68224   0.00097   0.00507  -0.00324   0.00182   2.68407
   R21        2.05488  -0.00001  -0.00011   0.00010  -0.00001   2.05487
   R22        2.68254   0.00083   0.00512  -0.00217   0.00299   2.68554
   R23        2.05529   0.00002   0.00034  -0.00017   0.00017   2.05546
    A1        1.97481   0.00012   0.00317   0.00453   0.00750   1.98232
    A2        1.96106   0.00124   0.01025  -0.00332   0.00673   1.96779
    A3        1.91035  -0.00049  -0.00431   0.01785   0.01321   1.92356
    A4        2.05361   0.00045  -0.00651  -0.00454  -0.01119   2.04242
    A5        2.14071  -0.00008   0.00772   0.00439   0.01205   2.15276
    A6        2.08526  -0.00031   0.00036   0.00178   0.00136   2.08662
    A7        2.05361   0.00045  -0.00651  -0.00454  -0.01119   2.04242
    A8        2.08526  -0.00031   0.00036   0.00178   0.00136   2.08662
    A9        2.14071  -0.00008   0.00772   0.00439   0.01205   2.15276
   A10        1.97481   0.00012   0.00317   0.00453   0.00750   1.98232
   A11        1.96106   0.00124   0.01025  -0.00332   0.00673   1.96779
   A12        1.91035  -0.00049  -0.00431   0.01785   0.01321   1.92356
   A13        2.12320   0.00040   0.00247  -0.00199   0.00016   2.12336
   A14        2.08222  -0.00017  -0.00026   0.00144   0.00133   2.08354
   A15        2.07741  -0.00023  -0.00221   0.00078  -0.00129   2.07611
   A16        2.13658   0.00012   0.00317  -0.00338  -0.00010   2.13648
   A17        2.07253  -0.00005  -0.00183   0.00225   0.00030   2.07283
   A18        2.07401  -0.00007  -0.00134   0.00109  -0.00025   2.07377
   A19        2.11158   0.00004   0.00067  -0.00027   0.00037   2.11196
   A20        2.07414  -0.00028  -0.00480   0.00244  -0.00234   2.07180
   A21        2.09746   0.00024   0.00412  -0.00216   0.00197   2.09943
   A22        2.09758   0.00003   0.00067  -0.00081  -0.00013   2.09746
   A23        2.09471   0.00001   0.00017   0.00050   0.00066   2.09537
   A24        2.09089  -0.00004  -0.00084   0.00031  -0.00054   2.09035
   A25        2.09758   0.00003   0.00067  -0.00081  -0.00013   2.09746
   A26        2.09089  -0.00004  -0.00084   0.00031  -0.00054   2.09035
   A27        2.09471   0.00001   0.00017   0.00050   0.00066   2.09537
   A28        2.11158   0.00004   0.00067  -0.00027   0.00037   2.11196
   A29        2.09746   0.00024   0.00412  -0.00216   0.00197   2.09943
   A30        2.07414  -0.00028  -0.00480   0.00244  -0.00234   2.07180
   A31        2.07401  -0.00007  -0.00134   0.00109  -0.00025   2.07377
   A32        2.07253  -0.00005  -0.00183   0.00225   0.00030   2.07283
   A33        2.13658   0.00012   0.00317  -0.00338  -0.00010   2.13648
   A34        2.12320   0.00040   0.00247  -0.00199   0.00016   2.12336
   A35        2.08222  -0.00017  -0.00026   0.00144   0.00133   2.08354
   A36        2.07741  -0.00023  -0.00221   0.00078  -0.00129   2.07611
    D1       -2.87017  -0.00074  -0.01190  -0.08978  -0.10179  -2.97196
    D2        0.36322  -0.00157  -0.02585  -0.11059  -0.13657   0.22665
    D3       -0.69584  -0.00030  -0.00745  -0.06480  -0.07213  -0.76797
    D4        2.53755  -0.00113  -0.02141  -0.08561  -0.10690   2.43065
    D5        0.06990  -0.00054  -0.01131   0.01092   0.00052   0.07042
    D6        3.12273   0.00027   0.00293   0.03119   0.03453  -3.12593
    D7        3.12272   0.00027   0.00293   0.03120   0.03453  -3.12593
    D8       -0.10764   0.00108   0.01716   0.05148   0.06854  -0.03909
    D9        3.12230   0.00009   0.00083  -0.01835  -0.01682   3.10548
   D10       -0.04861   0.00013   0.00101  -0.00903  -0.00748  -0.05609
   D11        0.07410  -0.00079  -0.01273  -0.03921  -0.05182   0.02228
   D12       -3.09681  -0.00075  -0.01255  -0.02989  -0.04248  -3.13929
   D13       -2.87017  -0.00074  -0.01190  -0.08978  -0.10180  -2.97196
   D14       -0.69584  -0.00030  -0.00745  -0.06480  -0.07213  -0.76797
   D15        0.36322  -0.00157  -0.02585  -0.11059  -0.13657   0.22665
   D16        2.53755  -0.00113  -0.02141  -0.08561  -0.10690   2.43065
   D17        0.07410  -0.00079  -0.01273  -0.03921  -0.05182   0.02228
   D18       -3.09681  -0.00075  -0.01254  -0.02988  -0.04248  -3.13929
   D19        3.12230   0.00009   0.00083  -0.01835  -0.01682   3.10548
   D20       -0.04861   0.00013   0.00101  -0.00903  -0.00748  -0.05609
   D21        3.12275   0.00021   0.00326   0.01057   0.01387   3.13662
   D22       -0.00653   0.00022   0.00343   0.01408   0.01761   0.01108
   D23        0.01040   0.00016   0.00304   0.00127   0.00453   0.01492
   D24       -3.11888   0.00018   0.00322   0.00477   0.00826  -3.11061
   D25       -3.12599  -0.00003  -0.00072  -0.00085  -0.00158  -3.12757
   D26        0.01284  -0.00001  -0.00026   0.00067   0.00043   0.01327
   D27        0.00327  -0.00004  -0.00090  -0.00435  -0.00531  -0.00204
   D28       -3.14108  -0.00003  -0.00044  -0.00283  -0.00331   3.13880
   D29        3.12520   0.00006   0.00130   0.00275   0.00408   3.12929
   D30       -0.02826   0.00005   0.00115  -0.00066   0.00048  -0.02778
   D31       -0.00452   0.00007   0.00144   0.00616   0.00768   0.00316
[...]
    19  H    0.080532
    20  H    0.080532
    21  H    0.072403
    22  H    0.090294
 Sum of Mulliken charges =  -0.00000
 Mulliken charges with hydrogens summed into heavy atoms:
               1
     1  N   -0.063035
     2  C    0.244224
     3  C    0.244224
     4  N   -0.063035
     5  C   -0.128155
     6  C    0.105235
     7  C   -0.119430
     8  C   -0.038839
     9  C   -0.038839
    10  C   -0.119430
    11  C    0.105235
    12  C   -0.128155
 Electronic spatial extent (au):  <R**2>=           2115.0605
 Charge=             -0.0000 electrons
 Dipole moment (field-independent basis, Debye):
    X=             -6.9089    Y=             -0.0000    Z=              0.0000  Tot=              6.9089
 Quadrupole moment (field-independent basis, Debye-Ang):
   XX=            -53.4487   YY=            -57.4058   ZZ=            -74.9774
   XY=              0.0000   XZ=              0.0000   YZ=             -3.2766
 Traceless Quadrupole moment (field-independent basis, Debye-Ang):
   XX=              8.4953   YY=              4.5382   ZZ=            -13.0334
   XY=              0.0000   XZ=              0.0000   YZ=             -3.2766
 Octapole moment (field-independent basis, Debye-Ang**2):
  XXX=            -86.0511  YYY=             -0.0000  ZZZ=             -0.0000  XYY=            -32.9297
  XXY=             -0.0000  XXZ=             -0.0000  XZZ=            -12.3851  YZZ=             -0.0000
  YYZ=              0.0000  XYZ=             11.8617
 Hexadecapole moment (field-independent basis, Debye-Ang**3):
 XXXX=          -1753.5577 YYYY=           -579.8096 ZZZZ=            -79.3938 XXXY=              0.0000
 XXXZ=              0.0000 YYYX=              0.0000 YYYZ=            -10.1557 ZZZX=              0.0000
 ZZZY=             -3.4669 XXYY=           -368.9278 XXZZ=           -380.8327 YYZZ=           -140.6209
 XXYZ=            -41.2224 YYXZ=             -0.0000 ZZXY=              0.0000
 N-N= 6.404823108184D+02 E-N=-2.433585027192D+03  KE= 4.919813721642D+02
 Evaluate density.
 Using the total density.
 Monte-Carlo method of calculating molar volume:
 based on  0.001 e/bohr**3 density envelope.
 Number of points per bohr**3 =   20 CutOff= 1.00D-04
 Using the CI density.
 There are       356 points.  Will hold       356 in memory.
 LenV=   805169934 MDV=   805306368.
 Box volume = 5666.368 fraction occupied=0.202
 Integrated density= 5.1619518217536374D+01 error=-3.2380481782463626D+01
 Molar volume = 1146.007 bohr**3/mol (102.268 cm**3/mol)
 Recommended a0 for SCRF calculation =  4.28 angstrom (  8.09 bohr)
 ******************************Gaussian NBO Version 3.1******************************
             N A T U R A L   A T O M I C   O R B I T A L   A N D
          N A T U R A L   B O N D   O R B I T A L   A N A L Y S I S
 ******************************Gaussian NBO Version 3.1******************************
       /RESON  / : Allow strongly delocalized NBO set

 Analyzing the CI density

 Job title: XTBLDMQMUSHDEN-UHFFFAOYSA-N_conf_1                              

 Storage needed:    160404 in NPA ( 805303772 available)
 GSVD:  LWork=       31276 too small for GESVD, short by       11054 words or       11054 for optimal perf.


 NATURAL POPULATIONS:  Natural atomic orbital occupancies 
                                                          
   NAO  Atom  No  lang   Type(AO)    Occupancy
 --------------------------------------------
     1    N    1  S      Cor( 1S)     1.99951
     2    N    1  S      Val( 2S)     1.38000
     3    N    1  S      Ryd( 3S)     0.00023
     4    N    1  S      Ryd( 4S)     0.00001
     5    N    1  px     Val( 2p)     1.36878
     6    N    1  px     Ryd( 3p)     0.00278
     7    N    1  py     Val( 2p)     1.40174
     8    N    1  py     Ryd( 3p)     0.00204
     9    N    1  pz     Val( 2p)     1.63412
    10    N    1  pz     Ryd( 3p)     0.00362
    11    N    1  dxy    Ryd( 3d)     0.00033
    12    N    1  dxz    Ryd( 3d)     0.00116
    13    N    1  dyz    Ryd( 3d)     0.00068
    14    N    1  dx2y2  Ryd( 3d)     0.00057
    15    N    1  dz2    Ryd( 3d)     0.00080

    16    C    2  S      Cor( 1S)     1.99894
    17    C    2  S      Val( 2S)     0.84050
    18    C    2  S      Ryd( 3S)     0.00117
    19    C    2  S      Ryd( 4S)     0.00009
    20    C    2  px     Val( 2p)     0.95341
    21    C    2  px     Ryd( 3p)     0.00536
    22    C    2  py     Val( 2p)     1.02939
    23    C    2  py     Ryd( 3p)     0.00449
    24    C    2  pz     Val( 2p)     1.02125
    25    C    2  pz     Ryd( 3p)     0.00214
    26    C    2  dxy    Ryd( 3d)     0.00094
    27    C    2  dxz    Ryd( 3d)     0.00141
    28    C    2  dyz    Ryd( 3d)     0.00081
    29    C    2  dx2y2  Ryd( 3d)     0.00107
    30    C    2  dz2    Ryd( 3d)     0.00041

    31    C    3  S      Cor( 1S)     1.99894
    32    C    3  S      Val( 2S)     0.84050
    33    C    3  S      Ryd( 3S)     0.00117
    34    C    3  S      Ryd( 4S)     0.00009
    35    C    3  px     Val( 2p)     0.95341
    36    C    3  px     Ryd( 3p)     0.00536
    37    C    3  py     Val( 2p)     1.02939
    38    C    3  py     Ryd( 3p)     0.00449
    39    C    3  pz     Val( 2p)     1.02125
    40    C    3  pz     Ryd( 3p)     0.00214
    41    C    3  dxy    Ryd( 3d)     0.00094
    42    C    3  dxz    Ryd( 3d)     0.00141
    43    C    3  dyz    Ryd( 3d)     0.00081
    44    C    3  dx2y2  Ryd( 3d)     0.00107
    45    C    3  dz2    Ryd( 3d)     0.00041

    46    N    4  S      Cor( 1S)     1.99951
    47    N    4  S      Val( 2S)     1.38000
    48    N    4  S      Ryd( 3S)     0.00023
    49    N    4  S      Ryd( 4S)     0.00001
    50    N    4  px     Val( 2p)     1.36878
    51    N    4  px     Ryd( 3p)     0.00278
    52    N    4  py     Val( 2p)     1.40174
    53    N    4  py     Ryd( 3p)     0.00204
    54    N    4  pz     Val( 2p)     1.63412
    55    N    4  pz     Ryd( 3p)     0.00362
    56    N    4  dxy    Ryd( 3d)     0.00033
    57    N    4  dxz    Ryd( 3d)     0.00116
    58    N    4  dyz    Ryd( 3d)     0.00068
    59    N    4  dx2y2  Ryd( 3d)     0.00057
    60    N    4  dz2    Ryd( 3d)     0.00080

    61    C    5  S      Cor( 1S)     1.99902
    62    C    5  S      Val( 2S)     0.93894
    63    C    5  S      Ryd( 3S)     0.00075
    64    C    5  S      Ryd( 4S)     0.00006
    65    C    5  px     Val( 2p)     1.04920
    66    C    5  px     Ryd( 3p)     0.00380
    67    C    5  py     Val( 2p)     1.19627
    68    C    5  py     Ryd( 3p)     0.00422
    69    C    5  pz     Val( 2p)     1.10797
    70    C    5  pz     Ryd( 3p)     0.00278
    71    C    5  dxy    Ryd( 3d)     0.00060
    72    C    5  dxz    Ryd( 3d)     0.00060
    73    C    5  dyz    Ryd( 3d)     0.00033
    74    C    5  dx2y2  Ryd( 3d)     0.00063
    75    C    5  dz2    Ryd( 3d)     0.00037

    76    C    6  S      Cor( 1S)     1.99903
    77    C    6  S      Val( 2S)     0.87100
    78    C    6  S      Ryd( 3S)     0.00042
    79    C    6  S      Ryd( 4S)     0.00006
    80    C    6  px     Val( 2p)     1.09552
    81    C    6  px     Ryd( 3p)     0.00478
    82    C    6  py     Val( 2p)     1.07744
    83    C    6  py     Ryd( 3p)     0.00559
    84    C    6  pz     Val( 2p)     0.96998
    85    C    6  pz     Ryd( 3p)     0.00085
    86    C    6  dxy    Ryd( 3d)     0.00066
    87    C    6  dxz    Ryd( 3d)     0.00101
    88    C    6  dyz    Ryd( 3d)     0.00049
    89    C    6  dx2y2  Ryd( 3d)     0.00078
    90    C    6  dz2    Ryd( 3d)     0.00033

    91    C    7  S      Cor( 1S)     1.99908
    92    C    7  S      Val( 2S)     0.94395
    93    C    7  S      Ryd( 3S)     0.00066
    94    C    7  S      Ryd( 4S)     0.00004
    95    C    7  px     Val( 2p)     1.04977
    96    C    7  px     Ryd( 3p)     0.00428
    97    C    7  py     Val( 2p)     1.19290
    98    C    7  py     Ryd( 3p)     0.00468
    99    C    7  pz     Val( 2p)     1.10596
   100    C    7  pz     Ryd( 3p)     0.00308
   101    C    7  dxy    Ryd( 3d)     0.00062
   102    C    7  dxz    Ryd( 3d)     0.00052
   103    C    7  dyz    Ryd( 3d)     0.00029
   104    C    7  dx2y2  Ryd( 3d)     0.00071
   105    C    7  dz2    Ryd( 3d)     0.00035

   106    C    8  S      Cor( 1S)     1.99912
   107    C    8  S      Val( 2S)     0.96201
   108    C    8  S      Ryd( 3S)     0.00055
   109    C    8  S      Ryd( 4S)     0.00003
   110    C    8  px     Val( 2p)     1.16761
   111    C    8  px     Ryd( 3p)     0.00482
   112    C    8  py     Val( 2p)     1.08991
   113    C    8  py     Ryd( 3p)     0.00479
   114    C    8  pz     Val( 2p)     1.02040
   115    C    8  pz     Ryd( 3p)     0.00237
   116    C    8  dxy    Ryd( 3d)     0.00072
   117    C    8  dxz    Ryd( 3d)     0.00048
   118    C    8  dyz    Ryd( 3d)     0.00058
   119    C    8  dx2y2  Ryd( 3d)     0.00065
   120    C    8  dz2    Ryd( 3d)     0.00036

   121    C    9  S      Cor( 1S)     1.99912
   122    C    9  S      Val( 2S)     0.96201
   123    C    9  S      Ryd( 3S)     0.00055
   124    C    9  S      Ryd( 4S)     0.00003
   125    C    9  px     Val( 2p)     1.16761
   126    C    9  px     Ryd( 3p)     0.00482
   127    C    9  py     Val( 2p)     1.08991
   128    C    9  py     Ryd( 3p)     0.00479
   129    C    9  pz     Val( 2p)     1.02040
   130    C    9  pz     Ryd( 3p)     0.00237
   131    C    9  dxy    Ryd( 3d)     0.00072
   132    C    9  dxz    Ryd( 3d)     0.00048
   133    C    9  dyz    Ryd( 3d)     0.00058
   134    C    9  dx2y2  Ryd( 3d)     0.00065
   135    C    9  dz2    Ryd( 3d)     0.00036

   136    C   10  S      Cor( 1S)     1.99908
   137    C   10  S      Val( 2S)     0.94395
   138    C   10  S      Ryd( 3S)     0.00066
   139    C   10  S      Ryd( 4S)     0.00004
   140    C   10  px     Val( 2p)     1.04977
   141    C   10  px     Ryd( 3p)     0.00428
   142    C   10  py     Val( 2p)     1.19290
   143    C   10  py     Ryd( 3p)     0.00468
   144    C   10  pz     Val( 2p)     1.10596
   145    C   10  pz     Ryd( 3p)     0.00308
   146    C   10  dxy    Ryd( 3d)     0.00062
   147    C   10  dxz    Ryd( 3d)     0.00052
   148    C   10  dyz    Ryd( 3d)     0.00029
   149    C   10  dx2y2  Ryd( 3d)     0.00071
   150    C   10  dz2    Ryd( 3d)     0.00035

   151    C   11  S      Cor( 1S)     1.99903
   152    C   11  S      Val( 2S)     0.87100
   153    C   11  S      Ryd( 3S)     0.00042
   154    C   11  S      Ryd( 4S)     0.00006
   155    C   11  px     Val( 2p)     1.09552
   156    C   11  px     Ryd( 3p)     0.00478
   157    C   11  py     Val( 2p)     1.07744
   158    C   11  py     Ryd( 3p)     0.00559
   159    C   11  pz     Val( 2p)     0.96998
   160    C   11  pz     Ryd( 3p)     0.00085
   161    C   11  dxy    Ryd( 3d)     0.00066
   162    C   11  dxz    Ryd( 3d)     0.00101
   163    C   11  dyz    Ryd( 3d)     0.00049
   164    C   11  dx2y2  Ryd( 3d)     0.00078
   165    C   11  dz2    Ryd( 3d)     0.00033

   166    C   12  S      Cor( 1S)     1.99902
   167    C   12  S      Val( 2S)     0.93894
   168    C   12  S      Ryd( 3S)     0.00075
   169    C   12  S      Ryd( 4S)     0.00006
   170    C   12  px     Val( 2p)     1.04920
   171    C   12  px     Ryd( 3p)     0.00380
   172    C   12  py     Val( 2p)     1.19627
   173    C   12  py     Ryd( 3p)     0.00422
   174    C   12  pz     Val( 2p)     1.10797
   175    C   12  pz     Ryd( 3p)     0.00278
   176    C   12  dxy    Ryd( 3d)     0.00060
   177    C   12  dxz    Ryd( 3d)     0.00060
   178    C   12  dyz    Ryd( 3d)     0.00033
   179    C   12  dx2y2  Ryd( 3d)     0.00063
   180    C   12  dz2    Ryd( 3d)     0.00037

   181    H   13  S      Val( 1S)     0.57326
   182    H   13  S      Ryd( 2S)     0.00130
   183    H   13  px     Ryd( 2p)     0.00022
   184    H   13  py     Ryd( 2p)     0.00059
   185    H   13  pz     Ryd( 2p)     0.00043

   186    H   14  S      Val( 1S)     0.57549
   187    H   14  S      Ryd( 2S)     0.00222
   188    H   14  px     Ryd( 2p)     0.00042
   189    H   14  py     Ryd( 2p)     0.00029
   190    H   14  pz     Ryd( 2p)     0.00060

   191    H   15  S      Val( 1S)     0.57326
   192    H   15  S      Ryd( 2S)     0.00130
   193    H   15  px     Ryd( 2p)     0.00022
   194    H   15  py     Ryd( 2p)     0.00059
   195    H   15  pz     Ryd( 2p)     0.00043

   196    H   16  S      Val( 1S)     0.57549
   197    H   16  S      Ryd( 2S)     0.00222
   198    H   16  px     Ryd( 2p)     0.00042
   199    H   16  py     Ryd( 2p)     0.00029
   200    H   16  pz     Ryd( 2p)     0.00060

   201    H   17  S      Val( 1S)     0.75841
   202    H   17  S      Ryd( 2S)     0.00112
   203    H   17  px     Ryd( 2p)     0.00006
   204    H   17  py     Ryd( 2p)     0.00040
   205    H   17  pz     Ryd( 2p)     0.00016

   206    H   18  S      Val( 1S)     0.76664
   207    H   18  S      Ryd( 2S)     0.00102
   208    H   18  px     Ryd( 2p)     0.00006
   209    H   18  py     Ryd( 2p)     0.00040
   210    H   18  pz     Ryd( 2p)     0.00016

   211    H   19  S      Val( 1S)     0.76279
   212    H   19  S      Ryd( 2S)     0.00085
   213    H   19  px     Ryd( 2p)     0.00033
   214    H   19  py     Ryd( 2p)     0.00015
   215    H   19  pz     Ryd( 2p)     0.00015

   216    H   20  S      Val( 1S)     0.76279
   217    H   20  S      Ryd( 2S)     0.00085
   218    H   20  px     Ryd( 2p)     0.00033
   219    H   20  py     Ryd( 2p)     0.00015
   220    H   20  pz     Ryd( 2p)     0.00015

   221    H   21  S      Val( 1S)     0.76664
   222    H   21  S      Ryd( 2S)     0.00102
   223    H   21  px     Ryd( 2p)     0.00006
   224    H   21  py     Ryd( 2p)     0.00040
   225    H   21  pz     Ryd( 2p)     0.00016

   226    H   22  S      Val( 1S)     0.75841
   227    H   22  S      Ryd( 2S)     0.00112
   228    H   22  px     Ryd( 2p)     0.00006
   229    H   22  py     Ryd( 2p)     0.00040
   230    H   22  pz     Ryd( 2p)     0.00016

 WARNING:  1 low occupancy (<1.9990e) core orbital  found on  C    2
           1 low occupancy (<1.9990e) core orbital  found on  C    3


 Summary of Natural Population Analysis:                  
                                                          
                                       Natural Population 
                Natural  -----------------------------------------------
    Atom  No    Charge         Core      Valence    Rydberg      Total
 -----------------------------------------------------------------------
      N    1   -0.79636      1.99951     5.78463    0.01222     7.79636
      C    2    0.13861      1.99894     3.84455    0.01791     5.86139
      C    3    0.13861      1.99894     3.84455    0.01791     5.86139
      N    4   -0.79636      1.99951     5.78463    0.01222     7.79636
      C    5   -0.30552      1.99902     4.29237    0.01413     6.30552
      C    6   -0.02795      1.99903     4.01393    0.01498     6.02795
      C    7   -0.30689      1.99908     4.29258    0.01523     6.30689
      C    8   -0.25441      1.99912     4.23993    0.01536     6.25441
      C    9   -0.25441      1.99912     4.23993    0.01536     6.25441
      C   10   -0.30689      1.99908     4.29258    0.01523     6.30689
      C   11   -0.02795      1.99903     4.01393    0.01498     6.02795
      C   12   -0.30552      1.99902     4.29237    0.01413     6.30552
      H   13    0.42422      0.00000     0.57326    0.00253     0.57578
      H   14    0.42098      0.00000     0.57549    0.00352     0.57902
      H   15    0.42422      0.00000     0.57326    0.00253     0.57578
      H   16    0.42098      0.00000     0.57549    0.00352     0.57902
      H   17    0.23986      0.00000     0.75841    0.00173     0.76014
      H   18    0.23172      0.00000     0.76664    0.00164     0.76828
      H   19    0.23574      0.00000     0.76279    0.00147     0.76426
      H   20    0.23574      0.00000     0.76279    0.00147     0.76426
      H   21    0.23172      0.00000     0.76664    0.00164     0.76828
      H   22    0.23986      0.00000     0.75841    0.00173     0.76014
 =======================================================================
   * Total *   -0.00000     23.98939    59.80917    0.20144    84.00000

                                 Natural Population      
 --------------------------------------------------------
   Core                      23.98939 ( 99.9558% of  24)
   Valence                   59.80917 ( 99.6819% of  60)
   Natural Minimal Basis     83.79856 ( 99.7602% of  84)
   Natural Rydberg Basis      0.20144 (  0.2398% of  84)
 --------------------------------------------------------

    Atom  No          Natural Electron Configuration
 ----------------------------------------------------------------------------
      N    1      [core]2S( 1.38)2p( 4.40)3p( 0.01)
      C    2      [core]2S( 0.84)2p( 3.00)3p( 0.01)
      C    3      [core]2S( 0.84)2p( 3.00)3p( 0.01)
      N    4      [core]2S( 1.38)2p( 4.40)3p( 0.01)
      C    5      [core]2S( 0.94)2p( 3.35)3p( 0.01)
      C    6      [core]2S( 0.87)2p( 3.14)3p( 0.01)
      C    7      [core]2S( 0.94)2p( 3.35)3p( 0.01)
      C    8      [core]2S( 0.96)2p( 3.28)3p( 0.01)
      C    9      [core]2S( 0.96)2p( 3.28)3p( 0.01)
      C   10      [core]2S( 0.94)2p( 3.35)3p( 0.01)
      C   11      [core]2S( 0.87)2p( 3.14)3p( 0.01)
      C   12      [core]2S( 0.94)2p( 3.35)3p( 0.01)
      H   13            1S( 0.57)
      H   14            1S( 0.58)
      H   15            1S( 0.57)
      H   16            1S( 0.58)
      H   17            1S( 0.76)
      H   18            1S( 0.77)
      H   19            1S( 0.76)
      H   20            1S( 0.76)
      H   21            1S( 0.77)
      H   22            1S( 0.76)


 NBO analysis skipped by request.
 1\1\GINC-CN36\SP\RB3LYP TD-FC\6-31G(d,p)\C10H10N2\QDUEZ\11-Jul-2024\0\
 \# TD(NStates=10, Root=1) B3LYP/6-31G** SCRF=(Solvent=water) volume po
 p=NPA density=current Geom=AllCheck Guess=Read\\XTBLDMQMUSHDEN-UHFFFAO
 YSA-N_conf_1\\0,1\N,0,-2.9490438621,-0.9009154762,-1.1930765064\C,0,-1
 .6981325082,-0.4850564685,-0.7162268446\C,0,-1.6755036521,0.6164810882
 ,0.2118757927\N,0,-2.9098980334,1.1291585818,0.6344107956\C,0,-0.46571
 83977,1.0779310655,0.6897526474\C,0,0.7680423946,0.5071497863,0.276383
 2641\C,0,2.0215421952,0.9726657399,0.7559455975\C,0,3.2029121413,0.406
 5490234,0.3225859408\C,0,3.1820082881,-0.6552823415,-0.6136704194\C,0,
 1.9802270817,-1.1285601425,-1.0991122116\C,0,0.7469974384,-0.566170238
 9,-0.6738956464\C,0,-0.5082006808,-1.0399907172,-1.1416595207\H,0,-2.9
 1491639,-1.7758185102,-1.7031694812\H,0,-3.6560652609,-0.949653868,-0.
 4659570634\H,0,-2.8301271894,1.9996245487,1.1469929443\H,0,-3.57859584
 71,1.2314900075,-0.1227740475\H,0,-0.4526415571,1.9091558505,1.3912223
 175\H,0,2.0353739689,1.7885411419,1.4746691206\H,0,4.1529541023,0.7745
 688778,0.6992567466\H,0,4.1160813747,-1.0967004762,-0.9491651824\H,0,1
 .9619151278,-1.9442610123,-1.8179336467\H,0,-0.5292107342,-1.870906459
 9,-1.8433025575\\Version=EM64L-G16RevA.03\State=1-A\HF=-496.6336898\RM
 SD=6.401e-09\Dipole=-2.7154499,0.1057841,-0.0593443\Quadrupole=6.29042
 13,0.299993,-6.5904144,-0.3665258,0.5176491,6.0474818\PG=C01 [X(C10H10
 N2)]\\@


 SATCHEL PAIGE'S GUIDE TO LONGEVITY

    1.  AVOID FRIED MEATS, WHICH ANGRY UP THE BLOOD.

    2.  IF YOUR STOMACH DISPUTES YOU, LIE DOWN AND PACIFY IT WITH COOL
        THOUGHTS.

    3.  KEEP THE JUICES FLOWING BY JANGLING AROUND GENTLY AS YOU MOVE.

    4.  GO VERY LIGHT ON THE VICES, SUCH AS CARRYING ON IN SOCIETY.
        THE SOCIAL RUMBLE AIN'T RESTFUL.

    5.  AVOID RUNNING AT ALL TIMES.

    6.  DON'T LOOK BACK.  SOMETHING MAY BE GAINING ON YOU.
 Job cpu time:       0 days  0 hours 58 minutes 19.8 seconds.
 Elapsed time:       0 days  0 hours 23 minutes 26.6 seconds.
 File lengths (MBytes):  RWF=    472 Int=      0 D2E=      0 Chk=     29 Scr=      1
 Normal termination of Gaussian 16 at Thu Jul 11 20:03:29 2024.
