 Entering Gaussian System, Link 0=g16
 Initial command:
 /opt/sw/arch/manual/gaussian/G16_A03/g16/l1.exe "/scratch/1380810/Gau-28949.inp" -scrdir="/scratch/1380810/"
 Entering Link 1 = /opt/sw/arch/manual/gaussian/G16_A03/g16/l1.exe PID=     28950.
  
 Copyright (c) 1988,1990,1992,1993,1995,1998,2003,2009,2016,
            Gaussian, Inc.  All Rights Reserved.
  
 This is part of the Gaussian(R) 16 program.  It is based on
 the Gaussian(R) 09 system (copyright 2009, Gaussian, Inc.),
 the Gaussian(R) 03 system (copyright 2003, Gaussian, Inc.),
 the Gaussian(R) 98 system (copyright 1998, Gaussian, Inc.),
 the Gaussian(R) 94 system (copyright 1995, Gaussian, Inc.),
 the Gaussian 92(TM) system (copyright 1992, Gaussian, Inc.),
 the Gaussian 90(TM) system (copyright 1990, Gaussian, Inc.),
 the Gaussian 88(TM) system (copyright 1988, Gaussian, Inc.),
 the Gaussian 86(TM) system (copyright 1986, Carnegie Mellon
 University), and the Gaussian 82(TM) system (copyright 1983,
 Carnegie Mellon University). Gaussian is a federally registered
 trademark of Gaussian, Inc.
  
 This software contains proprietary and confidential information,
 including trade secrets, belonging to Gaussian, Inc.
  
 This software is provided under written license and may be
 used, copied, transmitted, or stored only in accord with that
 written license.
  
 The following legend is applicable only to US Government
 contracts under FAR:
  
                    RESTRICTED RIGHTS LEGEND
  
 Use, reproduction and disclosure by the US Government is
 subject to restrictions as set forth in subparagraphs (a)
 and (c) of the Commercial Computer Software - Restricted
 Rights clause in FAR 52.227-19.
  
 Gaussian, Inc.
 340 Quinnipiac St., Bldg. 40, Wallingford CT 06492
  
  
 ---------------------------------------------------------------
 Warning -- This program may not be used in any manner that
 competes with the business of Gaussian, Inc. or will provide
 assistance to any competitor of Gaussian, Inc.  The licensee
 of this program is prohibited from giving any competitor of
 Gaussian, Inc. access to this program.  By using this program,
 the user acknowledges that Gaussian, Inc. is engaged in the
 business of creating and licensing software in the field of
 computational chemistry and represents and warrants to the
 licensee that it is not a competitor of Gaussian, Inc. and that
 it will not use this program in any manner prohibited above.
 ---------------------------------------------------------------
  

 Cite this work as:
 Gaussian 16, Revision A.03,
 M. J. Frisch, G. W. Trucks, H. B. Schlegel, G. E. Scuseria, 
 M. A. Robb, J. R. Cheeseman, G. Scalmani, V. Barone, 
 G. A. Petersson, H. Nakatsuji, X. Li, M. Caricato, A. V. Marenich, 
 J. Bloino, B. G. Janesko, R. Gomperts, B. Mennucci, H. P. Hratchian, 
 J. V. Ortiz, A. F. Izmaylov, J. L. Sonnenberg, D. Williams-Young, 
 F. Ding, F. Lipparini, F. Egidi, J. Goings, B. Peng, A. Petrone, 
 T. Henderson, D. Ranasinghe, V. G. Zakrzewski, J. Gao, N. Rega, 
 G. Zheng, W. Liang, M. Hada, M. Ehara, K. Toyota, R. Fukuda, 
 J. Hasegawa, M. Ishida, T. Nakajima, Y. Honda, O. Kitao, H. Nakai, 
 T. Vreven, K. Throssell, J. A. Montgomery, Jr., J. E. Peralta, 
 F. Ogliaro, M. J. Bearpark, J. J. Heyd, E. N. Brothers, K. N. Kudin, 
 V. N. Staroverov, T. A. Keith, R. Kobayashi, J. Normand, 
 K. Raghavachari, A. P. Rendell, J. C. Burant, S. S. Iyengar, 
 J. Tomasi, M. Cossi, J. M. Millam, M. Klene, C. Adamo, R. Cammi, 
 J. W. Ochterski, R. L. Martin, K. Morokuma, O. Farkas, 
 J. B. Foresman, and D. J. Fox, Gaussian, Inc., Wallingford CT, 2016.
 
 ******************************************
 Gaussian 16:  ES64L-G16RevA.03 25-Dec-2016
                17-Jul-2024 
 ******************************************
 %nprocshared=7
 Will use up to    7 processors via shared memory.
 %mem=14GB
 %Chk=DXWQPWMYKQYRDS-UHFFFAOYSA-N_conf_4_0.chk
 -------------------------------------------------------
 # opt=CalcFc B3LYP/6-31G** SCRF=(Solvent=water) scf=xqc
 -------------------------------------------------------
 1/10=4,18=20,19=15,26=3,38=1/1,3;
 2/9=110,12=2,17=6,18=5,40=1/2;
 3/5=1,6=6,7=101,11=2,25=1,30=1,70=2201,71=2,72=1,74=-5,140=1/1,2,3;
 4//1;
 5/5=2,8=3,13=1,38=5,53=1/2,8;
 8/6=4,10=90,11=11/1;
 11/6=1,8=1,9=11,15=111,16=1/1,2,10;
 10/6=1,13=1/2;
 6/7=2,8=2,9=2,10=2,28=1/1;
 7/10=1,18=20,25=1/1,2,3,16;
 1/10=4,18=20,19=15,26=3/3(2);
 2/9=110/2;
 99//99;
 2/9=110/2;
 3/5=1,6=6,7=101,11=2,25=1,30=1,70=2205,71=1,72=1,74=-5/1,2,3;
 4/5=5,16=3,69=1/1;
 5/5=2,8=3,13=1,38=5,53=1/2,8;
 7//1,2,3,16;
 1/18=20,19=15,26=3/3(-5);
 2/9=110/2;
 6/7=2,8=2,9=2,10=2,19=2,28=1/1;
 99/9=1/99;
 ----------------------------------
 DXWQPWMYKQYRDS-UHFFFAOYSA-N_conf_4
 ----------------------------------
 Symbolic Z-matrix:
 Charge =  0 Multiplicity = 1
 C                    -5.00061  -0.41875  -0.5221 
 N                    -3.60441  -0.4864   -0.5174 
 C                    -2.82448   0.74192  -0.46791 
 C                    -1.36622   0.39789  -0.26868 
 C                    -0.7419    0.60594   0.96857 
 C                     0.60413   0.27599   1.14899 
 C                     1.34784  -0.2794    0.09914 
 C                     2.8068   -0.62861   0.28358 
 N                     3.62617   0.34714  -0.4207 
 C                     5.01392   0.33348  -0.25361 
 C                     5.7435    1.47108  -0.62981 
 C                     7.13891   1.50269  -0.54908 
 C                     7.83478   0.37983  -0.11452 
 C                     7.13401  -0.7739    0.22297 
 C                     5.73703  -0.79897   0.13925 
 C                     0.72275  -0.48752  -1.13816 
 C                    -0.62177  -0.15754  -1.31852 
 C                    -5.7268   -1.57638  -0.20513 
 C                    -7.12397  -1.59699  -0.25194 
 C                    -7.82221  -0.46096  -0.64656 
 C                    -7.1206    0.68539  -1.00664 
 C                    -5.7218    0.6991   -0.95802 
 H                    -3.25756  -1.18945   0.13033 
 H                    -2.92429   1.30917  -1.40137 
 H                    -3.16695   1.38569   0.352 
 H                    -1.29993   1.02794   1.80177 
 H                     1.06814   0.45513   2.11661 
 H                     2.97526  -1.63938  -0.10763 
 H                     3.05105  -0.63981   1.35324 
 H                     3.2428    1.28715  -0.36094 
 H                     5.22318   2.35309  -0.99535 
 H                     7.67775   2.40139  -0.83625 
 H                     8.91941   0.39795  -0.05477 
 H                     7.67221  -1.66281   0.54113 
 H                     5.2321   -1.7281    0.38396 
 H                     1.28792  -0.90564  -1.9693 
 H                    -1.09323  -0.33886  -2.28283 
 H                    -5.20224  -2.48408   0.08326 
 H                    -7.66127  -2.50437   0.00977 
 H                    -8.90772  -0.47367  -0.68927 
 H                    -7.65836   1.56959  -1.33836 
 H                    -5.21333   1.60406  -1.27508 
 

 GradGradGradGradGradGradGradGradGradGradGradGradGradGradGradGradGradGrad
 Berny optimization.
 Initialization pass.
                           ----------------------------
                           !    Initial Parameters    !
                           ! (Angstroms and Degrees)  !
 --------------------------                            --------------------------
 ! Name  Definition              Value          Derivative Info.                !
 --------------------------------------------------------------------------------
 ! R1    R(1,2)                  1.3978         calculate D2E/DX2 analytically  !
 ! R2    R(1,18)                 1.4028         calculate D2E/DX2 analytically  !
 ! R3    R(1,22)                 1.3999         calculate D2E/DX2 analytically  !
 ! R4    R(2,3)                  1.4559         calculate D2E/DX2 analytically  !
 ! R5    R(2,23)                 1.0169         calculate D2E/DX2 analytically  !
 ! R6    R(3,4)                  1.5115         calculate D2E/DX2 analytically  !
 ! R7    R(3,24)                 1.0969         calculate D2E/DX2 analytically  !
 ! R8    R(3,25)                 1.0973         calculate D2E/DX2 analytically  !
 ! R9    R(4,5)                  1.4014         calculate D2E/DX2 analytically  !
 ! R10   R(4,17)                 1.4017         calculate D2E/DX2 analytically  !
 ! R11   R(5,6)                  1.3976         calculate D2E/DX2 analytically  !
 ! R12   R(5,26)                 1.088          calculate D2E/DX2 analytically  !
 ! R13   R(6,7)                  1.4013         calculate D2E/DX2 analytically  !
 ! R14   R(6,27)                 1.088          calculate D2E/DX2 analytically  !
 ! R15   R(7,8)                  1.5115         calculate D2E/DX2 analytically  !
 ! R16   R(7,16)                 1.4018         calculate D2E/DX2 analytically  !
 ! R17   R(8,9)                  1.4558         calculate D2E/DX2 analytically  !
 ! R18   R(8,28)                 1.0968         calculate D2E/DX2 analytically  !
 ! R19   R(8,29)                 1.0972         calculate D2E/DX2 analytically  !
 ! R20   R(9,10)                 1.3978         calculate D2E/DX2 analytically  !
 ! R21   R(9,30)                 1.0169         calculate D2E/DX2 analytically  !
 ! R22   R(10,11)                1.4028         calculate D2E/DX2 analytically  !
 ! R23   R(10,15)                1.3999         calculate D2E/DX2 analytically  !
 ! R24   R(11,12)                1.3981         calculate D2E/DX2 analytically  !
 ! R25   R(11,31)                1.0873         calculate D2E/DX2 analytically  !
 ! R26   R(12,13)                1.3906         calculate D2E/DX2 analytically  !
 ! R27   R(12,32)                1.0865         calculate D2E/DX2 analytically  !
 ! R28   R(13,14)                1.3914         calculate D2E/DX2 analytically  !
 ! R29   R(13,33)                1.0864         calculate D2E/DX2 analytically  !
 ! R30   R(14,15)                1.3997         calculate D2E/DX2 analytically  !
 ! R31   R(14,34)                1.0868         calculate D2E/DX2 analytically  !
 ! R32   R(15,35)                1.0854         calculate D2E/DX2 analytically  !
 ! R33   R(16,17)                1.3961         calculate D2E/DX2 analytically  !
 ! R34   R(16,36)                1.0886         calculate D2E/DX2 analytically  !
 ! R35   R(17,37)                1.0886         calculate D2E/DX2 analytically  !
 ! R36   R(18,19)                1.3981         calculate D2E/DX2 analytically  !
 ! R37   R(18,38)                1.0873         calculate D2E/DX2 analytically  !
 ! R38   R(19,20)                1.3906         calculate D2E/DX2 analytically  !
 ! R39   R(19,39)                1.0865         calculate D2E/DX2 analytically  !
 ! R40   R(20,21)                1.3914         calculate D2E/DX2 analytically  !
 ! R41   R(20,40)                1.0864         calculate D2E/DX2 analytically  !
 ! R42   R(21,22)                1.3997         calculate D2E/DX2 analytically  !
 ! R43   R(21,41)                1.0868         calculate D2E/DX2 analytically  !
 ! R44   R(22,42)                1.0854         calculate D2E/DX2 analytically  !
 ! A1    A(2,1,18)             118.4473         calculate D2E/DX2 analytically  !
 ! A2    A(2,1,22)             123.6598         calculate D2E/DX2 analytically  !
 ! A3    A(18,1,22)            117.5565         calculate D2E/DX2 analytically  !
 ! A4    A(1,2,3)              119.6285         calculate D2E/DX2 analytically  !
 ! A5    A(1,2,23)             112.1031         calculate D2E/DX2 analytically  !
 ! A6    A(3,2,23)             112.267          calculate D2E/DX2 analytically  !
 ! A7    A(2,3,4)              109.2266         calculate D2E/DX2 analytically  !
 ! A8    A(2,3,24)             111.0177         calculate D2E/DX2 analytically  !
 ! A9    A(2,3,25)             110.6835         calculate D2E/DX2 analytically  !
 ! A10   A(4,3,24)             108.523          calculate D2E/DX2 analytically  !
 ! A11   A(4,3,25)             109.6433         calculate D2E/DX2 analytically  !
 ! A12   A(24,3,25)            107.7039         calculate D2E/DX2 analytically  !
 ! A13   A(3,4,5)              120.8244         calculate D2E/DX2 analytically  !
 ! A14   A(3,4,17)             120.2556         calculate D2E/DX2 analytically  !
 ! A15   A(5,4,17)             118.9115         calculate D2E/DX2 analytically  !
 ! A16   A(4,5,6)              120.531          calculate D2E/DX2 analytically  !
 ! A17   A(4,5,26)             120.3457         calculate D2E/DX2 analytically  !
 ! A18   A(6,5,26)             119.1232         calculate D2E/DX2 analytically  !
 ! A19   A(5,6,7)              120.5302         calculate D2E/DX2 analytically  !
 ! A20   A(5,6,27)             119.124          calculate D2E/DX2 analytically  !
 ! A21   A(7,6,27)             120.3458         calculate D2E/DX2 analytically  !
 ! A22   A(6,7,8)              120.8253         calculate D2E/DX2 analytically  !
 ! A23   A(6,7,16)             118.9115         calculate D2E/DX2 analytically  !
 ! A24   A(8,7,16)             120.2549         calculate D2E/DX2 analytically  !
 ! A25   A(7,8,9)              109.2309         calculate D2E/DX2 analytically  !
 ! A26   A(7,8,28)             108.5194         calculate D2E/DX2 analytically  !
 ! A27   A(7,8,29)             109.6448         calculate D2E/DX2 analytically  !
 ! A28   A(9,8,28)             111.0176         calculate D2E/DX2 analytically  !
 ! A29   A(9,8,29)             110.6806         calculate D2E/DX2 analytically  !
 ! A30   A(28,8,29)            107.7048         calculate D2E/DX2 analytically  !
 ! A31   A(8,9,10)             119.6285         calculate D2E/DX2 analytically  !
 ! A32   A(8,9,30)             112.2677         calculate D2E/DX2 analytically  !
 ! A33   A(10,9,30)            112.1029         calculate D2E/DX2 analytically  !
 ! A34   A(9,10,11)            118.4469         calculate D2E/DX2 analytically  !
 ! A35   A(9,10,15)            123.6607         calculate D2E/DX2 analytically  !
 ! A36   A(11,10,15)           117.5563         calculate D2E/DX2 analytically  !
 ! A37   A(10,11,12)           121.4613         calculate D2E/DX2 analytically  !
 ! A38   A(10,11,31)           119.9388         calculate D2E/DX2 analytically  !
 ! A39   A(12,11,31)           118.5998         calculate D2E/DX2 analytically  !
 ! A40   A(11,12,13)           119.9487         calculate D2E/DX2 analytically  !
 ! A41   A(11,12,32)           119.8961         calculate D2E/DX2 analytically  !
 ! A42   A(13,12,32)           120.152          calculate D2E/DX2 analytically  !
 ! A43   A(12,13,14)           119.5563         calculate D2E/DX2 analytically  !
 ! A44   A(12,13,33)           120.2175         calculate D2E/DX2 analytically  !
 ! A45   A(14,13,33)           120.2184         calculate D2E/DX2 analytically  !
 ! A46   A(13,14,15)           120.1987         calculate D2E/DX2 analytically  !
 ! A47   A(13,14,34)           119.9874         calculate D2E/DX2 analytically  !
 ! A48   A(15,14,34)           119.8098         calculate D2E/DX2 analytically  !
 ! A49   A(10,15,14)           121.1874         calculate D2E/DX2 analytically  !
 ! A50   A(10,15,35)           121.0275         calculate D2E/DX2 analytically  !
 ! A51   A(14,15,35)           117.7843         calculate D2E/DX2 analytically  !
 ! A52   A(7,16,17)            120.5565         calculate D2E/DX2 analytically  !
 ! A53   A(7,16,36)            119.9619         calculate D2E/DX2 analytically  !
 ! A54   A(17,16,36)           119.4811         calculate D2E/DX2 analytically  !
 ! A55   A(4,17,16)            120.5548         calculate D2E/DX2 analytically  !
 ! A56   A(4,17,37)            119.9622         calculate D2E/DX2 analytically  !
 ! A57   A(16,17,37)           119.4824         calculate D2E/DX2 analytically  !
 ! A58   A(1,18,19)            121.4606         calculate D2E/DX2 analytically  !
 ! A59   A(1,18,38)            119.94           calculate D2E/DX2 analytically  !
 ! A60   A(19,18,38)           118.5994         calculate D2E/DX2 analytically  !
 ! A61   A(18,19,20)           119.9487         calculate D2E/DX2 analytically  !
 ! A62   A(18,19,39)           119.8962         calculate D2E/DX2 analytically  !
 ! A63   A(20,19,39)           120.1518         calculate D2E/DX2 analytically  !
 ! A64   A(19,20,21)           119.5574         calculate D2E/DX2 analytically  !
 ! A65   A(19,20,40)           120.217          calculate D2E/DX2 analytically  !
 ! A66   A(21,20,40)           120.2178         calculate D2E/DX2 analytically  !
 ! A67   A(20,21,22)           120.1985         calculate D2E/DX2 analytically  !
 ! A68   A(20,21,41)           119.9861         calculate D2E/DX2 analytically  !
 ! A69   A(22,21,41)           119.8112         calculate D2E/DX2 analytically  !
 ! A70   A(1,22,21)            121.1872         calculate D2E/DX2 analytically  !
 ! A71   A(1,22,42)            121.0242         calculate D2E/DX2 analytically  !
 ! A72   A(21,22,42)           117.7877         calculate D2E/DX2 analytically  !
 ! D1    D(18,1,2,3)          -162.8692         calculate D2E/DX2 analytically  !
 ! D2    D(18,1,2,23)          -28.3239         calculate D2E/DX2 analytically  !
 ! D3    D(22,1,2,3)            23.9629         calculate D2E/DX2 analytically  !
 ! D4    D(22,1,2,23)          158.5083         calculate D2E/DX2 analytically  !
 ! D5    D(2,1,18,19)         -176.9471         calculate D2E/DX2 analytically  !
 ! D6    D(2,1,18,38)            2.9595         calculate D2E/DX2 analytically  !
 ! D7    D(22,1,18,19)          -3.3596         calculate D2E/DX2 analytically  !
 ! D8    D(22,1,18,38)         176.547          calculate D2E/DX2 analytically  !
 ! D9    D(2,1,22,21)          176.5987         calculate D2E/DX2 analytically  !
 ! D10   D(2,1,22,42)           -3.052          calculate D2E/DX2 analytically  !
 ! D11   D(18,1,22,21)           3.3743         calculate D2E/DX2 analytically  !
 ! D12   D(18,1,22,42)        -176.2764         calculate D2E/DX2 analytically  !
 ! D13   D(1,2,3,4)            171.7697         calculate D2E/DX2 analytically  !
 ! D14   D(1,2,3,24)           -68.5981         calculate D2E/DX2 analytically  !
 ! D15   D(1,2,3,25)            50.9579         calculate D2E/DX2 analytically  !
 ! D16   D(23,2,3,4)            37.2923         calculate D2E/DX2 analytically  !
 ! D17   D(23,2,3,24)          156.9246         calculate D2E/DX2 analytically  !
 ! D18   D(23,2,3,25)          -83.5195         calculate D2E/DX2 analytically  !
 ! D19   D(2,3,4,5)           -106.1247         calculate D2E/DX2 analytically  !
 ! D20   D(2,3,4,17)            72.8001         calculate D2E/DX2 analytically  !
 ! D21   D(24,3,4,5)           132.7144         calculate D2E/DX2 analytically  !
 ! D22   D(24,3,4,17)          -48.3608         calculate D2E/DX2 analytically  !
 ! D23   D(25,3,4,5)            15.3196         calculate D2E/DX2 analytically  !
 ! D24   D(25,3,4,17)         -165.7556         calculate D2E/DX2 analytically  !
 ! D25   D(3,4,5,6)            179.5022         calculate D2E/DX2 analytically  !
 ! D26   D(3,4,5,26)            -0.5542         calculate D2E/DX2 analytically  !
 ! D27   D(17,4,5,6)             0.5632         calculate D2E/DX2 analytically  !
 ! D28   D(17,4,5,26)         -179.4932         calculate D2E/DX2 analytically  !
 ! D29   D(3,4,17,16)         -179.489          calculate D2E/DX2 analytically  !
 ! D30   D(3,4,17,37)            0.2374         calculate D2E/DX2 analytically  !
 ! D31   D(5,4,17,16)           -0.5438         calculate D2E/DX2 analytically  !
 ! D32   D(5,4,17,37)          179.1826         calculate D2E/DX2 analytically  !
 ! D33   D(4,5,6,7)             -0.5799         calculate D2E/DX2 analytically  !
 ! D34   D(4,5,6,27)           179.4741         calculate D2E/DX2 analytically  !
 ! D35   D(26,5,6,7)           179.4758         calculate D2E/DX2 analytically  !
 ! D36   D(26,5,6,27)           -0.4702         calculate D2E/DX2 analytically  !
 ! D37   D(5,6,7,8)            179.513          calculate D2E/DX2 analytically  !
 ! D38   D(5,6,7,16)             0.5586         calculate D2E/DX2 analytically  !
 ! D39   D(27,6,7,8)            -0.5417         calculate D2E/DX2 analytically  !
 ! D40   D(27,6,7,16)         -179.496          calculate D2E/DX2 analytically  !
 ! D41   D(6,7,8,9)           -106.2362         calculate D2E/DX2 analytically  !
 ! D42   D(6,7,8,28)           132.6027         calculate D2E/DX2 analytically  !
 ! D43   D(6,7,8,29)            15.2081         calculate D2E/DX2 analytically  !
 ! D44   D(16,7,8,9)            72.7042         calculate D2E/DX2 analytically  !
 ! D45   D(16,7,8,28)          -48.457          calculate D2E/DX2 analytically  !
 ! D46   D(16,7,8,29)         -165.8515         calculate D2E/DX2 analytically  !
 ! D47   D(6,7,16,17)           -0.5393         calculate D2E/DX2 analytically  !
 ! D48   D(6,7,16,36)          179.1897         calculate D2E/DX2 analytically  !
 ! D49   D(8,7,16,17)         -179.4997         calculate D2E/DX2 analytically  !
 ! D50   D(8,7,16,36)            0.2293         calculate D2E/DX2 analytically  !
 ! D51   D(7,8,9,10)           171.7757         calculate D2E/DX2 analytically  !
 ! D52   D(7,8,9,30)            37.298          calculate D2E/DX2 analytically  !
 ! D53   D(28,8,9,10)          -68.5939         calculate D2E/DX2 analytically  !
 ! D54   D(28,8,9,30)          156.9284         calculate D2E/DX2 analytically  !
 ! D55   D(29,8,9,10)           50.9612         calculate D2E/DX2 analytically  !
 ! D56   D(29,8,9,30)          -83.5166         calculate D2E/DX2 analytically  !
 ! D57   D(8,9,10,11)         -162.8873         calculate D2E/DX2 analytically  !
 ! D58   D(8,9,10,15)           23.942          calculate D2E/DX2 analytically  !
 ! D59   D(30,9,10,11)         -28.3412         calculate D2E/DX2 analytically  !
 ! D60   D(30,9,10,15)         158.4881         calculate D2E/DX2 analytically  !
 ! D61   D(9,10,11,12)        -176.9486         calculate D2E/DX2 analytically  !
 ! D62   D(9,10,11,31)           2.9469         calculate D2E/DX2 analytically  !
 ! D63   D(15,10,11,12)         -3.3584         calculate D2E/DX2 analytically  !
 ! D64   D(15,10,11,31)        176.5371         calculate D2E/DX2 analytically  !
 ! D65   D(9,10,15,14)         176.6059         calculate D2E/DX2 analytically  !
 ! D66   D(9,10,15,35)          -3.0534         calculate D2E/DX2 analytically  !
 ! D67   D(11,10,15,14)          3.3787         calculate D2E/DX2 analytically  !
 ! D68   D(11,10,15,35)       -176.2806         calculate D2E/DX2 analytically  !
 ! D69   D(10,11,12,13)          1.3639         calculate D2E/DX2 analytically  !
 ! D70   D(10,11,12,32)       -179.288          calculate D2E/DX2 analytically  !
 ! D71   D(31,11,12,13)       -178.533          calculate D2E/DX2 analytically  !
 ! D72   D(31,11,12,32)          0.8151         calculate D2E/DX2 analytically  !
 ! D73   D(11,12,13,14)          0.7141         calculate D2E/DX2 analytically  !
 ! D74   D(11,12,13,33)        179.6987         calculate D2E/DX2 analytically  !
 ! D75   D(32,12,13,14)       -178.6323         calculate D2E/DX2 analytically  !
 ! D76   D(32,12,13,33)          0.3523         calculate D2E/DX2 analytically  !
 ! D77   D(12,13,14,15)         -0.6863         calculate D2E/DX2 analytically  !
 ! D78   D(12,13,14,34)        178.5695         calculate D2E/DX2 analytically  !
 ! D79   D(33,13,14,15)       -179.671          calculate D2E/DX2 analytically  !
 ! D80   D(33,13,14,34)         -0.4151         calculate D2E/DX2 analytically  !
 ! D81   D(13,14,15,10)         -1.422          calculate D2E/DX2 analytically  !
 ! D82   D(13,14,15,35)        178.248          calculate D2E/DX2 analytically  !
 ! D83   D(34,14,15,10)        179.3208         calculate D2E/DX2 analytically  !
 ! D84   D(34,14,15,35)         -1.0092         calculate D2E/DX2 analytically  !
 ! D85   D(7,16,17,4)            0.5406         calculate D2E/DX2 analytically  !
 ! D86   D(7,16,17,37)        -179.1871         calculate D2E/DX2 analytically  !
 ! D87   D(36,16,17,4)        -179.1897         calculate D2E/DX2 analytically  !
 ! D88   D(36,16,17,37)          1.0826         calculate D2E/DX2 analytically  !
 ! D89   D(1,18,19,20)           1.371          calculate D2E/DX2 analytically  !
 ! D90   D(1,18,19,39)        -179.2976         calculate D2E/DX2 analytically  !
 ! D91   D(38,18,19,20)       -178.5367         calculate D2E/DX2 analytically  !
 ! D92   D(38,18,19,39)          0.7946         calculate D2E/DX2 analytically  !
 ! D93   D(18,19,20,21)          0.7066         calculate D2E/DX2 analytically  !
 ! D94   D(18,19,20,40)        179.6941         calculate D2E/DX2 analytically  !
 ! D95   D(39,19,20,21)       -178.623          calculate D2E/DX2 analytically  !
 ! D96   D(39,19,20,40)          0.3645         calculate D2E/DX2 analytically  !
 ! D97   D(19,20,21,22)         -0.6843         calculate D2E/DX2 analytically  !
 ! D98   D(19,20,21,41)        178.5713         calculate D2E/DX2 analytically  !
 ! D99   D(40,20,21,22)       -179.6718         calculate D2E/DX2 analytically  !
 ! D100  D(40,20,21,41)         -0.4161         calculate D2E/DX2 analytically  !
 ! D101  D(20,21,22,1)          -1.4179         calculate D2E/DX2 analytically  !
 ! D102  D(20,21,22,42)        178.2436         calculate D2E/DX2 analytically  !
 ! D103  D(41,21,22,1)         179.3251         calculate D2E/DX2 analytically  !
 ! D104  D(41,21,22,42)         -1.0133         calculate D2E/DX2 analytically  !
 --------------------------------------------------------------------------------
 Trust Radius=3.00D-01 FncErr=1.00D-07 GrdErr=1.00D-06 EigMax=2.50D+02 EigMin=1.00D-04
 Number of steps in this run=    230 maximum allowed number of steps=    252.
 GradGradGradGradGradGradGradGradGradGradGradGradGradGradGradGradGradGrad

                          Input orientation:                          
 ---------------------------------------------------------------------
 Center     Atomic      Atomic             Coordinates (Angstroms)
 Number     Number       Type             X           Y           Z
 ---------------------------------------------------------------------
      1          6           0       -5.000611   -0.418749   -0.522103
      2          7           0       -3.604410   -0.486399   -0.517404
      3          6           0       -2.824477    0.741917   -0.467915
      4          6           0       -1.366225    0.397894   -0.268680
      5          6           0       -0.741904    0.605936    0.968566
      6          6           0        0.604130    0.275988    1.148988
      7          6           0        1.347838   -0.279405    0.099138
      8          6           0        2.806803   -0.628613    0.283583
      9          7           0        3.626167    0.347143   -0.420700
     10          6           0        5.013916    0.333484   -0.253610
     11          6           0        5.743501    1.471084   -0.629814
     12          6           0        7.138910    1.502690   -0.549077
     13          6           0        7.834783    0.379827   -0.114518
     14          6           0        7.134011   -0.773898    0.222970
     15          6           0        5.737032   -0.798970    0.139253
     16          6           0        0.722750   -0.487518   -1.138162
     17          6           0       -0.621766   -0.157542   -1.318523
     18          6           0       -5.726796   -1.576383   -0.205129
     19          6           0       -7.123973   -1.596995   -0.251940
     20          6           0       -7.822210   -0.460961   -0.646564
     21          6           0       -7.120597    0.685387   -1.006639
     22          6           0       -5.721805    0.699096   -0.958018
     23          1           0       -3.257562   -1.189449    0.130326
     24          1           0       -2.924291    1.309169   -1.401373
     25          1           0       -3.166945    1.385689    0.351999
     26          1           0       -1.299931    1.027943    1.801774
     27          1           0        1.068141    0.455134    2.116610
     28          1           0        2.975255   -1.639378   -0.107632
     29          1           0        3.051050   -0.639812    1.353235
     30          1           0        3.242796    1.287154   -0.360938
     31          1           0        5.223178    2.353087   -0.995345
     32          1           0        7.677755    2.401386   -0.836248
     33          1           0        8.919407    0.397952   -0.054766
     34          1           0        7.672207   -1.662811    0.541132
     35          1           0        5.232098   -1.728096    0.383957
     36          1           0        1.287924   -0.905644   -1.969301
     37          1           0       -1.093232   -0.338864   -2.282835
     38          1           0       -5.202242   -2.484084    0.083262
     39          1           0       -7.661265   -2.504365    0.009774
     40          1           0       -8.907721   -0.473674   -0.689275
     41          1           0       -7.658361    1.569594   -1.338358
     42          1           0       -5.213326    1.604056   -1.275079
 ---------------------------------------------------------------------
                    Distance matrix (angstroms):
                    1          2          3          4          5
     1  C    0.000000
     2  N    1.397847   0.000000
     3  C    2.466909   1.455853   0.000000
     4  C    3.733617   2.419362   1.511472   0.000000
     5  C    4.626949   3.405179   2.533590   1.401369   0.000000
     6  C    5.889680   4.590197   3.819269   2.430420   1.397579
     7  C    6.380295   4.994771   4.332766   2.821376   2.430382
     8  C    7.851680   6.462620   5.844178   4.332767   3.819245
     9  N    8.661303   7.279106   6.462885   4.994963   4.590978
    10  C   10.046327   8.661255   7.851952   6.380483   5.890451
    11  C   10.909584   9.551326   8.600474   7.199330   6.735264
    12  C   12.290672  10.925951   9.992719   8.581172   8.075558
    13  C   12.866670  11.479016  10.671262   9.202317   8.647761
    14  C   12.162661  10.767753  10.096856   8.594697   8.030560
    15  C   10.764708   9.369708   8.720231   7.214925   6.681177
    16  C    5.756833   4.371460   3.813603   2.429767   2.789114
    17  C    4.458340   3.105818   2.526756   1.401748   2.414148
    18  C    1.402831   2.406263   3.723846   4.787107   5.566796
    19  C    2.443342   3.700164   4.899267   6.093565   6.861001
    20  C    2.824658   4.219853   5.143555   6.523816   7.340139
    21  C    2.438899   3.738449   4.330134   5.808617   6.677983
    22  C    1.399900   2.466354   2.938800   4.420067   5.340395
    23  H    2.014414   1.016925   2.067760   2.501204   3.202278
    24  H    2.840761   2.113772   1.096851   2.130959   3.297569
    25  H    2.717054   2.109965   1.097263   2.145595   2.620877
    26  H    4.603081   3.603116   2.749098   2.165211   1.087989
    27  H    6.675045   5.445847   4.681291   3.408669   2.148723
    28  H    8.079367   6.692479   6.279910   4.798423   4.474026
    29  H    8.270128   6.915054   6.304568   4.818688   4.010780
    30  H    8.419611   7.074900   6.092662   4.694930   4.255523
    31  H   10.603438   9.285334   8.224281   6.911660   6.518565
    32  H   12.992029  11.650245  10.638909   9.280607   8.796116
    33  H   13.951785  12.563523  11.756182  10.287856   9.717582
    34  H   12.778047  11.387122  10.815788   9.305673   8.725089
    35  H   10.355852   8.968731   8.469655   6.963018   6.440355
    36  H    6.471253   5.120420   4.677655   3.411132   3.877646
    37  H    4.286510   3.073195   2.731159   2.161980   3.404069
    38  H    2.161650   2.627662   4.045324   4.810893   5.497872
    39  H    3.422246   4.561598   5.844746   6.937448   7.646621
    40  H    3.911070   5.306110   6.207457   7.603335   8.402057
    41  H    3.418100   4.619046   4.980878   6.489073   7.354448
    42  H    2.168861   2.744574   2.664844   4.155461   5.101353
                    6          7          8          9         10
     6  C    0.000000
     7  C    1.401338   0.000000
     8  C    2.533574   1.511471   0.000000
     9  N    3.406125   2.419416   1.455840   0.000000
    10  C    4.627828   3.733656   2.466892   1.397839   0.000000
    11  C    5.568260   4.787216   3.723872   2.406258   1.402839
    12  C    6.862329   6.093649   4.899278   3.700153   2.443347
    13  C    7.340952   6.523855   5.143542   4.219866   2.824675
    14  C    6.678256   5.808584   4.330071   3.738451   2.438899
    15  C    5.340578   4.420020   2.938723   2.466349   1.399890
    16  C    2.414139   1.401769   2.526765   3.105034   4.457643
    17  C    2.789154   2.429805   3.813625   4.371010   5.756393
    18  C    6.733910   7.198971   8.599966   9.551143  10.909301
    19  C    8.074295   8.580844   9.992240  10.925825  12.290447
    20  C    8.646983   9.202109  10.670951  11.479084  12.866689
    21  C    8.030301   8.594647  10.096758  10.768038  12.162947
    22  C    6.681014   7.214908   8.720180   9.370013  10.765016
    23  H    4.254156   4.694557   6.092170   7.074635   8.419268
    24  H    4.474545   4.798561   6.280088   6.692959   8.079879
    25  H    4.010940   4.818687   6.304583   6.915346   8.270453
    26  H    2.148725   3.408638   4.681277   5.446955   6.676192
    27  H    1.087977   2.165173   2.749081   3.604595   4.604550
    28  H    3.296961   2.130907   1.096846   2.113756   2.840710
    29  H    2.620653   2.145596   1.097241   2.109901   2.717001
    30  H    3.203887   2.501328   2.067768   1.016939   2.014415
    31  H    5.499828   4.811046   4.045376   2.627637   2.161656
    32  H    7.648179   6.937537   5.844749   4.561574   3.422239
    33  H    8.402840   7.603364   6.207435   5.306118   3.911081
    34  H    7.354328   6.488976   4.980769   4.619035   3.418088
    35  H    5.100951   4.155394   2.664769   2.744650   2.168919
    36  H    3.404049   2.161991   2.731158   3.071647   4.285096
    37  H    3.877691   3.411181   4.677684   5.119656   6.470476
    38  H    6.516726   6.911180   8.223606   9.284967  10.602926
    39  H    8.794597   9.280215  10.638321  11.650001  12.991650
    40  H    9.716816  10.287654  11.755872  12.563606  13.951820
    41  H    8.725197   9.305741  10.815842  11.387583  12.778546
    42  H    6.440703   6.963101   8.469752   8.969193  10.356361
                   11         12         13         14         15
    11  C    0.000000
    12  C    1.398100   0.000000
    13  C    2.414505   1.390649   0.000000
    14  C    2.775014   2.403941   1.391424   0.000000
    15  C    2.396801   2.781493   2.419612   1.399710   0.000000
    16  C    5.413176   6.743519   7.237482   6.560408   5.183803
    17  C    6.606313   7.973488   8.558716   7.931467   6.555215
    18  C   11.875822  13.233495  13.702241  12.892929  11.495317
    19  C   13.233586  14.598841  15.089437  14.289616  12.891676
    20  C   13.702613  15.089749  15.688576  14.984744  13.586199
    21  C   12.893577  14.290237  14.985080  14.381769  12.993652
    22  C   11.495953  12.892284  13.586556  12.993708  11.608322
    23  H    9.416761  10.760847  11.205476  10.400291   9.003070
    24  H    8.703570  10.101082  10.875539  10.399379   9.046341
    25  H    8.964782  10.345834  11.057461  10.525691   9.170540
    26  H    7.464512   8.773023   9.356027   8.767590   7.457911
    27  H    5.516702   6.712488   7.125381   6.472339   5.223147
    28  H    4.196527   5.234834   5.262343   4.260705   2.897352
    29  H    3.954448   4.991964   5.106669   4.238637   2.951877
    30  H    2.521835   3.906604   4.687250   4.441895   3.289881
    31  H    1.087326   2.142979   3.389705   3.861814   3.389222
    32  H    2.156250   1.086496   2.152267   3.391168   3.867853
    33  H    3.401275   2.152896   1.086420   2.153603   3.405551
    34  H    3.861647   3.390186   2.151436   1.086761   2.156996
    35  H    3.394704   3.865807   3.386117   2.133936   1.085409
    36  H    5.224484   6.484685   6.924884   6.245010   4.924626
    37  H    7.262872   8.611934   9.215616   8.611379   7.261592
    38  H   11.660237  12.984538  13.349349  12.455014  11.068444
    39  H   13.996465  15.343207  15.762663  14.897657  13.507017
    40  H   14.779849  16.168489  16.774095  16.070454  14.671778
    41  H   13.420940  14.818456  15.586880  15.058019  13.683200
    42  H   10.976616  12.373968  13.156701  12.663157  11.299788
                   16         17         18         19         20
    16  C    0.000000
    17  C    1.396116   0.000000
    18  C    6.607029   5.414249   0.000000
    19  C    7.974171   6.744503   1.398113   0.000000
    20  C    8.559131   7.238092   2.414496   1.390625   0.000000
    21  C    7.931651   6.560686   2.775013   2.403924   1.391412
    22  C    6.555364   5.184032   2.396804   2.781484   2.419594
    23  H    4.236113   3.179845   2.521779   3.906579   4.687245
    24  H    4.074098   2.731250   4.196600   5.234914   5.262386
    25  H    4.567189   3.413231   3.954377   4.991915   5.106734
    26  H    3.876995   3.406103   5.514282   6.710253   7.123995
    27  H    3.406087   3.877022   7.462486   8.771088   9.354822
    28  H    2.731767   4.074390   8.702826  10.100348  10.874942
    29  H    3.413390   4.567324   8.964165  10.345235  11.057078
    30  H    3.178706   4.235441   9.416884  10.761046  11.205885
    31  H    5.323841   6.369543  11.660494  12.984912  13.350006
    32  H    7.537175   8.698434  13.996533  15.343390  15.763182
    33  H    8.315226   9.640521  14.779441  16.168139  16.774078
    34  H    7.245432   8.632157  13.420047  14.817565  15.586277
    35  H    4.918343   6.295459  10.975764  12.373118  13.156084
    36  H    1.088596   2.151763   7.264192   8.613205   9.216393
    37  H    2.151782   1.088602   5.226684   6.486699   6.926141
    38  H    6.370532   5.325275   1.087312   2.142974   3.389677
    39  H    8.699261   7.538335   2.156271   1.086507   2.152251
    40  H    9.640937   8.315825   3.401271   2.152875   1.086425
    41  H    8.632196   7.245485   3.861647   3.390156   2.151413
    42  H    6.295270   4.918083   3.394648   3.865762   3.386089
                   21         22         23         24         25
    21  C    0.000000
    22  C    1.399703   0.000000
    23  H    4.441930   3.289923   0.000000
    24  H    4.260740   2.897385   2.949621   0.000000
    25  H    4.238830   2.952094   2.586249   1.771737   0.000000
    26  H    6.471837   5.222792   3.397482   3.602469   2.390726
    27  H    8.767161   7.457628   5.036038   5.389350   4.681425
    28  H   10.398989   9.046020   6.253564   6.721037   6.862137
    29  H   10.525566   9.170471   6.449511   6.862295   6.615784
    30  H   10.400912   9.003688   6.973490   6.254275   6.450022
    31  H   12.455927  11.069315   9.259570   8.224103   8.552506
    32  H   14.898486  13.507806  11.550303  10.673128  10.956783
    33  H   16.070793  14.672138  12.281395  11.954783  12.133466
    34  H   15.057778  13.683041  10.947725  11.175498  11.261277
    35  H   12.662848  11.299564   8.510510   8.884765   8.957712
    36  H    8.611696   7.261830   5.015019   4.792774   5.521277
    37  H    6.245549   4.925057   3.351292   2.616441   3.770506
    38  H    3.861802   3.389225   2.336680   4.667116   4.380615
    39  H    3.391156   3.867854   4.597406   6.242861   5.953869
    40  H    2.153591   3.405536   5.753988   6.283872   6.123560
    41  H    1.086761   2.157006   5.397813   4.741646   4.802493
    42  H    2.133938   1.085371   3.688340   2.311405   2.623498
                   26         27         28         29         30
    26  H    0.000000
    27  H    2.456623   0.000000
    28  H    5.388660   3.601572   0.000000
    29  H    4.681200   2.390309   1.771725   0.000000
    30  H    5.037945   3.399946   2.949633   2.586185   0.000000
    31  H    7.220169   5.527280   4.667009   4.380800   2.336792
    32  H    9.457503   7.496283   6.242768   5.953916   4.597422
    33  H   10.405696   8.146197   6.283825   6.123482   5.753984
    34  H    9.451383   7.112068   4.741603   4.802201   5.397750
    35  H    7.230032   5.010700   2.311465   2.623134   3.688350
    36  H    4.965557   4.312156   2.617492   3.770746   3.349137
    37  H    4.312182   4.965590   4.793270   5.521472   5.013857
    38  H    5.524096   7.217423   8.223224   8.551666   9.259493
    39  H    7.493666   9.455154  10.672280  10.956056  11.550394
    40  H    8.144853  10.404494  11.954175  12.133081  12.281832
    41  H    7.112203   9.451490  11.175239  11.261333  10.948532
    42  H    5.011346   7.230519   8.884574   8.957839   8.511291
                   31         32         33         34         35
    31  H    0.000000
    32  H    2.460202   0.000000
    33  H    4.285949   2.483176   0.000000
    34  H    4.948328   4.291258   2.481400   0.000000
    35  H    4.307970   4.952045   4.278879   2.446037   0.000000
    36  H    5.201360   7.283556   7.975233   6.901786   4.665915
    37  H    6.985791   9.302247  10.283975   9.303792   7.003681
    38  H   11.543439  13.806072  14.413401  12.908740  10.466011
    39  H   13.806303  16.126614  16.832894  15.365739  12.922129
    40  H   14.414110  16.833466  17.859698  16.667992  14.235866
    41  H   12.909901  15.366861  16.668615  15.779963  13.416596
    42  H   10.467087  12.923168  14.236502  13.416706  11.088846
                   36         37         38         39         40
    36  H    0.000000
    37  H    2.467680   0.000000
    38  H    6.987613   5.204261   0.000000
    39  H    9.303797   7.285912   2.460205   0.000000
    40  H   10.284757   7.976455   4.285923   2.483149   0.000000
    41  H    9.303811   6.901823   4.948315   4.291225   2.481361
    42  H    7.003341   4.665370   4.307911   4.952008   4.278864
                   41         42
    41  H    0.000000
    42  H    2.446096   0.000000
 Stoichiometry    C20H20N2
 Framework group  C1[X(C20H20N2)]
 Deg. of freedom   120
 Full point group                 C1      NOp   1
 Largest Abelian subgroup         C1      NOp   1
 Largest concise Abelian subgroup C1      NOp   1
                         Standard orientation:                         
 ---------------------------------------------------------------------
 Center     Atomic      Atomic             Coordinates (Angstroms)
 Number     Number       Type             X           Y           Z
 ---------------------------------------------------------------------
      1          6           0        5.021523    0.126936   -0.108564
      2          7           0        3.631266    0.244402   -0.194363
      3          6           0        2.788513   -0.873702    0.204529
      4          6           0        1.343634   -0.430062    0.212023
      5          6           0        0.666850   -0.208187    1.418908
      6          6           0       -0.666087    0.211938    1.418588
      7          6           0       -1.343548    0.429714    0.211373
      8          6           0       -2.788358    0.873560    0.203180
      9          7           0       -3.631370   -0.244992   -0.193863
     10          6           0       -5.021593   -0.127031   -0.108323
     11          6           0       -5.794660   -1.297242   -0.138858
     12          6           0       -7.191830   -1.249463   -0.121072
     13          6           0       -7.844288   -0.021542   -0.100785
     14          6           0       -7.097810    1.152627   -0.113452
     15          6           0       -5.699302    1.097651   -0.131906
     16          6           0       -0.665992    0.207861   -0.995547
     17          6           0        0.665426   -0.212215   -0.995236
     18          6           0        5.794278    1.297301   -0.140646
     19          6           0        7.191472    1.249896   -0.122728
     20          6           0        7.844228    0.022187   -0.100899
     21          6           0        7.098073   -1.152188   -0.112004
     22          6           0        5.699556   -1.097609   -0.130483
     23          1           0        3.298360    1.130045    0.178394
     24          1           0        2.891716   -1.712956   -0.494101
     25          1           0        3.068997   -1.233758    1.202364
     26          1           0        1.173319   -0.362048    2.369453
     27          1           0       -1.172012    0.368994    2.368886
     28          1           0       -2.891376    1.711686   -0.496822
     29          1           0       -3.068791    1.235282    1.200404
     30          1           0       -3.298704   -1.130109    0.180393
     31          1           0       -5.307547   -2.268524   -0.178989
     32          1           0       -7.765445   -2.172110   -0.133852
     33          1           0       -8.929847    0.020734   -0.091851
     34          1           0       -7.600761    2.115969   -0.121249
     35          1           0       -5.156505    2.036789   -0.170678
     36          1           0       -1.179863    0.358974   -1.943251
     37          1           0        1.178788   -0.366429   -1.942723
     38          1           0        5.306936    2.268404   -0.181933
     39          1           0        7.764865    2.172674   -0.136886
     40          1           0        8.929805   -0.019796   -0.091934
     41          1           0        7.601304   -2.115394   -0.118562
     42          1           0        5.156970   -2.036874   -0.168079
 ---------------------------------------------------------------------
 Rotational constants (GHZ):           1.6052078           0.0681962           0.0671534
 Standard basis: 6-31G(d,p) (6D, 7F)
 There are   430 symmetry adapted cartesian basis functions of A   symmetry.
 There are   430 symmetry adapted basis functions of A   symmetry.
   430 basis functions,   756 primitive gaussians,   430 cartesian basis functions
    77 alpha electrons       77 beta electrons
       nuclear repulsion energy      1493.7562538471 Hartrees.
 NAtoms=   42 NActive=   42 NUniq=   42 SFac= 1.00D+00 NAtFMM=   60 NAOKFM=F Big=F
 Integral buffers will be    131072 words long.
 Raffenetti 2 integral format.
 Two-electron integral symmetry is turned on.
 Force inversion solution in PCM.
 ------------------------------------------------------------------------------
 Polarizable Continuum Model (PCM)
 =================================
 Model                : PCM.
 Atomic radii         : UFF (Universal Force Field).
 Polarization charges : Total charges.
 Charge compensation  : None.
 Solution method      : Matrix inversion.
 Cavity type          : Scaled VdW (van der Waals Surface) (Alpha=1.100).
 Cavity algorithm     : GePol (No added spheres)
                        Default sphere list used, NSphG=   42.
                        Lebedev-Laikov grids with approx.  5.0 points / Ang**2.
                        Smoothing algorithm: York/Karplus (Gamma=1.0000).
                        Polarization charges: spherical gaussians, with
                                              point-specific exponents (IZeta= 3).
                        Self-potential: point-specific (ISelfS= 7).
                        Self-field    : sphere-specific E.n sum rule (ISelfD= 2).
 1st derivatives      : Analytical E(r).r(x)/FMM algorithm (CHGder, D1EAlg=3).
                        Cavity 1st derivative terms included.
 2nd derivatives      : Analytical E(r).r(xy)/FMM algorithm (CHGder, D2EAlg=3).
                        Cavity 2nd derivative terms included.
 Solvent              : Water, Eps=  78.355300 Eps(inf)=   1.777849
 ------------------------------------------------------------------------------
 One-electron integrals computed using PRISM.
 NBasis=   430 RedAO= T EigKep=  4.26D-04  NBF=   430
 NBsUse=   430 1.00D-06 EigRej= -1.00D+00 NBFU=   430
 ExpMin= 1.61D-01 ExpMax= 4.17D+03 ExpMxC= 6.27D+02 IAcc=3 IRadAn=         5 AccDes= 0.00D+00
 Harris functional with IExCor=  402 and IRadAn=       5 diagonalized for initial guess.
 HarFok:  IExCor=  402 AccDes= 0.00D+00 IRadAn=         5 IDoV= 1 UseB2=F ITyADJ=14
 ICtDFT=  3500011 ScaDFX=  1.000000  1.000000  1.000000  1.000000
 FoFCou: FMM=F IPFlag=           0 FMFlag=      100000 FMFlg1=           0
         NFxFlg=           0 DoJE=T BraDBF=F KetDBF=T FulRan=T
         wScrn=  0.000000 ICntrl=       500 IOpCl=  0 I1Cent=   200000004 NGrid=           0
         NMat0=    1 NMatS0=      1 NMatT0=    0 NMatD0=    1 NMtDS0=    0 NMtDT0=    0
 Petite list used in FoFCou.
 Requested convergence on RMS density matrix=1.00D-08 within  32 cycles.
 Requested convergence on MAX density matrix=1.00D-06.
 Requested convergence on             energy=1.00D-06.
 No special actions if energy rises.
 Inv3:  Mode=1 IEnd=    29203200.
 Iteration    1 A*A^-1 deviation from unit magnitude is 3.11D-15 for   1271.
 Iteration    1 A*A^-1 deviation from orthogonality  is 2.66D-15 for   1636     60.
 Iteration    1 A^-1*A deviation from unit magnitude is 3.11D-15 for    431.
 Iteration    1 A^-1*A deviation from orthogonality  is 2.44D-15 for   2662   1136.
 Error on total polarization charges =  0.01363
 SCF Done:  E(RB3LYP) =  -883.715168492     A.U. after   12 cycles
            NFock= 12  Conv=0.47D-08     -V/T= 2.0097
 QCSCF skips out because SCF is already converged.
 DoSCS=F DFT=T ScalE2(SS,OS)=  1.000000  1.000000
 Range of M.O.s used for correlation:     1   430
 NBasis=   430 NAE=    77 NBE=    77 NFC=     0 NFV=     0
 NROrb=    430 NOA=    77 NOB=    77 NVA=   353 NVB=   353
 Symmetrizing basis deriv contribution to polar:
 IMax=3 JMax=2 DiffMx= 0.00D+00
 G2DrvN: will do    43 centers at a time, making    1 passes.
 Calling FoFCou, ICntrl=  3107 FMM=F I1Cent=   0 AccDes= 0.00D+00.
 NEqPCM:  Using equilibrium solvation (IEInf=0, Eps=  78.3553, EpsInf=   1.7778)
 G2PCM: DoFxE=T DoFxN=T DoGrad=T DoDP/DQ/DG/TGxP=FFFF NFrqRd=   0 IEInf=0 SqF1=F DoCFld=F IF1Alg=4.
 End of G2Drv F.D. properties file   721 does not exist.
 End of G2Drv F.D. properties file   722 does not exist.
 End of G2Drv F.D. properties file   788 does not exist.
          IDoAtm=111111111111111111111111111111111111111111
 NEqPCM:  Using equilibrium solvation (IEInf=0, Eps=  78.3553, EpsInf=   1.7778)
          Differentiating once with respect to nuclear coordinates.
 CalDSu exits because no D1Ps are significant.
          There are   129 degrees of freedom in the 1st order CPHF.  IDoFFX=6 NUNeed=     0.
    123 vectors produced by pass  0 Test12= 2.72D-14 1.00D-09 XBig12= 1.66D-01 2.17D-01.
 AX will form   123 AO Fock derivatives at one time.
    123 vectors produced by pass  1 Test12= 2.72D-14 1.00D-09 XBig12= 3.80D-02 4.72D-02.
    123 vectors produced by pass  2 Test12= 2.72D-14 1.00D-09 XBig12= 2.31D-04 3.54D-03.
    123 vectors produced by pass  3 Test12= 2.72D-14 1.00D-09 XBig12= 5.44D-07 1.21D-04.
    123 vectors produced by pass  4 Test12= 2.72D-14 1.00D-09 XBig12= 6.46D-10 4.85D-06.
     84 vectors produced by pass  5 Test12= 2.72D-14 1.00D-09 XBig12= 6.32D-13 9.76D-08.
     14 vectors produced by pass  6 Test12= 2.72D-14 1.00D-09 XBig12= 6.96D-16 3.37D-09.
 InvSVY:  IOpt=1 It=  1 EMax= 5.00D-16
 Solved reduced A of dimension   713 with   129 vectors.
 End of Minotr F.D. properties file   721 does not exist.
 End of Minotr F.D. properties file   722 does not exist.
 End of Minotr F.D. properties file   788 does not exist.

 **********************************************************************

            Population analysis using the SCF density.

 **********************************************************************

 Orbital symmetries:
       Occupied  (A) (A) (A) (A) (A) (A) (A) (A) (A) (A) (A) (A)
                 (A) (A) (A) (A) (A) (A) (A) (A) (A) (A) (A) (A)
                 (A) (A) (A) (A) (A) (A) (A) (A) (A) (A) (A) (A)
                 (A) (A) (A) (A) (A) (A) (A) (A) (A) (A) (A) (A)
                 (A) (A) (A) (A) (A) (A) (A) (A) (A) (A) (A) (A)
                 (A) (A) (A) (A) (A) (A) (A) (A) (A) (A) (A) (A)
                 (A) (A) (A) (A) (A)
       Virtual   (A) (A) (A) (A) (A) (A) (A) (A) (A) (A) (A) (A)
                 (A) (A) (A) (A) (A) (A) (A) (A) (A) (A) (A) (A)
                 (A) (A) (A) (A) (A) (A) (A) (A) (A) (A) (A) (A)
                 (A) (A) (A) (A) (A) (A) (A) (A) (A) (A) (A) (A)
                 (A) (A) (A) (A) (A) (A) (A) (A) (A) (A) (A) (A)
                 (A) (A) (A) (A) (A) (A) (A) (A) (A) (A) (A) (A)
                 (A) (A) (A) (A) (A) (A) (A) (A) (A) (A) (A) (A)
                 (A) (A) (A) (A) (A) (A) (A) (A) (A) (A) (A) (A)
                 (A) (A) (A) (A) (A) (A) (A) (A) (A) (A) (A) (A)
                 (A) (A) (A) (A) (A) (A) (A) (A) (A) (A) (A) (A)
                 (A) (A) (A) (A) (A) (A) (A) (A) (A) (A) (A) (A)
                 (A) (A) (A) (A) (A) (A) (A) (A) (A) (A) (A) (A)
                 (A) (A) (A) (A) (A) (A) (A) (A) (A) (A) (A) (A)
                 (A) (A) (A) (A) (A) (A) (A) (A) (A) (A) (A) (A)
                 (A) (A) (A) (A) (A) (A) (A) (A) (A) (A) (A) (A)
                 (A) (A) (A) (A) (A) (A) (A) (A) (A) (A) (A) (A)
                 (A) (A) (A) (A) (A) (A) (A) (A) (A) (A) (A) (A)
                 (A) (A) (A) (A) (A) (A) (A) (A) (A) (A) (A) (A)
                 (A) (A) (A) (A) (A) (A) (A) (A) (A) (A) (A) (A)
                 (A) (A) (A) (A) (A) (A) (A) (A) (A) (A) (A) (A)
                 (A) (A) (A) (A) (A) (A) (A) (A) (A) (A) (A) (A)
                 (A) (A) (A) (A) (A) (A) (A) (A) (A) (A) (A) (A)
                 (A) (A) (A) (A) (A) (A) (A) (A) (A) (A) (A) (A)
                 (A) (A) (A) (A) (A) (A) (A) (A) (A) (A) (A) (A)
                 (A) (A) (A) (A) (A) (A) (A) (A) (A) (A) (A) (A)
                 (A) (A) (A) (A) (A) (A) (A) (A) (A) (A) (A) (A)
                 (A) (A) (A) (A) (A) (A) (A) (A) (A) (A) (A) (A)
                 (A) (A) (A) (A) (A) (A) (A) (A) (A) (A) (A) (A)
                 (A) (A) (A) (A) (A) (A) (A) (A) (A) (A) (A) (A)
                 (A) (A) (A) (A) (A)
 The electronic state is 1-A.
 Alpha  occ. eigenvalues --  -14.34238 -14.34238 -10.22490 -10.22489 -10.21985
 Alpha  occ. eigenvalues --  -10.21985 -10.20058 -10.20057 -10.19381 -10.19335
 Alpha  occ. eigenvalues --  -10.19327 -10.19281 -10.18692 -10.18692 -10.18663
 Alpha  occ. eigenvalues --  -10.18663 -10.18187 -10.18187 -10.18166 -10.18166
 Alpha  occ. eigenvalues --  -10.17693 -10.17692  -0.93464  -0.93391  -0.86124
 Alpha  occ. eigenvalues --   -0.84067  -0.83562  -0.78328  -0.74755  -0.74490
 Alpha  occ. eigenvalues --   -0.73983  -0.73841  -0.72197  -0.68868  -0.65269
 Alpha  occ. eigenvalues --   -0.61164  -0.61011  -0.60391  -0.58846  -0.58362
 Alpha  occ. eigenvalues --   -0.57329  -0.52832  -0.52648  -0.50518  -0.48820
 Alpha  occ. eigenvalues --   -0.48569  -0.47149  -0.46765  -0.45883  -0.45345
 Alpha  occ. eigenvalues --   -0.44096  -0.43360  -0.43229  -0.42240  -0.41667
 Alpha  occ. eigenvalues --   -0.41573  -0.41168  -0.41110  -0.40229  -0.38711
 Alpha  occ. eigenvalues --   -0.36865  -0.36586  -0.36297  -0.35323  -0.34839
 Alpha  occ. eigenvalues --   -0.34169  -0.33717  -0.33652  -0.33581  -0.29535
 Alpha  occ. eigenvalues --   -0.29482  -0.25552  -0.24793  -0.24745  -0.24744
 Alpha  occ. eigenvalues --   -0.20162  -0.20072
 Alpha virt. eigenvalues --   -0.01216  -0.00859  -0.00011  -0.00001   0.01731
 Alpha virt. eigenvalues --    0.01817   0.09456   0.09879   0.10045   0.10897
 Alpha virt. eigenvalues --    0.11041   0.11963   0.12159   0.13255   0.14898
 Alpha virt. eigenvalues --    0.15137   0.15801   0.15913   0.16566   0.16800
 Alpha virt. eigenvalues --    0.17118   0.17458   0.18164   0.18593   0.19495
 Alpha virt. eigenvalues --    0.19807   0.19866   0.20391   0.21241   0.22612
 Alpha virt. eigenvalues --    0.23178   0.24861   0.25351   0.26756   0.28361
 Alpha virt. eigenvalues --    0.30674   0.30715   0.31333   0.32462   0.33339
 Alpha virt. eigenvalues --    0.33503   0.34456   0.34840   0.35226   0.36109
 Alpha virt. eigenvalues --    0.36828   0.37047   0.46886   0.47321   0.48249
 Alpha virt. eigenvalues --    0.51207   0.51929   0.52203   0.52323   0.52501
 Alpha virt. eigenvalues --    0.53279   0.53762   0.54139   0.54186   0.55161
 Alpha virt. eigenvalues --    0.56117   0.56560   0.56704   0.57243   0.57579
 Alpha virt. eigenvalues --    0.58635   0.59116   0.59309   0.59381   0.59714
 Alpha virt. eigenvalues --    0.59993   0.60079   0.60079   0.60323   0.61095
 Alpha virt. eigenvalues --    0.61394   0.61674   0.61717   0.61811   0.62480
 Alpha virt. eigenvalues --    0.62560   0.63284   0.63561   0.64705   0.65090
 Alpha virt. eigenvalues --    0.66848   0.66960   0.67772   0.68613   0.71409
 Alpha virt. eigenvalues --    0.72090   0.74088   0.74155   0.77605   0.78257
 Alpha virt. eigenvalues --    0.78796   0.79940   0.80864   0.81669   0.82152
 Alpha virt. eigenvalues --    0.82202   0.82229   0.83039   0.83052   0.83308
 Alpha virt. eigenvalues --    0.83474   0.84090   0.84502   0.84706   0.84983
 Alpha virt. eigenvalues --    0.85312   0.87207   0.88641   0.89227   0.89276
 Alpha virt. eigenvalues --    0.89644   0.89810   0.92190   0.92515   0.93441
 Alpha virt. eigenvalues --    0.94130   0.95135   0.95843   0.96748   0.98060
 Alpha virt. eigenvalues --    0.98837   0.99846   1.01518   1.02170   1.02177
 Alpha virt. eigenvalues --    1.04828   1.04833   1.04959   1.10085   1.10099
 Alpha virt. eigenvalues --    1.11438   1.12348   1.13791   1.15887   1.16035
 Alpha virt. eigenvalues --    1.16963   1.17395   1.18071   1.18594   1.22774
 Alpha virt. eigenvalues --    1.24179   1.24255   1.25372   1.27019   1.27693
 Alpha virt. eigenvalues --    1.29157   1.29441   1.34846   1.34970   1.36196
 Alpha virt. eigenvalues --    1.36926   1.39934   1.40424   1.40675   1.40873
 Alpha virt. eigenvalues --    1.41568   1.41618   1.42209   1.42694   1.42787
 Alpha virt. eigenvalues --    1.43543   1.44540   1.45877   1.46129   1.50231
 Alpha virt. eigenvalues --    1.50318   1.51229   1.55242   1.60835   1.61236
 Alpha virt. eigenvalues --    1.68985   1.70984   1.71449   1.75153   1.76160
 Alpha virt. eigenvalues --    1.76188   1.77107   1.77396   1.79875   1.80700
 Alpha virt. eigenvalues --    1.80795   1.81135   1.82453   1.83198   1.84116
 Alpha virt. eigenvalues --    1.85552   1.87690   1.88352   1.88677   1.88890
 Alpha virt. eigenvalues --    1.91447   1.91602   1.92668   1.92927   1.93059
 Alpha virt. eigenvalues --    1.94332   1.94342   1.95679   1.96334   1.96436
 Alpha virt. eigenvalues --    1.96854   1.97149   1.97973   1.98412   1.98878
 Alpha virt. eigenvalues --    2.00694   2.01201   2.01313   2.02583   2.03115
 Alpha virt. eigenvalues --    2.06506   2.06516   2.07990   2.09279   2.10741
 Alpha virt. eigenvalues --    2.11067   2.11929   2.12233   2.19064   2.19541
 Alpha virt. eigenvalues --    2.23956   2.24413   2.24497   2.26278   2.27050
 Alpha virt. eigenvalues --    2.27715   2.29010   2.30305   2.30925   2.31817
 Alpha virt. eigenvalues --    2.32405   2.32885   2.33315   2.34304   2.36629
 Alpha virt. eigenvalues --    2.36777   2.38164   2.38481   2.38925   2.38975
 Alpha virt. eigenvalues --    2.39756   2.40930   2.40997   2.41980   2.42218
 Alpha virt. eigenvalues --    2.43748   2.44565   2.45375   2.45704   2.46037
 Alpha virt. eigenvalues --    2.46496   2.47222   2.47616   2.48603   2.50536
 Alpha virt. eigenvalues --    2.50902   2.50947   2.52519   2.53716   2.53761
 Alpha virt. eigenvalues --    2.55191   2.57425   2.58152   2.59066   2.59560
 Alpha virt. eigenvalues --    2.59758   2.60069   2.60930   2.62299   2.62988
 Alpha virt. eigenvalues --    2.64523   2.65022   2.66957   2.68648   2.69903
 Alpha virt. eigenvalues --    2.71520   2.71929   2.73670   2.74257   2.74532
 Alpha virt. eigenvalues --    2.75401   2.76760   2.77153   2.80076   2.81017
 Alpha virt. eigenvalues --    2.81396   2.83619   2.84672   2.86906   2.87720
 Alpha virt. eigenvalues --    2.90543   2.90970   2.97351   2.98269   3.01663
 Alpha virt. eigenvalues --    3.06064   3.06252   3.06462   3.10703   3.11241
 Alpha virt. eigenvalues --    3.19614   3.19663   3.20064   3.24399   3.24427
 Alpha virt. eigenvalues --    3.24429   3.25557   3.25561   3.27374   3.27774
 Alpha virt. eigenvalues --    3.31640   3.33939   3.34718   3.37504   3.41429
 Alpha virt. eigenvalues --    3.42013   3.44622   3.44791   3.49910   3.50613
 Alpha virt. eigenvalues --    3.50837   3.53658   3.54450   3.82141   3.90201
 Alpha virt. eigenvalues --    3.90217   4.12843   4.13449   4.13484   4.13757
 Alpha virt. eigenvalues --    4.15056   4.15741   4.16122   4.16152   4.20015
 Alpha virt. eigenvalues --    4.20314   4.21800   4.40939   4.43343   4.43951
 Alpha virt. eigenvalues --    4.43971   4.45450   4.46400   4.56680   4.59695
 Alpha virt. eigenvalues --    4.82728   4.84008   4.85331
          Condensed to atoms (all electrons):
               1          2          3          4          5          6
     1  C    4.577831   0.278961  -0.033043   0.004167  -0.000161   0.000003
     2  N    0.278961   6.995082   0.273981  -0.053314  -0.001789  -0.000107
     3  C   -0.033043   0.273981   4.889941   0.358657  -0.048460   0.006607
     4  C    0.004167  -0.053314   0.358657   4.782149   0.547928  -0.032278
     5  C   -0.000161  -0.001789  -0.048460   0.547928   4.925560   0.483723
     6  C    0.000003  -0.000107   0.006607  -0.032278   0.483723   4.925545
     7  C   -0.000000   0.000035   0.000341  -0.027303  -0.032279   0.547972
     8  C   -0.000000   0.000000   0.000000   0.000341   0.006609  -0.048439
     9  N   -0.000000   0.000000   0.000000   0.000034  -0.000107  -0.001772
    10  C    0.000000  -0.000000  -0.000000  -0.000000   0.000003  -0.000162
    11  C   -0.000000   0.000000   0.000000   0.000000   0.000000  -0.000017
    12  C   -0.000000   0.000000   0.000000   0.000000   0.000000  -0.000000
    13  C    0.000000  -0.000000  -0.000000  -0.000000   0.000000   0.000000
    14  C    0.000000   0.000000  -0.000000  -0.000000  -0.000000   0.000000
    15  C   -0.000000   0.000000   0.000000   0.000000  -0.000000   0.000005
    16  C    0.000002   0.000041   0.005694  -0.031186  -0.049846  -0.036994
    17  C    0.000552   0.003539  -0.060713   0.525123  -0.037000  -0.049842
    18  C    0.519370  -0.066406   0.004526  -0.000338  -0.000017   0.000000
    19  C   -0.017010   0.004790  -0.000165   0.000002  -0.000000   0.000000
    20  C   -0.036274   0.000357   0.000019   0.000000   0.000000   0.000000
    21  C   -0.018645   0.004979  -0.000140  -0.000007   0.000000  -0.000000
    22  C    0.531012  -0.070970  -0.006696   0.000734   0.000005  -0.000000
    23  H   -0.025623   0.339175  -0.043711   0.002440   0.003539  -0.000166
    24  H   -0.008788  -0.041581   0.372764  -0.022230   0.003977  -0.000261
    25  H    0.002846  -0.056701   0.369200  -0.031545  -0.008565   0.000129
    26  H   -0.000010   0.000082  -0.009168  -0.041293   0.367508  -0.037383
    27  H   -0.000000   0.000000  -0.000168   0.003887  -0.037386   0.367498
    28  H    0.000000  -0.000000  -0.000000   0.000021  -0.000261   0.003967
    29  H    0.000000  -0.000000  -0.000000  -0.000003   0.000130  -0.008555
    30  H    0.000000  -0.000000  -0.000000  -0.000027  -0.000165   0.003523
    31  H   -0.000000   0.000000   0.000000   0.000000  -0.000000  -0.000002
    32  H    0.000000   0.000000   0.000000   0.000000  -0.000000  -0.000000
    33  H    0.000000   0.000000  -0.000000  -0.000000   0.000000   0.000000
    34  H    0.000000   0.000000   0.000000   0.000000  -0.000000  -0.000000
    35  H    0.000000  -0.000000   0.000000   0.000000  -0.000000  -0.000009
    36  H   -0.000000  -0.000002  -0.000166   0.003897   0.000591   0.005096
    37  H   -0.000085   0.003024  -0.008011  -0.045336   0.005095   0.000590
    38  H   -0.045968  -0.008554   0.000057  -0.000025  -0.000002  -0.000000
    39  H    0.003685  -0.000106   0.000002  -0.000000  -0.000000  -0.000000
    40  H    0.000740   0.000004  -0.000000  -0.000000   0.000000   0.000000
    41  H    0.003627  -0.000105   0.000000  -0.000000  -0.000000  -0.000000
    42  H   -0.042865  -0.009774   0.004934   0.000102  -0.000009  -0.000000
               7          8          9         10         11         12
     1  C   -0.000000  -0.000000  -0.000000   0.000000  -0.000000  -0.000000
     2  N    0.000035   0.000000   0.000000  -0.000000   0.000000   0.000000
     3  C    0.000341   0.000000   0.000000  -0.000000   0.000000   0.000000
     4  C   -0.027303   0.000341   0.000034  -0.000000   0.000000   0.000000
     5  C   -0.032279   0.006609  -0.000107   0.000003   0.000000   0.000000
     6  C    0.547972  -0.048439  -0.001772  -0.000162  -0.000017  -0.000000
     7  C    4.782123   0.358666  -0.053291   0.004166  -0.000338   0.000002
     8  C    0.358666   4.889945   0.273949  -0.033047   0.004527  -0.000165
     9  N   -0.053291   0.273949   6.995096   0.278957  -0.066406   0.004790
    10  C    0.004166  -0.033047   0.278957   4.577830   0.519361  -0.017011
    11  C   -0.000338   0.004527  -0.066406   0.519361   4.976384   0.536734
    12  C    0.000002  -0.000165   0.004790  -0.017011   0.536734   4.816145
    13  C    0.000000   0.000019   0.000357  -0.036273  -0.045840   0.544173
    14  C   -0.000007  -0.000140   0.004980  -0.018644  -0.043033  -0.033073
    15  C    0.000734  -0.006695  -0.070976   0.531020  -0.055836  -0.042744
    16  C    0.525060  -0.060758   0.003530   0.000554  -0.000007  -0.000000
    17  C   -0.031180   0.005692   0.000042   0.000002  -0.000000   0.000000
    18  C    0.000000   0.000000   0.000000  -0.000000   0.000000   0.000000
    19  C    0.000000   0.000000   0.000000  -0.000000   0.000000   0.000000
    20  C   -0.000000  -0.000000  -0.000000   0.000000   0.000000   0.000000
    21  C   -0.000000  -0.000000   0.000000   0.000000   0.000000   0.000000
    22  C    0.000000   0.000000   0.000000  -0.000000   0.000000   0.000000
    23  H   -0.000027  -0.000000  -0.000000   0.000000  -0.000000  -0.000000
    24  H    0.000020  -0.000000  -0.000000   0.000000  -0.000000  -0.000000
    25  H   -0.000003  -0.000000  -0.000000   0.000000  -0.000000  -0.000000
    26  H    0.003888  -0.000168   0.000000  -0.000000   0.000000  -0.000000
    27  H   -0.041280  -0.009175   0.000081  -0.000010  -0.000000  -0.000000
    28  H   -0.022231   0.372768  -0.041581  -0.008788  -0.000290   0.000004
    29  H   -0.031572   0.369221  -0.056695   0.002847   0.000849  -0.000005
    30  H    0.002452  -0.043714   0.339177  -0.025619  -0.012102  -0.000034
    31  H   -0.000025   0.000057  -0.008552  -0.045970   0.366299  -0.038086
    32  H   -0.000000   0.000002  -0.000106   0.003685  -0.037114   0.369604
    33  H   -0.000000  -0.000000   0.000004   0.000739   0.004975  -0.042214
    34  H   -0.000000   0.000000  -0.000105   0.003627   0.000841   0.004662
    35  H    0.000102   0.004935  -0.009774  -0.042863   0.005380   0.000441
    36  H   -0.045350  -0.008011   0.003044  -0.000086  -0.000000  -0.000000
    37  H    0.003895  -0.000166  -0.000002  -0.000000   0.000000  -0.000000
    38  H    0.000000   0.000000   0.000000  -0.000000   0.000000   0.000000
    39  H    0.000000   0.000000   0.000000   0.000000   0.000000   0.000000
    40  H   -0.000000  -0.000000   0.000000   0.000000   0.000000   0.000000
    41  H    0.000000   0.000000   0.000000   0.000000   0.000000   0.000000
    42  H    0.000000   0.000000  -0.000000   0.000000  -0.000000  -0.000000
              13         14         15         16         17         18
     1  C    0.000000   0.000000  -0.000000   0.000002   0.000552   0.519370
     2  N   -0.000000   0.000000   0.000000   0.000041   0.003539  -0.066406
     3  C   -0.000000  -0.000000   0.000000   0.005694  -0.060713   0.004526
     4  C   -0.000000  -0.000000   0.000000  -0.031186   0.525123  -0.000338
     5  C    0.000000  -0.000000  -0.000000  -0.049846  -0.037000  -0.000017
     6  C    0.000000   0.000000   0.000005  -0.036994  -0.049842   0.000000
     7  C    0.000000  -0.000007   0.000734   0.525060  -0.031180   0.000000
     8  C    0.000019  -0.000140  -0.006695  -0.060758   0.005692   0.000000
     9  N    0.000357   0.004980  -0.070976   0.003530   0.000042   0.000000
    10  C   -0.036273  -0.018644   0.531020   0.000554   0.000002  -0.000000
    11  C   -0.045840  -0.043033  -0.055836  -0.000007  -0.000000   0.000000
    12  C    0.544173  -0.033073  -0.042744  -0.000000   0.000000   0.000000
    13  C    4.850077   0.550347  -0.045060   0.000000  -0.000000   0.000000
    14  C    0.550347   4.830214   0.527311  -0.000000   0.000000   0.000000
    15  C   -0.045060   0.527311   4.949576  -0.000042  -0.000000   0.000000
    16  C    0.000000  -0.000000  -0.000042   4.927194   0.495574  -0.000000
    17  C   -0.000000   0.000000  -0.000000   0.495574   4.927078  -0.000007
    18  C    0.000000   0.000000   0.000000  -0.000000  -0.000007   4.976403
    19  C    0.000000   0.000000   0.000000   0.000000  -0.000000   0.536724
    20  C    0.000000   0.000000   0.000000  -0.000000   0.000000  -0.045841
    21  C    0.000000   0.000000   0.000000   0.000000  -0.000000  -0.043033
    22  C    0.000000   0.000000   0.000000  -0.000000  -0.000041  -0.055839
    23  H    0.000000   0.000000  -0.000000  -0.000167   0.000138  -0.012101
    24  H    0.000000   0.000000   0.000000  -0.000121  -0.009563  -0.000290
    25  H    0.000000  -0.000000  -0.000000  -0.000164   0.006788   0.000849
    26  H   -0.000000   0.000000  -0.000000   0.000578   0.005298  -0.000000
    27  H    0.000000  -0.000000   0.000002   0.005300   0.000578   0.000000
    28  H   -0.000004   0.000217   0.004103  -0.009561  -0.000122  -0.000000
    29  H   -0.000016  -0.000236   0.002973   0.006792  -0.000164  -0.000000
    30  H    0.000001  -0.000096   0.006431   0.000139  -0.000168  -0.000000
    31  H    0.005090   0.000394   0.005567   0.000002  -0.000000   0.000000
    32  H   -0.041418   0.004742   0.000754  -0.000000  -0.000000   0.000000
    33  H    0.370734  -0.041797   0.004968   0.000000  -0.000000   0.000000
    34  H   -0.041144   0.369367  -0.036816   0.000000  -0.000000   0.000000
    35  H    0.004936  -0.039573   0.366930   0.000008  -0.000000  -0.000000
    36  H    0.000000  -0.000000  -0.000004   0.370021  -0.037022   0.000000
    37  H    0.000000  -0.000000  -0.000000  -0.037028   0.370025  -0.000000
    38  H    0.000000  -0.000000   0.000000  -0.000000   0.000002   0.366299
    39  H    0.000000   0.000000   0.000000  -0.000000  -0.000000  -0.037114
    40  H    0.000000   0.000000   0.000000   0.000000   0.000000   0.004975
    41  H    0.000000   0.000000   0.000000  -0.000000   0.000000   0.000841
    42  H    0.000000   0.000000   0.000000  -0.000000   0.000008   0.005381
              19         20         21         22         23         24
     1  C   -0.017010  -0.036274  -0.018645   0.531012  -0.025623  -0.008788
     2  N    0.004790   0.000357   0.004979  -0.070970   0.339175  -0.041581
     3  C   -0.000165   0.000019  -0.000140  -0.006696  -0.043711   0.372764
     4  C    0.000002   0.000000  -0.000007   0.000734   0.002440  -0.022230
     5  C   -0.000000   0.000000   0.000000   0.000005   0.003539   0.003977
     6  C    0.000000   0.000000  -0.000000  -0.000000  -0.000166  -0.000261
     7  C    0.000000  -0.000000  -0.000000   0.000000  -0.000027   0.000020
     8  C    0.000000  -0.000000  -0.000000   0.000000  -0.000000  -0.000000
     9  N    0.000000  -0.000000   0.000000   0.000000  -0.000000  -0.000000
    10  C   -0.000000   0.000000   0.000000  -0.000000   0.000000   0.000000
    11  C    0.000000   0.000000   0.000000   0.000000  -0.000000  -0.000000
    12  C    0.000000   0.000000   0.000000   0.000000  -0.000000  -0.000000
    13  C    0.000000   0.000000   0.000000   0.000000   0.000000   0.000000
    14  C    0.000000   0.000000   0.000000   0.000000   0.000000   0.000000
    15  C    0.000000   0.000000   0.000000   0.000000  -0.000000   0.000000
    16  C    0.000000  -0.000000   0.000000  -0.000000  -0.000167  -0.000121
    17  C   -0.000000   0.000000  -0.000000  -0.000041   0.000138  -0.009563
    18  C    0.536724  -0.045841  -0.043033  -0.055839  -0.012101  -0.000290
    19  C    4.816145   0.544186  -0.033076  -0.042746  -0.000034   0.000004
    20  C    0.544186   4.850062   0.550348  -0.045060   0.000001  -0.000004
    21  C   -0.033076   0.550348   4.830190   0.527331  -0.000096   0.000217
    22  C   -0.042746  -0.045060   0.527331   4.949556   0.006431   0.004102
    23  H   -0.000034   0.000001  -0.000096   0.006431   0.450204   0.005871
    24  H    0.000004  -0.000004   0.000217   0.004102   0.005871   0.620704
    25  H   -0.000005  -0.000016  -0.000236   0.002972  -0.001243  -0.053587
    26  H   -0.000000   0.000000  -0.000000   0.000002   0.000212   0.000081
    27  H   -0.000000  -0.000000   0.000000  -0.000000   0.000003   0.000003
    28  H   -0.000000   0.000000   0.000000   0.000000   0.000000   0.000000
    29  H   -0.000000   0.000000  -0.000000  -0.000000   0.000000   0.000000
    30  H   -0.000000   0.000000   0.000000  -0.000000   0.000000   0.000000
    31  H    0.000000   0.000000  -0.000000   0.000000  -0.000000  -0.000000
    32  H    0.000000   0.000000   0.000000   0.000000  -0.000000  -0.000000
    33  H    0.000000   0.000000   0.000000   0.000000   0.000000   0.000000
    34  H    0.000000   0.000000   0.000000   0.000000  -0.000000  -0.000000
    35  H   -0.000000   0.000000   0.000000   0.000000   0.000000   0.000000
    36  H   -0.000000   0.000000  -0.000000  -0.000000   0.000002  -0.000002
    37  H   -0.000000   0.000000  -0.000000  -0.000004   0.000182   0.002183
    38  H   -0.038088   0.005090   0.000395   0.005568   0.005475  -0.000009
    39  H    0.369603  -0.041417   0.004742   0.000754  -0.000012  -0.000000
    40  H   -0.042215   0.370733  -0.041797   0.004968  -0.000000   0.000000
    41  H    0.004662  -0.041144   0.369368  -0.036818   0.000003  -0.000001
    42  H    0.000441   0.004936  -0.039573   0.366931  -0.000069   0.000292
              25         26         27         28         29         30
     1  C    0.002846  -0.000010  -0.000000   0.000000   0.000000   0.000000
     2  N   -0.056701   0.000082   0.000000  -0.000000  -0.000000  -0.000000
     3  C    0.369200  -0.009168  -0.000168  -0.000000  -0.000000  -0.000000
     4  C   -0.031545  -0.041293   0.003887   0.000021  -0.000003  -0.000027
     5  C   -0.008565   0.367508  -0.037386  -0.000261   0.000130  -0.000165
     6  C    0.000129  -0.037383   0.367498   0.003967  -0.008555   0.003523
     7  C   -0.000003   0.003888  -0.041280  -0.022231  -0.031572   0.002452
     8  C   -0.000000  -0.000168  -0.009175   0.372768   0.369221  -0.043714
     9  N   -0.000000   0.000000   0.000081  -0.041581  -0.056695   0.339177
    10  C    0.000000  -0.000000  -0.000010  -0.008788   0.002847  -0.025619
    11  C   -0.000000   0.000000  -0.000000  -0.000290   0.000849  -0.012102
    12  C   -0.000000  -0.000000  -0.000000   0.000004  -0.000005  -0.000034
    13  C    0.000000  -0.000000   0.000000  -0.000004  -0.000016   0.000001
    14  C   -0.000000   0.000000  -0.000000   0.000217  -0.000236  -0.000096
    15  C   -0.000000  -0.000000   0.000002   0.004103   0.002973   0.006431
    16  C   -0.000164   0.000578   0.005300  -0.009561   0.006792   0.000139
    17  C    0.006788   0.005298   0.000578  -0.000122  -0.000164  -0.000168
    18  C    0.000849  -0.000000   0.000000  -0.000000  -0.000000  -0.000000
    19  C   -0.000005  -0.000000  -0.000000  -0.000000  -0.000000  -0.000000
    20  C   -0.000016   0.000000  -0.000000   0.000000   0.000000   0.000000
    21  C   -0.000236  -0.000000   0.000000   0.000000  -0.000000   0.000000
    22  C    0.002972   0.000002  -0.000000   0.000000  -0.000000  -0.000000
    23  H   -0.001243   0.000212   0.000003   0.000000   0.000000   0.000000
    24  H   -0.053587   0.000081   0.000003   0.000000   0.000000   0.000000
    25  H    0.654378   0.005912  -0.000005   0.000000   0.000000   0.000000
    26  H    0.005912   0.606461  -0.005504   0.000003  -0.000005   0.000003
    27  H   -0.000005  -0.005504   0.606459   0.000081   0.005921   0.000211
    28  H    0.000000   0.000003   0.000081   0.620680  -0.053580   0.005872
    29  H    0.000000  -0.000005   0.005921  -0.053580   0.654341  -0.001245
    30  H    0.000000   0.000003   0.000211   0.005872  -0.001245   0.450204
    31  H    0.000000   0.000000   0.000000  -0.000009   0.000030   0.005472
    32  H   -0.000000   0.000000   0.000000  -0.000000   0.000000  -0.000012
    33  H    0.000000   0.000000   0.000000   0.000000   0.000000  -0.000000
    34  H   -0.000000   0.000000   0.000000  -0.000001   0.000001   0.000003
    35  H   -0.000000   0.000000   0.000001   0.000292   0.001363  -0.000069
    36  H    0.000002   0.000017  -0.000165   0.002172   0.000209   0.000182
    37  H    0.000208  -0.000165   0.000017  -0.000002   0.000002   0.000002
    38  H    0.000030   0.000000   0.000000  -0.000000   0.000000  -0.000000
    39  H    0.000000   0.000000   0.000000  -0.000000  -0.000000  -0.000000
    40  H    0.000000   0.000000   0.000000   0.000000   0.000000   0.000000
    41  H    0.000001   0.000000   0.000000  -0.000000  -0.000000  -0.000000
    42  H    0.001363   0.000001   0.000000   0.000000  -0.000000   0.000000
              31         32         33         34         35         36
     1  C   -0.000000   0.000000   0.000000   0.000000   0.000000  -0.000000
     2  N    0.000000   0.000000   0.000000   0.000000  -0.000000  -0.000002
     3  C    0.000000   0.000000  -0.000000   0.000000   0.000000  -0.000166
     4  C    0.000000   0.000000  -0.000000   0.000000   0.000000   0.003897
     5  C   -0.000000  -0.000000   0.000000  -0.000000  -0.000000   0.000591
     6  C   -0.000002  -0.000000   0.000000  -0.000000  -0.000009   0.005096
     7  C   -0.000025  -0.000000  -0.000000  -0.000000   0.000102  -0.045350
     8  C    0.000057   0.000002  -0.000000   0.000000   0.004935  -0.008011
     9  N   -0.008552  -0.000106   0.000004  -0.000105  -0.009774   0.003044
    10  C   -0.045970   0.003685   0.000739   0.003627  -0.042863  -0.000086
    11  C    0.366299  -0.037114   0.004975   0.000841   0.005380  -0.000000
    12  C   -0.038086   0.369604  -0.042214   0.004662   0.000441  -0.000000
    13  C    0.005090  -0.041418   0.370734  -0.041144   0.004936   0.000000
    14  C    0.000394   0.004742  -0.041797   0.369367  -0.039573  -0.000000
    15  C    0.005567   0.000754   0.004968  -0.036816   0.366930  -0.000004
    16  C    0.000002  -0.000000   0.000000   0.000000   0.000008   0.370021
    17  C   -0.000000  -0.000000  -0.000000  -0.000000  -0.000000  -0.037022
    18  C    0.000000   0.000000   0.000000   0.000000  -0.000000   0.000000
    19  C    0.000000   0.000000   0.000000   0.000000  -0.000000  -0.000000
    20  C    0.000000   0.000000   0.000000   0.000000   0.000000   0.000000
    21  C   -0.000000   0.000000   0.000000   0.000000   0.000000  -0.000000
    22  C    0.000000   0.000000   0.000000   0.000000   0.000000  -0.000000
    23  H   -0.000000  -0.000000   0.000000  -0.000000   0.000000   0.000002
    24  H   -0.000000  -0.000000   0.000000  -0.000000   0.000000  -0.000002
    25  H    0.000000  -0.000000   0.000000  -0.000000  -0.000000   0.000002
    26  H    0.000000   0.000000   0.000000   0.000000   0.000000   0.000017
    27  H    0.000000   0.000000   0.000000   0.000000   0.000001  -0.000165
    28  H   -0.000009  -0.000000   0.000000  -0.000001   0.000292   0.002172
    29  H    0.000030   0.000000   0.000000   0.000001   0.001363   0.000209
    30  H    0.005472  -0.000012  -0.000000   0.000003  -0.000069   0.000182
    31  H    0.624424  -0.006426  -0.000186   0.000015  -0.000176   0.000001
[...]
   199    C   14  S      Ryd( 4S)     0.00003
   200    C   14  px     Val( 2p)     1.08837
   201    C   14  px     Ryd( 3p)     0.00466
   202    C   14  py     Val( 2p)     1.00015
   203    C   14  py     Ryd( 3p)     0.00131
   204    C   14  pz     Val( 2p)     1.16009
   205    C   14  pz     Ryd( 3p)     0.00486
   206    C   14  dxy    Ryd( 3d)     0.00051
   207    C   14  dxz    Ryd( 3d)     0.00069
   208    C   14  dyz    Ryd( 3d)     0.00041
   209    C   14  dx2y2  Ryd( 3d)     0.00045
   210    C   14  dz2    Ryd( 3d)     0.00057

   211    C   15  S      Cor( 1S)     1.99906
   212    C   15  S      Val( 2S)     0.96192
   213    C   15  S      Ryd( 3S)     0.00063
   214    C   15  S      Ryd( 4S)     0.00004
   215    C   15  px     Val( 2p)     1.10219
   216    C   15  px     Ryd( 3p)     0.00352
   217    C   15  py     Val( 2p)     1.04619
   218    C   15  py     Ryd( 3p)     0.00138
   219    C   15  pz     Val( 2p)     1.13712
   220    C   15  pz     Ryd( 3p)     0.00387
   221    C   15  dxy    Ryd( 3d)     0.00049
   222    C   15  dxz    Ryd( 3d)     0.00069
   223    C   15  dyz    Ryd( 3d)     0.00042
   224    C   15  dx2y2  Ryd( 3d)     0.00038
   225    C   15  dz2    Ryd( 3d)     0.00049

   226    C   16  S      Cor( 1S)     1.99906
   227    C   16  S      Val( 2S)     0.93906
   228    C   16  S      Ryd( 3S)     0.00062
   229    C   16  S      Ryd( 4S)     0.00004
   230    C   16  px     Val( 2p)     1.09975
   231    C   16  px     Ryd( 3p)     0.00404
   232    C   16  py     Val( 2p)     1.15744
   233    C   16  py     Ryd( 3p)     0.00460
   234    C   16  pz     Val( 2p)     1.07212
   235    C   16  pz     Ryd( 3p)     0.00253
   236    C   16  dxy    Ryd( 3d)     0.00072
   237    C   16  dxz    Ryd( 3d)     0.00069
   238    C   16  dyz    Ryd( 3d)     0.00047
   239    C   16  dx2y2  Ryd( 3d)     0.00061
   240    C   16  dz2    Ryd( 3d)     0.00041

   241    C   17  S      Cor( 1S)     1.99906
   242    C   17  S      Val( 2S)     0.93904
   243    C   17  S      Ryd( 3S)     0.00062
   244    C   17  S      Ryd( 4S)     0.00004
   245    C   17  px     Val( 2p)     1.09978
   246    C   17  px     Ryd( 3p)     0.00404
   247    C   17  py     Val( 2p)     1.15738
   248    C   17  py     Ryd( 3p)     0.00460
   249    C   17  pz     Val( 2p)     1.07236
   250    C   17  pz     Ryd( 3p)     0.00253
   251    C   17  dxy    Ryd( 3d)     0.00072
   252    C   17  dxz    Ryd( 3d)     0.00068
   253    C   17  dyz    Ryd( 3d)     0.00047
   254    C   17  dx2y2  Ryd( 3d)     0.00061
   255    C   17  dz2    Ryd( 3d)     0.00041

   256    C   18  S      Cor( 1S)     1.99906
   257    C   18  S      Val( 2S)     0.96305
   258    C   18  S      Ryd( 3S)     0.00067
   259    C   18  S      Ryd( 4S)     0.00004
   260    C   18  px     Val( 2p)     1.10180
   261    C   18  px     Ryd( 3p)     0.00418
   262    C   18  py     Val( 2p)     1.02063
   263    C   18  py     Ryd( 3p)     0.00140
   264    C   18  pz     Val( 2p)     1.14687
   265    C   18  pz     Ryd( 3p)     0.00411
   266    C   18  dxy    Ryd( 3d)     0.00049
   267    C   18  dxz    Ryd( 3d)     0.00073
   268    C   18  dyz    Ryd( 3d)     0.00038
   269    C   18  dx2y2  Ryd( 3d)     0.00040
   270    C   18  dz2    Ryd( 3d)     0.00050

   271    C   19  S      Cor( 1S)     1.99913
   272    C   19  S      Val( 2S)     0.96852
   273    C   19  S      Ryd( 3S)     0.00061
   274    C   19  S      Ryd( 4S)     0.00003
   275    C   19  px     Val( 2p)     1.09323
   276    C   19  px     Ryd( 3p)     0.00469
   277    C   19  py     Val( 2p)     1.01442
   278    C   19  py     Ryd( 3p)     0.00123
   279    C   19  pz     Val( 2p)     1.14502
   280    C   19  pz     Ryd( 3p)     0.00475
   281    C   19  dxy    Ryd( 3d)     0.00055
   282    C   19  dxz    Ryd( 3d)     0.00066
   283    C   19  dyz    Ryd( 3d)     0.00046
   284    C   19  dx2y2  Ryd( 3d)     0.00041
   285    C   19  dz2    Ryd( 3d)     0.00056

   286    C   20  S      Cor( 1S)     1.99910
   287    C   20  S      Val( 2S)     0.97249
   288    C   20  S      Ryd( 3S)     0.00052
   289    C   20  S      Ryd( 4S)     0.00003
   290    C   20  px     Val( 2p)     1.20210
   291    C   20  px     Ryd( 3p)     0.00491
   292    C   20  py     Val( 2p)     0.98445
   293    C   20  py     Ryd( 3p)     0.00141
   294    C   20  pz     Val( 2p)     1.04589
   295    C   20  pz     Ryd( 3p)     0.00405
   296    C   20  dxy    Ryd( 3d)     0.00040
   297    C   20  dxz    Ryd( 3d)     0.00062
   298    C   20  dyz    Ryd( 3d)     0.00045
   299    C   20  dx2y2  Ryd( 3d)     0.00055
   300    C   20  dz2    Ryd( 3d)     0.00059

   301    C   21  S      Cor( 1S)     1.99913
   302    C   21  S      Val( 2S)     0.96819
   303    C   21  S      Ryd( 3S)     0.00065
   304    C   21  S      Ryd( 4S)     0.00003
   305    C   21  px     Val( 2p)     1.08835
   306    C   21  px     Ryd( 3p)     0.00466
   307    C   21  py     Val( 2p)     1.00012
   308    C   21  py     Ryd( 3p)     0.00131
   309    C   21  pz     Val( 2p)     1.16007
   310    C   21  pz     Ryd( 3p)     0.00486
   311    C   21  dxy    Ryd( 3d)     0.00051
   312    C   21  dxz    Ryd( 3d)     0.00069
   313    C   21  dyz    Ryd( 3d)     0.00041
   314    C   21  dx2y2  Ryd( 3d)     0.00045
   315    C   21  dz2    Ryd( 3d)     0.00057

   316    C   22  S      Cor( 1S)     1.99906
   317    C   22  S      Val( 2S)     0.96201
   318    C   22  S      Ryd( 3S)     0.00063
   319    C   22  S      Ryd( 4S)     0.00004
   320    C   22  px     Val( 2p)     1.10219
   321    C   22  px     Ryd( 3p)     0.00352
   322    C   22  py     Val( 2p)     1.04576
   323    C   22  py     Ryd( 3p)     0.00138
   324    C   22  pz     Val( 2p)     1.13697
   325    C   22  pz     Ryd( 3p)     0.00387
   326    C   22  dxy    Ryd( 3d)     0.00049
   327    C   22  dxz    Ryd( 3d)     0.00069
   328    C   22  dyz    Ryd( 3d)     0.00042
   329    C   22  dx2y2  Ryd( 3d)     0.00038
   330    C   22  dz2    Ryd( 3d)     0.00049

   331    H   23  S      Val( 1S)     0.56328
   332    H   23  S      Ryd( 2S)     0.00332
   333    H   23  px     Ryd( 2p)     0.00027
   334    H   23  py     Ryd( 2p)     0.00037
   335    H   23  pz     Ryd( 2p)     0.00056

   336    H   24  S      Val( 1S)     0.77281
   337    H   24  S      Ryd( 2S)     0.00388
   338    H   24  px     Ryd( 2p)     0.00014
   339    H   24  py     Ryd( 2p)     0.00012
   340    H   24  pz     Ryd( 2p)     0.00035

   341    H   25  S      Val( 1S)     0.75885
   342    H   25  S      Ryd( 2S)     0.00179
   343    H   25  px     Ryd( 2p)     0.00011
   344    H   25  py     Ryd( 2p)     0.00035
   345    H   25  pz     Ryd( 2p)     0.00008

   346    H   26  S      Val( 1S)     0.78440
   347    H   26  S      Ryd( 2S)     0.00084
   348    H   26  px     Ryd( 2p)     0.00014
   349    H   26  py     Ryd( 2p)     0.00033
   350    H   26  pz     Ryd( 2p)     0.00017

   351    H   27  S      Val( 1S)     0.78440
   352    H   27  S      Ryd( 2S)     0.00084
   353    H   27  px     Ryd( 2p)     0.00014
   354    H   27  py     Ryd( 2p)     0.00033
   355    H   27  pz     Ryd( 2p)     0.00017

   356    H   28  S      Val( 1S)     0.77294
   357    H   28  S      Ryd( 2S)     0.00387
   358    H   28  px     Ryd( 2p)     0.00014
   359    H   28  py     Ryd( 2p)     0.00012
   360    H   28  pz     Ryd( 2p)     0.00035

   361    H   29  S      Val( 1S)     0.75912
   362    H   29  S      Ryd( 2S)     0.00180
   363    H   29  px     Ryd( 2p)     0.00011
   364    H   29  py     Ryd( 2p)     0.00035
   365    H   29  pz     Ryd( 2p)     0.00008

   366    H   30  S      Val( 1S)     0.56347
   367    H   30  S      Ryd( 2S)     0.00332
   368    H   30  px     Ryd( 2p)     0.00027
   369    H   30  py     Ryd( 2p)     0.00037
   370    H   30  pz     Ryd( 2p)     0.00056

   371    H   31  S      Val( 1S)     0.74422
   372    H   31  S      Ryd( 2S)     0.00081
   373    H   31  px     Ryd( 2p)     0.00013
   374    H   31  py     Ryd( 2p)     0.00013
   375    H   31  pz     Ryd( 2p)     0.00032

   376    H   32  S      Val( 1S)     0.74195
   377    H   32  S      Ryd( 2S)     0.00070
   378    H   32  px     Ryd( 2p)     0.00015
   379    H   32  py     Ryd( 2p)     0.00015
   380    H   32  pz     Ryd( 2p)     0.00029

   381    H   33  S      Val( 1S)     0.74357
   382    H   33  S      Ryd( 2S)     0.00062
   383    H   33  px     Ryd( 2p)     0.00042
   384    H   33  py     Ryd( 2p)     0.00011
   385    H   33  pz     Ryd( 2p)     0.00006

   386    H   34  S      Val( 1S)     0.74244
   387    H   34  S      Ryd( 2S)     0.00069
   388    H   34  px     Ryd( 2p)     0.00015
   389    H   34  py     Ryd( 2p)     0.00012
   390    H   34  pz     Ryd( 2p)     0.00033

   391    H   35  S      Val( 1S)     0.74063
   392    H   35  S      Ryd( 2S)     0.00102
   393    H   35  px     Ryd( 2p)     0.00014
   394    H   35  py     Ryd( 2p)     0.00017
   395    H   35  pz     Ryd( 2p)     0.00029

   396    H   36  S      Val( 1S)     0.78087
   397    H   36  S      Ryd( 2S)     0.00094
   398    H   36  px     Ryd( 2p)     0.00016
   399    H   36  py     Ryd( 2p)     0.00032
   400    H   36  pz     Ryd( 2p)     0.00017

   401    H   37  S      Val( 1S)     0.78089
   402    H   37  S      Ryd( 2S)     0.00094
   403    H   37  px     Ryd( 2p)     0.00016
   404    H   37  py     Ryd( 2p)     0.00032
   405    H   37  pz     Ryd( 2p)     0.00017

   406    H   38  S      Val( 1S)     0.74407
   407    H   38  S      Ryd( 2S)     0.00081
   408    H   38  px     Ryd( 2p)     0.00013
   409    H   38  py     Ryd( 2p)     0.00013
   410    H   38  pz     Ryd( 2p)     0.00032

   411    H   39  S      Val( 1S)     0.74181
   412    H   39  S      Ryd( 2S)     0.00070
   413    H   39  px     Ryd( 2p)     0.00015
   414    H   39  py     Ryd( 2p)     0.00015
   415    H   39  pz     Ryd( 2p)     0.00029

   416    H   40  S      Val( 1S)     0.74343
   417    H   40  S      Ryd( 2S)     0.00062
   418    H   40  px     Ryd( 2p)     0.00042
   419    H   40  py     Ryd( 2p)     0.00011
   420    H   40  pz     Ryd( 2p)     0.00006

   421    H   41  S      Val( 1S)     0.74230
   422    H   41  S      Ryd( 2S)     0.00069
   423    H   41  px     Ryd( 2p)     0.00015
   424    H   41  py     Ryd( 2p)     0.00012
   425    H   41  pz     Ryd( 2p)     0.00033

   426    H   42  S      Val( 1S)     0.74050
   427    H   42  S      Ryd( 2S)     0.00102
   428    H   42  px     Ryd( 2p)     0.00014
   429    H   42  py     Ryd( 2p)     0.00017
   430    H   42  pz     Ryd( 2p)     0.00029


 Summary of Natural Population Analysis:                  
                                                          
                                       Natural Population 
                Natural  -----------------------------------------------
    Atom  No    Charge         Core      Valence    Rydberg      Total
 -----------------------------------------------------------------------
      C    1    0.17856      1.99902     3.80526    0.01717     5.82144
      N    2   -0.51406      1.99939     5.50311    0.01156     7.51406
      C    3   -0.28088      1.99926     4.26543    0.01619     6.28088
      C    4   -0.24089      1.99903     4.22264    0.01923     6.24089
      C    5   -0.28089      1.99906     4.26747    0.01436     6.28089
      C    6   -0.28095      1.99906     4.26754    0.01436     6.28095
      C    7   -0.24077      1.99903     4.22252    0.01922     6.24077
      C    8   -0.28074      1.99926     4.26529    0.01618     6.28074
      N    9   -0.51529      1.99939     5.50432    0.01157     7.51529
      C   10    0.17850      1.99902     3.80531    0.01717     5.82150
      C   11   -0.24476      1.99906     4.23281    0.01289     6.24476
      C   12   -0.23428      1.99913     4.22121    0.01395     6.23428
      C   13   -0.21830      1.99910     4.20567    0.01353     6.21830
      C   14   -0.23002      1.99913     4.21674    0.01415     6.23002
      C   15   -0.25839      1.99906     4.24743    0.01190     6.25839
      C   16   -0.28214      1.99906     4.26836    0.01472     6.28214
      C   17   -0.28234      1.99906     4.26856    0.01472     6.28234
      C   18   -0.24430      1.99906     4.23235    0.01289     6.24430
      C   19   -0.23427      1.99913     4.22120    0.01395     6.23427
      C   20   -0.21755      1.99910     4.20493    0.01353     6.21755
      C   21   -0.23001      1.99913     4.21672    0.01416     6.23001
      C   22   -0.25788      1.99906     4.24692    0.01190     6.25788
      H   23    0.43219      0.00000     0.56328    0.00453     0.56781
      H   24    0.22270      0.00000     0.77281    0.00449     0.77730
      H   25    0.23883      0.00000     0.75885    0.00232     0.76117
      H   26    0.21412      0.00000     0.78440    0.00148     0.78588
      H   27    0.21412      0.00000     0.78440    0.00148     0.78588
      H   28    0.22258      0.00000     0.77294    0.00448     0.77742
      H   29    0.23855      0.00000     0.75912    0.00233     0.76145
      H   30    0.43200      0.00000     0.56347    0.00453     0.56800
      H   31    0.25439      0.00000     0.74422    0.00140     0.74561
      H   32    0.25676      0.00000     0.74195    0.00130     0.74324
      H   33    0.25523      0.00000     0.74357    0.00121     0.74477
      H   34    0.25628      0.00000     0.74244    0.00128     0.74372
      H   35    0.25776      0.00000     0.74063    0.00161     0.74224
      H   36    0.21754      0.00000     0.78087    0.00159     0.78246
      H   37    0.21752      0.00000     0.78089    0.00159     0.78248
      H   38    0.25453      0.00000     0.74407    0.00139     0.74547
      H   39    0.25690      0.00000     0.74181    0.00129     0.74310
      H   40    0.25537      0.00000     0.74343    0.00120     0.74463
      H   41    0.25641      0.00000     0.74230    0.00128     0.74359
      H   42    0.25789      0.00000     0.74050    0.00161     0.74211
 =======================================================================
   * Total *   -0.00000     43.98060   109.65773    0.36167   154.00000

                                 Natural Population      
 --------------------------------------------------------
   Core                      43.98060 ( 99.9559% of  44)
   Valence                  109.65773 ( 99.6888% of 110)
   Natural Minimal Basis    153.63833 ( 99.7651% of 154)
   Natural Rydberg Basis      0.36167 (  0.2349% of 154)
 --------------------------------------------------------

    Atom  No          Natural Electron Configuration
 ----------------------------------------------------------------------------
      C    1      [core]2S( 0.85)2p( 2.96)3p( 0.01)
      N    2      [core]2S( 1.29)2p( 4.21)3p( 0.01)
      C    3      [core]2S( 1.01)2p( 3.26)3p( 0.01)
      C    4      [core]2S( 0.85)2p( 3.37)3p( 0.02)
      C    5      [core]2S( 0.94)2p( 3.33)3p( 0.01)
      C    6      [core]2S( 0.94)2p( 3.33)3p( 0.01)
      C    7      [core]2S( 0.85)2p( 3.37)3p( 0.02)
      C    8      [core]2S( 1.01)2p( 3.26)3p( 0.01)
      N    9      [core]2S( 1.29)2p( 4.21)3p( 0.01)
      C   10      [core]2S( 0.85)2p( 2.96)3p( 0.01)
      C   11      [core]2S( 0.96)2p( 3.27)3p( 0.01)
      C   12      [core]2S( 0.97)2p( 3.25)3p( 0.01)
      C   13      [core]2S( 0.97)2p( 3.23)3p( 0.01)
      C   14      [core]2S( 0.97)2p( 3.25)3p( 0.01)
      C   15      [core]2S( 0.96)2p( 3.29)3p( 0.01)
      C   16      [core]2S( 0.94)2p( 3.33)3p( 0.01)
      C   17      [core]2S( 0.94)2p( 3.33)3p( 0.01)
      C   18      [core]2S( 0.96)2p( 3.27)3p( 0.01)
      C   19      [core]2S( 0.97)2p( 3.25)3p( 0.01)
      C   20      [core]2S( 0.97)2p( 3.23)3p( 0.01)
      C   21      [core]2S( 0.97)2p( 3.25)3p( 0.01)
      C   22      [core]2S( 0.96)2p( 3.28)3p( 0.01)
      H   23            1S( 0.56)
      H   24            1S( 0.77)
      H   25            1S( 0.76)
      H   26            1S( 0.78)
      H   27            1S( 0.78)
      H   28            1S( 0.77)
      H   29            1S( 0.76)
      H   30            1S( 0.56)
      H   31            1S( 0.74)
      H   32            1S( 0.74)
      H   33            1S( 0.74)
      H   34            1S( 0.74)
      H   35            1S( 0.74)
      H   36            1S( 0.78)
      H   37            1S( 0.78)
      H   38            1S( 0.74)
      H   39            1S( 0.74)
      H   40            1S( 0.74)
      H   41            1S( 0.74)
      H   42            1S( 0.74)


 NBO analysis skipped by request.
 1\1\GINC-DRG2-W001\SP\RB3LYP TD-FC\6-31G(d,p)\C20H20N2\QDUEZ\17-Jul-20
 24\0\\# TD(NStates=10, Root=1) B3LYP/6-31G** SCRF=(Solvent=water) volu
 me pop=NPA density=current Geom=AllCheck Guess=Read\\DXWQPWMYKQYRDS-UH
 FFFAOYSA-N_conf_4\\0,1\C,0,-4.9654397282,-0.4712801782,-0.6650599154\N
 ,0,-3.5910747423,-0.4701863746,-0.4396740119\C,0,-2.9014876946,0.71317
 06989,0.0654908198\C,0,-1.4204788692,0.4468732411,0.2340468205\C,0,-0.
 7786266577,0.7071832461,1.4478753999\C,0,0.5935382256,0.4856254366,1.5
 933323784\C,0,1.3535197214,-0.0155282467,0.5329605389\C,0,2.8347490262
 ,-0.283339424,0.6971098988\N,0,3.6050315588,0.3800763731,-0.3505611138
 \C,0,4.9937975764,0.2885102701,-0.4019549478\C,0,5.7119407482,1.185217
 4475,-1.2224890887\C,0,7.094585005,1.0935334117,-1.3377064691\C,0,7.80
 72920381,0.1088231885,-0.643468295\C,0,7.1044936439,-0.777423752,0.172
 737759\C,0,5.7162308356,-0.6935889298,0.303339658\C,0,0.708244077,-0.2
 820745186,-0.6847231984\C,0,-0.6565354419,-0.0514972462,-0.8328166001\
 C,0,-5.6315519476,-1.7029489672,-0.8450042306\C,0,-6.9938636113,-1.742
 095701,-1.1206120015\C,0,-7.7371208304,-0.5606774537,-1.2273473834\C,0
 ,-7.0862068245,0.6595540548,-1.04596657\C,0,-5.7194932372,0.7143896364
 ,-0.7623356968\H,0,-3.2413835219,-1.3348178866,-0.0461135403\H,0,-3.04
 14123479,1.5268427965,-0.6580009828\H,0,-3.3249168094,1.0664096481,1.0
 190724353\H,0,-1.3520459979,1.0914085246,2.287281082\H,0,1.0739731,0.7
 00782879,2.5440847722\H,0,3.0160047762,-1.3635922527,0.6244321896\H,0,
 3.1562389153,0.0204714806,1.705936114\H,0,3.2473426526,1.2963154269,-0
 .5899930836\H,0,5.1687423624,1.9514795101,-1.7703599825\H,0,7.62074665
 16,1.7986699761,-1.9755211537\H,0,8.886555651,0.0395225386,-0.73552022
 86\H,0,7.6382064698,-1.5451671182,0.7266043014\H,0,5.201499506,-1.3907
 666625,0.9546369257\H,0,1.2859056413,-0.6659365824,-1.5206166508\H,0,-
 1.1415371392,-0.2649846537,-1.7809502809\H,0,-5.0638136337,-2.62722871
 9,-0.7690753135\H,0,-7.4799880152,-2.7049695606,-1.2526281554\H,0,-8.8
 003865115,-0.594316474,-1.4428016213\H,0,-7.6450217533,1.5889138835,-1
 .1171250375\H,0,-5.2462528674,1.6786470327,-0.6158915523\\Version=ES64
 L-G16RevA.03\State=1-A\HF=-883.7185263\RMSD=3.458e-09\Dipole=-0.008452
 7,-0.2155307,-0.637984\Quadrupole=44.432538,-17.3146884,-27.1178496,6.
 0956665,1.7736802,-3.3653158\PG=C01 [X(C20H20N2)]\\@


 LORD, MAN... WERE YE BUT WHYLES WHERE I AM, 
 THE GENTILES YE WAD NE'ER ENVY 'EM.        
 IT'S TRUE, THEY NEEDNA STARVE OR SWEAT,     
 THRO' WINTER'S CAULD OR SIMMER'S HEAT...  
 THEY'VE NAE SAIR WARK TO CRAZE THEIR BANES, 
 AND FILL AULD AGE WITH GRIPS AN' GRANES...  
                                             
 BUT HUMAN BODIES ARE SIC FOOLS              
 FOR A' THEIR COLLEGES AND SCHOOLS,           
 THAT WHEN NAE REAL ILLS PERPLEX THEM,       
 THEY MAK ENOW THEMSELVES TO VEX THEM,       
 AN' AYE THE LESS THEY HAE TO STURT THEM,    
 IN LIKE PROPORTION LESS WILL HURT THEM....  
                                             
                (ROBERT BURNS 'THE TWA DOGS')
 Job cpu time:       0 days  1 hours 33 minutes 47.8 seconds.
 Elapsed time:       0 days  0 hours 31 minutes 21.0 seconds.
 File lengths (MBytes):  RWF=   1470 Int=      0 D2E=      0 Chk=     92 Scr=      1
 Normal termination of Gaussian 16 at Wed Jul 17 19:02:30 2024.
