 Entering Gaussian System, Link 0=g16
 Initial command:
 /opt/sw/arch/manual/gaussian/G16_A03/g16/l1.exe "/scratch/1381570/Gau-78681.inp" -scrdir="/scratch/1381570/"
 Entering Link 1 = /opt/sw/arch/manual/gaussian/G16_A03/g16/l1.exe PID=     78682.
  
 Copyright (c) 1988,1990,1992,1993,1995,1998,2003,2009,2016,
            Gaussian, Inc.  All Rights Reserved.
  
 This is part of the Gaussian(R) 16 program.  It is based on
 the Gaussian(R) 09 system (copyright 2009, Gaussian, Inc.),
 the Gaussian(R) 03 system (copyright 2003, Gaussian, Inc.),
 the Gaussian(R) 98 system (copyright 1998, Gaussian, Inc.),
 the Gaussian(R) 94 system (copyright 1995, Gaussian, Inc.),
 the Gaussian 92(TM) system (copyright 1992, Gaussian, Inc.),
 the Gaussian 90(TM) system (copyright 1990, Gaussian, Inc.),
 the Gaussian 88(TM) system (copyright 1988, Gaussian, Inc.),
 the Gaussian 86(TM) system (copyright 1986, Carnegie Mellon
 University), and the Gaussian 82(TM) system (copyright 1983,
 Carnegie Mellon University). Gaussian is a federally registered
 trademark of Gaussian, Inc.
  
 This software contains proprietary and confidential information,
 including trade secrets, belonging to Gaussian, Inc.
  
 This software is provided under written license and may be
 used, copied, transmitted, or stored only in accord with that
 written license.
  
 The following legend is applicable only to US Government
 contracts under FAR:
  
                    RESTRICTED RIGHTS LEGEND
  
 Use, reproduction and disclosure by the US Government is
 subject to restrictions as set forth in subparagraphs (a)
 and (c) of the Commercial Computer Software - Restricted
 Rights clause in FAR 52.227-19.
  
 Gaussian, Inc.
 340 Quinnipiac St., Bldg. 40, Wallingford CT 06492
  
  
 ---------------------------------------------------------------
 Warning -- This program may not be used in any manner that
 competes with the business of Gaussian, Inc. or will provide
 assistance to any competitor of Gaussian, Inc.  The licensee
 of this program is prohibited from giving any competitor of
 Gaussian, Inc. access to this program.  By using this program,
 the user acknowledges that Gaussian, Inc. is engaged in the
 business of creating and licensing software in the field of
 computational chemistry and represents and warrants to the
 licensee that it is not a competitor of Gaussian, Inc. and that
 it will not use this program in any manner prohibited above.
 ---------------------------------------------------------------
  

 Cite this work as:
 Gaussian 16, Revision A.03,
 M. J. Frisch, G. W. Trucks, H. B. Schlegel, G. E. Scuseria, 
 M. A. Robb, J. R. Cheeseman, G. Scalmani, V. Barone, 
 G. A. Petersson, H. Nakatsuji, X. Li, M. Caricato, A. V. Marenich, 
 J. Bloino, B. G. Janesko, R. Gomperts, B. Mennucci, H. P. Hratchian, 
 J. V. Ortiz, A. F. Izmaylov, J. L. Sonnenberg, D. Williams-Young, 
 F. Ding, F. Lipparini, F. Egidi, J. Goings, B. Peng, A. Petrone, 
 T. Henderson, D. Ranasinghe, V. G. Zakrzewski, J. Gao, N. Rega, 
 G. Zheng, W. Liang, M. Hada, M. Ehara, K. Toyota, R. Fukuda, 
 J. Hasegawa, M. Ishida, T. Nakajima, Y. Honda, O. Kitao, H. Nakai, 
 T. Vreven, K. Throssell, J. A. Montgomery, Jr., J. E. Peralta, 
 F. Ogliaro, M. J. Bearpark, J. J. Heyd, E. N. Brothers, K. N. Kudin, 
 V. N. Staroverov, T. A. Keith, R. Kobayashi, J. Normand, 
 K. Raghavachari, A. P. Rendell, J. C. Burant, S. S. Iyengar, 
 J. Tomasi, M. Cossi, J. M. Millam, M. Klene, C. Adamo, R. Cammi, 
 J. W. Ochterski, R. L. Martin, K. Morokuma, O. Farkas, 
 J. B. Foresman, and D. J. Fox, Gaussian, Inc., Wallingford CT, 2016.
 
 ******************************************
 Gaussian 16:  ES64L-G16RevA.03 25-Dec-2016
                22-Jul-2024 
 ******************************************
 %nprocshared=7
 Will use up to    7 processors via shared memory.
 %mem=14GB
 %Chk=DXWQPWMYKQYRDS-UHFFFAOYSA-N_conf_1_0.chk
 -------------------------------------------------------
 # opt=CalcFc B3LYP/6-31G** SCRF=(Solvent=water) scf=xqc
 -------------------------------------------------------
 1/10=4,18=20,19=15,26=3,38=1/1,3;
 2/9=110,12=2,17=6,18=5,40=1/2;
 3/5=1,6=6,7=101,11=2,25=1,30=1,70=2201,71=2,72=1,74=-5,140=1/1,2,3;
 4//1;
 5/5=2,8=3,13=1,38=5,53=1/2,8;
 8/6=4,10=90,11=11/1;
 11/6=1,8=1,9=11,15=111,16=1/1,2,10;
 10/6=1,13=1/2;
 6/7=2,8=2,9=2,10=2,28=1/1;
 7/10=1,18=20,25=1/1,2,3,16;
 1/10=4,18=20,19=15,26=3/3(2);
 2/9=110/2;
 99//99;
 2/9=110/2;
 3/5=1,6=6,7=101,11=2,25=1,30=1,70=2205,71=1,72=1,74=-5/1,2,3;
 4/5=5,16=3,69=1/1;
 5/5=2,8=3,13=1,38=5,53=1/2,8;
 7//1,2,3,16;
 1/18=20,19=15,26=3/3(-5);
 2/9=110/2;
 6/7=2,8=2,9=2,10=2,19=2,28=1/1;
 99/9=1/99;
 ----------------------------------
 DXWQPWMYKQYRDS-UHFFFAOYSA-N_conf_1
 ----------------------------------
 Symbolic Z-matrix:
 Charge =  0 Multiplicity = 1
 C                     4.14313  -0.78994   0.08452 
 N                     3.12402  -1.5081    0.70012 
 C                     2.25119  -0.91956   1.70479 
 C                     1.06998  -0.13925   1.14152 
 C                     0.53506   0.93909   1.85626 
 C                    -0.58475   1.62478   1.38381 
 C                    -1.19432   1.26029   0.17744 
 C                    -2.37527   2.06873  -0.35523 
 N                    -3.33703   1.35638  -1.17453 
 C                    -4.17189   0.3571   -0.69646 
 C                    -4.33897   0.10631   0.6805 
 C                    -5.23485  -0.87198   1.11507 
 C                    -5.97685  -1.62827   0.20662 
 C                    -5.80702  -1.38923  -1.16168 
 C                    -4.92145  -0.41508  -1.61063 
 C                    -0.65642   0.18399  -0.53768 
 C                     0.45757  -0.50752  -0.0617 
 C                     5.16227  -1.48341  -0.60296 
 C                     6.18126  -0.79234  -1.25017 
 C                     6.21988   0.60652  -1.23545 
 C                     5.21402   1.2977   -0.55899 
 C                     4.18444   0.61838   0.09537 
 H                     3.33296  -2.48517   0.8443 
 H                     2.81449  -0.27025   2.39171 
 H                     1.86786  -1.74743   2.31156 
 H                     0.99428   1.24344   2.7941 
 H                    -0.98468   2.45741   1.95823 
 H                    -2.89428   2.54033   0.48803 
 H                    -1.99581   2.89398  -0.96859 
 H                    -3.13376   1.31826  -2.16235 
 H                    -3.76544   0.66567   1.41075 
 H                    -5.34486  -1.04486   2.18244 
 H                    -6.66823  -2.38953   0.55375 
 H                    -6.36998  -1.96763  -1.88941 
 H                    -4.8028   -0.23697  -2.67683 
 H                    -1.11729  -0.12063  -1.47303 
 H                     0.86757  -1.33759  -0.62913 
 H                     5.14516  -2.57054  -0.62081 
 H                     6.95464  -1.35291  -1.76844 
 H                     7.01664   1.14282  -1.74107 
 H                     5.22341   2.38423  -0.53578 
 H                     3.40904   1.18168   0.60177 
 

 GradGradGradGradGradGradGradGradGradGradGradGradGradGradGradGradGradGrad
 Berny optimization.
 Initialization pass.
                           ----------------------------
                           !    Initial Parameters    !
                           ! (Angstroms and Degrees)  !
 --------------------------                            --------------------------
 ! Name  Definition              Value          Derivative Info.                !
 --------------------------------------------------------------------------------
 ! R1    R(1,2)                  1.3904         calculate D2E/DX2 analytically  !
 ! R2    R(1,18)                 1.4114         calculate D2E/DX2 analytically  !
 ! R3    R(1,22)                 1.409          calculate D2E/DX2 analytically  !
 ! R4    R(2,3)                  1.4552         calculate D2E/DX2 analytically  !
 ! R5    R(2,23)                 1.0095         calculate D2E/DX2 analytically  !
 ! R6    R(3,4)                  1.5236         calculate D2E/DX2 analytically  !
 ! R7    R(3,24)                 1.1004         calculate D2E/DX2 analytically  !
 ! R8    R(3,25)                 1.0957         calculate D2E/DX2 analytically  !
 ! R9    R(4,5)                  1.3999         calculate D2E/DX2 analytically  !
 ! R10   R(4,17)                 1.3994         calculate D2E/DX2 analytically  !
 ! R11   R(5,6)                  1.3955         calculate D2E/DX2 analytically  !
 ! R12   R(5,26)                 1.0877         calculate D2E/DX2 analytically  !
 ! R13   R(6,7)                  1.3999         calculate D2E/DX2 analytically  !
 ! R14   R(6,27)                 1.0877         calculate D2E/DX2 analytically  !
 ! R15   R(7,8)                  1.5271         calculate D2E/DX2 analytically  !
 ! R16   R(7,16)                 1.3997         calculate D2E/DX2 analytically  !
 ! R17   R(8,9)                  1.4504         calculate D2E/DX2 analytically  !
 ! R18   R(8,28)                 1.0967         calculate D2E/DX2 analytically  !
 ! R19   R(8,29)                 1.096          calculate D2E/DX2 analytically  !
 ! R20   R(9,10)                 1.3871         calculate D2E/DX2 analytically  !
 ! R21   R(9,30)                 1.0092         calculate D2E/DX2 analytically  !
 ! R22   R(10,11)                1.4095         calculate D2E/DX2 analytically  !
 ! R23   R(10,15)                1.412          calculate D2E/DX2 analytically  !
 ! R24   R(11,12)                1.3959         calculate D2E/DX2 analytically  !
 ! R25   R(11,31)                1.084          calculate D2E/DX2 analytically  !
 ! R26   R(12,13)                1.3956         calculate D2E/DX2 analytically  !
 ! R27   R(12,32)                1.0869         calculate D2E/DX2 analytically  !
 ! R28   R(13,14)                1.3994         calculate D2E/DX2 analytically  !
 ! R29   R(13,33)                1.0854         calculate D2E/DX2 analytically  !
 ! R30   R(14,15)                1.391          calculate D2E/DX2 analytically  !
 ! R31   R(14,34)                1.0868         calculate D2E/DX2 analytically  !
 ! R32   R(15,35)                1.0875         calculate D2E/DX2 analytically  !
 ! R33   R(16,17)                1.3949         calculate D2E/DX2 analytically  !
 ! R34   R(16,36)                1.0863         calculate D2E/DX2 analytically  !
 ! R35   R(17,37)                1.0859         calculate D2E/DX2 analytically  !
 ! R36   R(18,19)                1.391          calculate D2E/DX2 analytically  !
 ! R37   R(18,38)                1.0874         calculate D2E/DX2 analytically  !
 ! R38   R(19,20)                1.3995         calculate D2E/DX2 analytically  !
 ! R39   R(19,39)                1.0867         calculate D2E/DX2 analytically  !
 ! R40   R(20,21)                1.3954         calculate D2E/DX2 analytically  !
 ! R41   R(20,40)                1.0854         calculate D2E/DX2 analytically  !
 ! R42   R(21,22)                1.3963         calculate D2E/DX2 analytically  !
 ! R43   R(21,41)                1.0868         calculate D2E/DX2 analytically  !
 ! R44   R(22,42)                1.084          calculate D2E/DX2 analytically  !
 ! A1    A(2,1,18)             119.4129         calculate D2E/DX2 analytically  !
 ! A2    A(2,1,22)             122.2999         calculate D2E/DX2 analytically  !
 ! A3    A(18,1,22)            118.2731         calculate D2E/DX2 analytically  !
 ! A4    A(1,2,3)              122.4388         calculate D2E/DX2 analytically  !
 ! A5    A(1,2,23)             114.2957         calculate D2E/DX2 analytically  !
 ! A6    A(3,2,23)             114.6441         calculate D2E/DX2 analytically  !
 ! A7    A(2,3,4)              114.6394         calculate D2E/DX2 analytically  !
 ! A8    A(2,3,24)             111.2601         calculate D2E/DX2 analytically  !
 ! A9    A(2,3,25)             106.6546         calculate D2E/DX2 analytically  !
 ! A10   A(4,3,24)             108.9932         calculate D2E/DX2 analytically  !
 ! A11   A(4,3,25)             108.6912         calculate D2E/DX2 analytically  !
 ! A12   A(24,3,25)            106.2152         calculate D2E/DX2 analytically  !
 ! A13   A(3,4,5)              120.131          calculate D2E/DX2 analytically  !
 ! A14   A(3,4,17)             121.4902         calculate D2E/DX2 analytically  !
 ! A15   A(5,4,17)             118.3241         calculate D2E/DX2 analytically  !
 ! A16   A(4,5,6)              120.8143         calculate D2E/DX2 analytically  !
 ! A17   A(4,5,26)             119.6321         calculate D2E/DX2 analytically  !
 ! A18   A(6,5,26)             119.5528         calculate D2E/DX2 analytically  !
 ! A19   A(5,6,7)              120.8793         calculate D2E/DX2 analytically  !
 ! A20   A(5,6,27)             119.4968         calculate D2E/DX2 analytically  !
 ! A21   A(7,6,27)             119.6227         calculate D2E/DX2 analytically  !
 ! A22   A(6,7,8)              119.9661         calculate D2E/DX2 analytically  !
 ! A23   A(6,7,16)             118.239          calculate D2E/DX2 analytically  !
 ! A24   A(8,7,16)             121.7401         calculate D2E/DX2 analytically  !
 ! A25   A(7,8,9)              116.7326         calculate D2E/DX2 analytically  !
 ! A26   A(7,8,28)             108.9907         calculate D2E/DX2 analytically  !
 ! A27   A(7,8,29)             109.0309         calculate D2E/DX2 analytically  !
 ! A28   A(9,8,28)             109.3726         calculate D2E/DX2 analytically  !
 ! A29   A(9,8,29)             106.4551         calculate D2E/DX2 analytically  !
 ! A30   A(28,8,29)            105.6854         calculate D2E/DX2 analytically  !
 ! A31   A(8,9,10)             123.9332         calculate D2E/DX2 analytically  !
 ! A32   A(8,9,30)             115.9691         calculate D2E/DX2 analytically  !
 ! A33   A(10,9,30)            115.5529         calculate D2E/DX2 analytically  !
 ! A34   A(9,10,11)            122.4249         calculate D2E/DX2 analytically  !
 ! A35   A(9,10,15)            119.3616         calculate D2E/DX2 analytically  !
 ! A36   A(11,10,15)           118.1794         calculate D2E/DX2 analytically  !
 ! A37   A(10,11,12)           120.3241         calculate D2E/DX2 analytically  !
 ! A38   A(10,11,31)           120.2358         calculate D2E/DX2 analytically  !
 ! A39   A(12,11,31)           119.4376         calculate D2E/DX2 analytically  !
 ! A40   A(11,12,13)           121.2214         calculate D2E/DX2 analytically  !
 ! A41   A(11,12,32)           118.8278         calculate D2E/DX2 analytically  !
 ! A42   A(13,12,32)           119.9496         calculate D2E/DX2 analytically  !
 ! A43   A(12,13,14)           118.6453         calculate D2E/DX2 analytically  !
 ! A44   A(12,13,33)           120.7013         calculate D2E/DX2 analytically  !
 ! A45   A(14,13,33)           120.6528         calculate D2E/DX2 analytically  !
 ! A46   A(13,14,15)           120.83           calculate D2E/DX2 analytically  !
 ! A47   A(13,14,34)           120.0656         calculate D2E/DX2 analytically  !
 ! A48   A(15,14,34)           119.1044         calculate D2E/DX2 analytically  !
 ! A49   A(10,15,14)           120.7967         calculate D2E/DX2 analytically  !
 ! A50   A(10,15,35)           119.1616         calculate D2E/DX2 analytically  !
 ! A51   A(14,15,35)           120.0411         calculate D2E/DX2 analytically  !
 ! A52   A(7,16,17)            120.9157         calculate D2E/DX2 analytically  !
 ! A53   A(7,16,36)            119.5049         calculate D2E/DX2 analytically  !
 ! A54   A(17,16,36)           119.5782         calculate D2E/DX2 analytically  !
 ! A55   A(4,17,16)            120.825          calculate D2E/DX2 analytically  !
 ! A56   A(4,17,37)            119.0272         calculate D2E/DX2 analytically  !
 ! A57   A(16,17,37)           120.1454         calculate D2E/DX2 analytically  !
 ! A58   A(1,18,19)            120.7631         calculate D2E/DX2 analytically  !
 ! A59   A(1,18,38)            119.1981         calculate D2E/DX2 analytically  !
 ! A60   A(19,18,38)           120.0387         calculate D2E/DX2 analytically  !
 ! A61   A(18,19,20)           120.7923         calculate D2E/DX2 analytically  !
 ! A62   A(18,19,39)           119.1416         calculate D2E/DX2 analytically  !
 ! A63   A(20,19,39)           120.0658         calculate D2E/DX2 analytically  !
 ! A64   A(19,20,21)           118.707          calculate D2E/DX2 analytically  !
 ! A65   A(19,20,40)           120.6136         calculate D2E/DX2 analytically  !
 ! A66   A(21,20,40)           120.6794         calculate D2E/DX2 analytically  !
 ! A67   A(20,21,22)           121.1796         calculate D2E/DX2 analytically  !
 ! A68   A(20,21,41)           119.9562         calculate D2E/DX2 analytically  !
 ! A69   A(22,21,41)           118.8642         calculate D2E/DX2 analytically  !
 ! A70   A(1,22,21)            120.2849         calculate D2E/DX2 analytically  !
 ! A71   A(1,22,42)            120.1355         calculate D2E/DX2 analytically  !
 ! A72   A(21,22,42)           119.575          calculate D2E/DX2 analytically  !
 ! D1    D(18,1,2,3)           163.4321         calculate D2E/DX2 analytically  !
 ! D2    D(18,1,2,23)           17.4361         calculate D2E/DX2 analytically  !
 ! D3    D(22,1,2,3)           -17.9609         calculate D2E/DX2 analytically  !
 ! D4    D(22,1,2,23)         -163.9568         calculate D2E/DX2 analytically  !
 ! D5    D(2,1,18,19)          178.7776         calculate D2E/DX2 analytically  !
 ! D6    D(2,1,18,38)           -1.3484         calculate D2E/DX2 analytically  !
 ! D7    D(22,1,18,19)           0.1145         calculate D2E/DX2 analytically  !
 ! D8    D(22,1,18,38)         179.9884         calculate D2E/DX2 analytically  !
 ! D9    D(2,1,22,21)         -178.7402         calculate D2E/DX2 analytically  !
 ! D10   D(2,1,22,42)            0.4774         calculate D2E/DX2 analytically  !
 ! D11   D(18,1,22,21)          -0.118          calculate D2E/DX2 analytically  !
 ! D12   D(18,1,22,42)         179.0997         calculate D2E/DX2 analytically  !
 ! D13   D(1,2,3,4)             83.7431         calculate D2E/DX2 analytically  !
 ! D14   D(1,2,3,24)           -40.4972         calculate D2E/DX2 analytically  !
 ! D15   D(1,2,3,25)          -155.911          calculate D2E/DX2 analytically  !
 ! D16   D(23,2,3,4)          -130.3681         calculate D2E/DX2 analytically  !
 ! D17   D(23,2,3,24)          105.3916         calculate D2E/DX2 analytically  !
 ! D18   D(23,2,3,25)          -10.0222         calculate D2E/DX2 analytically  !
 ! D19   D(2,3,4,5)           -150.4582         calculate D2E/DX2 analytically  !
 ! D20   D(2,3,4,17)            32.2765         calculate D2E/DX2 analytically  !
 ! D21   D(24,3,4,5)           -25.0242         calculate D2E/DX2 analytically  !
 ! D22   D(24,3,4,17)          157.7106         calculate D2E/DX2 analytically  !
 ! D23   D(25,3,4,5)            90.33           calculate D2E/DX2 analytically  !
 ! D24   D(25,3,4,17)          -86.9353         calculate D2E/DX2 analytically  !
 ! D25   D(3,4,5,6)           -177.0284         calculate D2E/DX2 analytically  !
 ! D26   D(3,4,5,26)             2.6484         calculate D2E/DX2 analytically  !
 ! D27   D(17,4,5,6)             0.3225         calculate D2E/DX2 analytically  !
 ! D28   D(17,4,5,26)          179.9993         calculate D2E/DX2 analytically  !
 ! D29   D(3,4,17,16)          177.4157         calculate D2E/DX2 analytically  !
 ! D30   D(3,4,17,37)           -3.1405         calculate D2E/DX2 analytically  !
 ! D31   D(5,4,17,16)            0.1026         calculate D2E/DX2 analytically  !
 ! D32   D(5,4,17,37)          179.5464         calculate D2E/DX2 analytically  !
 ! D33   D(4,5,6,7)             -0.5995         calculate D2E/DX2 analytically  !
 ! D34   D(4,5,6,27)           179.7885         calculate D2E/DX2 analytically  !
 ! D35   D(26,5,6,7)           179.7234         calculate D2E/DX2 analytically  !
 ! D36   D(26,5,6,27)            0.1114         calculate D2E/DX2 analytically  !
 ! D37   D(5,6,7,8)           -176.9218         calculate D2E/DX2 analytically  !
 ! D38   D(5,6,7,16)             0.4331         calculate D2E/DX2 analytically  !
 ! D39   D(27,6,7,8)             2.6897         calculate D2E/DX2 analytically  !
 ! D40   D(27,6,7,16)         -179.9553         calculate D2E/DX2 analytically  !
 ! D41   D(6,7,8,9)           -151.3062         calculate D2E/DX2 analytically  !
 ! D42   D(6,7,8,28)           -26.8261         calculate D2E/DX2 analytically  !
 ! D43   D(6,7,8,29)            88.0814         calculate D2E/DX2 analytically  !
 ! D44   D(16,7,8,9)            31.4339         calculate D2E/DX2 analytically  !
 ! D45   D(16,7,8,28)          155.9139         calculate D2E/DX2 analytically  !
 ! D46   D(16,7,8,29)          -89.1786         calculate D2E/DX2 analytically  !
 ! D47   D(6,7,16,17)           -0.0077         calculate D2E/DX2 analytically  !
 ! D48   D(6,7,16,36)          179.5902         calculate D2E/DX2 analytically  !
 ! D49   D(8,7,16,17)          177.2979         calculate D2E/DX2 analytically  !
 ! D50   D(8,7,16,36)           -3.1042         calculate D2E/DX2 analytically  !
 ! D51   D(7,8,9,10)            67.1907         calculate D2E/DX2 analytically  !
 ! D52   D(7,8,9,30)           -87.7645         calculate D2E/DX2 analytically  !
 ! D53   D(28,8,9,10)          -57.0952         calculate D2E/DX2 analytically  !
 ! D54   D(28,8,9,30)          147.9496         calculate D2E/DX2 analytically  !
 ! D55   D(29,8,9,10)         -170.8406         calculate D2E/DX2 analytically  !
 ! D56   D(29,8,9,30)           34.2042         calculate D2E/DX2 analytically  !
 ! D57   D(8,9,10,11)           11.952          calculate D2E/DX2 analytically  !
 ! D58   D(8,9,10,15)         -170.2128         calculate D2E/DX2 analytically  !
 ! D59   D(30,9,10,11)         167.0009         calculate D2E/DX2 analytically  !
 ! D60   D(30,9,10,15)         -15.164          calculate D2E/DX2 analytically  !
 ! D61   D(9,10,11,12)         177.1962         calculate D2E/DX2 analytically  !
 ! D62   D(9,10,11,31)          -3.3778         calculate D2E/DX2 analytically  !
 ! D63   D(15,10,11,12)         -0.6633         calculate D2E/DX2 analytically  !
 ! D64   D(15,10,11,31)        178.7627         calculate D2E/DX2 analytically  !
 ! D65   D(9,10,15,14)        -177.465          calculate D2E/DX2 analytically  !
 ! D66   D(9,10,15,35)           2.2514         calculate D2E/DX2 analytically  !
 ! D67   D(11,10,15,14)          0.462          calculate D2E/DX2 analytically  !
 ! D68   D(11,10,15,35)       -179.8216         calculate D2E/DX2 analytically  !
 ! D69   D(10,11,12,13)          0.4249         calculate D2E/DX2 analytically  !
 ! D70   D(10,11,12,32)       -179.9699         calculate D2E/DX2 analytically  !
 ! D71   D(31,11,12,13)       -179.0057         calculate D2E/DX2 analytically  !
 ! D72   D(31,11,12,32)          0.5995         calculate D2E/DX2 analytically  !
 ! D73   D(11,12,13,14)          0.0351         calculate D2E/DX2 analytically  !
 ! D74   D(11,12,13,33)        179.7574         calculate D2E/DX2 analytically  !
 ! D75   D(32,12,13,14)       -179.5658         calculate D2E/DX2 analytically  !
 ! D76   D(32,12,13,33)          0.1566         calculate D2E/DX2 analytically  !
 ! D77   D(12,13,14,15)         -0.241          calculate D2E/DX2 analytically  !
 ! D78   D(12,13,14,34)        179.7419         calculate D2E/DX2 analytically  !
 ! D79   D(33,13,14,15)       -179.9636         calculate D2E/DX2 analytically  !
 ! D80   D(33,13,14,34)          0.0194         calculate D2E/DX2 analytically  !
 ! D81   D(13,14,15,10)         -0.0123         calculate D2E/DX2 analytically  !
 ! D82   D(13,14,15,35)       -179.7262         calculate D2E/DX2 analytically  !
 ! D83   D(34,14,15,10)       -179.9954         calculate D2E/DX2 analytically  !
 ! D84   D(34,14,15,35)          0.2907         calculate D2E/DX2 analytically  !
 ! D85   D(7,16,17,4)           -0.2607         calculate D2E/DX2 analytically  !
 ! D86   D(7,16,17,37)        -179.6982         calculate D2E/DX2 analytically  !
 ! D87   D(36,16,17,4)        -179.8583         calculate D2E/DX2 analytically  !
 ! D88   D(36,16,17,37)          0.7042         calculate D2E/DX2 analytically  !
 ! D89   D(1,18,19,20)          -0.0233         calculate D2E/DX2 analytically  !
 ! D90   D(1,18,19,39)         179.7767         calculate D2E/DX2 analytically  !
 ! D91   D(38,18,19,20)       -179.8962         calculate D2E/DX2 analytically  !
 ! D92   D(38,18,19,39)         -0.0961         calculate D2E/DX2 analytically  !
 ! D93   D(18,19,20,21)         -0.0655         calculate D2E/DX2 analytically  !
 ! D94   D(18,19,20,40)        179.9716         calculate D2E/DX2 analytically  !
 ! D95   D(39,19,20,21)       -179.8637         calculate D2E/DX2 analytically  !
 ! D96   D(39,19,20,40)          0.1734         calculate D2E/DX2 analytically  !
 ! D97   D(19,20,21,22)          0.0617         calculate D2E/DX2 analytically  !
 ! D98   D(19,20,21,41)       -179.9148         calculate D2E/DX2 analytically  !
 ! D99   D(40,20,21,22)       -179.9755         calculate D2E/DX2 analytically  !
 ! D100  D(40,20,21,41)          0.048          calculate D2E/DX2 analytically  !
 ! D101  D(20,21,22,1)           0.0311         calculate D2E/DX2 analytically  !
 ! D102  D(20,21,22,42)       -179.1909         calculate D2E/DX2 analytically  !
 ! D103  D(41,21,22,1)        -179.9921         calculate D2E/DX2 analytically  !
 ! D104  D(41,21,22,42)          0.7858         calculate D2E/DX2 analytically  !
 --------------------------------------------------------------------------------
 Trust Radius=3.00D-01 FncErr=1.00D-07 GrdErr=1.00D-06 EigMax=2.50D+02 EigMin=1.00D-04
 Number of steps in this run=    230 maximum allowed number of steps=    252.
 GradGradGradGradGradGradGradGradGradGradGradGradGradGradGradGradGradGrad

                          Input orientation:                          
 ---------------------------------------------------------------------
 Center     Atomic      Atomic             Coordinates (Angstroms)
 Number     Number       Type             X           Y           Z
 ---------------------------------------------------------------------
      1          6           0        4.143130   -0.789936    0.084519
      2          7           0        3.124024   -1.508102    0.700122
      3          6           0        2.251190   -0.919564    1.704790
      4          6           0        1.069980   -0.139253    1.141522
      5          6           0        0.535061    0.939087    1.856264
      6          6           0       -0.584749    1.624783    1.383807
      7          6           0       -1.194317    1.260287    0.177441
      8          6           0       -2.375272    2.068733   -0.355229
      9          7           0       -3.337033    1.356384   -1.174531
     10          6           0       -4.171894    0.357096   -0.696460
     11          6           0       -4.338966    0.106307    0.680497
     12          6           0       -5.234853   -0.871980    1.115070
     13          6           0       -5.976845   -1.628266    0.206623
     14          6           0       -5.807024   -1.389229   -1.161677
     15          6           0       -4.921446   -0.415083   -1.610628
     16          6           0       -0.656417    0.183990   -0.537677
     17          6           0        0.457566   -0.507520   -0.061701
     18          6           0        5.162270   -1.483413   -0.602963
     19          6           0        6.181264   -0.792342   -1.250173
     20          6           0        6.219878    0.606518   -1.235452
     21          6           0        5.214022    1.297698   -0.558994
     22          6           0        4.184444    0.618376    0.095366
     23          1           0        3.332958   -2.485166    0.844301
     24          1           0        2.814490   -0.270254    2.391712
     25          1           0        1.867863   -1.747430    2.311564
     26          1           0        0.994280    1.243436    2.794095
     27          1           0       -0.984680    2.457405    1.958229
     28          1           0       -2.894280    2.540330    0.488025
     29          1           0       -1.995808    2.893979   -0.968587
     30          1           0       -3.133759    1.318259   -2.162351
     31          1           0       -3.765439    0.665671    1.410750
     32          1           0       -5.344864   -1.044859    2.182438
     33          1           0       -6.668230   -2.389534    0.553749
     34          1           0       -6.369978   -1.967626   -1.889410
     35          1           0       -4.802802   -0.236968   -2.676829
     36          1           0       -1.117286   -0.120629   -1.473030
     37          1           0        0.867568   -1.337593   -0.629134
     38          1           0        5.145164   -2.570540   -0.620810
     39          1           0        6.954638   -1.352911   -1.768442
     40          1           0        7.016637    1.142824   -1.741073
     41          1           0        5.223405    2.384227   -0.535776
     42          1           0        3.409043    1.181679    0.601767
 ---------------------------------------------------------------------
                    Distance matrix (angstroms):
                    1          2          3          4          5
     1  C    0.000000
     2  N    1.390434   0.000000
     3  C    2.494297   1.455189   0.000000
     4  C    3.314347   2.507524   1.523618   0.000000
     5  C    4.375701   3.745414   2.534290   1.399933   0.000000
     6  C    5.465515   4.902794   3.823517   2.430772   1.395482
     7  C    5.718425   5.156088   4.353856   2.831114   2.431535
     8  C    7.131264   6.644529   5.880285   4.357204   3.825812
     9  N    7.883193   7.311967   6.685706   5.198345   4.934873
    10  C    8.430020   7.658970   6.975089   5.576897   5.386143
    11  C    8.550111   7.635635   6.747721   5.434109   5.082528
    12  C    9.434794   8.393310   7.509386   6.347323   6.092720
    13  C   10.155373   9.115031   8.393290   7.262846   7.191491
    14  C   10.045781   9.123817   8.565748   7.359372   7.399396
    15  C    9.229332   8.441791   7.917904   6.599060   6.605042
    16  C    4.936731   4.322853   3.834145   2.429947   2.778623
    17  C    3.699260   2.948141   2.550952   1.399435   2.403595
    18  C    1.411449   2.419315   3.757398   4.647239   5.772986
    19  C    2.436267   3.696306   4.918686   5.680841   6.672886
    20  C    2.829362   4.219286   5.169568   5.720807   6.479696
    21  C    2.432927   3.718330   4.338127   4.704218   5.277760
    22  C    1.408960   2.451964   2.948385   3.371695   4.064679
    23  H    2.026685   1.009502   2.088486   3.273029   4.536277
    24  H    2.712654   2.118857   1.100351   2.150221   2.635338
    25  H    3.324660   2.057174   1.095663   2.142860   3.033320
    26  H    4.625112   4.060972   2.728549   2.156051   1.087675
    27  H    6.352200   5.847181   4.683909   3.410465   2.150651
    28  H    7.796065   7.256361   6.318801   4.829346   4.024480
    29  H    7.236492   6.955256   6.302940   4.801262   4.266929
    30  H    7.902280   7.439215   6.997164   5.541781   5.454657
    31  H    8.150040   7.259131   6.228905   4.909344   4.332152
    32  H    9.720508   8.610106   7.612088   6.561543   6.214173
    33  H   10.939122   9.832934   9.112725   8.080169   8.041372
    34  H   10.761449   9.851544   9.399002   8.239082   8.376074
    35  H    9.378727   8.709429   8.332066   7.005635   7.101044
    36  H    5.526835   4.963505   4.699305   3.408865   3.864899
    37  H    3.396842   2.624422   2.745243   2.147606   3.386892
    38  H    2.161507   2.637924   4.063154   5.062025   6.301304
    39  H    3.413939   4.559769   5.862896   6.676081   7.720280
    40  H    3.914766   5.304647   6.231926   6.731701   7.415738
    41  H    3.409849   4.591848   4.976870   5.141227   5.458100
    42  H    2.166494   2.706627   2.640550   2.739966   3.145216
                    6          7          8          9         10
     6  C    0.000000
     7  C    1.399910   0.000000
     8  C    2.535214   1.527081   0.000000
     9  N    3.767253   2.535408   1.450407   0.000000
    10  C    4.336145   3.231938   2.504793   1.387127   0.000000
    11  C    4.110299   3.387263   2.963096   2.451059   1.409546
    12  C    5.284838   4.663866   4.357382   3.716127   2.433547
    13  C    6.406465   5.587232   5.191802   4.217147   2.831090
    14  C    6.544915   5.485457   4.938095   3.693157   2.437156
    15  C    5.651074   4.460442   3.772051   2.416328   1.412017
    16  C    2.402732   1.399695   2.557344   2.994293   3.523316
    17  C    2.778962   2.431265   3.840340   4.371671   4.752092
    18  C    6.829082   6.967289   8.336285   8.979381   9.514349
    19  C    7.652403   7.787847   9.066476   9.758111  10.431476
    20  C    7.362087   7.575881   8.762960   9.586478  10.408729
    21  C    6.124313   6.450624   7.631081   8.573382   9.433931
    22  C    5.041640   5.417551   6.733234   7.663544   8.397835
    23  H    5.703611   5.913488   7.400051   7.957510   8.171609
    24  H    4.020182   4.828673   6.320615   7.294195   7.664198
    25  H    4.271751   4.793515   6.299133   6.991242   7.067949
    26  H    2.151202   3.411322   4.685428   5.875629   6.297533
    27  H    1.087734   2.155979   2.727068   4.069398   4.649409
    28  H    2.640944   2.150546   1.096745   2.088504   2.793173
    29  H    3.022533   2.150516   1.096007   2.050731   3.353383
    30  H    4.377973   3.039642   2.098619   1.009238   2.037252
    31  H    3.322260   2.912952   2.649496   2.710036   2.168123
    32  H    5.515750   5.153712   4.995266   4.589836   3.410189
    33  H    7.335699   6.589880   6.255547   5.302427   3.916464
    34  H    7.555675   6.440401   5.882481   4.556188   3.414533
    35  H    6.143847   4.838367   4.074185   2.635175   2.161670
    36  H    3.389923   2.153350   2.761397   2.682899   3.187775
    37  H    3.864819   3.413343   4.711061   5.023310   5.317206
    38  H    7.379101   7.449930   8.840268   9.363493   9.766491
    39  H    8.697453   8.776146  10.037532  10.658870  11.308094
    40  H    8.232753   8.432927   9.538649  10.371358  11.264627
    41  H    6.164106   6.554317   7.607367   8.645552   9.612842
    42  H    4.093691   4.623544   5.929672   6.978202   7.735369
                   11         12         13         14         15
    11  C    0.000000
    12  C    1.395891   0.000000
    13  C    2.432272   1.395635   0.000000
    14  C    2.790238   2.403852   1.399365   0.000000
    15  C    2.420823   2.781440   2.426537   1.390959   0.000000
    16  C    3.879581   4.980835   5.669674   5.421545   4.438534
    17  C    4.892276   5.824196   6.536797   6.421250   5.598347
    18  C    9.718434  10.555835  11.169436  10.983917  10.190095
    19  C   10.733606  11.658835  12.273575  12.003464  11.114964
    20  C   10.742917  11.786508  12.483345  12.191588  11.194352
    21  C    9.706458  10.802267  11.592366  11.359853  10.332825
    22  C    8.558803   9.590835  10.407285  10.268401   9.321786
    23  H    8.099443   8.722561   9.370877   9.421481   8.857037
    24  H    7.364916   8.172136   9.160043   9.391974   8.711166
    25  H    6.679929   7.255797   8.123079   8.431821   7.953204
    26  H    5.848408   6.789419   7.971089   8.296794   7.559635
    27  H    4.290862   5.464402   6.684500   6.912699   6.040369
    28  H    2.837011   4.185132   5.192166   5.162076   4.153097
    29  H    3.997622   5.386602   6.138442   5.736595   4.463347
    30  H    3.317098   4.466904   4.730453   3.934233   2.550431
    31  H    1.084016   2.147318   3.406227   3.874024   3.410734
    32  H    2.143091   1.086860   2.154903   3.393418   3.868236
    33  H    3.416249   2.161625   1.085375   2.164480   3.410900
    34  H    3.876936   3.393501   2.159415   1.086764   2.141577
    35  H    3.406555   3.868902   3.410041   2.152174   1.087468
    36  H    3.881804   4.921092   5.358126   4.868257   3.818019
    37  H    5.559494   6.363850   6.901374   6.696002   5.943655
    38  H    9.940203  10.660354  11.192480  11.028982  10.342261
    39  H   11.647837  12.535136  13.084340  12.776130  11.914101
    40  H   11.657105  12.740329  13.427697  13.084085  12.040013
    41  H    9.904907  11.077154  11.920439  11.674806  10.578726
    42  H    7.822676   8.899322   9.805449   9.729090   8.765922
                   16         17         18         19         20
    16  C    0.000000
    17  C    1.394883   0.000000
    18  C    6.053232   4.835243   0.000000
    19  C    6.943685   5.852718   1.390974   0.000000
    20  C    6.924511   5.985233   2.426188   1.399470   0.000000
    21  C    5.975187   5.111750   2.781940   2.404486   1.395375
    22  C    4.901364   3.896400   2.421017   2.790679   2.431915
    23  H    4.994934   3.605524   2.538595   3.919862   4.713617
    24  H    4.564521   3.410370   3.993983   4.987090   5.051902
    25  H    4.268553   3.026335   4.406505   5.674821   6.087892
    26  H    3.866255   3.392562   6.028918   6.885151   6.629464
    27  H    3.392008   3.866649   7.737877   8.497379   8.095124
    28  H    3.407702   4.563602   9.071315   9.823112   9.475119
    29  H    3.053472   4.290884   8.398412   8.974005   8.532361
    30  H    3.172279   4.543546   8.894108   9.594601   9.426359
    31  H    3.700595   4.623663   9.400936  10.399193  10.330171
    32  H    5.557934   6.244444  10.878909  12.029057  12.171782
    33  H    6.629942   7.395791  11.921400  13.073433  13.352187
    34  H    6.253112   7.217187  11.613878  12.622345  12.866948
    35  H    4.684622   5.880779  10.254619  11.090243  11.148476
    36  H    1.086314   2.149812   6.484367   7.332782   7.376934
    37  H    2.155484   1.085865   4.297257   5.377579   5.726641
    38  H    6.422826   5.151915   1.087408   2.152113   3.409764
    39  H    7.861616   6.770494   2.141951   1.086714   2.159470
    40  H    7.825809   6.968884   3.410439   2.164185   1.085404
    41  H    6.278006   5.594655   3.868707   3.393884   2.154705
    42  H    4.338396   3.464794   3.409970   3.874487   3.406901
                   21         22         23         24         25
    21  C    0.000000
    22  C    1.396315   0.000000
    23  H    4.451707   3.304225   0.000000
    24  H    4.113744   2.817737   2.751204   0.000000
    25  H    5.358142   3.984359   2.200822   1.756296   0.000000
    26  H    5.390025   4.225043   4.813895   2.401319   3.152977
    27  H    6.790084   5.794146   6.656714   4.696991   5.093377
    28  H    8.269519   7.345504   8.010058   6.641797   6.662446
    29  H    7.395778   6.671273   7.785725   6.666554   6.872410
    30  H    8.500390   7.690463   8.082353   7.657972   7.377709
    31  H    9.214666   8.058108   7.786904   6.718163   6.194240
    32  H   11.157647   9.895955   8.897735   8.198711   7.248014
    33  H   12.490868  11.271121  10.005865   9.888955   8.738827
    34  H   12.108733  11.046382  10.093958  10.274411   9.249794
    35  H   10.352642   9.443901   9.145673   9.149555   8.465420
    36  H    6.552295   5.578023   5.546686   5.515205   5.087312
    37  H    5.083438   3.918212   3.092908   3.749030   3.133091
    38  H    3.869345   3.406622   2.331937   4.449567   4.474039
    39  H    3.393853   3.877335   4.607059   5.968237   6.532792
    40  H    2.161184   3.415973   5.780654   6.060919   7.161516
    41  H    1.086818   2.143831   5.402721   4.628102   6.036356
    42  H    2.149134   1.083974   3.675645   2.380232   3.725362
                   26         27         28         29         30
    26  H    0.000000
    27  H    2.467524   0.000000
    28  H    4.703275   2.411420   0.000000
    29  H    5.081604   3.127176   1.747581   0.000000
    30  H    6.450788   4.784911   2.928361   2.280986   0.000000
    31  H    4.990229   3.353008   2.263777   3.709204   3.686725
    32  H    6.767212   5.597082   4.661542   6.054715   5.417610
    33  H    8.771071   7.600534   6.208911   7.215576   5.798053
    34  H    9.299378   7.961574   6.168820   6.604278   4.620027
    35  H    8.107328   6.581904   4.623001   4.538737   2.338616
    36  H    4.952549   4.293877   3.752885   3.180271   2.571328
    37  H    4.289087   4.952502   5.517049   5.120581   5.041321
    38  H    6.590738   8.337065   9.590786   8.998633   9.275757
    39  H    7.942520   9.562393  10.828211   9.939131  10.443470
    40  H    7.539672   8.912577  10.254178   9.213438  10.160649
    41  H    5.502267   6.690720   8.183480   7.250118   8.580456
    42  H    3.262085   4.772030   6.449089   5.883060   7.104031
                   31         32         33         34         35
    31  H    0.000000
    32  H    2.452753   0.000000
    33  H    4.300573   2.492404   0.000000
    34  H    4.960739   4.299105   2.497196   0.000000
    35  H    4.312677   4.955703   4.306971   2.463990   0.000000
    36  H    3.993391   5.664721   6.329988   5.583506   3.878878
    37  H    5.444166   6.825316   7.700263   7.373419   6.128420
    38  H    9.695316  10.964789  11.873021  11.600489  10.422802
    39  H   11.362305  12.922155  13.858199  13.339337  11.845163
    40  H   11.243435  13.152437  14.318497  13.744030  11.936440
    41  H    9.356373  11.438340  12.860282  12.457025  10.582041
    42  H    7.238364   9.169890  10.691459  10.571345   8.955230
                   36         37         38         39         40
    36  H    0.000000
    37  H    2.476451   0.000000
    38  H    6.778394   4.451747   0.000000
    39  H    8.170786   6.192792   2.464523   0.000000
    40  H    8.235828   6.723089   4.306562   2.496655   0.000000
    41  H    6.881650   5.730094   4.956114   4.299167   2.491887
    42  H    5.146692   3.784302   4.311375   4.961177   4.301761
                   41         42
    41  H    0.000000
    42  H    2.456020   0.000000
 Stoichiometry    C20H20N2
 Framework group  C1[X(C20H20N2)]
 Deg. of freedom   120
 Full point group                 C1      NOp   1
 Largest Abelian subgroup         C1      NOp   1
 Largest concise Abelian subgroup C1      NOp   1
                         Standard orientation:                         
 ---------------------------------------------------------------------
 Center     Atomic      Atomic             Coordinates (Angstroms)
 Number     Number       Type             X           Y           Z
 ---------------------------------------------------------------------
      1          6           0        4.143130   -0.789936    0.084519
      2          7           0        3.124024   -1.508102    0.700122
      3          6           0        2.251190   -0.919564    1.704790
      4          6           0        1.069980   -0.139253    1.141522
      5          6           0        0.535061    0.939087    1.856264
      6          6           0       -0.584749    1.624783    1.383807
      7          6           0       -1.194317    1.260287    0.177441
      8          6           0       -2.375272    2.068733   -0.355229
      9          7           0       -3.337033    1.356384   -1.174531
     10          6           0       -4.171894    0.357096   -0.696460
     11          6           0       -4.338966    0.106307    0.680497
     12          6           0       -5.234853   -0.871980    1.115070
     13          6           0       -5.976845   -1.628266    0.206623
     14          6           0       -5.807024   -1.389229   -1.161677
     15          6           0       -4.921446   -0.415083   -1.610628
     16          6           0       -0.656417    0.183990   -0.537677
     17          6           0        0.457566   -0.507520   -0.061701
     18          6           0        5.162270   -1.483413   -0.602963
     19          6           0        6.181264   -0.792342   -1.250173
     20          6           0        6.219878    0.606518   -1.235452
     21          6           0        5.214022    1.297698   -0.558994
     22          6           0        4.184444    0.618376    0.095366
     23          1           0        3.332958   -2.485166    0.844301
     24          1           0        2.814490   -0.270254    2.391712
     25          1           0        1.867863   -1.747430    2.311564
     26          1           0        0.994280    1.243436    2.794095
     27          1           0       -0.984680    2.457405    1.958229
     28          1           0       -2.894280    2.540330    0.488025
     29          1           0       -1.995808    2.893979   -0.968587
     30          1           0       -3.133759    1.318259   -2.162351
     31          1           0       -3.765439    0.665671    1.410750
     32          1           0       -5.344864   -1.044859    2.182438
     33          1           0       -6.668230   -2.389534    0.553749
     34          1           0       -6.369978   -1.967626   -1.889410
     35          1           0       -4.802802   -0.236968   -2.676829
     36          1           0       -1.117286   -0.120629   -1.473030
     37          1           0        0.867568   -1.337593   -0.629134
     38          1           0        5.145164   -2.570540   -0.620810
     39          1           0        6.954638   -1.352911   -1.768442
     40          1           0        7.016637    1.142824   -1.741073
     41          1           0        5.223405    2.384227   -0.535776
     42          1           0        3.409043    1.181679    0.601767
 ---------------------------------------------------------------------
 Rotational constants (GHZ):           0.7122128           0.1005097           0.0992615
 Standard basis: 6-31G(d,p) (6D, 7F)
 There are   430 symmetry adapted cartesian basis functions of A   symmetry.
 There are   430 symmetry adapted basis functions of A   symmetry.
   430 basis functions,   756 primitive gaussians,   430 cartesian basis functions
    77 alpha electrons       77 beta electrons
       nuclear repulsion energy      1567.7844882614 Hartrees.
 NAtoms=   42 NActive=   42 NUniq=   42 SFac= 1.00D+00 NAtFMM=   60 NAOKFM=F Big=F
 Integral buffers will be    131072 words long.
 Raffenetti 2 integral format.
 Two-electron integral symmetry is turned on.
 Force inversion solution in PCM.
 ------------------------------------------------------------------------------
 Polarizable Continuum Model (PCM)
 =================================
 Model                : PCM.
 Atomic radii         : UFF (Universal Force Field).
 Polarization charges : Total charges.
 Charge compensation  : None.
 Solution method      : Matrix inversion.
 Cavity type          : Scaled VdW (van der Waals Surface) (Alpha=1.100).
 Cavity algorithm     : GePol (No added spheres)
                        Default sphere list used, NSphG=   42.
                        Lebedev-Laikov grids with approx.  5.0 points / Ang**2.
                        Smoothing algorithm: York/Karplus (Gamma=1.0000).
                        Polarization charges: spherical gaussians, with
                                              point-specific exponents (IZeta= 3).
                        Self-potential: point-specific (ISelfS= 7).
                        Self-field    : sphere-specific E.n sum rule (ISelfD= 2).
 1st derivatives      : Analytical E(r).r(x)/FMM algorithm (CHGder, D1EAlg=3).
                        Cavity 1st derivative terms included.
 2nd derivatives      : Analytical E(r).r(xy)/FMM algorithm (CHGder, D2EAlg=3).
                        Cavity 2nd derivative terms included.
 Solvent              : Water, Eps=  78.355300 Eps(inf)=   1.777849
 ------------------------------------------------------------------------------
 One-electron integrals computed using PRISM.
 NBasis=   430 RedAO= T EigKep=  4.17D-04  NBF=   430
 NBsUse=   430 1.00D-06 EigRej= -1.00D+00 NBFU=   430
 ExpMin= 1.61D-01 ExpMax= 4.17D+03 ExpMxC= 6.27D+02 IAcc=3 IRadAn=         5 AccDes= 0.00D+00
 Harris functional with IExCor=  402 and IRadAn=       5 diagonalized for initial guess.
 HarFok:  IExCor=  402 AccDes= 0.00D+00 IRadAn=         5 IDoV= 1 UseB2=F ITyADJ=14
 ICtDFT=  3500011 ScaDFX=  1.000000  1.000000  1.000000  1.000000
 FoFCou: FMM=F IPFlag=           0 FMFlag=      100000 FMFlg1=           0
         NFxFlg=           0 DoJE=T BraDBF=F KetDBF=T FulRan=T
         wScrn=  0.000000 ICntrl=       500 IOpCl=  0 I1Cent=   200000004 NGrid=           0
         NMat0=    1 NMatS0=      1 NMatT0=    0 NMatD0=    1 NMtDS0=    0 NMtDT0=    0
 Petite list used in FoFCou.
 Requested convergence on RMS density matrix=1.00D-08 within  32 cycles.
 Requested convergence on MAX density matrix=1.00D-06.
 Requested convergence on             energy=1.00D-06.
 No special actions if energy rises.
 Inv3:  Mode=1 IEnd=    27706563.
 Iteration    1 A*A^-1 deviation from unit magnitude is 3.44D-15 for   1704.
 Iteration    1 A*A^-1 deviation from orthogonality  is 2.66D-15 for   1966    912.
 Iteration    1 A^-1*A deviation from unit magnitude is 3.44D-15 for   1704.
 Iteration    1 A^-1*A deviation from orthogonality  is 3.33D-15 for   2667    497.
 Error on total polarization charges =  0.01282
 SCF Done:  E(RB3LYP) =  -883.717770605     A.U. after   12 cycles
            NFock= 12  Conv=0.72D-08     -V/T= 2.0099
 QCSCF skips out because SCF is already converged.
 DoSCS=F DFT=T ScalE2(SS,OS)=  1.000000  1.000000
 Range of M.O.s used for correlation:     1   430
 NBasis=   430 NAE=    77 NBE=    77 NFC=     0 NFV=     0
 NROrb=    430 NOA=    77 NOB=    77 NVA=   353 NVB=   353
 Symmetrizing basis deriv contribution to polar:
 IMax=3 JMax=2 DiffMx= 0.00D+00
 G2DrvN: will do    43 centers at a time, making    1 passes.
 Calling FoFCou, ICntrl=  3107 FMM=F I1Cent=   0 AccDes= 0.00D+00.
 NEqPCM:  Using equilibrium solvation (IEInf=0, Eps=  78.3553, EpsInf=   1.7778)
 G2PCM: DoFxE=T DoFxN=T DoGrad=T DoDP/DQ/DG/TGxP=FFFF NFrqRd=   0 IEInf=0 SqF1=F DoCFld=F IF1Alg=4.
 End of G2Drv F.D. properties file   721 does not exist.
 End of G2Drv F.D. properties file   722 does not exist.
 End of G2Drv F.D. properties file   788 does not exist.
          IDoAtm=111111111111111111111111111111111111111111
 NEqPCM:  Using equilibrium solvation (IEInf=0, Eps=  78.3553, EpsInf=   1.7778)
          Differentiating once with respect to nuclear coordinates.
 CalDSu exits because no D1Ps are significant.
          There are   129 degrees of freedom in the 1st order CPHF.  IDoFFX=6 NUNeed=     0.
    123 vectors produced by pass  0 Test12= 2.72D-14 1.00D-09 XBig12= 1.59D-01 1.68D-01.
 AX will form   123 AO Fock derivatives at one time.
    123 vectors produced by pass  1 Test12= 2.72D-14 1.00D-09 XBig12= 3.60D-02 4.66D-02.
    123 vectors produced by pass  2 Test12= 2.72D-14 1.00D-09 XBig12= 2.22D-04 2.09D-03.
    123 vectors produced by pass  3 Test12= 2.72D-14 1.00D-09 XBig12= 4.42D-07 6.14D-05.
    123 vectors produced by pass  4 Test12= 2.72D-14 1.00D-09 XBig12= 4.35D-10 1.73D-06.
     84 vectors produced by pass  5 Test12= 2.72D-14 1.00D-09 XBig12= 4.77D-13 7.35D-08.
      9 vectors produced by pass  6 Test12= 2.72D-14 1.00D-09 XBig12= 5.06D-16 2.35D-09.
 InvSVY:  IOpt=1 It=  1 EMax= 4.44D-16
 Solved reduced A of dimension   708 with   129 vectors.
 End of Minotr F.D. properties file   721 does not exist.
 End of Minotr F.D. properties file   722 does not exist.
 End of Minotr F.D. properties file   788 does not exist.

 **********************************************************************

            Population analysis using the SCF density.

 **********************************************************************

 Orbital symmetries:
       Occupied  (A) (A) (A) (A) (A) (A) (A) (A) (A) (A) (A) (A)
                 (A) (A) (A) (A) (A) (A) (A) (A) (A) (A) (A) (A)
                 (A) (A) (A) (A) (A) (A) (A) (A) (A) (A) (A) (A)
                 (A) (A) (A) (A) (A) (A) (A) (A) (A) (A) (A) (A)
                 (A) (A) (A) (A) (A) (A) (A) (A) (A) (A) (A) (A)
                 (A) (A) (A) (A) (A) (A) (A) (A) (A) (A) (A) (A)
                 (A) (A) (A) (A) (A)
       Virtual   (A) (A) (A) (A) (A) (A) (A) (A) (A) (A) (A) (A)
                 (A) (A) (A) (A) (A) (A) (A) (A) (A) (A) (A) (A)
                 (A) (A) (A) (A) (A) (A) (A) (A) (A) (A) (A) (A)
                 (A) (A) (A) (A) (A) (A) (A) (A) (A) (A) (A) (A)
                 (A) (A) (A) (A) (A) (A) (A) (A) (A) (A) (A) (A)
                 (A) (A) (A) (A) (A) (A) (A) (A) (A) (A) (A) (A)
                 (A) (A) (A) (A) (A) (A) (A) (A) (A) (A) (A) (A)
                 (A) (A) (A) (A) (A) (A) (A) (A) (A) (A) (A) (A)
                 (A) (A) (A) (A) (A) (A) (A) (A) (A) (A) (A) (A)
                 (A) (A) (A) (A) (A) (A) (A) (A) (A) (A) (A) (A)
                 (A) (A) (A) (A) (A) (A) (A) (A) (A) (A) (A) (A)
                 (A) (A) (A) (A) (A) (A) (A) (A) (A) (A) (A) (A)
                 (A) (A) (A) (A) (A) (A) (A) (A) (A) (A) (A) (A)
                 (A) (A) (A) (A) (A) (A) (A) (A) (A) (A) (A) (A)
                 (A) (A) (A) (A) (A) (A) (A) (A) (A) (A) (A) (A)
                 (A) (A) (A) (A) (A) (A) (A) (A) (A) (A) (A) (A)
                 (A) (A) (A) (A) (A) (A) (A) (A) (A) (A) (A) (A)
                 (A) (A) (A) (A) (A) (A) (A) (A) (A) (A) (A) (A)
                 (A) (A) (A) (A) (A) (A) (A) (A) (A) (A) (A) (A)
                 (A) (A) (A) (A) (A) (A) (A) (A) (A) (A) (A) (A)
                 (A) (A) (A) (A) (A) (A) (A) (A) (A) (A) (A) (A)
                 (A) (A) (A) (A) (A) (A) (A) (A) (A) (A) (A) (A)
                 (A) (A) (A) (A) (A) (A) (A) (A) (A) (A) (A) (A)
                 (A) (A) (A) (A) (A) (A) (A) (A) (A) (A) (A) (A)
                 (A) (A) (A) (A) (A) (A) (A) (A) (A) (A) (A) (A)
                 (A) (A) (A) (A) (A) (A) (A) (A) (A) (A) (A) (A)
                 (A) (A) (A) (A) (A) (A) (A) (A) (A) (A) (A) (A)
                 (A) (A) (A) (A) (A) (A) (A) (A) (A) (A) (A) (A)
                 (A) (A) (A) (A) (A) (A) (A) (A) (A) (A) (A) (A)
                 (A) (A) (A) (A) (A)
 The electronic state is 1-A.
 Alpha  occ. eigenvalues --  -14.34444 -14.34410 -10.22756 -10.22698 -10.22384
 Alpha  occ. eigenvalues --  -10.22334 -10.19507 -10.19492 -10.18919 -10.18865
 Alpha  occ. eigenvalues --  -10.18754 -10.18660 -10.18625 -10.18617 -10.18608
 Alpha  occ. eigenvalues --  -10.18581 -10.18148 -10.18066 -10.17974 -10.17941
 Alpha  occ. eigenvalues --  -10.17671 -10.17574  -0.93402  -0.93330  -0.85623
 Alpha  occ. eigenvalues --   -0.83720  -0.83384  -0.77866  -0.74400  -0.74264
 Alpha  occ. eigenvalues --   -0.73890  -0.73721  -0.72423  -0.68886  -0.65354
 Alpha  occ. eigenvalues --   -0.60816  -0.60602  -0.60563  -0.59429  -0.57953
 Alpha  occ. eigenvalues --   -0.56679  -0.52808  -0.52698  -0.50466  -0.49424
 Alpha  occ. eigenvalues --   -0.48898  -0.47631  -0.46655  -0.45065  -0.44780
 Alpha  occ. eigenvalues --   -0.43793  -0.43059  -0.42530  -0.41856  -0.41600
 Alpha  occ. eigenvalues --   -0.41444  -0.41238  -0.40988  -0.40102  -0.39009
 Alpha  occ. eigenvalues --   -0.37503  -0.36889  -0.35700  -0.35292  -0.34734
 Alpha  occ. eigenvalues --   -0.34481  -0.33742  -0.33345  -0.33184  -0.29586
 Alpha  occ. eigenvalues --   -0.29470  -0.25138  -0.24870  -0.24715  -0.23625
 Alpha  occ. eigenvalues --   -0.19786  -0.19529
 Alpha virt. eigenvalues --   -0.00697  -0.00609   0.00360   0.00544   0.01748
 Alpha virt. eigenvalues --    0.01908   0.08706   0.09235   0.10135   0.10480
 Alpha virt. eigenvalues --    0.11018   0.12287   0.12866   0.14436   0.15349
 Alpha virt. eigenvalues --    0.15544   0.16121   0.16212   0.16638   0.16784
 Alpha virt. eigenvalues --    0.17051   0.17242   0.18337   0.18439   0.19463
 Alpha virt. eigenvalues --    0.19795   0.20760   0.21525   0.21757   0.22527
 Alpha virt. eigenvalues --    0.23211   0.24919   0.26496   0.27122   0.27530
 Alpha virt. eigenvalues --    0.30667   0.30728   0.31607   0.31725   0.32153
 Alpha virt. eigenvalues --    0.33533   0.33695   0.35048   0.35335   0.35861
 Alpha virt. eigenvalues --    0.37487   0.39564   0.45483   0.45814   0.48392
 Alpha virt. eigenvalues --    0.49525   0.50364   0.51425   0.51929   0.52130
 Alpha virt. eigenvalues --    0.52822   0.53269   0.54754   0.55011   0.55196
 Alpha virt. eigenvalues --    0.55300   0.56032   0.56408   0.56833   0.57776
 Alpha virt. eigenvalues --    0.58256   0.58878   0.59552   0.59818   0.59913
 Alpha virt. eigenvalues --    0.60011   0.60180   0.60472   0.61096   0.61376
 Alpha virt. eigenvalues --    0.61615   0.61821   0.61993   0.62600   0.62835
 Alpha virt. eigenvalues --    0.63609   0.63977   0.64835   0.65420   0.66767
 Alpha virt. eigenvalues --    0.67065   0.67616   0.70109   0.70610   0.71293
 Alpha virt. eigenvalues --    0.71813   0.73982   0.74109   0.76231   0.77209
 Alpha virt. eigenvalues --    0.78519   0.80037   0.80862   0.81545   0.82028
 Alpha virt. eigenvalues --    0.82309   0.82640   0.83186   0.83430   0.83573
 Alpha virt. eigenvalues --    0.83793   0.84266   0.84684   0.85856   0.86708
 Alpha virt. eigenvalues --    0.87004   0.88293   0.88681   0.89533   0.89858
 Alpha virt. eigenvalues --    0.90721   0.91656   0.92603   0.92978   0.94893
 Alpha virt. eigenvalues --    0.95176   0.96021   0.96364   0.97749   0.98781
 Alpha virt. eigenvalues --    1.00668   1.01392   1.02840   1.03141   1.05532
 Alpha virt. eigenvalues --    1.06558   1.08390   1.08590   1.09671   1.09928
 Alpha virt. eigenvalues --    1.10953   1.12062   1.13929   1.15281   1.16939
 Alpha virt. eigenvalues --    1.17697   1.18408   1.18644   1.19413   1.20306
 Alpha virt. eigenvalues --    1.22515   1.23980   1.26356   1.26619   1.27564
 Alpha virt. eigenvalues --    1.29357   1.32661   1.35031   1.36116   1.36620
 Alpha virt. eigenvalues --    1.38234   1.39313   1.40656   1.40802   1.41006
 Alpha virt. eigenvalues --    1.41185   1.41908   1.42172   1.42292   1.42625
 Alpha virt. eigenvalues --    1.43238   1.43848   1.45114   1.46647   1.48213
 Alpha virt. eigenvalues --    1.49476   1.52503   1.57127   1.59751   1.61609
 Alpha virt. eigenvalues --    1.64650   1.68584   1.70463   1.74372   1.75177
 Alpha virt. eigenvalues --    1.75798   1.77027   1.77762   1.79440   1.80308
 Alpha virt. eigenvalues --    1.80738   1.81120   1.81741   1.84273   1.85921
 Alpha virt. eigenvalues --    1.86411   1.86994   1.87906   1.89391   1.89663
 Alpha virt. eigenvalues --    1.90635   1.91275   1.93172   1.93265   1.93289
 Alpha virt. eigenvalues --    1.93555   1.94697   1.95795   1.95906   1.97220
 Alpha virt. eigenvalues --    1.97385   1.97670   1.98224   1.99033   2.00772
 Alpha virt. eigenvalues --    2.00988   2.01061   2.01337   2.02864   2.03754
 Alpha virt. eigenvalues --    2.06197   2.06915   2.07306   2.08070   2.09574
 Alpha virt. eigenvalues --    2.11034   2.14310   2.15491   2.16458   2.19312
 Alpha virt. eigenvalues --    2.20615   2.22102   2.23172   2.24919   2.27296
 Alpha virt. eigenvalues --    2.27862   2.28753   2.29588   2.30861   2.31712
 Alpha virt. eigenvalues --    2.32196   2.33439   2.34863   2.35467   2.36311
 Alpha virt. eigenvalues --    2.36421   2.38353   2.39049   2.39226   2.39794
 Alpha virt. eigenvalues --    2.39984   2.41170   2.41400   2.41593   2.41901
 Alpha virt. eigenvalues --    2.43551   2.44435   2.45556   2.45681   2.46418
 Alpha virt. eigenvalues --    2.46720   2.48610   2.49463   2.49664   2.51340
 Alpha virt. eigenvalues --    2.51994   2.52782   2.54097   2.55174   2.55332
 Alpha virt. eigenvalues --    2.56899   2.57104   2.57538   2.58403   2.59622
 Alpha virt. eigenvalues --    2.60085   2.60354   2.60851   2.62624   2.63306
 Alpha virt. eigenvalues --    2.64094   2.64589   2.66219   2.66878   2.68451
 Alpha virt. eigenvalues --    2.69814   2.70779   2.72258   2.73187   2.74140
 Alpha virt. eigenvalues --    2.75357   2.76205   2.77229   2.78715   2.80879
 Alpha virt. eigenvalues --    2.82081   2.82550   2.84086   2.85118   2.85749
 Alpha virt. eigenvalues --    2.89033   2.90840   2.92703   2.99270   3.04702
 Alpha virt. eigenvalues --    3.06423   3.06900   3.07907   3.09098   3.11034
 Alpha virt. eigenvalues --    3.19717   3.20002   3.20959   3.24512   3.24535
 Alpha virt. eigenvalues --    3.25513   3.25904   3.26078   3.26713   3.29142
 Alpha virt. eigenvalues --    3.33086   3.34120   3.35501   3.36009   3.42263
 Alpha virt. eigenvalues --    3.44077   3.44197   3.47590   3.50566   3.51089
 Alpha virt. eigenvalues --    3.51719   3.54952   3.56112   3.82326   3.90367
 Alpha virt. eigenvalues --    3.90428   4.12169   4.13123   4.13605   4.15928
 Alpha virt. eigenvalues --    4.16304   4.16656   4.17240   4.17904   4.19352
 Alpha virt. eigenvalues --    4.22714   4.27999   4.38332   4.43260   4.44057
 Alpha virt. eigenvalues --    4.44600   4.45452   4.46477   4.54456   4.60402
 Alpha virt. eigenvalues --    4.83067   4.84415   4.85444
          Condensed to atoms (all electrons):
               1          2          3          4          5          6
     1  C    4.565430   0.289965  -0.038856  -0.004683   0.000480  -0.000006
     2  N    0.289965   6.925615   0.292498  -0.062372   0.002094  -0.000117
     3  C   -0.038856   0.292498   4.937917   0.325787  -0.052816   0.005907
     4  C   -0.004683  -0.062372   0.325787   4.823943   0.526840  -0.029224
     5  C    0.000480   0.002094  -0.052816   0.526840   4.939599   0.492975
     6  C   -0.000006  -0.000117   0.005907  -0.029224   0.492975   4.935201
     7  C    0.000002   0.000001   0.000424  -0.027866  -0.028244   0.528496
     8  C    0.000000   0.000000   0.000005   0.000402   0.005383  -0.049146
     9  N    0.000000   0.000000   0.000000  -0.000001  -0.000134   0.002590
    10  C   -0.000000  -0.000000  -0.000000   0.000001  -0.000016   0.000356
    11  C   -0.000000  -0.000000   0.000000   0.000014  -0.000009  -0.001121
    12  C   -0.000000   0.000000   0.000000   0.000000   0.000001  -0.000004
    13  C    0.000000   0.000000  -0.000000  -0.000000  -0.000000   0.000000
    14  C    0.000000  -0.000000   0.000000   0.000000   0.000000  -0.000000
    15  C   -0.000000  -0.000000  -0.000000   0.000000   0.000000  -0.000006
    16  C   -0.000089   0.000260   0.006297  -0.028806  -0.052119  -0.030802
    17  C   -0.000556  -0.003203  -0.059439   0.536299  -0.030956  -0.051460
    18  C    0.520180  -0.065904   0.004504  -0.000257   0.000002   0.000000
    19  C   -0.014913   0.004898  -0.000130  -0.000002  -0.000000  -0.000000
    20  C   -0.036051   0.000448   0.000003  -0.000000   0.000000  -0.000000
    21  C   -0.015391   0.005228  -0.000105   0.000148   0.000007   0.000000
    22  C    0.530763  -0.071668  -0.005149   0.000641  -0.001908  -0.000041
    23  H   -0.028823   0.352863  -0.031674   0.003146  -0.000118   0.000003
    24  H   -0.001616  -0.047193   0.377763  -0.059907  -0.002763   0.000056
    25  H    0.005020  -0.030665   0.374475  -0.030519  -0.000390  -0.000245
    26  H   -0.000007   0.000093  -0.008980  -0.047050   0.367808  -0.038534
    27  H    0.000000   0.000001  -0.000156   0.003780  -0.038473   0.369107
    28  H    0.000000   0.000000   0.000000   0.000001  -0.000018  -0.003561
    29  H   -0.000000  -0.000000  -0.000000   0.000030  -0.000239  -0.000120
    30  H    0.000000   0.000000   0.000000  -0.000000   0.000004  -0.000073
    31  H   -0.000000   0.000000  -0.000000  -0.000019   0.000019   0.001900
    32  H   -0.000000  -0.000000   0.000000   0.000000   0.000000  -0.000002
    33  H    0.000000  -0.000000  -0.000000  -0.000000   0.000000   0.000000
    34  H   -0.000000   0.000000   0.000000   0.000000  -0.000000  -0.000000
    35  H   -0.000000  -0.000000  -0.000000  -0.000000   0.000000   0.000000
    36  H    0.000001   0.000002  -0.000172   0.003764   0.000613   0.006028
    37  H    0.001134   0.014414  -0.011986  -0.045046   0.006279   0.000582
    38  H   -0.044856  -0.008971   0.000016  -0.000006   0.000000   0.000000
    39  H    0.003755  -0.000113   0.000002  -0.000000  -0.000000  -0.000000
    40  H    0.000619   0.000004  -0.000000   0.000000   0.000000   0.000000
    41  H    0.003709  -0.000122   0.000007  -0.000005  -0.000002  -0.000000
    42  H   -0.039843  -0.010947   0.003022   0.004144   0.003781   0.000053
               7          8          9         10         11         12
     1  C    0.000002   0.000000   0.000000  -0.000000  -0.000000  -0.000000
     2  N    0.000001   0.000000   0.000000  -0.000000  -0.000000   0.000000
     3  C    0.000424   0.000005   0.000000  -0.000000   0.000000   0.000000
     4  C   -0.027866   0.000402  -0.000001   0.000001   0.000014   0.000000
     5  C   -0.028244   0.005383  -0.000134  -0.000016  -0.000009   0.000001
     6  C    0.528496  -0.049146   0.002590   0.000356  -0.001121  -0.000004
     7  C    4.826046   0.324320  -0.069136   0.004516  -0.000766  -0.000168
     8  C    0.324320   4.928933   0.296462  -0.040373  -0.005011  -0.000086
     9  N   -0.069136   0.296462   6.934270   0.283006  -0.070388   0.005439
    10  C    0.004516  -0.040373   0.283006   4.558443   0.531469  -0.014195
    11  C   -0.000766  -0.005011  -0.070388   0.531469   4.954628   0.531410
    12  C   -0.000168  -0.000086   0.005439  -0.014195   0.531410   4.826762
    13  C    0.000001   0.000002   0.000432  -0.036221  -0.047881   0.546922
    14  C   -0.000012  -0.000142   0.004893  -0.014018  -0.042542  -0.029006
    15  C    0.000177   0.005381  -0.066718   0.517006  -0.059059  -0.043402
    16  C    0.533989  -0.058020  -0.003201   0.000085   0.000464  -0.000055
    17  C   -0.028124   0.005939   0.000354  -0.000176  -0.000064   0.000002
    18  C    0.000000   0.000000   0.000000  -0.000000   0.000000   0.000000
    19  C    0.000000   0.000000  -0.000000   0.000000   0.000000   0.000000
    20  C   -0.000000  -0.000000   0.000000   0.000000  -0.000000  -0.000000
    21  C   -0.000000  -0.000000  -0.000000   0.000000  -0.000000  -0.000000
    22  C    0.000016   0.000000  -0.000000  -0.000000   0.000000   0.000000
    23  H    0.000000  -0.000000  -0.000000   0.000000  -0.000000  -0.000000
    24  H    0.000001   0.000000   0.000000  -0.000000   0.000000   0.000000
    25  H    0.000033  -0.000000  -0.000000   0.000000  -0.000000  -0.000000
    26  H    0.003835  -0.000146   0.000001  -0.000000  -0.000001   0.000000
    27  H   -0.048222  -0.008409   0.000133  -0.000004  -0.000061   0.000000
    28  H   -0.055276   0.379669  -0.037651  -0.008711   0.005235   0.000135
    29  H   -0.035752   0.376045  -0.031612   0.005163   0.000190  -0.000006
    30  H   -0.001657  -0.033370   0.356356  -0.029361   0.005763  -0.000100
    31  H    0.002543   0.004340  -0.011223  -0.039497   0.363627  -0.039227
    32  H   -0.000005   0.000007  -0.000121   0.003719  -0.037274   0.367279
    33  H    0.000000  -0.000000   0.000004   0.000626   0.004877  -0.041426
    34  H   -0.000000   0.000002  -0.000111   0.003768   0.000813   0.004716
    35  H    0.000015   0.000031  -0.008982  -0.044944   0.005635   0.000263
    36  H   -0.047016  -0.011569   0.009576   0.001348  -0.000294  -0.000007
    37  H    0.003792  -0.000158   0.000005  -0.000001  -0.000001   0.000000
    38  H   -0.000000  -0.000000   0.000000  -0.000000  -0.000000  -0.000000
    39  H    0.000000   0.000000   0.000000  -0.000000   0.000000   0.000000
    40  H   -0.000000  -0.000000  -0.000000   0.000000  -0.000000   0.000000
    41  H    0.000000   0.000000  -0.000000  -0.000000   0.000000   0.000000
    42  H   -0.000044  -0.000000   0.000000   0.000000  -0.000000  -0.000000
              13         14         15         16         17         18
     1  C    0.000000   0.000000  -0.000000  -0.000089  -0.000556   0.520180
     2  N    0.000000  -0.000000  -0.000000   0.000260  -0.003203  -0.065904
     3  C   -0.000000   0.000000  -0.000000   0.006297  -0.059439   0.004504
     4  C   -0.000000   0.000000   0.000000  -0.028806   0.536299  -0.000257
     5  C   -0.000000   0.000000   0.000000  -0.052119  -0.030956   0.000002
     6  C    0.000000  -0.000000  -0.000006  -0.030802  -0.051460   0.000000
     7  C    0.000001  -0.000012   0.000177   0.533989  -0.028124   0.000000
     8  C    0.000002  -0.000142   0.005381  -0.058020   0.005939   0.000000
     9  N    0.000432   0.004893  -0.066718  -0.003201   0.000354   0.000000
    10  C   -0.036221  -0.014018   0.517006   0.000085  -0.000176  -0.000000
    11  C   -0.047881  -0.042542  -0.059059   0.000464  -0.000064   0.000000
    12  C    0.546922  -0.029006  -0.043402  -0.000055   0.000002   0.000000
    13  C    4.865162   0.540029  -0.048505   0.000004   0.000000  -0.000000
    14  C    0.540029   4.814320   0.540678  -0.000006   0.000000   0.000000
    15  C   -0.048505   0.540678   4.978056  -0.000108  -0.000010   0.000000
    16  C    0.000004  -0.000006  -0.000108   4.940394   0.489811  -0.000001
    17  C    0.000000   0.000000  -0.000010   0.489811   4.925523  -0.000072
    18  C   -0.000000   0.000000   0.000000  -0.000001  -0.000072   4.970643
    19  C   -0.000000  -0.000000   0.000000   0.000000   0.000000   0.541505
    20  C    0.000000  -0.000000  -0.000000   0.000000   0.000001  -0.048546
    21  C    0.000000  -0.000000   0.000000   0.000001   0.000008  -0.043167
    22  C   -0.000000   0.000000   0.000000  -0.000003   0.000519  -0.059825
    23  H    0.000000   0.000000  -0.000000   0.000004   0.000385  -0.009718
    24  H   -0.000000  -0.000000  -0.000000  -0.000120   0.005455   0.000566
    25  H    0.000000  -0.000000   0.000000  -0.000108  -0.003242  -0.000206
    26  H    0.000000  -0.000000  -0.000000   0.000582   0.005922   0.000000
    27  H    0.000000  -0.000000  -0.000000   0.005645   0.000653   0.000000
    28  H   -0.000010   0.000008  -0.000065   0.004744  -0.000120   0.000000
    29  H    0.000000   0.000002  -0.000217  -0.003235  -0.000094  -0.000000
    30  H   -0.000006   0.000034  -0.009166   0.001124   0.000009   0.000000
    31  H    0.004847   0.000264   0.005506   0.000012  -0.000045  -0.000000
    32  H   -0.041372   0.004641   0.000937  -0.000001   0.000000   0.000000
    33  H    0.372215  -0.041737   0.004798   0.000000  -0.000000  -0.000000
    34  H   -0.041294   0.367959  -0.037597  -0.000000   0.000000   0.000000
    35  H    0.004895  -0.037938   0.365335  -0.000004  -0.000000  -0.000000
    36  H    0.000004  -0.000003  -0.000062   0.364970  -0.038058  -0.000000
    37  H    0.000000  -0.000000  -0.000001  -0.041098   0.365578  -0.000079
    38  H    0.000000   0.000000  -0.000000  -0.000000  -0.000001   0.365329
    39  H    0.000000   0.000000   0.000000   0.000000  -0.000000  -0.037652
    40  H    0.000000   0.000000  -0.000000  -0.000000   0.000000   0.004800
    41  H   -0.000000   0.000000   0.000000   0.000000  -0.000000   0.000934
    42  H    0.000000  -0.000000  -0.000000  -0.000135   0.000049   0.005405
              19         20         21         22         23         24
     1  C   -0.014913  -0.036051  -0.015391   0.530763  -0.028823  -0.001616
     2  N    0.004898   0.000448   0.005228  -0.071668   0.352863  -0.047193
     3  C   -0.000130   0.000003  -0.000105  -0.005149  -0.031674   0.377763
     4  C   -0.000002  -0.000000   0.000148   0.000641   0.003146  -0.059907
     5  C   -0.000000   0.000000   0.000007  -0.001908  -0.000118  -0.002763
     6  C   -0.000000  -0.000000   0.000000  -0.000041   0.000003   0.000056
     7  C    0.000000  -0.000000  -0.000000   0.000016   0.000000   0.000001
     8  C    0.000000  -0.000000  -0.000000   0.000000  -0.000000   0.000000
     9  N   -0.000000   0.000000  -0.000000  -0.000000  -0.000000   0.000000
    10  C    0.000000   0.000000   0.000000  -0.000000   0.000000  -0.000000
    11  C    0.000000  -0.000000  -0.000000   0.000000  -0.000000   0.000000
    12  C    0.000000  -0.000000  -0.000000   0.000000  -0.000000   0.000000
    13  C   -0.000000   0.000000   0.000000  -0.000000   0.000000  -0.000000
    14  C   -0.000000  -0.000000  -0.000000   0.000000   0.000000  -0.000000
    15  C    0.000000  -0.000000   0.000000   0.000000  -0.000000  -0.000000
    16  C    0.000000   0.000000   0.000001  -0.000003   0.000004  -0.000120
    17  C    0.000000   0.000001   0.000008   0.000519   0.000385   0.005455
    18  C    0.541505  -0.048546  -0.043167  -0.059825  -0.009718   0.000566
    19  C    4.814948   0.540092  -0.029429  -0.042175   0.000025  -0.000002
    20  C    0.540092   4.862790   0.547214  -0.048052  -0.000003  -0.000024
    21  C   -0.029429   0.547214   4.828585   0.531547  -0.000105  -0.000163
    22  C   -0.042175  -0.048052   0.531547   4.952887   0.006050   0.005262
    23  H    0.000025  -0.000003  -0.000105   0.006050   0.433716   0.001978
    24  H   -0.000002  -0.000024  -0.000163   0.005262   0.001978   0.631290
    25  H    0.000001   0.000000  -0.000005   0.000230  -0.007625  -0.030870
    26  H   -0.000000  -0.000000  -0.000001  -0.000031  -0.000004   0.006692
    27  H   -0.000000   0.000000  -0.000000  -0.000001  -0.000000  -0.000001
    28  H   -0.000000  -0.000000  -0.000000   0.000000  -0.000000   0.000000
    29  H    0.000000   0.000000   0.000000  -0.000000   0.000000  -0.000000
    30  H    0.000000   0.000000  -0.000000   0.000000  -0.000000   0.000000
    31  H    0.000000   0.000000   0.000000   0.000000   0.000000  -0.000000
    32  H    0.000000  -0.000000  -0.000000  -0.000000  -0.000000   0.000000
    33  H    0.000000   0.000000   0.000000   0.000000   0.000000  -0.000000
    34  H    0.000000   0.000000  -0.000000  -0.000000  -0.000000   0.000000
    35  H    0.000000   0.000000   0.000000  -0.000000   0.000000  -0.000000
    36  H   -0.000000   0.000000  -0.000000  -0.000001  -0.000000   0.000003
    37  H   -0.000003   0.000002  -0.000008  -0.000419  -0.000503   0.000410
    38  H   -0.037883   0.004863   0.000271   0.005613   0.006102   0.000015
    39  H    0.368100  -0.041161   0.004716   0.000809  -0.000011   0.000000
    40  H   -0.041665   0.372347  -0.041391   0.004852  -0.000000   0.000000
    41  H    0.004632  -0.041368   0.367370  -0.037103   0.000003   0.000006
    42  H    0.000262   0.004864  -0.038665   0.361190  -0.000106  -0.000562
              25         26         27         28         29         30
     1  C    0.005020  -0.000007   0.000000   0.000000  -0.000000   0.000000
     2  N   -0.030665   0.000093   0.000001   0.000000  -0.000000   0.000000
     3  C    0.374475  -0.008980  -0.000156   0.000000  -0.000000   0.000000
     4  C   -0.030519  -0.047050   0.003780   0.000001   0.000030  -0.000000
     5  C   -0.000390   0.367808  -0.038473  -0.000018  -0.000239   0.000004
     6  C   -0.000245  -0.038534   0.369107  -0.003561  -0.000120  -0.000073
     7  C    0.000033   0.003835  -0.048222  -0.055276  -0.035752  -0.001657
     8  C   -0.000000  -0.000146  -0.008409   0.379669   0.376045  -0.033370
     9  N   -0.000000   0.000001   0.000133  -0.037651  -0.031612   0.356356
    10  C    0.000000  -0.000000  -0.000004  -0.008711   0.005163  -0.029361
    11  C   -0.000000  -0.000001  -0.000061   0.005235   0.000190   0.005763
    12  C   -0.000000   0.000000   0.000000   0.000135  -0.000006  -0.000100
    13  C    0.000000   0.000000   0.000000  -0.000010   0.000000  -0.000006
    14  C   -0.000000  -0.000000  -0.000000   0.000008   0.000002   0.000034
    15  C    0.000000  -0.000000  -0.000000  -0.000065  -0.000217  -0.009166
    16  C   -0.000108   0.000582   0.005645   0.004744  -0.003235   0.001124
    17  C   -0.003242   0.005922   0.000653  -0.000120  -0.000094   0.000009
    18  C   -0.000206   0.000000   0.000000   0.000000  -0.000000   0.000000
    19  C    0.000001  -0.000000  -0.000000  -0.000000   0.000000   0.000000
    20  C    0.000000  -0.000000   0.000000  -0.000000   0.000000   0.000000
    21  C   -0.000005  -0.000001  -0.000000  -0.000000   0.000000  -0.000000
    22  C    0.000230  -0.000031  -0.000001   0.000000  -0.000000   0.000000
    23  H   -0.007625  -0.000004  -0.000000  -0.000000   0.000000  -0.000000
    24  H   -0.030870   0.006692  -0.000001   0.000000  -0.000000   0.000000
    25  H    0.584236   0.000543   0.000003  -0.000000   0.000000  -0.000000
    26  H    0.000543   0.619026  -0.005506   0.000000   0.000003  -0.000000
    27  H    0.000003  -0.005506   0.619154   0.006071   0.000640  -0.000000
    28  H   -0.000000   0.000000   0.006071   0.611411  -0.030355   0.004783
    29  H    0.000000   0.000003   0.000640  -0.030355   0.586776  -0.006214
    30  H   -0.000000  -0.000000  -0.000000   0.004783  -0.006214   0.429753
    31  H    0.000000   0.000000   0.000114  -0.000592   0.000149  -0.000125
    32  H   -0.000000  -0.000000  -0.000000   0.000003  -0.000000   0.000003
    33  H    0.000000  -0.000000   0.000000   0.000000  -0.000000  -0.000000
    34  H   -0.000000   0.000000  -0.000000   0.000000  -0.000000  -0.000011
    35  H    0.000000  -0.000000  -0.000000  -0.000005  -0.000008   0.006015
    36  H    0.000002   0.000019  -0.000169   0.000282   0.000600   0.000895
    37  H    0.000724  -0.000166   0.000019   0.000003   0.000002   0.000000
    38  H   -0.000009  -0.000000   0.000000  -0.000000   0.000000   0.000000
    39  H   -0.000000   0.000000   0.000000   0.000000  -0.000000   0.000000
    40  H   -0.000000   0.000000   0.000000  -0.000000   0.000000  -0.000000
    41  H   -0.000000  -0.000000  -0.000000   0.000000  -0.000000   0.000000
    42  H    0.000279   0.000166   0.000002  -0.000000   0.000000  -0.000000
              31         32         33         34         35         36
     1  C   -0.000000  -0.000000   0.000000  -0.000000  -0.000000   0.000001
     2  N    0.000000  -0.000000  -0.000000   0.000000  -0.000000   0.000002
     3  C   -0.000000   0.000000  -0.000000   0.000000  -0.000000  -0.000172
     4  C   -0.000019   0.000000  -0.000000   0.000000  -0.000000   0.003764
     5  C    0.000019   0.000000   0.000000  -0.000000   0.000000   0.000613
     6  C    0.001900  -0.000002   0.000000  -0.000000   0.000000   0.006028
     7  C    0.002543  -0.000005   0.000000  -0.000000   0.000015  -0.047016
     8  C    0.004340   0.000007  -0.000000   0.000002   0.000031  -0.011569
     9  N   -0.011223  -0.000121   0.000004  -0.000111  -0.008982   0.009576
    10  C   -0.039497   0.003719   0.000626   0.003768  -0.044944   0.001348
    11  C    0.363627  -0.037274   0.004877   0.000813   0.005635  -0.000294
    12  C   -0.039227   0.367279  -0.041426   0.004716   0.000263  -0.000007
    13  C    0.004847  -0.041372   0.372215  -0.041294   0.004895   0.000004
    14  C    0.000264   0.004641  -0.041737   0.367959  -0.037938  -0.000003
    15  C    0.005506   0.000937   0.004798  -0.037597   0.365335  -0.000062
    16  C    0.000012  -0.000001   0.000000  -0.000000  -0.000004   0.364970
    17  C   -0.000045   0.000000  -0.000000   0.000000  -0.000000  -0.038058
    18  C   -0.000000   0.000000  -0.000000   0.000000  -0.000000  -0.000000
    19  C    0.000000   0.000000   0.000000   0.000000   0.000000  -0.000000
    20  C    0.000000  -0.000000   0.000000   0.000000   0.000000   0.000000
    21  C    0.000000  -0.000000   0.000000  -0.000000   0.000000  -0.000000
    22  C    0.000000  -0.000000   0.000000  -0.000000  -0.000000  -0.000001
    23  H    0.000000  -0.000000   0.000000  -0.000000   0.000000  -0.000000
    24  H   -0.000000   0.000000  -0.000000   0.000000  -0.000000   0.000003
    25  H    0.000000  -0.000000   0.000000  -0.000000   0.000000   0.000002
    26  H    0.000000  -0.000000  -0.000000   0.000000  -0.000000   0.000019
    27  H    0.000114  -0.000000   0.000000  -0.000000  -0.000000  -0.000169
    28  H   -0.000592   0.000003   0.000000   0.000000  -0.000005   0.000282
    29  H    0.000149  -0.000000  -0.000000  -0.000000  -0.000008   0.000600
    30  H   -0.000125   0.000003  -0.000000  -0.000011   0.006015   0.000895
    31  H    0.621438  -0.006533  -0.000169   0.000014  -0.000167  -0.000007
[...]
   190    C   13  pz     Ryd( 3p)     0.00440
   191    C   13  dxy    Ryd( 3d)     0.00051
   192    C   13  dxz    Ryd( 3d)     0.00068
   193    C   13  dyz    Ryd( 3d)     0.00069
   194    C   13  dx2y2  Ryd( 3d)     0.00040
   195    C   13  dz2    Ryd( 3d)     0.00058

   196    C   14  S      Cor( 1S)     1.99914
   197    C   14  S      Val( 2S)     0.96906
   198    C   14  S      Ryd( 3S)     0.00065
   199    C   14  S      Ryd( 4S)     0.00003
   200    C   14  px     Val( 2p)     1.07814
   201    C   14  px     Ryd( 3p)     0.00361
   202    C   14  py     Val( 2p)     1.08080
   203    C   14  py     Ryd( 3p)     0.00380
   204    C   14  pz     Val( 2p)     1.12621
   205    C   14  pz     Ryd( 3p)     0.00519
   206    C   14  dxy    Ryd( 3d)     0.00044
   207    C   14  dxz    Ryd( 3d)     0.00055
   208    C   14  dyz    Ryd( 3d)     0.00056
   209    C   14  dx2y2  Ryd( 3d)     0.00045
   210    C   14  dz2    Ryd( 3d)     0.00057

   211    C   15  S      Cor( 1S)     1.99907
   212    C   15  S      Val( 2S)     0.96534
   213    C   15  S      Ryd( 3S)     0.00068
   214    C   15  S      Ryd( 4S)     0.00004
   215    C   15  px     Val( 2p)     1.02871
   216    C   15  px     Ryd( 3p)     0.00333
   217    C   15  py     Val( 2p)     1.03637
   218    C   15  py     Ryd( 3p)     0.00377
   219    C   15  pz     Val( 2p)     1.19283
   220    C   15  pz     Ryd( 3p)     0.00459
   221    C   15  dxy    Ryd( 3d)     0.00038
   222    C   15  dxz    Ryd( 3d)     0.00051
   223    C   15  dyz    Ryd( 3d)     0.00055
   224    C   15  dx2y2  Ryd( 3d)     0.00055
   225    C   15  dz2    Ryd( 3d)     0.00059

   226    C   16  S      Cor( 1S)     1.99904
   227    C   16  S      Val( 2S)     0.94002
   228    C   16  S      Ryd( 3S)     0.00060
   229    C   16  S      Ryd( 4S)     0.00004
   230    C   16  px     Val( 2p)     1.08586
   231    C   16  px     Ryd( 3p)     0.00290
   232    C   16  py     Val( 2p)     1.07282
   233    C   16  py     Ryd( 3p)     0.00307
   234    C   16  pz     Val( 2p)     1.15237
   235    C   16  pz     Ryd( 3p)     0.00393
   236    C   16  dxy    Ryd( 3d)     0.00040
   237    C   16  dxz    Ryd( 3d)     0.00065
   238    C   16  dyz    Ryd( 3d)     0.00050
   239    C   16  dx2y2  Ryd( 3d)     0.00088
   240    C   16  dz2    Ryd( 3d)     0.00047

   241    C   17  S      Cor( 1S)     1.99904
   242    C   17  S      Val( 2S)     0.94059
   243    C   17  S      Ryd( 3S)     0.00063
   244    C   17  S      Ryd( 4S)     0.00004
   245    C   17  px     Val( 2p)     1.07845
   246    C   17  px     Ryd( 3p)     0.00337
   247    C   17  py     Val( 2p)     1.13919
   248    C   17  py     Ryd( 3p)     0.00389
   249    C   17  pz     Val( 2p)     1.10492
   250    C   17  pz     Ryd( 3p)     0.00403
   251    C   17  dxy    Ryd( 3d)     0.00053
   252    C   17  dxz    Ryd( 3d)     0.00046
   253    C   17  dyz    Ryd( 3d)     0.00065
   254    C   17  dx2y2  Ryd( 3d)     0.00049
   255    C   17  dz2    Ryd( 3d)     0.00064

   256    C   18  S      Cor( 1S)     1.99905
   257    C   18  S      Val( 2S)     0.95363
   258    C   18  S      Ryd( 3S)     0.00065
   259    C   18  S      Ryd( 4S)     0.00004
   260    C   18  px     Val( 2p)     1.06327
   261    C   18  px     Ryd( 3p)     0.00299
   262    C   18  py     Val( 2p)     1.19674
   263    C   18  py     Ryd( 3p)     0.00460
   264    C   18  pz     Val( 2p)     1.07020
   265    C   18  pz     Ryd( 3p)     0.00199
   266    C   18  dxy    Ryd( 3d)     0.00051
   267    C   18  dxz    Ryd( 3d)     0.00041
   268    C   18  dyz    Ryd( 3d)     0.00039
   269    C   18  dx2y2  Ryd( 3d)     0.00065
   270    C   18  dz2    Ryd( 3d)     0.00047

   271    C   19  S      Cor( 1S)     1.99912
   272    C   19  S      Val( 2S)     0.96101
   273    C   19  S      Ryd( 3S)     0.00058
   274    C   19  S      Ryd( 4S)     0.00003
   275    C   19  px     Val( 2p)     1.11326
   276    C   19  px     Ryd( 3p)     0.00372
   277    C   19  py     Val( 2p)     1.10269
   278    C   19  py     Ryd( 3p)     0.00484
   279    C   19  pz     Val( 2p)     1.04695
   280    C   19  pz     Ryd( 3p)     0.00195
   281    C   19  dxy    Ryd( 3d)     0.00068
   282    C   19  dxz    Ryd( 3d)     0.00046
   283    C   19  dyz    Ryd( 3d)     0.00061
   284    C   19  dx2y2  Ryd( 3d)     0.00054
   285    C   19  dz2    Ryd( 3d)     0.00039

   286    C   20  S      Cor( 1S)     1.99910
   287    C   20  S      Val( 2S)     0.96032
   288    C   20  S      Ryd( 3S)     0.00052
   289    C   20  S      Ryd( 4S)     0.00003
   290    C   20  px     Val( 2p)     1.13671
   291    C   20  px     Ryd( 3p)     0.00376
   292    C   20  py     Val( 2p)     1.09316
   293    C   20  py     Ryd( 3p)     0.00468
   294    C   20  pz     Val( 2p)     1.09160
   295    C   20  pz     Ryd( 3p)     0.00235
   296    C   20  dxy    Ryd( 3d)     0.00062
   297    C   20  dxz    Ryd( 3d)     0.00044
   298    C   20  dyz    Ryd( 3d)     0.00050
   299    C   20  dx2y2  Ryd( 3d)     0.00055
   300    C   20  dz2    Ryd( 3d)     0.00036

   301    C   21  S      Cor( 1S)     1.99912
   302    C   21  S      Val( 2S)     0.96057
   303    C   21  S      Ryd( 3S)     0.00061
   304    C   21  S      Ryd( 4S)     0.00003
   305    C   21  px     Val( 2p)     1.04316
   306    C   21  px     Ryd( 3p)     0.00346
   307    C   21  py     Val( 2p)     1.20060
   308    C   21  py     Ryd( 3p)     0.00530
   309    C   21  pz     Val( 2p)     1.01670
   310    C   21  pz     Ryd( 3p)     0.00184
   311    C   21  dxy    Ryd( 3d)     0.00050
   312    C   21  dxz    Ryd( 3d)     0.00043
   313    C   21  dyz    Ryd( 3d)     0.00038
   314    C   21  dx2y2  Ryd( 3d)     0.00076
   315    C   21  dz2    Ryd( 3d)     0.00061

   316    C   22  S      Cor( 1S)     1.99905
   317    C   22  S      Val( 2S)     0.95369
   318    C   22  S      Ryd( 3S)     0.00064
   319    C   22  S      Ryd( 4S)     0.00004
   320    C   22  px     Val( 2p)     1.14449
   321    C   22  px     Ryd( 3p)     0.00294
   322    C   22  py     Val( 2p)     1.09172
   323    C   22  py     Ryd( 3p)     0.00428
   324    C   22  pz     Val( 2p)     1.10848
   325    C   22  pz     Ryd( 3p)     0.00209
   326    C   22  dxy    Ryd( 3d)     0.00054
   327    C   22  dxz    Ryd( 3d)     0.00044
   328    C   22  dyz    Ryd( 3d)     0.00045
   329    C   22  dx2y2  Ryd( 3d)     0.00060
   330    C   22  dz2    Ryd( 3d)     0.00038

   331    H   23  S      Val( 1S)     0.57754
   332    H   23  S      Ryd( 2S)     0.00252
   333    H   23  px     Ryd( 2p)     0.00032
   334    H   23  py     Ryd( 2p)     0.00056
   335    H   23  pz     Ryd( 2p)     0.00036

   336    H   24  S      Val( 1S)     0.78070
   337    H   24  S      Ryd( 2S)     0.00259
   338    H   24  px     Ryd( 2p)     0.00016
   339    H   24  py     Ryd( 2p)     0.00019
   340    H   24  pz     Ryd( 2p)     0.00019

   341    H   25  S      Val( 1S)     0.76614
   342    H   25  S      Ryd( 2S)     0.00315
   343    H   25  px     Ryd( 2p)     0.00018
   344    H   25  py     Ryd( 2p)     0.00022
   345    H   25  pz     Ryd( 2p)     0.00019

   346    H   26  S      Val( 1S)     0.77460
   347    H   26  S      Ryd( 2S)     0.00111
   348    H   26  px     Ryd( 2p)     0.00015
   349    H   26  py     Ryd( 2p)     0.00012
   350    H   26  pz     Ryd( 2p)     0.00035

   351    H   27  S      Val( 1S)     0.77610
   352    H   27  S      Ryd( 2S)     0.00095
   353    H   27  px     Ryd( 2p)     0.00015
   354    H   27  py     Ryd( 2p)     0.00031
   355    H   27  pz     Ryd( 2p)     0.00019

   356    H   28  S      Val( 1S)     0.74360
   357    H   28  S      Ryd( 2S)     0.00277
   358    H   28  px     Ryd( 2p)     0.00012
   359    H   28  py     Ryd( 2p)     0.00016
   360    H   28  pz     Ryd( 2p)     0.00026

   361    H   29  S      Val( 1S)     0.74721
   362    H   29  S      Ryd( 2S)     0.00408
   363    H   29  px     Ryd( 2p)     0.00019
   364    H   29  py     Ryd( 2p)     0.00027
   365    H   29  pz     Ryd( 2p)     0.00013

   366    H   30  S      Val( 1S)     0.54221
   367    H   30  S      Ryd( 2S)     0.00134
   368    H   30  px     Ryd( 2p)     0.00025
   369    H   30  py     Ryd( 2p)     0.00028
   370    H   30  pz     Ryd( 2p)     0.00062

   371    H   31  S      Val( 1S)     0.73408
   372    H   31  S      Ryd( 2S)     0.00095
   373    H   31  px     Ryd( 2p)     0.00023
   374    H   31  py     Ryd( 2p)     0.00017
   375    H   31  pz     Ryd( 2p)     0.00022

   376    H   32  S      Val( 1S)     0.73898
   377    H   32  S      Ryd( 2S)     0.00065
   378    H   32  px     Ryd( 2p)     0.00009
   379    H   32  py     Ryd( 2p)     0.00010
   380    H   32  pz     Ryd( 2p)     0.00040

   381    H   33  S      Val( 1S)     0.73822
   382    H   33  S      Ryd( 2S)     0.00045
   383    H   33  px     Ryd( 2p)     0.00023
   384    H   33  py     Ryd( 2p)     0.00026
   385    H   33  pz     Ryd( 2p)     0.00009

   386    H   34  S      Val( 1S)     0.73859
   387    H   34  S      Ryd( 2S)     0.00065
   388    H   34  px     Ryd( 2p)     0.00019
   389    H   34  py     Ryd( 2p)     0.00019
   390    H   34  pz     Ryd( 2p)     0.00022

   391    H   35  S      Val( 1S)     0.73996
   392    H   35  S      Ryd( 2S)     0.00077
   393    H   35  px     Ryd( 2p)     0.00009
   394    H   35  py     Ryd( 2p)     0.00010
   395    H   35  pz     Ryd( 2p)     0.00041

   396    H   36  S      Val( 1S)     0.77864
   397    H   36  S      Ryd( 2S)     0.00097
   398    H   36  px     Ryd( 2p)     0.00016
   399    H   36  py     Ryd( 2p)     0.00013
   400    H   36  pz     Ryd( 2p)     0.00035

   401    H   37  S      Val( 1S)     0.77027
   402    H   37  S      Ryd( 2S)     0.00128
   403    H   37  px     Ryd( 2p)     0.00018
   404    H   37  py     Ryd( 2p)     0.00029
   405    H   37  pz     Ryd( 2p)     0.00018

   406    H   38  S      Val( 1S)     0.75933
   407    H   38  S      Ryd( 2S)     0.00099
   408    H   38  px     Ryd( 2p)     0.00008
   409    H   38  py     Ryd( 2p)     0.00041
   410    H   38  pz     Ryd( 2p)     0.00011

   411    H   39  S      Val( 1S)     0.75604
   412    H   39  S      Ryd( 2S)     0.00081
   413    H   39  px     Ryd( 2p)     0.00026
   414    H   39  py     Ryd( 2p)     0.00016
   415    H   39  pz     Ryd( 2p)     0.00019

   416    H   40  S      Val( 1S)     0.75825
   417    H   40  S      Ryd( 2S)     0.00076
   418    H   40  px     Ryd( 2p)     0.00027
   419    H   40  py     Ryd( 2p)     0.00014
   420    H   40  pz     Ryd( 2p)     0.00019

   421    H   41  S      Val( 1S)     0.75709
   422    H   41  S      Ryd( 2S)     0.00081
   423    H   41  px     Ryd( 2p)     0.00008
   424    H   41  py     Ryd( 2p)     0.00042
   425    H   41  pz     Ryd( 2p)     0.00010

   426    H   42  S      Val( 1S)     0.74885
   427    H   42  S      Ryd( 2S)     0.00124
   428    H   42  px     Ryd( 2p)     0.00028
   429    H   42  py     Ryd( 2p)     0.00015
   430    H   42  pz     Ryd( 2p)     0.00019

 WARNING:  1 low occupancy (<1.9990e) core orbital  found on  C    7
           1 low occupancy (<1.9990e) core orbital  found on  C   10


 Summary of Natural Population Analysis:                  
                                                          
                                       Natural Population 
                Natural  -----------------------------------------------
    Atom  No    Charge         Core      Valence    Rydberg      Total
 -----------------------------------------------------------------------
      C    1    0.17479      1.99901     3.80811    0.01809     5.82521
      N    2   -0.63819      1.99941     5.62648    0.01231     7.63819
      C    3   -0.26775      1.99928     4.25245    0.01602     6.26775
      C    4   -0.18179      1.99901     4.16481    0.01798     6.18179
      C    5   -0.25473      1.99904     4.24219    0.01349     6.25473
      C    6   -0.29386      1.99904     4.27980    0.01502     6.29386
      C    7   -0.19902      1.99898     4.18224    0.01780     6.19902
      C    8   -0.28913      1.99925     4.27346    0.01642     6.28913
      N    9   -0.39787      1.99941     5.38870    0.00975     7.39787
      C   10    0.18644      1.99900     3.79631    0.01825     5.81356
      C   11   -0.24451      1.99907     4.23082    0.01463     6.24451
      C   12   -0.26503      1.99914     4.24983    0.01606     6.26503
      C   13   -0.14285      1.99910     4.13045    0.01329     6.14285
      C   14   -0.26919      1.99914     4.25421    0.01584     6.26919
      C   15   -0.23730      1.99907     4.22324    0.01499     6.23730
      C   16   -0.26355      1.99904     4.25107    0.01344     6.26355
      C   17   -0.27694      1.99904     4.26316    0.01474     6.27694
      C   18   -0.29560      1.99905     4.28383    0.01271     6.29560
      C   19   -0.23683      1.99912     4.22391    0.01381     6.23683
      C   20   -0.29469      1.99910     4.28178    0.01381     6.29469
      C   21   -0.23408      1.99912     4.22103    0.01392     6.23408
      C   22   -0.30984      1.99905     4.29839    0.01241     6.30984
      H   23    0.41871      0.00000     0.57754    0.00376     0.58129
      H   24    0.21618      0.00000     0.78070    0.00312     0.78382
      H   25    0.23011      0.00000     0.76614    0.00375     0.76989
      H   26    0.22366      0.00000     0.77460    0.00174     0.77634
      H   27    0.22230      0.00000     0.77610    0.00160     0.77770
      H   28    0.25309      0.00000     0.74360    0.00331     0.74691
      H   29    0.24812      0.00000     0.74721    0.00467     0.75188
      H   30    0.45530      0.00000     0.54221    0.00249     0.54470
      H   31    0.26435      0.00000     0.73408    0.00158     0.73565
      H   32    0.25977      0.00000     0.73898    0.00125     0.74023
      H   33    0.26075      0.00000     0.73822    0.00103     0.73925
      H   34    0.26016      0.00000     0.73859    0.00125     0.73984
      H   35    0.25868      0.00000     0.73996    0.00137     0.74132
      H   36    0.21975      0.00000     0.77864    0.00161     0.78025
      H   37    0.22781      0.00000     0.77027    0.00192     0.77219
      H   38    0.23909      0.00000     0.75933    0.00158     0.76091
      H   39    0.24254      0.00000     0.75604    0.00142     0.75746
      H   40    0.24038      0.00000     0.75825    0.00137     0.75962
      H   41    0.24149      0.00000     0.75709    0.00142     0.75851
      H   42    0.24930      0.00000     0.74885    0.00185     0.75070
 =======================================================================
   * Total *   -0.00000     43.98049   109.65266    0.36685   154.00000

                                 Natural Population      
 --------------------------------------------------------
   Core                      43.98049 ( 99.9557% of  44)
   Valence                  109.65266 ( 99.6842% of 110)
   Natural Minimal Basis    153.63315 ( 99.7618% of 154)
   Natural Rydberg Basis      0.36685 (  0.2382% of 154)
 --------------------------------------------------------

    Atom  No          Natural Electron Configuration
 ----------------------------------------------------------------------------
      C    1      [core]2S( 0.84)2p( 2.97)3p( 0.01)
      N    2      [core]2S( 1.26)2p( 4.37)3p( 0.01)
      C    3      [core]2S( 1.00)2p( 3.25)3p( 0.01)
      C    4      [core]2S( 0.87)2p( 3.29)3p( 0.01)
      C    5      [core]2S( 0.94)2p( 3.30)3p( 0.01)
      C    6      [core]2S( 0.94)2p( 3.34)3p( 0.01)
      C    7      [core]2S( 0.87)2p( 3.32)3p( 0.01)
      C    8      [core]2S( 1.01)2p( 3.26)3p( 0.01)
      N    9      [core]2S( 1.27)2p( 4.12)3p( 0.01)
      C   10      [core]2S( 0.85)2p( 2.95)3p( 0.01)
      C   11      [core]2S( 0.96)2p( 3.27)3p( 0.01)
      C   12      [core]2S( 0.97)2p( 3.28)3p( 0.01)
      C   13      [core]2S( 0.98)2p( 3.15)3p( 0.01)
      C   14      [core]2S( 0.97)2p( 3.29)3p( 0.01)
      C   15      [core]2S( 0.97)2p( 3.26)3p( 0.01)
      C   16      [core]2S( 0.94)2p( 3.31)3p( 0.01)
      C   17      [core]2S( 0.94)2p( 3.32)3p( 0.01)
      C   18      [core]2S( 0.95)2p( 3.33)3p( 0.01)
      C   19      [core]2S( 0.96)2p( 3.26)3p( 0.01)
      C   20      [core]2S( 0.96)2p( 3.32)3p( 0.01)
      C   21      [core]2S( 0.96)2p( 3.26)3p( 0.01)
      C   22      [core]2S( 0.95)2p( 3.34)3p( 0.01)
      H   23            1S( 0.58)
      H   24            1S( 0.78)
      H   25            1S( 0.77)
      H   26            1S( 0.77)
      H   27            1S( 0.78)
      H   28            1S( 0.74)
      H   29            1S( 0.75)
      H   30            1S( 0.54)
      H   31            1S( 0.73)
      H   32            1S( 0.74)
      H   33            1S( 0.74)
      H   34            1S( 0.74)
      H   35            1S( 0.74)
      H   36            1S( 0.78)
      H   37            1S( 0.77)
      H   38            1S( 0.76)
      H   39            1S( 0.76)
      H   40            1S( 0.76)
      H   41            1S( 0.76)
      H   42            1S( 0.75)


 NBO analysis skipped by request.
 1\1\GINC-DRG2-W004\SP\RB3LYP TD-FC\6-31G(d,p)\C20H20N2\QDUEZ\22-Jul-20
 24\0\\# TD(NStates=10, Root=1) B3LYP/6-31G** SCRF=(Solvent=water) volu
 me pop=NPA density=current Geom=AllCheck Guess=Read\\DXWQPWMYKQYRDS-UH
 FFFAOYSA-N_conf_1\\0,1\C,0,4.1432252743,-0.7898852449,0.0844986245\N,0
 ,3.1241139761,-1.5083895192,0.6997055736\C,0,2.2509941739,-0.920262364
 1,1.7043750465\C,0,1.0698654365,-0.1398535303,1.1410783063\C,0,0.53503
 86757,0.9385663963,1.8557725792\C,0,-0.5846669517,1.6243860773,1.38325
 54958\C,0,-1.194231638,1.2599194285,0.1768794416\C,0,-2.3750171067,2.0
 685420937,-0.3558962814\N,0,-3.3371053196,1.3563150464,-1.1749346119\C
 ,0,-4.1719950445,0.3572086873,-0.6964522368\C,0,-4.3388962904,0.106827
 8214,0.6805957183\C,0,-5.2348546514,-0.8712176661,1.1155736443\C,0,-5.
 9770685319,-1.6276634078,0.2074400113\C,0,-5.8074147338,-1.389032458,-
 1.1609518656\C,0,-4.9217799898,-0.4151172355,-1.6102976838\C,0,-0.6564
 561568,0.1835194617,-0.5381696462\C,0,0.4574363207,-0.5081027518,-0.06
 21409286\C,0,5.1625789196,-1.4830064227,-0.6030254993\C,0,6.1815964582
 ,-0.7915925346,-1.2498311306\C,0,6.2200236093,0.607267822,-1.234655309
 6\C,0,5.2139525107,1.2980979148,-0.5581617304\C,0,4.1843500219,0.61842
 84985,0.0957984301\H,0,3.3332141837,-2.4854457923,0.8436990748\H,0,2.8
 140698286,-0.2711368515,2.3916564455\H,0,1.8675875425,-1.7483720163,2.
 3107642124\H,0,0.9942684869,1.2428851253,2.793607786\H,0,-0.9845115353
 ,2.4570823129,1.9576295664\H,0,-2.8938179622,2.540473615,0.4872921347\
 H,0,-1.9953877095,2.8935451627,-0.9694832341\H,0,-3.1334740063,1.31738
 57734,-2.1626573995\H,0,-3.7651773959,0.6663073011,1.4106090881\H,0,-5
 .3447323457,-1.0437915215,2.1830038032\H,0,-6.6685006966,-2.3887471574
 ,0.5548763941\H,0,-6.3705510075,-1.967557786,-1.888441496\H,0,-4.80329
 16374,-0.2372924624,-2.6765640745\H,0,-1.1173497776,-0.1210863373,-1.4
 735181907\H,0,0.8673523303,-1.3382420472,-0.6295400619\H,0,5.145624891
 ,-2.5701298671,-0.6212259384\H,0,6.9551374846,-1.351892463,-1.76814087
 52\H,0,7.0168040054,1.1438405943,-1.7399598689\H,0,5.2231868209,2.3846
 208831,-0.5345895107\H,0,3.4087925377,1.1814684214,0.6022501972\\Versi
 on=ES64L-G16RevA.03\State=1-A\HF=-883.7177704\RMSD=4.512e-09\Dipole=-4
 .6111388,-0.3988508,-1.0954972\Quadrupole=10.3182582,-4.171301,-6.1469
 572,-1.324739,7.7944683,-3.5084027\PG=C01 [X(C20H20N2)]\\@


 NOTHING RESEMBLES A NEW PHENOMENON AS MUCH AS A MISTAKE.

                               -- ENRICO FERMI (?)
 Job cpu time:       0 days  1 hours 35 minutes 37.1 seconds.
 Elapsed time:       0 days  0 hours 13 minutes 44.0 seconds.
 File lengths (MBytes):  RWF=   1458 Int=      0 D2E=      0 Chk=     92 Scr=      1
 Normal termination of Gaussian 16 at Mon Jul 22 11:35:48 2024.
