 Entering Gaussian System, Link 0=g16
 Initial command:
 /opt/sw/arch/manual/gaussian/G16_A03/g16/l1.exe "/scratch/1380809/Gau-14230.inp" -scrdir="/scratch/1380809/"
 Entering Link 1 = /opt/sw/arch/manual/gaussian/G16_A03/g16/l1.exe PID=     14231.
  
 Copyright (c) 1988,1990,1992,1993,1995,1998,2003,2009,2016,
            Gaussian, Inc.  All Rights Reserved.
  
 This is part of the Gaussian(R) 16 program.  It is based on
 the Gaussian(R) 09 system (copyright 2009, Gaussian, Inc.),
 the Gaussian(R) 03 system (copyright 2003, Gaussian, Inc.),
 the Gaussian(R) 98 system (copyright 1998, Gaussian, Inc.),
 the Gaussian(R) 94 system (copyright 1995, Gaussian, Inc.),
 the Gaussian 92(TM) system (copyright 1992, Gaussian, Inc.),
 the Gaussian 90(TM) system (copyright 1990, Gaussian, Inc.),
 the Gaussian 88(TM) system (copyright 1988, Gaussian, Inc.),
 the Gaussian 86(TM) system (copyright 1986, Carnegie Mellon
 University), and the Gaussian 82(TM) system (copyright 1983,
 Carnegie Mellon University). Gaussian is a federally registered
 trademark of Gaussian, Inc.
  
 This software contains proprietary and confidential information,
 including trade secrets, belonging to Gaussian, Inc.
  
 This software is provided under written license and may be
 used, copied, transmitted, or stored only in accord with that
 written license.
  
 The following legend is applicable only to US Government
 contracts under FAR:
  
                    RESTRICTED RIGHTS LEGEND
  
 Use, reproduction and disclosure by the US Government is
 subject to restrictions as set forth in subparagraphs (a)
 and (c) of the Commercial Computer Software - Restricted
 Rights clause in FAR 52.227-19.
  
 Gaussian, Inc.
 340 Quinnipiac St., Bldg. 40, Wallingford CT 06492
  
  
 ---------------------------------------------------------------
 Warning -- This program may not be used in any manner that
 competes with the business of Gaussian, Inc. or will provide
 assistance to any competitor of Gaussian, Inc.  The licensee
 of this program is prohibited from giving any competitor of
 Gaussian, Inc. access to this program.  By using this program,
 the user acknowledges that Gaussian, Inc. is engaged in the
 business of creating and licensing software in the field of
 computational chemistry and represents and warrants to the
 licensee that it is not a competitor of Gaussian, Inc. and that
 it will not use this program in any manner prohibited above.
 ---------------------------------------------------------------
  

 Cite this work as:
 Gaussian 16, Revision A.03,
 M. J. Frisch, G. W. Trucks, H. B. Schlegel, G. E. Scuseria, 
 M. A. Robb, J. R. Cheeseman, G. Scalmani, V. Barone, 
 G. A. Petersson, H. Nakatsuji, X. Li, M. Caricato, A. V. Marenich, 
 J. Bloino, B. G. Janesko, R. Gomperts, B. Mennucci, H. P. Hratchian, 
 J. V. Ortiz, A. F. Izmaylov, J. L. Sonnenberg, D. Williams-Young, 
 F. Ding, F. Lipparini, F. Egidi, J. Goings, B. Peng, A. Petrone, 
 T. Henderson, D. Ranasinghe, V. G. Zakrzewski, J. Gao, N. Rega, 
 G. Zheng, W. Liang, M. Hada, M. Ehara, K. Toyota, R. Fukuda, 
 J. Hasegawa, M. Ishida, T. Nakajima, Y. Honda, O. Kitao, H. Nakai, 
 T. Vreven, K. Throssell, J. A. Montgomery, Jr., J. E. Peralta, 
 F. Ogliaro, M. J. Bearpark, J. J. Heyd, E. N. Brothers, K. N. Kudin, 
 V. N. Staroverov, T. A. Keith, R. Kobayashi, J. Normand, 
 K. Raghavachari, A. P. Rendell, J. C. Burant, S. S. Iyengar, 
 J. Tomasi, M. Cossi, J. M. Millam, M. Klene, C. Adamo, R. Cammi, 
 J. W. Ochterski, R. L. Martin, K. Morokuma, O. Farkas, 
 J. B. Foresman, and D. J. Fox, Gaussian, Inc., Wallingford CT, 2016.
 
 ******************************************
 Gaussian 16:  ES64L-G16RevA.03 25-Dec-2016
                17-Jul-2024 
 ******************************************
 %nprocshared=7
 Will use up to    7 processors via shared memory.
 %mem=14GB
 %Chk=DXWQPWMYKQYRDS-UHFFFAOYSA-N_conf_3_0.chk
 -------------------------------------------------------
 # opt=CalcFc B3LYP/6-31G** SCRF=(Solvent=water) scf=xqc
 -------------------------------------------------------
 1/10=4,18=20,19=15,26=3,38=1/1,3;
 2/9=110,12=2,17=6,18=5,40=1/2;
 3/5=1,6=6,7=101,11=2,25=1,30=1,70=2201,71=2,72=1,74=-5,140=1/1,2,3;
 4//1;
 5/5=2,8=3,13=1,38=5,53=1/2,8;
 8/6=4,10=90,11=11/1;
 11/6=1,8=1,9=11,15=111,16=1/1,2,10;
 10/6=1,13=1/2;
 6/7=2,8=2,9=2,10=2,28=1/1;
 7/10=1,18=20,25=1/1,2,3,16;
 1/10=4,18=20,19=15,26=3/3(2);
 2/9=110/2;
 99//99;
 2/9=110/2;
 3/5=1,6=6,7=101,11=2,25=1,30=1,70=2205,71=1,72=1,74=-5/1,2,3;
 4/5=5,16=3,69=1/1;
 5/5=2,8=3,13=1,38=5,53=1/2,8;
 7//1,2,3,16;
 1/18=20,19=15,26=3/3(-5);
 2/9=110/2;
 6/7=2,8=2,9=2,10=2,19=2,28=1/1;
 99/9=1/99;
 ----------------------------------
 DXWQPWMYKQYRDS-UHFFFAOYSA-N_conf_3
 ----------------------------------
 Symbolic Z-matrix:
 Charge =  0 Multiplicity = 1
 C                    -4.76424  -0.42919  -0.01062 
 N                    -3.40616  -0.15478  -0.19874 
 C                    -2.91506   1.20321  -0.01164 
 C                    -1.40548   1.2008   -0.08758 
 C                    -0.62879   1.37228   1.06555 
 C                     0.76578   1.35707   0.9879 
 C                     1.4114    1.16922  -0.24266 
 C                     2.92091   1.14071  -0.31447 
 N                     3.40553  -0.09557   0.2831 
 C                     4.76211  -0.42126   0.18996 
 C                     5.14845  -1.74814   0.43125 
 C                     6.49317  -2.13056   0.41787 
 C                     7.48278  -1.18063   0.18951 
 C                     7.1249    0.14916  -0.00968 
 C                     5.77677   0.52538   0.00557 
 C                     0.63466   0.98008  -1.393 
 C                    -0.7599    0.9964   -1.31552 
 C                    -5.77413   0.53307  -0.12821 
 C                    -7.12406   0.1865    0.00144 
 C                    -7.48857  -1.13807   0.22221 
 C                    -6.50377  -2.11691   0.29898 
 C                    -5.15722  -1.76385   0.1692 
 H                    -2.81263  -0.84261   0.2588 
 H                    -3.23638   1.60071   0.95925 
 H                    -3.30017   1.87219  -0.79086 
 H                    -1.10276   1.51341   2.03448 
 H                     1.35517   1.48109   1.89492 
 H                     3.30988   2.01568   0.22046 
 H                     3.24342   1.21749  -1.3604 
 H                     2.80831  -0.88815   0.05978 
 H                     4.39429  -2.50437   0.63542 
 H                     6.76301  -3.16781   0.59614 
 H                     8.52934  -1.47218   0.18263 
 H                     7.89389   0.90098  -0.16613 
 H                     5.54366   1.57725  -0.12565 
 H                     1.10857   0.81285  -2.3578 
 H                    -1.34938   0.83719  -2.21698 
 H                    -5.53581   1.57292  -0.32795 
 H                    -7.88926   0.95364  -0.08241 
 H                    -8.53653  -1.40816   0.31798 
 H                    -6.7788   -3.15721   0.4494 
 H                    -4.40691  -2.54984   0.209 
 

 GradGradGradGradGradGradGradGradGradGradGradGradGradGradGradGradGradGrad
 Berny optimization.
 Initialization pass.
                           ----------------------------
                           !    Initial Parameters    !
                           ! (Angstroms and Degrees)  !
 --------------------------                            --------------------------
 ! Name  Definition              Value          Derivative Info.                !
 --------------------------------------------------------------------------------
 ! R1    R(1,2)                  1.3982         calculate D2E/DX2 analytically  !
 ! R2    R(1,18)                 1.3999         calculate D2E/DX2 analytically  !
 ! R3    R(1,22)                 1.4029         calculate D2E/DX2 analytically  !
 ! R4    R(2,3)                  1.4561         calculate D2E/DX2 analytically  !
 ! R5    R(2,23)                 1.0172         calculate D2E/DX2 analytically  !
 ! R6    R(3,4)                  1.5115         calculate D2E/DX2 analytically  !
 ! R7    R(3,24)                 1.0972         calculate D2E/DX2 analytically  !
 ! R8    R(3,25)                 1.0968         calculate D2E/DX2 analytically  !
 ! R9    R(4,5)                  1.4008         calculate D2E/DX2 analytically  !
 ! R10   R(4,17)                 1.4023         calculate D2E/DX2 analytically  !
 ! R11   R(5,6)                  1.3968         calculate D2E/DX2 analytically  !
 ! R12   R(5,26)                 1.0878         calculate D2E/DX2 analytically  !
 ! R13   R(6,7)                  1.4023         calculate D2E/DX2 analytically  !
 ! R14   R(6,27)                 1.0888         calculate D2E/DX2 analytically  !
 ! R15   R(7,8)                  1.5115         calculate D2E/DX2 analytically  !
 ! R16   R(7,16)                 1.4008         calculate D2E/DX2 analytically  !
 ! R17   R(8,9)                  1.4561         calculate D2E/DX2 analytically  !
 ! R18   R(8,28)                 1.0968         calculate D2E/DX2 analytically  !
 ! R19   R(8,29)                 1.0972         calculate D2E/DX2 analytically  !
 ! R20   R(9,10)                 1.3982         calculate D2E/DX2 analytically  !
 ! R21   R(9,30)                 1.0172         calculate D2E/DX2 analytically  !
 ! R22   R(10,11)                1.4029         calculate D2E/DX2 analytically  !
 ! R23   R(10,15)                1.3999         calculate D2E/DX2 analytically  !
 ! R24   R(11,12)                1.3981         calculate D2E/DX2 analytically  !
 ! R25   R(11,31)                1.0873         calculate D2E/DX2 analytically  !
 ! R26   R(12,13)                1.3906         calculate D2E/DX2 analytically  !
 ! R27   R(12,32)                1.0865         calculate D2E/DX2 analytically  !
 ! R28   R(13,14)                1.3914         calculate D2E/DX2 analytically  !
 ! R29   R(13,33)                1.0864         calculate D2E/DX2 analytically  !
 ! R30   R(14,15)                1.3997         calculate D2E/DX2 analytically  !
 ! R31   R(14,34)                1.0868         calculate D2E/DX2 analytically  !
 ! R32   R(15,35)                1.0853         calculate D2E/DX2 analytically  !
 ! R33   R(16,17)                1.3968         calculate D2E/DX2 analytically  !
 ! R34   R(16,36)                1.0878         calculate D2E/DX2 analytically  !
 ! R35   R(17,37)                1.0888         calculate D2E/DX2 analytically  !
 ! R36   R(18,19)                1.3997         calculate D2E/DX2 analytically  !
 ! R37   R(18,38)                1.0854         calculate D2E/DX2 analytically  !
 ! R38   R(19,20)                1.3914         calculate D2E/DX2 analytically  !
 ! R39   R(19,39)                1.0868         calculate D2E/DX2 analytically  !
 ! R40   R(20,21)                1.3906         calculate D2E/DX2 analytically  !
 ! R41   R(20,40)                1.0864         calculate D2E/DX2 analytically  !
 ! R42   R(21,22)                1.3981         calculate D2E/DX2 analytically  !
 ! R43   R(21,41)                1.0865         calculate D2E/DX2 analytically  !
 ! R44   R(22,42)                1.0873         calculate D2E/DX2 analytically  !
 ! A1    A(2,1,18)             123.6756         calculate D2E/DX2 analytically  !
 ! A2    A(2,1,22)             118.4267         calculate D2E/DX2 analytically  !
 ! A3    A(18,1,22)            117.5577         calculate D2E/DX2 analytically  !
 ! A4    A(1,2,3)              119.559          calculate D2E/DX2 analytically  !
 ! A5    A(1,2,23)             111.9321         calculate D2E/DX2 analytically  !
 ! A6    A(3,2,23)             112.0876         calculate D2E/DX2 analytically  !
 ! A7    A(2,3,4)              109.2017         calculate D2E/DX2 analytically  !
 ! A8    A(2,3,24)             110.658          calculate D2E/DX2 analytically  !
 ! A9    A(2,3,25)             111.0457         calculate D2E/DX2 analytically  !
 ! A10   A(4,3,24)             109.7258         calculate D2E/DX2 analytically  !
 ! A11   A(4,3,25)             108.4183         calculate D2E/DX2 analytically  !
 ! A12   A(24,3,25)            107.7491         calculate D2E/DX2 analytically  !
 ! A13   A(3,4,5)              120.8099         calculate D2E/DX2 analytically  !
 ! A14   A(3,4,17)             120.2664         calculate D2E/DX2 analytically  !
 ! A15   A(5,4,17)             118.9089         calculate D2E/DX2 analytically  !
 ! A16   A(4,5,6)              120.4282         calculate D2E/DX2 analytically  !
 ! A17   A(4,5,26)             120.4971         calculate D2E/DX2 analytically  !
 ! A18   A(6,5,26)             119.0738         calculate D2E/DX2 analytically  !
 ! A19   A(5,6,7)              120.6579         calculate D2E/DX2 analytically  !
 ! A20   A(5,6,27)             119.5319         calculate D2E/DX2 analytically  !
 ! A21   A(7,6,27)             119.8065         calculate D2E/DX2 analytically  !
 ! A22   A(6,7,8)              120.2664         calculate D2E/DX2 analytically  !
 ! A23   A(6,7,16)             118.9089         calculate D2E/DX2 analytically  !
 ! A24   A(8,7,16)             120.81           calculate D2E/DX2 analytically  !
 ! A25   A(7,8,9)              109.2017         calculate D2E/DX2 analytically  !
 ! A26   A(7,8,28)             108.4182         calculate D2E/DX2 analytically  !
 ! A27   A(7,8,29)             109.7259         calculate D2E/DX2 analytically  !
 ! A28   A(9,8,28)             111.0457         calculate D2E/DX2 analytically  !
 ! A29   A(9,8,29)             110.6579         calculate D2E/DX2 analytically  !
 ! A30   A(28,8,29)            107.7492         calculate D2E/DX2 analytically  !
 ! A31   A(8,9,10)             119.5589         calculate D2E/DX2 analytically  !
 ! A32   A(8,9,30)             112.0877         calculate D2E/DX2 analytically  !
 ! A33   A(10,9,30)            111.9323         calculate D2E/DX2 analytically  !
 ! A34   A(9,10,11)            118.4267         calculate D2E/DX2 analytically  !
 ! A35   A(9,10,15)            123.6755         calculate D2E/DX2 analytically  !
 ! A36   A(11,10,15)           117.5577         calculate D2E/DX2 analytically  !
 ! A37   A(10,11,12)           121.4622         calculate D2E/DX2 analytically  !
 ! A38   A(10,11,31)           119.9401         calculate D2E/DX2 analytically  !
 ! A39   A(12,11,31)           118.5977         calculate D2E/DX2 analytically  !
 ! A40   A(11,12,13)           119.9463         calculate D2E/DX2 analytically  !
 ! A41   A(11,12,32)           119.8966         calculate D2E/DX2 analytically  !
 ! A42   A(13,12,32)           120.1542         calculate D2E/DX2 analytically  !
 ! A43   A(12,13,14)           119.5576         calculate D2E/DX2 analytically  !
 ! A44   A(12,13,33)           120.2147         calculate D2E/DX2 analytically  !
 ! A45   A(14,13,33)           120.2204         calculate D2E/DX2 analytically  !
 ! A46   A(13,14,15)           120.2013         calculate D2E/DX2 analytically  !
 ! A47   A(13,14,34)           119.9838         calculate D2E/DX2 analytically  !
 ! A48   A(15,14,34)           119.811          calculate D2E/DX2 analytically  !
 ! A49   A(10,15,14)           121.1832         calculate D2E/DX2 analytically  !
 ! A50   A(10,15,35)           121.0392         calculate D2E/DX2 analytically  !
 ! A51   A(14,15,35)           117.777          calculate D2E/DX2 analytically  !
 ! A52   A(7,16,17)            120.4282         calculate D2E/DX2 analytically  !
 ! A53   A(7,16,36)            120.497          calculate D2E/DX2 analytically  !
 ! A54   A(17,16,36)           119.0738         calculate D2E/DX2 analytically  !
 ! A55   A(4,17,16)            120.6579         calculate D2E/DX2 analytically  !
 ! A56   A(4,17,37)            119.8065         calculate D2E/DX2 analytically  !
 ! A57   A(16,17,37)           119.5319         calculate D2E/DX2 analytically  !
 ! A58   A(1,18,19)            121.1832         calculate D2E/DX2 analytically  !
 ! A59   A(1,18,38)            121.039          calculate D2E/DX2 analytically  !
 ! A60   A(19,18,38)           117.7771         calculate D2E/DX2 analytically  !
 ! A61   A(18,19,20)           120.2014         calculate D2E/DX2 analytically  !
 ! A62   A(18,19,39)           119.811          calculate D2E/DX2 analytically  !
 ! A63   A(20,19,39)           119.9838         calculate D2E/DX2 analytically  !
 ! A64   A(19,20,21)           119.5576         calculate D2E/DX2 analytically  !
 ! A65   A(19,20,40)           120.2205         calculate D2E/DX2 analytically  !
 ! A66   A(21,20,40)           120.2146         calculate D2E/DX2 analytically  !
 ! A67   A(20,21,22)           119.9462         calculate D2E/DX2 analytically  !
 ! A68   A(20,21,41)           120.1543         calculate D2E/DX2 analytically  !
 ! A69   A(22,21,41)           119.8965         calculate D2E/DX2 analytically  !
 ! A70   A(1,22,21)            121.4623         calculate D2E/DX2 analytically  !
 ! A71   A(1,22,42)            119.94           calculate D2E/DX2 analytically  !
 ! A72   A(21,22,42)           118.5977         calculate D2E/DX2 analytically  !
 ! D1    D(18,1,2,3)            24.1553         calculate D2E/DX2 analytically  !
 ! D2    D(18,1,2,23)          158.1323         calculate D2E/DX2 analytically  !
 ! D3    D(22,1,2,3)          -162.7138         calculate D2E/DX2 analytically  !
 ! D4    D(22,1,2,23)          -28.7369         calculate D2E/DX2 analytically  !
 ! D5    D(2,1,18,19)          176.5715         calculate D2E/DX2 analytically  !
 ! D6    D(2,1,18,38)           -3.1297         calculate D2E/DX2 analytically  !
 ! D7    D(22,1,18,19)           3.3853         calculate D2E/DX2 analytically  !
 ! D8    D(22,1,18,38)        -176.316          calculate D2E/DX2 analytically  !
 ! D9    D(2,1,22,21)         -176.9202         calculate D2E/DX2 analytically  !
 ! D10   D(2,1,22,42)            3.0112         calculate D2E/DX2 analytically  !
 ! D11   D(18,1,22,21)          -3.3664         calculate D2E/DX2 analytically  !
 ! D12   D(18,1,22,42)         176.565          calculate D2E/DX2 analytically  !
 ! D13   D(1,2,3,4)            172.4037         calculate D2E/DX2 analytically  !
 ! D14   D(1,2,3,24)            51.5219         calculate D2E/DX2 analytically  !
 ! D15   D(1,2,3,25)           -68.0923         calculate D2E/DX2 analytically  !
 ! D16   D(23,2,3,4)            38.492          calculate D2E/DX2 analytically  !
 ! D17   D(23,2,3,24)          -82.3899         calculate D2E/DX2 analytically  !
 ! D18   D(23,2,3,25)          157.996          calculate D2E/DX2 analytically  !
 ! D19   D(2,3,4,5)           -107.098          calculate D2E/DX2 analytically  !
 ! D20   D(2,3,4,17)            71.4893         calculate D2E/DX2 analytically  !
 ! D21   D(24,3,4,5)            14.3507         calculate D2E/DX2 analytically  !
 ! D22   D(24,3,4,17)         -167.062          calculate D2E/DX2 analytically  !
 ! D23   D(25,3,4,5)           131.7857         calculate D2E/DX2 analytically  !
 ! D24   D(25,3,4,17)          -49.627          calculate D2E/DX2 analytically  !
 ! D25   D(3,4,5,6)            179.4405         calculate D2E/DX2 analytically  !
 ! D26   D(3,4,5,26)            -0.2091         calculate D2E/DX2 analytically  !
 ! D27   D(17,4,5,6)             0.8343         calculate D2E/DX2 analytically  !
 ! D28   D(17,4,5,26)         -178.8153         calculate D2E/DX2 analytically  !
 ! D29   D(3,4,17,16)         -179.3963         calculate D2E/DX2 analytically  !
 ! D30   D(3,4,17,37)           -0.105          calculate D2E/DX2 analytically  !
 ! D31   D(5,4,17,16)           -0.7823         calculate D2E/DX2 analytically  !
 ! D32   D(5,4,17,37)          178.5089         calculate D2E/DX2 analytically  !
 ! D33   D(4,5,6,7)             -0.0537         calculate D2E/DX2 analytically  !
 ! D34   D(4,5,6,27)          -179.3468         calculate D2E/DX2 analytically  !
 ! D35   D(26,5,6,7)           179.6009         calculate D2E/DX2 analytically  !
 ! D36   D(26,5,6,27)            0.3077         calculate D2E/DX2 analytically  !
 ! D37   D(5,6,7,8)           -179.3965         calculate D2E/DX2 analytically  !
 ! D38   D(5,6,7,16)            -0.7825         calculate D2E/DX2 analytically  !
 ! D39   D(27,6,7,8)            -0.1052         calculate D2E/DX2 analytically  !
 ! D40   D(27,6,7,16)          178.5088         calculate D2E/DX2 analytically  !
 ! D41   D(6,7,8,9)             71.4908         calculate D2E/DX2 analytically  !
 ! D42   D(6,7,8,28)           -49.6254         calculate D2E/DX2 analytically  !
 ! D43   D(6,7,8,29)          -167.0605         calculate D2E/DX2 analytically  !
 ! D44   D(16,7,8,9)          -107.0965         calculate D2E/DX2 analytically  !
 ! D45   D(16,7,8,28)          131.7873         calculate D2E/DX2 analytically  !
 ! D46   D(16,7,8,29)           14.3522         calculate D2E/DX2 analytically  !
 ! D47   D(6,7,16,17)            0.8345         calculate D2E/DX2 analytically  !
 ! D48   D(6,7,16,36)         -178.8151         calculate D2E/DX2 analytically  !
 ! D49   D(8,7,16,17)          179.4407         calculate D2E/DX2 analytically  !
 ! D50   D(8,7,16,36)           -0.2089         calculate D2E/DX2 analytically  !
 ! D51   D(7,8,9,10)           172.4053         calculate D2E/DX2 analytically  !
 ! D52   D(7,8,9,30)            38.4932         calculate D2E/DX2 analytically  !
 ! D53   D(28,8,9,10)          -68.0908         calculate D2E/DX2 analytically  !
 ! D54   D(28,8,9,30)          157.9971         calculate D2E/DX2 analytically  !
 ! D55   D(29,8,9,10)           51.5234         calculate D2E/DX2 analytically  !
 ! D56   D(29,8,9,30)          -82.3887         calculate D2E/DX2 analytically  !
 ! D57   D(8,9,10,11)         -162.713          calculate D2E/DX2 analytically  !
 ! D58   D(8,9,10,15)           24.1561         calculate D2E/DX2 analytically  !
 ! D59   D(30,9,10,11)         -28.7358         calculate D2E/DX2 analytically  !
 ! D60   D(30,9,10,15)         158.1333         calculate D2E/DX2 analytically  !
 ! D61   D(9,10,11,12)        -176.9202         calculate D2E/DX2 analytically  !
 ! D62   D(9,10,11,31)           3.0113         calculate D2E/DX2 analytically  !
 ! D63   D(15,10,11,12)         -3.3663         calculate D2E/DX2 analytically  !
 ! D64   D(15,10,11,31)        176.5652         calculate D2E/DX2 analytically  !
 ! D65   D(9,10,15,14)         176.5715         calculate D2E/DX2 analytically  !
 ! D66   D(9,10,15,35)          -3.1305         calculate D2E/DX2 analytically  !
 ! D67   D(11,10,15,14)          3.3852         calculate D2E/DX2 analytically  !
 ! D68   D(11,10,15,35)       -176.3168         calculate D2E/DX2 analytically  !
 ! D69   D(10,11,12,13)          1.3728         calculate D2E/DX2 analytically  !
 ! D70   D(10,11,12,32)       -179.2561         calculate D2E/DX2 analytically  !
 ! D71   D(31,11,12,13)       -178.5596         calculate D2E/DX2 analytically  !
 ! D72   D(31,11,12,32)          0.8114         calculate D2E/DX2 analytically  !
 ! D73   D(11,12,13,14)          0.7054         calculate D2E/DX2 analytically  !
 ! D74   D(11,12,13,33)        179.7236         calculate D2E/DX2 analytically  !
 ! D75   D(32,12,13,14)       -178.6639         calculate D2E/DX2 analytically  !
 ! D76   D(32,12,13,33)          0.3542         calculate D2E/DX2 analytically  !
 ! D77   D(12,13,14,15)         -0.6789         calculate D2E/DX2 analytically  !
 ! D78   D(12,13,14,34)        178.6048         calculate D2E/DX2 analytically  !
 ! D79   D(33,13,14,15)       -179.697          calculate D2E/DX2 analytically  !
 ! D80   D(33,13,14,34)         -0.4133         calculate D2E/DX2 analytically  !
 ! D81   D(13,14,15,10)         -1.4285         calculate D2E/DX2 analytically  !
 ! D82   D(13,14,15,35)        178.2829         calculate D2E/DX2 analytically  !
 ! D83   D(34,14,15,10)        179.2865         calculate D2E/DX2 analytically  !
 ! D84   D(34,14,15,35)         -1.002          calculate D2E/DX2 analytically  !
 ! D85   D(7,16,17,4)           -0.0538         calculate D2E/DX2 analytically  !
 ! D86   D(7,16,17,37)        -179.347          calculate D2E/DX2 analytically  !
 ! D87   D(36,16,17,4)         179.6007         calculate D2E/DX2 analytically  !
 ! D88   D(36,16,17,37)          0.3075         calculate D2E/DX2 analytically  !
 ! D89   D(1,18,19,20)          -1.4284         calculate D2E/DX2 analytically  !
 ! D90   D(1,18,19,39)         179.2866         calculate D2E/DX2 analytically  !
 ! D91   D(38,18,19,20)        178.2823         calculate D2E/DX2 analytically  !
 ! D92   D(38,18,19,39)         -1.0027         calculate D2E/DX2 analytically  !
 ! D93   D(18,19,20,21)         -0.6792         calculate D2E/DX2 analytically  !
 ! D94   D(18,19,20,40)       -179.6969         calculate D2E/DX2 analytically  !
 ! D95   D(39,19,20,21)        178.6045         calculate D2E/DX2 analytically  !
 ! D96   D(39,19,20,40)         -0.4132         calculate D2E/DX2 analytically  !
 ! D97   D(19,20,21,22)          0.7058         calculate D2E/DX2 analytically  !
 ! D98   D(19,20,21,41)       -178.6636         calculate D2E/DX2 analytically  !
 ! D99   D(40,20,21,22)        179.7235         calculate D2E/DX2 analytically  !
 ! D100  D(40,20,21,41)          0.3542         calculate D2E/DX2 analytically  !
 ! D101  D(20,21,22,1)           1.3727         calculate D2E/DX2 analytically  !
 ! D102  D(20,21,22,42)       -178.5596         calculate D2E/DX2 analytically  !
 ! D103  D(41,21,22,1)        -179.2564         calculate D2E/DX2 analytically  !
 ! D104  D(41,21,22,42)          0.8114         calculate D2E/DX2 analytically  !
 --------------------------------------------------------------------------------
 Trust Radius=3.00D-01 FncErr=1.00D-07 GrdErr=1.00D-06 EigMax=2.50D+02 EigMin=1.00D-04
 Number of steps in this run=    230 maximum allowed number of steps=    252.
 GradGradGradGradGradGradGradGradGradGradGradGradGradGradGradGradGradGrad

                          Input orientation:                          
 ---------------------------------------------------------------------
 Center     Atomic      Atomic             Coordinates (Angstroms)
 Number     Number       Type             X           Y           Z
 ---------------------------------------------------------------------
      1          6           0       -4.764236   -0.429191   -0.010615
      2          7           0       -3.406163   -0.154781   -0.198740
      3          6           0       -2.915056    1.203214   -0.011643
      4          6           0       -1.405478    1.200798   -0.087582
      5          6           0       -0.628785    1.372276    1.065551
      6          6           0        0.765779    1.357074    0.987896
      7          6           0        1.411396    1.169216   -0.242664
      8          6           0        2.920909    1.140707   -0.314472
      9          7           0        3.405530   -0.095573    0.283103
     10          6           0        4.762110   -0.421258    0.189961
     11          6           0        5.148448   -1.748140    0.431246
     12          6           0        6.493166   -2.130559    0.417866
     13          6           0        7.482784   -1.180631    0.189512
     14          6           0        7.124898    0.149161   -0.009678
     15          6           0        5.776768    0.525384    0.005573
     16          6           0        0.634659    0.980080   -1.393003
     17          6           0       -0.759902    0.996401   -1.315525
     18          6           0       -5.774130    0.533069   -0.128210
     19          6           0       -7.124061    0.186503    0.001436
     20          6           0       -7.488571   -1.138071    0.222213
     21          6           0       -6.503769   -2.116908    0.298981
     22          6           0       -5.157218   -1.763853    0.169200
     23          1           0       -2.812629   -0.842607    0.258800
     24          1           0       -3.236379    1.600713    0.959247
     25          1           0       -3.300166    1.872192   -0.790860
     26          1           0       -1.102762    1.513409    2.034476
     27          1           0        1.355169    1.481087    1.894916
     28          1           0        3.309875    2.015678    0.220457
     29          1           0        3.243420    1.217487   -1.360403
     30          1           0        2.808307   -0.888153    0.059781
     31          1           0        4.394292   -2.504368    0.635417
     32          1           0        6.763011   -3.167810    0.596144
     33          1           0        8.529339   -1.472183    0.182630
     34          1           0        7.893890    0.900979   -0.166127
     35          1           0        5.543664    1.577252   -0.125646
     36          1           0        1.108571    0.812854   -2.357798
     37          1           0       -1.349382    0.837195   -2.216976
     38          1           0       -5.535805    1.572922   -0.327947
     39          1           0       -7.889261    0.953636   -0.082411
     40          1           0       -8.536526   -1.408156    0.317984
     41          1           0       -6.778797   -3.157207    0.449400
     42          1           0       -4.406912   -2.549839    0.209000
 ---------------------------------------------------------------------
                    Distance matrix (angstroms):
                    1          2          3          4          5
     1  C    0.000000
     2  N    1.398233   0.000000
     3  C    2.466620   1.456140   0.000000
     4  C    3.734173   2.419234   1.511489   0.000000
     5  C    4.637388   3.412354   2.532975   1.400847   0.000000
     6  C    5.896510   4.593355   3.817236   2.428051   1.396807
     7  C    6.383352   4.996376   4.332749   2.821316   2.432077
     8  C    7.849737   6.459375   5.844151   4.332749   3.815549
     9  N    8.181849   6.828971   6.459376   4.996377   4.363772
    10  C    9.528460   8.181857   7.849740   6.383356   5.748493
    11  C   10.009804   8.724509   8.598066   7.205509   6.596648
    12  C   11.393303  10.113388   9.990654   8.587316   7.963136
    13  C   12.271684  10.944052  10.669501   9.205932   8.548821
    14  C   11.903193  10.537142  10.095133   8.595308   7.922861
    15  C   10.584151   9.210352   8.718231   7.214535   6.547663
    16  C    5.748488   4.363762   3.815550   2.432077   2.791880
    17  C    4.446323   3.094370   2.527364   1.402280   2.414124
    18  C    1.399877   2.466856   2.938874   4.419574   5.348261
    19  C    2.438851   3.738891   4.330080   5.808520   6.687825
    20  C    2.824662   4.220203   5.143281   6.524592   7.353211
    21  C    2.443401   3.700382   4.898832   6.095012   6.875861
    22  C    1.402887   2.406384   3.723369   4.788596   5.580811
    23  H    2.013025   1.017217   2.066159   2.505107   3.213366
    24  H    2.719465   2.109863   1.097215   2.146621   2.619738
    25  H    2.837013   2.114346   1.096823   2.129604   3.291269
    26  H    4.621957   3.616043   2.750860   2.166216   1.087836
    27  H    6.687850   5.452499   4.684763   3.410283   2.153082
    28  H    8.439316   7.070488   6.282017   4.795151   4.079362
    29  H    8.285894   6.888362   6.304458   4.820021   4.572000
    30  H    7.586766   6.262932   6.093916   4.705467   4.234940
    31  H    9.412882   8.189229   8.221400   6.920138   6.359613
    32  H   11.863626  10.635896  10.636740   9.288511   8.687427
    33  H   13.335828  12.014042  11.754559  10.291668   9.630251
    34  H   12.728774  11.349312  10.814274   9.304531   8.624102
    35  H   10.501993   9.116177   8.467753   6.959435   6.289682
    36  H    6.445293   5.097124   4.674013   3.409519   3.879520
    37  H    4.258285   3.047563   2.729249   2.160942   3.403021
    38  H    2.168980   2.745365   2.665531   4.154017   5.104992
    39  H    3.418061   4.619555   4.980965   6.488494   7.362580
    40  H    3.911076   5.306465   6.207159   7.604142   8.415582
    41  H    3.422300   4.561721   5.844170   6.939245   7.662800
    42  H    2.161726   2.627556   4.044715   4.812884   5.512795
                    6          7          8          9         10
     6  C    0.000000
     7  C    1.402280   0.000000
     8  C    2.527363   1.511489   0.000000
     9  N    3.094383   2.419234   1.456139   0.000000
    10  C    4.446327   3.734174   2.466618   1.398232   0.000000
    11  C    5.400000   4.788599   3.723367   2.406385   1.402887
    12  C    6.729895   6.095015   4.898828   3.700382   2.443401
    13  C    7.224647   6.524593   5.143278   4.220203   2.824662
    14  C    6.549244   5.808520   4.330079   3.738891   2.438853
    15  C    5.173653   4.419572   2.938874   2.466856   1.399879
    16  C    2.414124   1.400847   2.532976   3.412343   4.637388
    17  C    2.786312   2.428051   3.817237   4.593348   5.896512
    18  C    6.685437   7.214538   8.718234   9.210349  10.584154
    19  C    8.036971   8.595308  10.095133  10.537134  11.903191
    20  C    8.657153   9.205927  10.669495  10.944037  12.271676
    21  C    8.086375   8.587305   9.990642  10.113370  11.393293
    22  C    6.744801   7.205499   8.598054   8.724494  10.009798
    23  H    4.263235   4.705452   6.093901   6.262919   7.586760
    24  H    4.009669   4.820019   6.304455   6.888360   8.285890
    25  H    4.467798   4.795155   6.282021   7.070492   8.439325
    26  H    2.147374   3.409519   4.674012   5.097139   6.445300
    27  H    1.088782   2.160942   2.729248   3.047585   4.258289
    28  H    2.737727   2.129602   1.096822   2.114345   2.837001
    29  H    3.416533   2.146621   1.097214   2.109861   2.719472
    30  H    3.174014   2.505115   2.066160   1.017217   2.013028
    31  H    5.310469   4.812890   4.044714   2.627559   2.161728
    32  H    7.522955   6.939250   5.844167   4.561723   3.422301
    33  H    8.302169   7.604142   6.207156   5.306464   3.911076
    34  H    7.235313   6.488493   4.980965   4.619556   3.418064
    35  H    4.910870   4.154014   2.665534   2.745366   2.168981
    36  H    3.406956   2.166216   2.750861   3.616023   4.621954
    37  H    3.874968   3.410284   4.684765   5.452489   6.687853
    38  H    6.441117   6.959443   8.467763   9.116180  10.502001
    39  H    8.730294   9.304535  10.814278  11.349306  12.728774
    40  H    9.727700  10.291662  11.754553  12.014025  13.335819
    41  H    8.808480   9.288495  10.636722  10.635872  11.863610
    42  H    6.528964   6.920121   8.221381   8.189211   9.412873
                   11         12         13         14         15
    11  C    0.000000
    12  C    1.398102   0.000000
    13  C    2.414462   1.390630   0.000000
    14  C    2.774980   2.403955   1.391440   0.000000
    15  C    2.396851   2.781590   2.419672   1.399725   0.000000
    16  C    5.580803   6.875858   7.353220   6.687841   5.348275
    17  C    6.744799   8.086379   8.657164   8.036985   6.685448
    18  C   11.172270  12.565017  13.370994  12.905283  11.551675
    19  C   12.431494  13.819228  14.671890  14.249012  12.905279
    20  C   12.653463  14.018284  14.971451  14.671885  13.370984
    21  C   11.658801  12.997485  14.018283  13.819221  12.565006
    22  C   10.309009  11.658806  12.653467  12.431492  11.172262
    23  H    8.014267   9.395847  10.301193   9.990501   8.701337
    24  H    9.044276  10.434535  11.100848  10.507229   9.127028
    25  H    9.272509  10.648586  11.249572  10.595331   9.210805
    26  H    7.230884   8.578465   9.185496   8.586857   7.240205
    27  H    5.192225   6.451718   6.894984   6.220230   4.902399
    28  H    4.194175   5.231022   5.256474   4.253380   2.890106
    29  H    3.953995   4.993245   5.111302   4.246369   2.960194
    30  H    2.520679   3.905122   4.685414   4.440022   3.288280
    31  H    1.087345   2.142974   3.389675   3.861810   3.389298
    32  H    2.156263   1.086504   2.152279   3.391206   3.867963
    33  H    3.401233   2.152857   1.086428   2.153647   3.405623
    34  H    3.861624   3.390177   2.151415   1.086764   2.157025
    35  H    3.394784   3.865853   3.386064   2.133821   1.085349
    36  H    5.536973   6.735121   7.147963   6.492330   5.240251
    37  H    7.477889   8.789511   9.373898   8.784018   7.471209
    38  H   11.214236  12.608257  13.316662  12.744481  11.365865
    39  H   13.324612  14.717905  15.521882  15.035871  13.673020
    40  H   13.689665  15.047374  16.021441  15.742071  14.446680
    41  H   12.010203  13.311649  14.400246  14.298795  13.092007
    42  H    9.591508  10.910139  11.968291  11.845466  10.639818
                   16         17         18         19         20
    16  C    0.000000
    17  C    1.396807   0.000000
    18  C    6.547678   5.173671   0.000000
    19  C    7.922875   6.549262   1.399725   0.000000
    20  C    8.548821   7.224651   2.419672   1.391440   0.000000
    21  C    7.963121   6.729883   2.781590   2.403955   1.390630
    22  C    6.596627   5.399981   2.396848   2.774978   2.414460
    23  H    4.234907   3.173978   3.288274   4.440017   4.685411
    24  H    4.572001   3.416535   2.960170   4.246347   5.111291
    25  H    4.079373   2.737741   2.890130   4.253404   5.256494
    26  H    3.879520   3.406957   5.240224   6.492301   7.147950
    27  H    3.403021   3.874968   7.471190   8.783994   9.373882
    28  H    3.291276   4.467802   9.210800  10.595323  11.249559
    29  H    2.619744   4.009674   9.127044  10.507245  11.100854
    30  H    3.213351   4.263230   8.701347   9.990507  10.301191
    31  H    5.512776   6.528956  10.639828  11.845470  11.968288
    32  H    7.662793   8.808482  13.092024  14.298806  14.400252
    33  H    8.415592   9.727712  14.446690  15.742077  16.021443
    34  H    7.362602   8.730311  13.673023  15.035870  15.521876
    35  H    5.105011   6.441129  11.365860  12.744473  13.316649
    36  H    1.087836   2.147374   7.240228   8.586881   9.185500
    37  H    2.153083   1.088782   4.902431   6.220263   6.894995
    38  H    6.289708   4.910900   1.085351   2.133824   3.386067
    39  H    8.624127   7.235341   2.157025   1.086763   2.151415
    40  H    9.630253   8.302175   3.405624   2.153648   1.086429
    41  H    8.687400   7.522932   3.867962   3.391206   2.152279
    42  H    6.359574   5.310431   3.389294   3.861806   3.389673
                   21         22         23         24         25
    21  C    0.000000
    22  C    1.398102   0.000000
    23  H    3.905121   2.520679   0.000000
    24  H    4.993245   3.953998   2.576820   0.000000
    25  H    5.231036   4.194183   2.951205   1.772185   0.000000
    26  H    6.735133   5.536995   3.409909   2.390828   3.597197
    27  H    8.789509   7.477895   5.044498   4.687441   5.388738
    28  H   10.648570   9.272494   6.756946   6.600867   6.688498
    29  H   10.434530   9.044268   6.598601   6.893143   6.600874
    30  H    9.395840   8.014264   5.624643   6.598615   6.756962
    31  H   10.910134   9.591510   7.405605   8.670852   8.966226
    32  H   13.311655  12.010214   9.859678  11.084153  11.339883
    33  H   15.047376  13.689671  11.359683  12.185152  12.331655
    34  H   14.717899  13.324609  10.855883  11.208879  11.253463
    35  H   12.608242  11.214223   8.708108   8.846847   8.873716
    36  H    8.578443   7.230854   4.996293   5.522870   4.797338
    37  H    6.451702   5.192196   3.330509   3.772547   2.628799
    38  H    3.865855   3.394782   3.687105   2.635337   2.302593
    39  H    3.390175   3.861620   5.395842   4.811764   4.733438
    40  H    2.152857   3.401232   5.752073   6.128301   6.277713
    41  H    1.086503   2.156262   4.596106   5.953694   6.239709
    42  H    2.142973   1.087344   2.336421   4.377225   4.666793
                   26         27         28         29         30
    26  H    0.000000
    27  H    2.462102   0.000000
    28  H    4.797323   2.628778   0.000000
    29  H    5.522868   3.772542   1.772186   0.000000
    30  H    4.996337   3.330559   2.951207   2.576812   0.000000
    31  H    6.951079   5.167828   4.666794   4.377214   2.336419
    32  H    9.265690   7.248711   6.239699   5.953690   4.596108
    33  H   10.252827   7.944963   6.277691   6.128312   5.752076
    34  H    9.282105   6.880355   4.733412   4.811792   5.395848
    35  H    6.988933   4.651388   2.302567   2.635370   3.687110
    36  H    4.967176   4.311951   3.597211   2.390838   3.409871
    37  H    4.311952   4.963552   5.388746   4.687448   5.044485
    38  H    5.023590   7.241207   8.873717   8.846869   8.708125
    39  H    7.130997   9.468237  11.253458  11.208901  10.855891
    40  H    8.169622  10.424973  12.331641  12.185159  11.359679
    41  H    7.519607   9.474423  11.339861  11.084140   9.859664
    42  H    5.546148   7.231338   8.966208   8.670833   7.405597
                   31         32         33         34         35
    31  H    0.000000
    32  H    2.460189   0.000000
    33  H    4.285912   2.483155   0.000000
    34  H    4.948338   4.291269   2.481396   0.000000
    35  H    4.308120   4.952111   4.278825   2.445924   0.000000
    36  H    5.546103   7.519585   8.169637   7.131041   5.023630
    37  H    7.231319   9.474420  10.424992   9.468269   7.241231
    38  H   10.777717  13.213227  14.400056  13.447468  11.081317
    39  H   12.781187  15.236005  16.598954  15.783461  13.447462
    40  H   12.981082  15.402909  17.066521  16.598947  14.400042
    41  H   11.193690  13.542607  15.402905  15.235993  13.213206
    42  H    8.811645  11.193702  12.981087  12.781181  10.777701
                   36         37         38         39         40
    36  H    0.000000
    37  H    2.462103   0.000000
    38  H    6.988972   4.651437   0.000000
    39  H    9.282143   6.880403   2.445927   0.000000
    40  H   10.252833   7.944977   4.278829   2.481397   0.000000
    41  H    9.265652   7.248679   4.952112   4.291268   2.483156
    42  H    6.951022   5.167770   4.308117   4.948334   4.285910
                   41         42
    41  H    0.000000
    42  H    2.460188   0.000000
 Stoichiometry    C20H20N2
 Framework group  C1[X(C20H20N2)]
 Deg. of freedom   120
 Full point group                 C1      NOp   1
 Largest Abelian subgroup         C1      NOp   1
 Largest concise Abelian subgroup C1      NOp   1
                         Standard orientation:                         
 ---------------------------------------------------------------------
 Center     Atomic      Atomic             Coordinates (Angstroms)
 Number     Number       Type             X           Y           Z
 ---------------------------------------------------------------------
      1          6           0       -4.763759    0.416866    0.067031
      2          7           0       -3.407443    0.113078    0.219258
      3          6           0       -2.916865   -1.200199   -0.174417
      4          6           0       -1.407867   -1.213406   -0.088690
      5          6           0       -0.623179   -1.204479   -1.249102
      6          6           0        0.770813   -1.205041   -1.160470
      7          6           0        1.407865   -1.213398    0.088723
      8          6           0        2.916864   -1.200186    0.174448
      9          7           0        3.407436    0.113093   -0.219223
     10          6           0        4.763758    0.416872   -0.067029
     11          6           0        5.153625    1.764201   -0.095310
     12          6           0        6.498734    2.136511   -0.013109
     13          6           0        7.485394    1.160129    0.070746
     14          6           0        7.124276   -0.183566    0.057191
     15          6           0        5.775777   -0.549455   -0.025912
     16          6           0        0.623177   -1.204447    1.249135
     17          6           0       -0.770815   -1.205018    1.160503
     18          6           0       -5.775782   -0.549454    0.025860
     19          6           0       -7.124276   -0.183555   -0.057274
     20          6           0       -7.485388    1.160141   -0.070807
     21          6           0       -6.498725    2.136516    0.013107
     22          6           0       -5.153621    1.764195    0.095337
     23          1           0       -2.809711    0.862490   -0.121078
     24          1           0       -3.231776   -1.440288   -1.197681
     25          1           0       -3.308454   -1.981781    0.488008
     26          1           0       -1.090404   -1.191284   -2.231403
     27          1           0        1.366508   -1.187234   -2.071665
     28          1           0        3.308452   -1.981764   -0.487982
     29          1           0        3.231778   -1.440277    1.197710
     30          1           0        2.809714    0.862505    0.121132
     31          1           0        4.401982    2.544903   -0.183942
     32          1           0        6.771264    3.188210   -0.025227
     33          1           0        8.532270    1.444440    0.130284
     34          1           0        7.891101   -0.952492    0.099479
     35          1           0        5.540304   -1.608328   -0.062308
     36          1           0        1.090402   -1.191224    2.231435
     37          1           0       -1.366511   -1.187193    2.071698
     38          1           0       -5.540313   -1.608329    0.062248
     39          1           0       -7.891104   -0.952475   -0.099603
     40          1           0       -8.532261    1.444460   -0.130368
     41          1           0       -6.771249    3.188216    0.025248
     42          1           0       -4.401977    2.544890    0.184014
 ---------------------------------------------------------------------
 Rotational constants (GHZ):           0.9578970           0.0744816           0.0709474
 Standard basis: 6-31G(d,p) (6D, 7F)
 There are   430 symmetry adapted cartesian basis functions of A   symmetry.
 There are   430 symmetry adapted basis functions of A   symmetry.
   430 basis functions,   756 primitive gaussians,   430 cartesian basis functions
    77 alpha electrons       77 beta electrons
       nuclear repulsion energy      1499.5061189036 Hartrees.
 NAtoms=   42 NActive=   42 NUniq=   42 SFac= 1.00D+00 NAtFMM=   60 NAOKFM=F Big=F
 Integral buffers will be    131072 words long.
 Raffenetti 2 integral format.
 Two-electron integral symmetry is turned on.
 Force inversion solution in PCM.
 ------------------------------------------------------------------------------
 Polarizable Continuum Model (PCM)
 =================================
 Model                : PCM.
 Atomic radii         : UFF (Universal Force Field).
 Polarization charges : Total charges.
 Charge compensation  : None.
 Solution method      : Matrix inversion.
 Cavity type          : Scaled VdW (van der Waals Surface) (Alpha=1.100).
 Cavity algorithm     : GePol (No added spheres)
                        Default sphere list used, NSphG=   42.
                        Lebedev-Laikov grids with approx.  5.0 points / Ang**2.
                        Smoothing algorithm: York/Karplus (Gamma=1.0000).
                        Polarization charges: spherical gaussians, with
                                              point-specific exponents (IZeta= 3).
                        Self-potential: point-specific (ISelfS= 7).
                        Self-field    : sphere-specific E.n sum rule (ISelfD= 2).
 1st derivatives      : Analytical E(r).r(x)/FMM algorithm (CHGder, D1EAlg=3).
                        Cavity 1st derivative terms included.
 2nd derivatives      : Analytical E(r).r(xy)/FMM algorithm (CHGder, D2EAlg=3).
                        Cavity 2nd derivative terms included.
 Solvent              : Water, Eps=  78.355300 Eps(inf)=   1.777849
 ------------------------------------------------------------------------------
 One-electron integrals computed using PRISM.
 NBasis=   430 RedAO= T EigKep=  4.26D-04  NBF=   430
 NBsUse=   430 1.00D-06 EigRej= -1.00D+00 NBFU=   430
 ExpMin= 1.61D-01 ExpMax= 4.17D+03 ExpMxC= 6.27D+02 IAcc=3 IRadAn=         5 AccDes= 0.00D+00
 Harris functional with IExCor=  402 and IRadAn=       5 diagonalized for initial guess.
 HarFok:  IExCor=  402 AccDes= 0.00D+00 IRadAn=         5 IDoV= 1 UseB2=F ITyADJ=14
 ICtDFT=  3500011 ScaDFX=  1.000000  1.000000  1.000000  1.000000
 FoFCou: FMM=F IPFlag=           0 FMFlag=      100000 FMFlg1=           0
         NFxFlg=           0 DoJE=T BraDBF=F KetDBF=T FulRan=T
         wScrn=  0.000000 ICntrl=       500 IOpCl=  0 I1Cent=   200000004 NGrid=           0
         NMat0=    1 NMatS0=      1 NMatT0=    0 NMatD0=    1 NMtDS0=    0 NMtDT0=    0
 Petite list used in FoFCou.
 Requested convergence on RMS density matrix=1.00D-08 within  32 cycles.
 Requested convergence on MAX density matrix=1.00D-06.
 Requested convergence on             energy=1.00D-06.
 No special actions if energy rises.
 Inv3:  Mode=1 IEnd=    29994732.
 Iteration    1 A*A^-1 deviation from unit magnitude is 3.00D-15 for   2299.
 Iteration    1 A*A^-1 deviation from orthogonality  is 2.11D-15 for   2340   1008.
 Iteration    1 A^-1*A deviation from unit magnitude is 3.00D-15 for   3039.
 Iteration    1 A^-1*A deviation from orthogonality  is 3.44D-15 for   2524   1472.
 Error on total polarization charges =  0.01355
 SCF Done:  E(RB3LYP) =  -883.715014515     A.U. after   11 cycles
            NFock= 11  Conv=0.96D-08     -V/T= 2.0097
 QCSCF skips out because SCF is already converged.
 DoSCS=F DFT=T ScalE2(SS,OS)=  1.000000  1.000000
 Range of M.O.s used for correlation:     1   430
 NBasis=   430 NAE=    77 NBE=    77 NFC=     0 NFV=     0
 NROrb=    430 NOA=    77 NOB=    77 NVA=   353 NVB=   353
 Symmetrizing basis deriv contribution to polar:
 IMax=3 JMax=2 DiffMx= 0.00D+00
 G2DrvN: will do    43 centers at a time, making    1 passes.
 Calling FoFCou, ICntrl=  3107 FMM=F I1Cent=   0 AccDes= 0.00D+00.
 NEqPCM:  Using equilibrium solvation (IEInf=0, Eps=  78.3553, EpsInf=   1.7778)
 G2PCM: DoFxE=T DoFxN=T DoGrad=T DoDP/DQ/DG/TGxP=FFFF NFrqRd=   0 IEInf=0 SqF1=F DoCFld=F IF1Alg=4.
 End of G2Drv F.D. properties file   721 does not exist.
 End of G2Drv F.D. properties file   722 does not exist.
 End of G2Drv F.D. properties file   788 does not exist.
          IDoAtm=111111111111111111111111111111111111111111
 NEqPCM:  Using equilibrium solvation (IEInf=0, Eps=  78.3553, EpsInf=   1.7778)
          Differentiating once with respect to nuclear coordinates.
 CalDSu exits because no D1Ps are significant.
          There are   129 degrees of freedom in the 1st order CPHF.  IDoFFX=6 NUNeed=     0.
    123 vectors produced by pass  0 Test12= 2.72D-14 1.00D-09 XBig12= 1.60D-01 1.91D-01.
 AX will form   123 AO Fock derivatives at one time.
    123 vectors produced by pass  1 Test12= 2.72D-14 1.00D-09 XBig12= 3.71D-02 3.85D-02.
    123 vectors produced by pass  2 Test12= 2.72D-14 1.00D-09 XBig12= 2.13D-04 2.88D-03.
    123 vectors produced by pass  3 Test12= 2.72D-14 1.00D-09 XBig12= 5.51D-07 1.13D-04.
    123 vectors produced by pass  4 Test12= 2.72D-14 1.00D-09 XBig12= 6.41D-10 4.25D-06.
     85 vectors produced by pass  5 Test12= 2.72D-14 1.00D-09 XBig12= 6.93D-13 9.58D-08.
     12 vectors produced by pass  6 Test12= 2.72D-14 1.00D-09 XBig12= 7.45D-16 3.55D-09.
 InvSVY:  IOpt=1 It=  1 EMax= 4.44D-16
 Solved reduced A of dimension   712 with   129 vectors.
 End of Minotr F.D. properties file   721 does not exist.
 End of Minotr F.D. properties file   722 does not exist.
 End of Minotr F.D. properties file   788 does not exist.

 **********************************************************************

            Population analysis using the SCF density.

 **********************************************************************

 Orbital symmetries:
       Occupied  (A) (A) (A) (A) (A) (A) (A) (A) (A) (A) (A) (A)
                 (A) (A) (A) (A) (A) (A) (A) (A) (A) (A) (A) (A)
                 (A) (A) (A) (A) (A) (A) (A) (A) (A) (A) (A) (A)
                 (A) (A) (A) (A) (A) (A) (A) (A) (A) (A) (A) (A)
                 (A) (A) (A) (A) (A) (A) (A) (A) (A) (A) (A) (A)
                 (A) (A) (A) (A) (A) (A) (A) (A) (A) (A) (A) (A)
                 (A) (A) (A) (A) (A)
       Virtual   (A) (A) (A) (A) (A) (A) (A) (A) (A) (A) (A) (A)
                 (A) (A) (A) (A) (A) (A) (A) (A) (A) (A) (A) (A)
                 (A) (A) (A) (A) (A) (A) (A) (A) (A) (A) (A) (A)
                 (A) (A) (A) (A) (A) (A) (A) (A) (A) (A) (A) (A)
                 (A) (A) (A) (A) (A) (A) (A) (A) (A) (A) (A) (A)
                 (A) (A) (A) (A) (A) (A) (A) (A) (A) (A) (A) (A)
                 (A) (A) (A) (A) (A) (A) (A) (A) (A) (A) (A) (A)
                 (A) (A) (A) (A) (A) (A) (A) (A) (A) (A) (A) (A)
                 (A) (A) (A) (A) (A) (A) (A) (A) (A) (A) (A) (A)
                 (A) (A) (A) (A) (A) (A) (A) (A) (A) (A) (A) (A)
                 (A) (A) (A) (A) (A) (A) (A) (A) (A) (A) (A) (A)
                 (A) (A) (A) (A) (A) (A) (A) (A) (A) (A) (A) (A)
                 (A) (A) (A) (A) (A) (A) (A) (A) (A) (A) (A) (A)
                 (A) (A) (A) (A) (A) (A) (A) (A) (A) (A) (A) (A)
                 (A) (A) (A) (A) (A) (A) (A) (A) (A) (A) (A) (A)
                 (A) (A) (A) (A) (A) (A) (A) (A) (A) (A) (A) (A)
                 (A) (A) (A) (A) (A) (A) (A) (A) (A) (A) (A) (A)
                 (A) (A) (A) (A) (A) (A) (A) (A) (A) (A) (A) (A)
                 (A) (A) (A) (A) (A) (A) (A) (A) (A) (A) (A) (A)
                 (A) (A) (A) (A) (A) (A) (A) (A) (A) (A) (A) (A)
                 (A) (A) (A) (A) (A) (A) (A) (A) (A) (A) (A) (A)
                 (A) (A) (A) (A) (A) (A) (A) (A) (A) (A) (A) (A)
                 (A) (A) (A) (A) (A) (A) (A) (A) (A) (A) (A) (A)
                 (A) (A) (A) (A) (A) (A) (A) (A) (A) (A) (A) (A)
                 (A) (A) (A) (A) (A) (A) (A) (A) (A) (A) (A) (A)
                 (A) (A) (A) (A) (A) (A) (A) (A) (A) (A) (A) (A)
                 (A) (A) (A) (A) (A) (A) (A) (A) (A) (A) (A) (A)
                 (A) (A) (A) (A) (A) (A) (A) (A) (A) (A) (A) (A)
                 (A) (A) (A) (A) (A) (A) (A) (A) (A) (A) (A) (A)
                 (A) (A) (A) (A) (A)
 The electronic state is 1-A.
 Alpha  occ. eigenvalues --  -14.34240 -14.34240 -10.22487 -10.22487 -10.21975
 Alpha  occ. eigenvalues --  -10.21975 -10.20036 -10.20035 -10.19361 -10.19359
 Alpha  occ. eigenvalues --  -10.19258 -10.19258 -10.18695 -10.18695 -10.18667
 Alpha  occ. eigenvalues --  -10.18667 -10.18194 -10.18194 -10.18171 -10.18171
 Alpha  occ. eigenvalues --  -10.17700 -10.17700  -0.93462  -0.93390  -0.86107
 Alpha  occ. eigenvalues --   -0.84068  -0.83561  -0.78315  -0.74728  -0.74496
 Alpha  occ. eigenvalues --   -0.73986  -0.73844  -0.72187  -0.68865  -0.65254
 Alpha  occ. eigenvalues --   -0.61158  -0.60992  -0.60388  -0.58829  -0.58372
 Alpha  occ. eigenvalues --   -0.57304  -0.52839  -0.52618  -0.50436  -0.49287
 Alpha  occ. eigenvalues --   -0.48021  -0.47199  -0.46495  -0.46351  -0.45251
 Alpha  occ. eigenvalues --   -0.44108  -0.43579  -0.42916  -0.42225  -0.41665
 Alpha  occ. eigenvalues --   -0.41320  -0.41195  -0.41064  -0.40706  -0.38258
 Alpha  occ. eigenvalues --   -0.37219  -0.36478  -0.36339  -0.35120  -0.34973
 Alpha  occ. eigenvalues --   -0.34173  -0.33714  -0.33617  -0.33581  -0.29560
 Alpha  occ. eigenvalues --   -0.29475  -0.25579  -0.24749  -0.24749  -0.24709
 Alpha  occ. eigenvalues --   -0.20182  -0.20088
 Alpha virt. eigenvalues --   -0.01422  -0.00581  -0.00015  -0.00008   0.01663
 Alpha virt. eigenvalues --    0.01836   0.09546   0.09847   0.10118   0.10884
 Alpha virt. eigenvalues --    0.11024   0.11117   0.13022   0.13387   0.14524
 Alpha virt. eigenvalues --    0.15670   0.15797   0.15928   0.16162   0.16892
 Alpha virt. eigenvalues --    0.16954   0.17555   0.17770   0.19123   0.19302
 Alpha virt. eigenvalues --    0.19863   0.19977   0.20210   0.21372   0.22711
 Alpha virt. eigenvalues --    0.23120   0.24833   0.25404   0.26687   0.28286
 Alpha virt. eigenvalues --    0.30702   0.30726   0.31323   0.32682   0.33341
 Alpha virt. eigenvalues --    0.33391   0.34393   0.34652   0.35545   0.35804
 Alpha virt. eigenvalues --    0.36832   0.37066   0.47250   0.47270   0.48260
 Alpha virt. eigenvalues --    0.50725   0.51884   0.52237   0.52320   0.52761
 Alpha virt. eigenvalues --    0.53307   0.53779   0.53944   0.54597   0.55074
 Alpha virt. eigenvalues --    0.56046   0.56619   0.56625   0.57307   0.57675
 Alpha virt. eigenvalues --    0.57990   0.58904   0.59125   0.59564   0.59765
 Alpha virt. eigenvalues --    0.60010   0.60027   0.60104   0.60315   0.61270
 Alpha virt. eigenvalues --    0.61471   0.61666   0.61794   0.61937   0.62572
 Alpha virt. eigenvalues --    0.62652   0.63240   0.63910   0.65078   0.65267
 Alpha virt. eigenvalues --    0.66261   0.67031   0.67442   0.69530   0.69795
 Alpha virt. eigenvalues --    0.73126   0.73984   0.74096   0.77705   0.78104
 Alpha virt. eigenvalues --    0.78870   0.80040   0.80292   0.81591   0.81736
 Alpha virt. eigenvalues --    0.82203   0.82222   0.83046   0.83085   0.83517
 Alpha virt. eigenvalues --    0.83877   0.84130   0.84524   0.84587   0.84765
 Alpha virt. eigenvalues --    0.85982   0.86974   0.88932   0.88958   0.89320
 Alpha virt. eigenvalues --    0.89854   0.90363   0.91860   0.92686   0.93008
 Alpha virt. eigenvalues --    0.94424   0.94999   0.96087   0.96461   0.97961
 Alpha virt. eigenvalues --    0.98957   0.99730   1.01041   1.01592   1.03199
 Alpha virt. eigenvalues --    1.03821   1.05082   1.06301   1.10072   1.10138
 Alpha virt. eigenvalues --    1.11568   1.12073   1.13749   1.15843   1.16154
 Alpha virt. eigenvalues --    1.16942   1.17231   1.18152   1.18607   1.22706
 Alpha virt. eigenvalues --    1.23824   1.24620   1.24739   1.26817   1.27581
 Alpha virt. eigenvalues --    1.29447   1.29832   1.34800   1.34895   1.35889
 Alpha virt. eigenvalues --    1.36387   1.40207   1.40409   1.40754   1.40910
 Alpha virt. eigenvalues --    1.41471   1.41614   1.41785   1.42676   1.42717
 Alpha virt. eigenvalues --    1.44084   1.44848   1.45640   1.46656   1.49682
 Alpha virt. eigenvalues --    1.51021   1.51479   1.54747   1.58569   1.63618
 Alpha virt. eigenvalues --    1.68728   1.70938   1.71352   1.75627   1.75776
 Alpha virt. eigenvalues --    1.76304   1.76844   1.77808   1.79612   1.80806
 Alpha virt. eigenvalues --    1.81046   1.81130   1.81798   1.83541   1.84641
 Alpha virt. eigenvalues --    1.84830   1.87687   1.88290   1.88725   1.89206
 Alpha virt. eigenvalues --    1.91271   1.91458   1.92703   1.92820   1.93107
 Alpha virt. eigenvalues --    1.93566   1.95228   1.95640   1.96213   1.96466
 Alpha virt. eigenvalues --    1.96743   1.97599   1.98032   1.98395   1.98947
 Alpha virt. eigenvalues --    2.00632   2.01190   2.01283   2.02830   2.02986
 Alpha virt. eigenvalues --    2.06341   2.06604   2.06804   2.09808   2.10830
 Alpha virt. eigenvalues --    2.11363   2.11928   2.12470   2.18831   2.19299
 Alpha virt. eigenvalues --    2.23831   2.23872   2.24970   2.26435   2.27113
 Alpha virt. eigenvalues --    2.27164   2.29599   2.30632   2.30723   2.31908
 Alpha virt. eigenvalues --    2.32277   2.32941   2.33236   2.34317   2.36577
 Alpha virt. eigenvalues --    2.36958   2.38381   2.38389   2.38926   2.38977
 Alpha virt. eigenvalues --    2.40158   2.40481   2.41052   2.42001   2.42055
 Alpha virt. eigenvalues --    2.43077   2.45354   2.45422   2.45979   2.46008
 Alpha virt. eigenvalues --    2.46166   2.46477   2.47381   2.48631   2.50606
 Alpha virt. eigenvalues --    2.50938   2.51040   2.52302   2.53018   2.54107
 Alpha virt. eigenvalues --    2.55289   2.57935   2.57997   2.59341   2.59556
 Alpha virt. eigenvalues --    2.59745   2.60235   2.61520   2.61610   2.62795
 Alpha virt. eigenvalues --    2.64531   2.65321   2.67197   2.68055   2.70602
 Alpha virt. eigenvalues --    2.70808   2.72178   2.73449   2.73749   2.74487
 Alpha virt. eigenvalues --    2.75567   2.76653   2.78303   2.78692   2.80531
 Alpha virt. eigenvalues --    2.83149   2.83255   2.85192   2.86728   2.87935
 Alpha virt. eigenvalues --    2.90427   2.91243   2.96872   2.98342   3.01770
 Alpha virt. eigenvalues --    3.06110   3.06235   3.06523   3.10581   3.11177
 Alpha virt. eigenvalues --    3.19633   3.19645   3.19999   3.24416   3.24423
 Alpha virt. eigenvalues --    3.24443   3.25554   3.25559   3.26260   3.28933
 Alpha virt. eigenvalues --    3.31447   3.34156   3.34629   3.37507   3.41288
 Alpha virt. eigenvalues --    3.41912   3.44540   3.44814   3.49961   3.50599
 Alpha virt. eigenvalues --    3.50837   3.53431   3.54634   3.82159   3.90185
 Alpha virt. eigenvalues --    3.90202   4.13170   4.13431   4.13500   4.13511
 Alpha virt. eigenvalues --    4.15225   4.15694   4.16122   4.16129   4.20015
 Alpha virt. eigenvalues --    4.20316   4.21815   4.40248   4.43512   4.43953
 Alpha virt. eigenvalues --    4.43968   4.45492   4.46778   4.56573   4.59631
 Alpha virt. eigenvalues --    4.82643   4.84022   4.85315
          Condensed to atoms (all electrons):
               1          2          3          4          5          6
     1  C    4.579073   0.278748  -0.033155   0.004204  -0.000166   0.000003
     2  N    0.278748   6.994608   0.273843  -0.053886  -0.001580  -0.000106
     3  C   -0.033155   0.273843   4.891632   0.358463  -0.048422   0.006635
     4  C    0.004204  -0.053886   0.358463   4.782493   0.544374  -0.032739
     5  C   -0.000166  -0.001580  -0.048422   0.544374   4.921796   0.489790
     6  C    0.000003  -0.000106   0.006635  -0.032739   0.489790   4.931426
     7  C   -0.000000   0.000030   0.000325  -0.027223  -0.030713   0.528551
     8  C    0.000000   0.000000  -0.000001   0.000325   0.005716  -0.061207
     9  N    0.000000  -0.000000   0.000000   0.000030   0.000060   0.003397
    10  C   -0.000000   0.000000   0.000000  -0.000000   0.000002   0.000573
    11  C    0.000000  -0.000000  -0.000000   0.000000   0.000000  -0.000008
    12  C    0.000000  -0.000000   0.000000   0.000000   0.000000  -0.000000
    13  C   -0.000000  -0.000000  -0.000000  -0.000000  -0.000000   0.000000
    14  C    0.000000   0.000000  -0.000000  -0.000000   0.000000  -0.000000
    15  C    0.000000   0.000000   0.000000   0.000000  -0.000000  -0.000042
    16  C    0.000002   0.000060   0.005716  -0.030713  -0.049967  -0.036851
    17  C    0.000573   0.003396  -0.061208   0.528550  -0.036851  -0.049875
    18  C    0.531010  -0.070906  -0.006663   0.000729   0.000005  -0.000000
    19  C   -0.018655   0.004966  -0.000134  -0.000007   0.000000  -0.000000
    20  C   -0.036274   0.000357   0.000019   0.000000   0.000000   0.000000
    21  C   -0.017066   0.004784  -0.000165   0.000002  -0.000000   0.000000
    22  C    0.519471  -0.066338   0.004507  -0.000339  -0.000015   0.000000
    23  H   -0.025817   0.338935  -0.043602   0.002522   0.003386  -0.000165
    24  H    0.002838  -0.056455   0.369150  -0.031765  -0.008473   0.000130
    25  H   -0.008827  -0.041243   0.372813  -0.022060   0.003871  -0.000266
    26  H   -0.000010   0.000079  -0.009165  -0.041029   0.367824  -0.037890
    27  H   -0.000000   0.000000  -0.000168   0.003995  -0.036623   0.369591
    28  H   -0.000000   0.000000   0.000000   0.000026  -0.000135  -0.009541
    29  H   -0.000000  -0.000000  -0.000000  -0.000003  -0.000164   0.006851
    30  H   -0.000000   0.000000  -0.000000  -0.000023  -0.000175   0.000147
    31  H    0.000000  -0.000000   0.000000   0.000000  -0.000000   0.000002
    32  H    0.000000  -0.000000  -0.000000   0.000000  -0.000000  -0.000000
    33  H    0.000000   0.000000  -0.000000  -0.000000  -0.000000   0.000000
    34  H    0.000000  -0.000000  -0.000000   0.000000  -0.000000   0.000000
    35  H   -0.000000   0.000000   0.000000   0.000000  -0.000000   0.000008
    36  H   -0.000000  -0.000002  -0.000165   0.003786   0.000571   0.005340
    37  H   -0.000091   0.003397  -0.008122  -0.045684   0.005080   0.000599
    38  H   -0.042969  -0.009745   0.004881   0.000095  -0.000008  -0.000000
    39  H    0.003631  -0.000105   0.000000  -0.000000  -0.000000  -0.000000
    40  H    0.000740   0.000004  -0.000000  -0.000000   0.000000   0.000000
    41  H    0.003686  -0.000106   0.000002  -0.000000  -0.000000  -0.000000
    42  H   -0.046044  -0.008518   0.000056  -0.000025  -0.000002  -0.000000
               7          8          9         10         11         12
     1  C   -0.000000   0.000000   0.000000  -0.000000   0.000000   0.000000
     2  N    0.000030   0.000000  -0.000000   0.000000  -0.000000  -0.000000
     3  C    0.000325  -0.000001   0.000000   0.000000  -0.000000   0.000000
     4  C   -0.027223   0.000325   0.000030  -0.000000   0.000000   0.000000
     5  C   -0.030713   0.005716   0.000060   0.000002   0.000000   0.000000
     6  C    0.528551  -0.061207   0.003397   0.000573  -0.000008  -0.000000
     7  C    4.782492   0.358462  -0.053886   0.004204  -0.000339   0.000002
     8  C    0.358462   4.891633   0.273843  -0.033155   0.004507  -0.000165
     9  N   -0.053886   0.273843   6.994608   0.278748  -0.066338   0.004784
    10  C    0.004204  -0.033155   0.278748   4.579073   0.519471  -0.017066
    11  C   -0.000339   0.004507  -0.066338   0.519471   4.975937   0.536731
    12  C    0.000002  -0.000165   0.004784  -0.017066   0.536731   4.816083
    13  C    0.000000   0.000019   0.000357  -0.036274  -0.045831   0.544193
    14  C   -0.000007  -0.000134   0.004966  -0.018655  -0.043004  -0.033086
    15  C    0.000729  -0.006663  -0.070906   0.531009  -0.055681  -0.042726
    16  C    0.544373  -0.048422  -0.001580  -0.000166  -0.000015  -0.000000
    17  C   -0.032739   0.006635  -0.000106   0.000003   0.000000   0.000000
    18  C    0.000000   0.000000   0.000000   0.000000  -0.000000   0.000000
    19  C   -0.000000  -0.000000   0.000000   0.000000   0.000000   0.000000
    20  C   -0.000000  -0.000000  -0.000000  -0.000000   0.000000   0.000000
    21  C    0.000000   0.000000  -0.000000   0.000000  -0.000000   0.000000
    22  C    0.000000  -0.000000  -0.000000   0.000000  -0.000000  -0.000000
    23  H   -0.000023  -0.000000   0.000000  -0.000000   0.000000   0.000000
    24  H   -0.000003  -0.000000  -0.000000  -0.000000   0.000000  -0.000000
    25  H    0.000026   0.000000   0.000000  -0.000000   0.000000  -0.000000
    26  H    0.003786  -0.000165  -0.000002  -0.000000   0.000000  -0.000000
    27  H   -0.045684  -0.008122   0.003397  -0.000091  -0.000001  -0.000000
    28  H   -0.022060   0.372813  -0.041243  -0.008828  -0.000285   0.000004
    29  H   -0.031765   0.369150  -0.056455   0.002838   0.000842  -0.000004
    30  H    0.002521  -0.043601   0.338935  -0.025817  -0.012123  -0.000033
    31  H   -0.000025   0.000056  -0.008518  -0.046044   0.366304  -0.038035
    32  H   -0.000000   0.000002  -0.000106   0.003686  -0.037104   0.369609
    33  H   -0.000000  -0.000000   0.000004   0.000740   0.004975  -0.042217
    34  H   -0.000000   0.000000  -0.000105   0.003631   0.000840   0.004662
    35  H    0.000095   0.004881  -0.009745  -0.042969   0.005373   0.000441
    36  H   -0.041029  -0.009165   0.000079  -0.000010  -0.000000  -0.000000
    37  H    0.003995  -0.000168   0.000000  -0.000000   0.000000  -0.000000
    38  H    0.000000   0.000000   0.000000  -0.000000   0.000000   0.000000
    39  H    0.000000  -0.000000  -0.000000   0.000000   0.000000   0.000000
    40  H   -0.000000  -0.000000   0.000000   0.000000   0.000000   0.000000
    41  H    0.000000  -0.000000  -0.000000   0.000000  -0.000000   0.000000
    42  H    0.000000   0.000000  -0.000000   0.000000  -0.000000  -0.000000
              13         14         15         16         17         18
     1  C   -0.000000   0.000000   0.000000   0.000002   0.000573   0.531010
     2  N   -0.000000   0.000000   0.000000   0.000060   0.003396  -0.070906
     3  C   -0.000000  -0.000000   0.000000   0.005716  -0.061208  -0.006663
     4  C   -0.000000  -0.000000   0.000000  -0.030713   0.528550   0.000729
     5  C   -0.000000   0.000000  -0.000000  -0.049967  -0.036851   0.000005
     6  C    0.000000  -0.000000  -0.000042  -0.036851  -0.049875  -0.000000
     7  C    0.000000  -0.000007   0.000729   0.544373  -0.032739   0.000000
     8  C    0.000019  -0.000134  -0.006663  -0.048422   0.006635   0.000000
     9  N    0.000357   0.004966  -0.070906  -0.001580  -0.000106   0.000000
    10  C   -0.036274  -0.018655   0.531009  -0.000166   0.000003   0.000000
    11  C   -0.045831  -0.043004  -0.055681  -0.000015   0.000000  -0.000000
    12  C    0.544193  -0.033086  -0.042726  -0.000000   0.000000   0.000000
    13  C    4.849992   0.550311  -0.045028   0.000000   0.000000   0.000000
    14  C    0.550311   4.830175   0.527289   0.000000  -0.000000   0.000000
    15  C   -0.045028   0.527289   4.949037   0.000005  -0.000000  -0.000000
    16  C    0.000000   0.000000   0.000005   4.921796   0.489789  -0.000000
    17  C    0.000000  -0.000000  -0.000000   0.489789   4.931427  -0.000042
    18  C    0.000000   0.000000  -0.000000  -0.000000  -0.000042   4.949037
    19  C    0.000000   0.000000   0.000000   0.000000  -0.000000   0.527288
    20  C    0.000000   0.000000   0.000000  -0.000000   0.000000  -0.045028
    21  C    0.000000   0.000000   0.000000   0.000000  -0.000000  -0.042726
    22  C    0.000000   0.000000  -0.000000   0.000000  -0.000008  -0.055682
    23  H    0.000000  -0.000000  -0.000000  -0.000175   0.000147   0.006438
    24  H   -0.000000   0.000000   0.000000  -0.000164   0.006851   0.002937
    25  H    0.000000  -0.000000  -0.000000  -0.000135  -0.009541   0.004064
    26  H    0.000000  -0.000000  -0.000000   0.000571   0.005340   0.000002
    27  H    0.000000  -0.000000  -0.000006   0.005080   0.000599  -0.000000
    28  H   -0.000004   0.000221   0.004064   0.003872  -0.000266  -0.000000
    29  H   -0.000015  -0.000235   0.002937  -0.008473   0.000130   0.000000
    30  H    0.000001  -0.000096   0.006438   0.003386  -0.000165  -0.000000
    31  H    0.005090   0.000395   0.005562  -0.000002  -0.000000   0.000000
    32  H   -0.041423   0.004741   0.000753  -0.000000  -0.000000   0.000000
    33  H    0.370735  -0.041790   0.004966   0.000000   0.000000   0.000000
    34  H   -0.041152   0.369391  -0.036830  -0.000000  -0.000000   0.000000
    35  H    0.004937  -0.039525   0.366980  -0.000008  -0.000000   0.000000
    36  H   -0.000000  -0.000000   0.000002   0.367824  -0.037890  -0.000000
    37  H   -0.000000   0.000000  -0.000000  -0.036623   0.369591  -0.000006
    38  H    0.000000   0.000000   0.000000  -0.000000   0.000008   0.366980
    39  H    0.000000   0.000000   0.000000  -0.000000   0.000000  -0.036830
    40  H    0.000000   0.000000   0.000000  -0.000000   0.000000   0.004966
    41  H    0.000000   0.000000   0.000000  -0.000000  -0.000000   0.000753
    42  H   -0.000000   0.000000   0.000000  -0.000000   0.000002   0.005562
              19         20         21         22         23         24
     1  C   -0.018655  -0.036274  -0.017066   0.519471  -0.025817   0.002838
     2  N    0.004966   0.000357   0.004784  -0.066338   0.338935  -0.056455
     3  C   -0.000134   0.000019  -0.000165   0.004507  -0.043602   0.369150
     4  C   -0.000007   0.000000   0.000002  -0.000339   0.002522  -0.031765
     5  C    0.000000   0.000000  -0.000000  -0.000015   0.003386  -0.008473
     6  C   -0.000000   0.000000   0.000000   0.000000  -0.000165   0.000130
     7  C   -0.000000  -0.000000   0.000000   0.000000  -0.000023  -0.000003
     8  C   -0.000000  -0.000000   0.000000  -0.000000  -0.000000  -0.000000
     9  N    0.000000  -0.000000  -0.000000  -0.000000   0.000000  -0.000000
    10  C    0.000000  -0.000000   0.000000   0.000000  -0.000000  -0.000000
    11  C    0.000000   0.000000  -0.000000  -0.000000   0.000000   0.000000
    12  C    0.000000   0.000000   0.000000  -0.000000   0.000000  -0.000000
    13  C    0.000000   0.000000   0.000000   0.000000   0.000000  -0.000000
    14  C    0.000000   0.000000   0.000000   0.000000  -0.000000   0.000000
    15  C    0.000000   0.000000   0.000000  -0.000000  -0.000000   0.000000
    16  C    0.000000  -0.000000   0.000000   0.000000  -0.000175  -0.000164
    17  C   -0.000000   0.000000  -0.000000  -0.000008   0.000147   0.006851
    18  C    0.527288  -0.045028  -0.042726  -0.055682   0.006438   0.002937
    19  C    4.830176   0.550311  -0.033086  -0.043004  -0.000096  -0.000235
    20  C    0.550311   4.849992   0.544193  -0.045831   0.000001  -0.000015
    21  C   -0.033086   0.544193   4.816083   0.536731  -0.000033  -0.000004
    22  C   -0.043004  -0.045831   0.536731   4.975936  -0.012123   0.000842
    23  H   -0.000096   0.000001  -0.000033  -0.012123   0.450933  -0.001424
    24  H   -0.000235  -0.000015  -0.000004   0.000842  -0.001424   0.653984
    25  H    0.000221  -0.000004   0.000004  -0.000285   0.005893  -0.053187
    26  H   -0.000000  -0.000000  -0.000000  -0.000000   0.000199   0.005969
    27  H    0.000000  -0.000000  -0.000000   0.000000   0.000002  -0.000005
    28  H   -0.000000   0.000000  -0.000000   0.000000  -0.000000   0.000000
    29  H    0.000000  -0.000000  -0.000000   0.000000   0.000000   0.000000
    30  H   -0.000000   0.000000   0.000000   0.000000  -0.000000   0.000000
    31  H    0.000000  -0.000000  -0.000000  -0.000000   0.000000  -0.000000
    32  H    0.000000   0.000000   0.000000  -0.000000   0.000000   0.000000
    33  H    0.000000   0.000000   0.000000   0.000000  -0.000000   0.000000
    34  H    0.000000   0.000000   0.000000   0.000000   0.000000   0.000000
    35  H    0.000000   0.000000   0.000000   0.000000  -0.000000   0.000000
    36  H   -0.000000   0.000000  -0.000000   0.000000   0.000002   0.000002
    37  H   -0.000000   0.000000  -0.000000  -0.000001   0.000178   0.000221
    38  H   -0.039524   0.004937   0.000441   0.005373  -0.000069   0.001337
    39  H    0.369391  -0.041152   0.004662   0.000840   0.000003   0.000001
    40  H   -0.041790   0.370735  -0.042217   0.004975  -0.000000   0.000000
    41  H    0.004741  -0.041424   0.369609  -0.037104  -0.000012   0.000000
    42  H    0.000395   0.005090  -0.038035   0.366304   0.005463   0.000031
              25         26         27         28         29         30
     1  C   -0.008827  -0.000010  -0.000000  -0.000000  -0.000000  -0.000000
     2  N   -0.041243   0.000079   0.000000   0.000000  -0.000000   0.000000
     3  C    0.372813  -0.009165  -0.000168   0.000000  -0.000000  -0.000000
     4  C   -0.022060  -0.041029   0.003995   0.000026  -0.000003  -0.000023
     5  C    0.003871   0.367824  -0.036623  -0.000135  -0.000164  -0.000175
     6  C   -0.000266  -0.037890   0.369591  -0.009541   0.006851   0.000147
     7  C    0.000026   0.003786  -0.045684  -0.022060  -0.031765   0.002521
     8  C    0.000000  -0.000165  -0.008122   0.372813   0.369150  -0.043601
     9  N    0.000000  -0.000002   0.003397  -0.041243  -0.056455   0.338935
    10  C   -0.000000  -0.000000  -0.000091  -0.008828   0.002838  -0.025817
    11  C    0.000000   0.000000  -0.000001  -0.000285   0.000842  -0.012123
    12  C   -0.000000  -0.000000  -0.000000   0.000004  -0.000004  -0.000033
    13  C    0.000000   0.000000   0.000000  -0.000004  -0.000015   0.000001
    14  C   -0.000000  -0.000000  -0.000000   0.000221  -0.000235  -0.000096
    15  C   -0.000000  -0.000000  -0.000006   0.004064   0.002937   0.006438
    16  C   -0.000135   0.000571   0.005080   0.003872  -0.008473   0.003386
    17  C   -0.009541   0.005340   0.000599  -0.000266   0.000130  -0.000165
    18  C    0.004064   0.000002  -0.000000  -0.000000   0.000000  -0.000000
    19  C    0.000221  -0.000000   0.000000  -0.000000   0.000000  -0.000000
    20  C   -0.000004  -0.000000  -0.000000   0.000000  -0.000000   0.000000
    21  C    0.000004  -0.000000  -0.000000  -0.000000  -0.000000   0.000000
    22  C   -0.000285  -0.000000   0.000000   0.000000   0.000000   0.000000
    23  H    0.005893   0.000199   0.000002  -0.000000   0.000000  -0.000000
    24  H   -0.053187   0.005969  -0.000005   0.000000   0.000000   0.000000
    25  H    0.619363   0.000079   0.000003  -0.000000   0.000000  -0.000000
    26  H    0.000079   0.606229  -0.005487  -0.000002   0.000002   0.000002
    27  H    0.000003  -0.005487   0.608973   0.002042   0.000221   0.000178
    28  H   -0.000000  -0.000002   0.002042   0.619362  -0.053187   0.005893
    29  H    0.000000   0.000002   0.000221  -0.053187   0.653984  -0.001424
    30  H   -0.000000   0.000002   0.000178   0.005893  -0.001424   0.450933
    31  H    0.000000   0.000000   0.000001  -0.000009   0.000031   0.005463
    32  H    0.000000   0.000000   0.000000   0.000000   0.000000  -0.000012
    33  H   -0.000000   0.000000  -0.000000   0.000000   0.000000  -0.000000
    34  H    0.000000  -0.000000   0.000000  -0.000001   0.000001   0.000003
    35  H   -0.000000   0.000000   0.000004   0.000331   0.001337  -0.000069
    36  H   -0.000002   0.000017  -0.000165   0.000079   0.005969   0.000199
    37  H    0.002042  -0.000165   0.000018   0.000003  -0.000005   0.000002
    38  H    0.000331   0.000001   0.000000  -0.000000   0.000000  -0.000000
    39  H   -0.000001   0.000000   0.000000   0.000000   0.000000   0.000000
    40  H    0.000000   0.000000   0.000000  -0.000000   0.000000  -0.000000
    41  H    0.000000   0.000000   0.000000   0.000000   0.000000   0.000000
    42  H   -0.000009   0.000000   0.000000   0.000000  -0.000000   0.000000
              31         32         33         34         35         36
     1  C    0.000000   0.000000   0.000000   0.000000  -0.000000  -0.000000
     2  N   -0.000000  -0.000000   0.000000  -0.000000   0.000000  -0.000002
     3  C    0.000000  -0.000000  -0.000000  -0.000000   0.000000  -0.000165
     4  C    0.000000   0.000000  -0.000000   0.000000   0.000000   0.003786
     5  C   -0.000000  -0.000000  -0.000000  -0.000000  -0.000000   0.000571
     6  C    0.000002  -0.000000   0.000000   0.000000   0.000008   0.005340
     7  C   -0.000025  -0.000000  -0.000000  -0.000000   0.000095  -0.041029
     8  C    0.000056   0.000002  -0.000000   0.000000   0.004881  -0.009165
     9  N   -0.008518  -0.000106   0.000004  -0.000105  -0.009745   0.000079
    10  C   -0.046044   0.003686   0.000740   0.003631  -0.042969  -0.000010
    11  C    0.366304  -0.037104   0.004975   0.000840   0.005373  -0.000000
    12  C   -0.038035   0.369609  -0.042217   0.004662   0.000441  -0.000000
    13  C    0.005090  -0.041423   0.370735  -0.041152   0.004937  -0.000000
    14  C    0.000395   0.004741  -0.041790   0.369391  -0.039525  -0.000000
    15  C    0.005562   0.000753   0.004966  -0.036830   0.366980   0.000002
    16  C   -0.000002  -0.000000   0.000000  -0.000000  -0.000008   0.367824
    17  C   -0.000000  -0.000000   0.000000  -0.000000  -0.000000  -0.037890
    18  C    0.000000   0.000000   0.000000   0.000000   0.000000  -0.000000
    19  C    0.000000   0.000000   0.000000   0.000000   0.000000  -0.000000
    20  C   -0.000000   0.000000   0.000000   0.000000   0.000000   0.000000
    21  C   -0.000000   0.000000   0.000000   0.000000   0.000000  -0.000000
    22  C   -0.000000  -0.000000   0.000000   0.000000   0.000000   0.000000
    23  H    0.000000   0.000000  -0.000000   0.000000  -0.000000   0.000002
    24  H   -0.000000   0.000000   0.000000   0.000000   0.000000   0.000002
    25  H    0.000000   0.000000  -0.000000   0.000000  -0.000000  -0.000002
    26  H    0.000000   0.000000   0.000000  -0.000000   0.000000   0.000017
    27  H    0.000001   0.000000  -0.000000   0.000000   0.000004  -0.000165
    28  H   -0.000009   0.000000   0.000000  -0.000001   0.000331   0.000079
    29  H    0.000031   0.000000   0.000000   0.000001   0.001337   0.005969
    30  H    0.005463  -0.000012  -0.000000   0.000003  -0.000069   0.000199
    31  H    0.624436  -0.006426  -0.000186   0.000015  -0.000176   0.000000
    32  H   -0.006426   0.615371  -0.006054  -0.000199   0.000015   0.000000
[...]
   190    C   13  pz     Ryd( 3p)     0.00139
   191    C   13  dxy    Ryd( 3d)     0.00063
   192    C   13  dxz    Ryd( 3d)     0.00039
   193    C   13  dyz    Ryd( 3d)     0.00044
   194    C   13  dx2y2  Ryd( 3d)     0.00072
   195    C   13  dz2    Ryd( 3d)     0.00042

   196    C   14  S      Cor( 1S)     1.99913
   197    C   14  S      Val( 2S)     0.96833
   198    C   14  S      Ryd( 3S)     0.00065
   199    C   14  S      Ryd( 4S)     0.00003
   200    C   14  px     Val( 2p)     1.11029
   201    C   14  px     Ryd( 3p)     0.00485
   202    C   14  py     Val( 2p)     1.12936
   203    C   14  py     Ryd( 3p)     0.00465
   204    C   14  pz     Val( 2p)     1.00760
   205    C   14  pz     Ryd( 3p)     0.00130
   206    C   14  dxy    Ryd( 3d)     0.00069
   207    C   14  dxz    Ryd( 3d)     0.00053
   208    C   14  dyz    Ryd( 3d)     0.00045
   209    C   14  dx2y2  Ryd( 3d)     0.00061
   210    C   14  dz2    Ryd( 3d)     0.00036

   211    C   15  S      Cor( 1S)     1.99906
   212    C   15  S      Val( 2S)     0.96203
   213    C   15  S      Ryd( 3S)     0.00063
   214    C   15  S      Ryd( 4S)     0.00004
   215    C   15  px     Val( 2p)     1.08456
   216    C   15  px     Ryd( 3p)     0.00352
   217    C   15  py     Val( 2p)     1.16386
   218    C   15  py     Ryd( 3p)     0.00383
   219    C   15  pz     Val( 2p)     1.03565
   220    C   15  pz     Ryd( 3p)     0.00132
   221    C   15  dxy    Ryd( 3d)     0.00071
   222    C   15  dxz    Ryd( 3d)     0.00049
   223    C   15  dyz    Ryd( 3d)     0.00040
   224    C   15  dx2y2  Ryd( 3d)     0.00051
   225    C   15  dz2    Ryd( 3d)     0.00036

   226    C   16  S      Cor( 1S)     1.99906
   227    C   16  S      Val( 2S)     0.94345
   228    C   16  S      Ryd( 3S)     0.00055
   229    C   16  S      Ryd( 4S)     0.00003
   230    C   16  px     Val( 2p)     1.08991
   231    C   16  px     Ryd( 3p)     0.00380
   232    C   16  py     Val( 2p)     1.00887
   233    C   16  py     Ryd( 3p)     0.00054
   234    C   16  pz     Val( 2p)     1.17079
   235    C   16  pz     Ryd( 3p)     0.00491
   236    C   16  dxy    Ryd( 3d)     0.00118
   237    C   16  dxz    Ryd( 3d)     0.00067
   238    C   16  dyz    Ryd( 3d)     0.00032
   239    C   16  dx2y2  Ryd( 3d)     0.00036
   240    C   16  dz2    Ryd( 3d)     0.00067

   241    C   17  S      Cor( 1S)     1.99906
   242    C   17  S      Val( 2S)     0.92954
   243    C   17  S      Ryd( 3S)     0.00062
   244    C   17  S      Ryd( 4S)     0.00004
   245    C   17  px     Val( 2p)     1.11327
   246    C   17  px     Ryd( 3p)     0.00425
   247    C   17  py     Val( 2p)     1.18663
   248    C   17  py     Ryd( 3p)     0.00545
   249    C   17  pz     Val( 2p)     1.13370
   250    C   17  pz     Ryd( 3p)     0.00455
   251    C   17  dxy    Ryd( 3d)     0.00041
   252    C   17  dxz    Ryd( 3d)     0.00070
   253    C   17  dyz    Ryd( 3d)     0.00046
   254    C   17  dx2y2  Ryd( 3d)     0.00039
   255    C   17  dz2    Ryd( 3d)     0.00054

   256    C   18  S      Cor( 1S)     1.99906
   257    C   18  S      Val( 2S)     0.96182
   258    C   18  S      Ryd( 3S)     0.00063
   259    C   18  S      Ryd( 4S)     0.00004
   260    C   18  px     Val( 2p)     1.08461
   261    C   18  px     Ryd( 3p)     0.00352
   262    C   18  py     Val( 2p)     1.16404
   263    C   18  py     Ryd( 3p)     0.00383
   264    C   18  pz     Val( 2p)     1.03688
   265    C   18  pz     Ryd( 3p)     0.00133
   266    C   18  dxy    Ryd( 3d)     0.00071
   267    C   18  dxz    Ryd( 3d)     0.00049
   268    C   18  dyz    Ryd( 3d)     0.00040
   269    C   18  dx2y2  Ryd( 3d)     0.00051
   270    C   18  dz2    Ryd( 3d)     0.00036

   271    C   19  S      Cor( 1S)     1.99913
   272    C   19  S      Val( 2S)     0.96816
   273    C   19  S      Ryd( 3S)     0.00065
   274    C   19  S      Ryd( 4S)     0.00003
   275    C   19  px     Val( 2p)     1.11029
   276    C   19  px     Ryd( 3p)     0.00484
   277    C   19  py     Val( 2p)     1.12940
   278    C   19  py     Ryd( 3p)     0.00465
   279    C   19  pz     Val( 2p)     1.00781
   280    C   19  pz     Ryd( 3p)     0.00130
   281    C   19  dxy    Ryd( 3d)     0.00069
   282    C   19  dxz    Ryd( 3d)     0.00053
   283    C   19  dyz    Ryd( 3d)     0.00045
   284    C   19  dx2y2  Ryd( 3d)     0.00061
   285    C   19  dz2    Ryd( 3d)     0.00036

   286    C   20  S      Cor( 1S)     1.99910
   287    C   20  S      Val( 2S)     0.97228
   288    C   20  S      Ryd( 3S)     0.00052
   289    C   20  S      Ryd( 4S)     0.00003
   290    C   20  px     Val( 2p)     1.20388
   291    C   20  px     Ryd( 3p)     0.00497
   292    C   20  py     Val( 2p)     1.04842
   293    C   20  py     Ryd( 3p)     0.00403
   294    C   20  pz     Val( 2p)     0.98208
   295    C   20  pz     Ryd( 3p)     0.00140
   296    C   20  dxy    Ryd( 3d)     0.00063
   297    C   20  dxz    Ryd( 3d)     0.00039
   298    C   20  dyz    Ryd( 3d)     0.00044
   299    C   20  dx2y2  Ryd( 3d)     0.00072
   300    C   20  dz2    Ryd( 3d)     0.00042

   301    C   21  S      Cor( 1S)     1.99913
   302    C   21  S      Val( 2S)     0.96851
   303    C   21  S      Ryd( 3S)     0.00061
   304    C   21  S      Ryd( 4S)     0.00003
   305    C   21  px     Val( 2p)     1.07762
   306    C   21  px     Ryd( 3p)     0.00468
   307    C   21  py     Val( 2p)     1.16780
   308    C   21  py     Ryd( 3p)     0.00481
   309    C   21  pz     Val( 2p)     1.00648
   310    C   21  pz     Ryd( 3p)     0.00113
   311    C   21  dxy    Ryd( 3d)     0.00066
   312    C   21  dxz    Ryd( 3d)     0.00056
   313    C   21  dyz    Ryd( 3d)     0.00041
   314    C   21  dx2y2  Ryd( 3d)     0.00064
   315    C   21  dz2    Ryd( 3d)     0.00037

   316    C   22  S      Cor( 1S)     1.99906
   317    C   22  S      Val( 2S)     0.96302
   318    C   22  S      Ryd( 3S)     0.00067
   319    C   22  S      Ryd( 4S)     0.00004
   320    C   22  px     Val( 2p)     1.12572
   321    C   22  px     Ryd( 3p)     0.00442
   322    C   22  py     Val( 2p)     1.11344
   323    C   22  py     Ryd( 3p)     0.00388
   324    C   22  pz     Val( 2p)     1.03006
   325    C   22  pz     Ryd( 3p)     0.00135
   326    C   22  dxy    Ryd( 3d)     0.00068
   327    C   22  dxz    Ryd( 3d)     0.00051
   328    C   22  dyz    Ryd( 3d)     0.00040
   329    C   22  dx2y2  Ryd( 3d)     0.00055
   330    C   22  dz2    Ryd( 3d)     0.00035

   331    H   23  S      Val( 1S)     0.56236
   332    H   23  S      Ryd( 2S)     0.00279
   333    H   23  px     Ryd( 2p)     0.00034
   334    H   23  py     Ryd( 2p)     0.00048
   335    H   23  pz     Ryd( 2p)     0.00039

   336    H   24  S      Val( 1S)     0.75833
   337    H   24  S      Ryd( 2S)     0.00178
   338    H   24  px     Ryd( 2p)     0.00009
   339    H   24  py     Ryd( 2p)     0.00007
   340    H   24  pz     Ryd( 2p)     0.00037

   341    H   25  S      Val( 1S)     0.77059
   342    H   25  S      Ryd( 2S)     0.00426
   343    H   25  px     Ryd( 2p)     0.00013
   344    H   25  py     Ryd( 2p)     0.00035
   345    H   25  pz     Ryd( 2p)     0.00012

   346    H   26  S      Val( 1S)     0.78180
   347    H   26  S      Ryd( 2S)     0.00094
   348    H   26  px     Ryd( 2p)     0.00010
   349    H   26  py     Ryd( 2p)     0.00014
   350    H   26  pz     Ryd( 2p)     0.00038

   351    H   27  S      Val( 1S)     0.78548
   352    H   27  S      Ryd( 2S)     0.00072
   353    H   27  px     Ryd( 2p)     0.00020
   354    H   27  py     Ryd( 2p)     0.00023
   355    H   27  pz     Ryd( 2p)     0.00026

   356    H   28  S      Val( 1S)     0.77026
   357    H   28  S      Ryd( 2S)     0.00427
   358    H   28  px     Ryd( 2p)     0.00013
   359    H   28  py     Ryd( 2p)     0.00035
   360    H   28  pz     Ryd( 2p)     0.00012

   361    H   29  S      Val( 1S)     0.75769
   362    H   29  S      Ryd( 2S)     0.00176
   363    H   29  px     Ryd( 2p)     0.00009
   364    H   29  py     Ryd( 2p)     0.00007
   365    H   29  pz     Ryd( 2p)     0.00037

   366    H   30  S      Val( 1S)     0.56189
   367    H   30  S      Ryd( 2S)     0.00279
   368    H   30  px     Ryd( 2p)     0.00034
   369    H   30  py     Ryd( 2p)     0.00049
   370    H   30  pz     Ryd( 2p)     0.00039

   371    H   31  S      Val( 1S)     0.74369
   372    H   31  S      Ryd( 2S)     0.00080
   373    H   31  px     Ryd( 2p)     0.00018
   374    H   31  py     Ryd( 2p)     0.00025
   375    H   31  pz     Ryd( 2p)     0.00015

   376    H   32  S      Val( 1S)     0.74144
   377    H   32  S      Ryd( 2S)     0.00070
   378    H   32  px     Ryd( 2p)     0.00011
   379    H   32  py     Ryd( 2p)     0.00035
   380    H   32  pz     Ryd( 2p)     0.00013

   381    H   33  S      Val( 1S)     0.74311
   382    H   33  S      Ryd( 2S)     0.00061
   383    H   33  px     Ryd( 2p)     0.00042
   384    H   33  py     Ryd( 2p)     0.00007
   385    H   33  pz     Ryd( 2p)     0.00010

   386    H   34  S      Val( 1S)     0.74189
   387    H   34  S      Ryd( 2S)     0.00069
   388    H   34  px     Ryd( 2p)     0.00020
   389    H   34  py     Ryd( 2p)     0.00025
   390    H   34  pz     Ryd( 2p)     0.00014

   391    H   35  S      Val( 1S)     0.74034
   392    H   35  S      Ryd( 2S)     0.00094
   393    H   35  px     Ryd( 2p)     0.00010
   394    H   35  py     Ryd( 2p)     0.00034
   395    H   35  pz     Ryd( 2p)     0.00015

   396    H   36  S      Val( 1S)     0.78180
   397    H   36  S      Ryd( 2S)     0.00094
   398    H   36  px     Ryd( 2p)     0.00010
   399    H   36  py     Ryd( 2p)     0.00014
   400    H   36  pz     Ryd( 2p)     0.00038

   401    H   37  S      Val( 1S)     0.78543
   402    H   37  S      Ryd( 2S)     0.00072
   403    H   37  px     Ryd( 2p)     0.00020
   404    H   37  py     Ryd( 2p)     0.00022
   405    H   37  pz     Ryd( 2p)     0.00026

   406    H   38  S      Val( 1S)     0.74066
   407    H   38  S      Ryd( 2S)     0.00095
   408    H   38  px     Ryd( 2p)     0.00010
   409    H   38  py     Ryd( 2p)     0.00034
   410    H   38  pz     Ryd( 2p)     0.00015

   411    H   39  S      Val( 1S)     0.74223
   412    H   39  S      Ryd( 2S)     0.00069
   413    H   39  px     Ryd( 2p)     0.00020
   414    H   39  py     Ryd( 2p)     0.00025
   415    H   39  pz     Ryd( 2p)     0.00014

   416    H   40  S      Val( 1S)     0.74345
   417    H   40  S      Ryd( 2S)     0.00062
   418    H   40  px     Ryd( 2p)     0.00041
   419    H   40  py     Ryd( 2p)     0.00007
   420    H   40  pz     Ryd( 2p)     0.00010

   421    H   41  S      Val( 1S)     0.74177
   422    H   41  S      Ryd( 2S)     0.00070
   423    H   41  px     Ryd( 2p)     0.00011
   424    H   41  py     Ryd( 2p)     0.00035
   425    H   41  pz     Ryd( 2p)     0.00013

   426    H   42  S      Val( 1S)     0.74404
   427    H   42  S      Ryd( 2S)     0.00080
   428    H   42  px     Ryd( 2p)     0.00018
   429    H   42  py     Ryd( 2p)     0.00025
   430    H   42  pz     Ryd( 2p)     0.00015


 Summary of Natural Population Analysis:                  
                                                          
                                       Natural Population 
                Natural  -----------------------------------------------
    Atom  No    Charge         Core      Valence    Rydberg      Total
 -----------------------------------------------------------------------
      C    1    0.17793      1.99902     3.80587    0.01718     5.82207
      N    2   -0.51500      1.99939     5.50402    0.01159     7.51500
      C    3   -0.28250      1.99926     4.26673    0.01651     6.28250
      C    4   -0.20500      1.99902     4.18754    0.01843     6.20500
      C    5   -0.22510      1.99906     4.21302    0.01302     6.22510
      C    6   -0.37977      1.99906     4.36331    0.01740     6.37977
      C    7   -0.20535      1.99902     4.18789    0.01844     6.20535
      C    8   -0.28286      1.99926     4.26708    0.01653     6.28286
      N    9   -0.51205      1.99939     5.50110    0.01156     7.51205
      C   10    0.17805      1.99902     3.80577    0.01717     5.82195
      C   11   -0.24301      1.99906     4.23111    0.01284     6.24301
      C   12   -0.23342      1.99913     4.22038    0.01391     6.23342
      C   13   -0.21751      1.99910     4.20487    0.01354     6.21751
      C   14   -0.22884      1.99913     4.21559    0.01411     6.22884
      C   15   -0.25697      1.99906     4.24611    0.01180     6.25697
      C   16   -0.22509      1.99906     4.21302    0.01302     6.22509
      C   17   -0.37960      1.99906     4.36314    0.01740     6.37960
      C   18   -0.25822      1.99906     4.24735    0.01181     6.25822
      C   19   -0.22889      1.99913     4.21565    0.01411     6.22889
      C   20   -0.21931      1.99910     4.20666    0.01355     6.21931
      C   21   -0.23345      1.99913     4.22042    0.01391     6.23345
      C   22   -0.24414      1.99906     4.23224    0.01284     6.24414
      H   23    0.43364      0.00000     0.56236    0.00400     0.56636
      H   24    0.23936      0.00000     0.75833    0.00231     0.76064
      H   25    0.22455      0.00000     0.77059    0.00486     0.77545
      H   26    0.21664      0.00000     0.78180    0.00156     0.78336
      H   27    0.21313      0.00000     0.78548    0.00139     0.78687
      H   28    0.22487      0.00000     0.77026    0.00487     0.77513
      H   29    0.24002      0.00000     0.75769    0.00230     0.75998
      H   30    0.43411      0.00000     0.56189    0.00400     0.56589
      H   31    0.25493      0.00000     0.74369    0.00138     0.74507
      H   32    0.25727      0.00000     0.74144    0.00129     0.74273
      H   33    0.25569      0.00000     0.74311    0.00120     0.74431
      H   34    0.25683      0.00000     0.74189    0.00127     0.74317
      H   35    0.25812      0.00000     0.74034    0.00154     0.74188
      H   36    0.21664      0.00000     0.78180    0.00156     0.78336
      H   37    0.21317      0.00000     0.78543    0.00140     0.78683
      H   38    0.25780      0.00000     0.74066    0.00154     0.74220
      H   39    0.25649      0.00000     0.74223    0.00128     0.74351
      H   40    0.25534      0.00000     0.74345    0.00121     0.74466
      H   41    0.25693      0.00000     0.74177    0.00129     0.74307
      H   42    0.25457      0.00000     0.74404    0.00139     0.74543
 =======================================================================
   * Total *   -0.00000     43.98057   109.65712    0.36232   154.00000

                                 Natural Population      
 --------------------------------------------------------
   Core                      43.98057 ( 99.9558% of  44)
   Valence                  109.65712 ( 99.6883% of 110)
   Natural Minimal Basis    153.63768 ( 99.7647% of 154)
   Natural Rydberg Basis      0.36232 (  0.2353% of 154)
 --------------------------------------------------------

    Atom  No          Natural Electron Configuration
 ----------------------------------------------------------------------------
      C    1      [core]2S( 0.85)2p( 2.96)3p( 0.01)
      N    2      [core]2S( 1.29)2p( 4.21)3p( 0.01)
      C    3      [core]2S( 1.01)2p( 3.26)3p( 0.01)
      C    4      [core]2S( 0.86)2p( 3.33)3p( 0.01)
      C    5      [core]2S( 0.94)2p( 3.27)3p( 0.01)
      C    6      [core]2S( 0.93)2p( 3.43)3p( 0.01)
      C    7      [core]2S( 0.86)2p( 3.33)3p( 0.01)
      C    8      [core]2S( 1.01)2p( 3.26)3p( 0.01)
      N    9      [core]2S( 1.29)2p( 4.21)3p( 0.01)
      C   10      [core]2S( 0.85)2p( 2.96)3p( 0.01)
      C   11      [core]2S( 0.96)2p( 3.27)3p( 0.01)
      C   12      [core]2S( 0.97)2p( 3.25)3p( 0.01)
      C   13      [core]2S( 0.97)2p( 3.23)3p( 0.01)
      C   14      [core]2S( 0.97)2p( 3.25)3p( 0.01)
      C   15      [core]2S( 0.96)2p( 3.28)3p( 0.01)
      C   16      [core]2S( 0.94)2p( 3.27)3p( 0.01)
      C   17      [core]2S( 0.93)2p( 3.43)3p( 0.01)
      C   18      [core]2S( 0.96)2p( 3.29)3p( 0.01)
      C   19      [core]2S( 0.97)2p( 3.25)3p( 0.01)
      C   20      [core]2S( 0.97)2p( 3.23)3p( 0.01)
      C   21      [core]2S( 0.97)2p( 3.25)3p( 0.01)
      C   22      [core]2S( 0.96)2p( 3.27)3p( 0.01)
      H   23            1S( 0.56)
      H   24            1S( 0.76)
      H   25            1S( 0.77)
      H   26            1S( 0.78)
      H   27            1S( 0.79)
      H   28            1S( 0.77)
      H   29            1S( 0.76)
      H   30            1S( 0.56)
      H   31            1S( 0.74)
      H   32            1S( 0.74)
      H   33            1S( 0.74)
      H   34            1S( 0.74)
      H   35            1S( 0.74)
      H   36            1S( 0.78)
      H   37            1S( 0.79)
      H   38            1S( 0.74)
      H   39            1S( 0.74)
      H   40            1S( 0.74)
      H   41            1S( 0.74)
      H   42            1S( 0.74)


 NBO analysis skipped by request.
 1\1\GINC-DRG2-W002\SP\RB3LYP TD-FC\6-31G(d,p)\C20H20N2\QDUEZ\17-Jul-20
 24\0\\# TD(NStates=10, Root=1) B3LYP/6-31G** SCRF=(Solvent=water) volu
 me pop=NPA density=current Geom=AllCheck Guess=Read\\DXWQPWMYKQYRDS-UH
 FFFAOYSA-N_conf_3\\0,1\C,0,-4.9234121666,-0.3816895792,-0.0919612704\N
 ,0,-3.5471836034,-0.1993849442,-0.2032141986\C,0,-2.8897507467,0.98985
 26644,0.3306946105\C,0,-1.3943790463,0.9318515767,0.0992805024\C,0,-0.
 4971380349,1.0944043234,1.161832203\C,0,0.8804690081,1.0619873748,0.94
 62206905\C,0,1.3985246357,0.8558503145,-0.3390044302\C,0,2.8939745017,
 0.8324989796,-0.5759159917\N,0,3.5464001622,-0.1354042548,0.3010594002
 \C,0,4.9217117168,-0.3494118664,0.2529897198\C,0,5.4616964803,-1.49662
 43094,0.8738574117\C,0,6.8342750448,-1.7183360259,0.889521742\C,0,7.71
 35924393,-0.8085909458,0.2906040105\C,0,7.1864379526,0.3244197765,-0.3
 29061218\C,0,5.8094327549,0.557397399,-0.3582729701\C,0,0.5012639074,0
 .6834562076,-1.3999809217\C,0,-0.8763260928,0.7255896478,-1.1859223191
 \C,0,-5.8065492166,0.6740288326,0.2072266269\C,0,-7.1846100007,0.44971
 48564,0.2509053141\C,0,-7.7173509595,-0.8172512286,0.013054635\C,0,-6.
 8426202384,-1.8718880978,-0.2735134445\C,0,-5.4690479311,-1.662466941,
 -0.326576174\H,0,-3.0103699885,-1.0468699485,-0.0677526958\H,0,-3.0930
 147072,1.1307782631,1.4041008672\H,0,-3.3007104531,1.8690329102,-0.182
 3021802\H,0,-0.8798484129,1.2499141135,2.1670918309\H,0,1.5616717703,1
 .1880330967,1.7826963256\H,0,3.3092550785,1.8255806619,-0.3606568349\H
 ,0,3.0971158554,0.6325518785,-1.6399322142\H,0,3.0056383694,-0.9806270
 592,0.4349272283\H,0,4.7892686962,-2.2084904129,1.3465422636\H,0,7.220
 9425011,-2.611074754,1.3736679445\H,0,8.7845843547,-0.9842661171,0.304
 5840386\H,0,7.8499885976,1.040327016,-0.806793449\H,0,5.4313633016,1.4
 421544625,-0.8577957544\H,0,0.8839500902,0.5167782252,-2.4034588933\H,
 0,-1.5575588131,0.5879422531,-2.020540492\H,0,-5.4241061907,1.66839422
 46,0.4077985392\H,0,-7.8445486235,1.2815102417,0.4825261024\H,0,-8.789
 1314076,-0.983750851,0.0536232846\H,0,-7.233689434,-2.8690267075,-0.45
 70104142\H,0,-4.8002111514,-2.4888952571,-0.5546523469\\Version=ES64L-
 G16RevA.03\State=1-A\HF=-883.7184527\RMSD=6.642e-09\Dipole=0.0959955,-
 1.9778826,0.3165527\Quadrupole=44.1952438,-17.7214887,-26.4737552,-0.6
 84433,-2.8334499,-1.4395127\PG=C01 [X(C20H20N2)]\\@


 ASKING FOR EFFICIENCY AND ADAPTABILITY IN THE SAME PROGRAM IS LIKE
 ASKING FOR A BEAUTIFUL AND MODEST WIFE ...
 WE'LL PROBABLY HAVE TO SETTLE FOR ONE OR THE OTHER.

             -- THE PSYCHOLOGY OF COMPUTER PROGRAMMING
                GERALD M. WEINBERG
 Job cpu time:       0 days  1 hours 36 minutes 14.0 seconds.
 Elapsed time:       0 days  0 hours 32 minutes 14.2 seconds.
 File lengths (MBytes):  RWF=   1470 Int=      0 D2E=      0 Chk=     92 Scr=      1
 Normal termination of Gaussian 16 at Wed Jul 17 17:28:49 2024.
