 Entering Gaussian System, Link 0=g16
 Initial command:
 /opt/sw/arch/manual/gaussian/G16_A03/g16/l1.exe "/scratch/1380841/Gau-44301.inp" -scrdir="/scratch/1380841/"
 Entering Link 1 = /opt/sw/arch/manual/gaussian/G16_A03/g16/l1.exe PID=     44302.
  
 Copyright (c) 1988,1990,1992,1993,1995,1998,2003,2009,2016,
            Gaussian, Inc.  All Rights Reserved.
  
 This is part of the Gaussian(R) 16 program.  It is based on
 the Gaussian(R) 09 system (copyright 2009, Gaussian, Inc.),
 the Gaussian(R) 03 system (copyright 2003, Gaussian, Inc.),
 the Gaussian(R) 98 system (copyright 1998, Gaussian, Inc.),
 the Gaussian(R) 94 system (copyright 1995, Gaussian, Inc.),
 the Gaussian 92(TM) system (copyright 1992, Gaussian, Inc.),
 the Gaussian 90(TM) system (copyright 1990, Gaussian, Inc.),
 the Gaussian 88(TM) system (copyright 1988, Gaussian, Inc.),
 the Gaussian 86(TM) system (copyright 1986, Carnegie Mellon
 University), and the Gaussian 82(TM) system (copyright 1983,
 Carnegie Mellon University). Gaussian is a federally registered
 trademark of Gaussian, Inc.
  
 This software contains proprietary and confidential information,
 including trade secrets, belonging to Gaussian, Inc.
  
 This software is provided under written license and may be
 used, copied, transmitted, or stored only in accord with that
 written license.
  
 The following legend is applicable only to US Government
 contracts under FAR:
  
                    RESTRICTED RIGHTS LEGEND
  
 Use, reproduction and disclosure by the US Government is
 subject to restrictions as set forth in subparagraphs (a)
 and (c) of the Commercial Computer Software - Restricted
 Rights clause in FAR 52.227-19.
  
 Gaussian, Inc.
 340 Quinnipiac St., Bldg. 40, Wallingford CT 06492
  
  
 ---------------------------------------------------------------
 Warning -- This program may not be used in any manner that
 competes with the business of Gaussian, Inc. or will provide
 assistance to any competitor of Gaussian, Inc.  The licensee
 of this program is prohibited from giving any competitor of
 Gaussian, Inc. access to this program.  By using this program,
 the user acknowledges that Gaussian, Inc. is engaged in the
 business of creating and licensing software in the field of
 computational chemistry and represents and warrants to the
 licensee that it is not a competitor of Gaussian, Inc. and that
 it will not use this program in any manner prohibited above.
 ---------------------------------------------------------------
  

 Cite this work as:
 Gaussian 16, Revision A.03,
 M. J. Frisch, G. W. Trucks, H. B. Schlegel, G. E. Scuseria, 
 M. A. Robb, J. R. Cheeseman, G. Scalmani, V. Barone, 
 G. A. Petersson, H. Nakatsuji, X. Li, M. Caricato, A. V. Marenich, 
 J. Bloino, B. G. Janesko, R. Gomperts, B. Mennucci, H. P. Hratchian, 
 J. V. Ortiz, A. F. Izmaylov, J. L. Sonnenberg, D. Williams-Young, 
 F. Ding, F. Lipparini, F. Egidi, J. Goings, B. Peng, A. Petrone, 
 T. Henderson, D. Ranasinghe, V. G. Zakrzewski, J. Gao, N. Rega, 
 G. Zheng, W. Liang, M. Hada, M. Ehara, K. Toyota, R. Fukuda, 
 J. Hasegawa, M. Ishida, T. Nakajima, Y. Honda, O. Kitao, H. Nakai, 
 T. Vreven, K. Throssell, J. A. Montgomery, Jr., J. E. Peralta, 
 F. Ogliaro, M. J. Bearpark, J. J. Heyd, E. N. Brothers, K. N. Kudin, 
 V. N. Staroverov, T. A. Keith, R. Kobayashi, J. Normand, 
 K. Raghavachari, A. P. Rendell, J. C. Burant, S. S. Iyengar, 
 J. Tomasi, M. Cossi, J. M. Millam, M. Klene, C. Adamo, R. Cammi, 
 J. W. Ochterski, R. L. Martin, K. Morokuma, O. Farkas, 
 J. B. Foresman, and D. J. Fox, Gaussian, Inc., Wallingford CT, 2016.
 
 ******************************************
 Gaussian 16:  ES64L-G16RevA.03 25-Dec-2016
                17-Jul-2024 
 ******************************************
 %nprocshared=4
 Will use up to    4 processors via shared memory.
 %mem=8GB
 %Chk=HLBLWEWZXPIGSM-UHFFFAOYSA-N_conf_2_0.chk
 -------------------------------------------------------
 # opt=CalcFc B3LYP/6-31G** SCRF=(Solvent=water) scf=xqc
 -------------------------------------------------------
 1/10=4,18=20,19=15,26=3,38=1/1,3;
 2/9=110,12=2,17=6,18=5,40=1/2;
 3/5=1,6=6,7=101,11=2,25=1,30=1,70=2201,71=2,72=1,74=-5,140=1/1,2,3;
 4//1;
 5/5=2,8=3,13=1,38=5,53=1/2,8;
 8/6=4,10=90,11=11/1;
 11/6=1,8=1,9=11,15=111,16=1/1,2,10;
 10/6=1,13=1/2;
 6/7=2,8=2,9=2,10=2,28=1/1;
 7/10=1,18=20,25=1/1,2,3,16;
 1/10=4,18=20,19=15,26=3/3(2);
 2/9=110/2;
 99//99;
 2/9=110/2;
 3/5=1,6=6,7=101,11=2,25=1,30=1,70=2205,71=1,72=1,74=-5/1,2,3;
 4/5=5,16=3,69=1/1;
 5/5=2,8=3,13=1,38=5,53=1/2,8;
 7//1,2,3,16;
 1/18=20,19=15,26=3/3(-5);
 2/9=110/2;
 6/7=2,8=2,9=2,10=2,19=2,28=1/1;
 99/9=1/99;
 ----------------------------------
 HLBLWEWZXPIGSM-UHFFFAOYSA-N_conf_2
 ----------------------------------
 Symbolic Z-matrix:
 Charge =  0 Multiplicity = 1
 N                    -4.72799   0.53172   1.42499 
 C                    -3.608     0.35773   0.6039 
 C                    -3.47639  -0.79845  -0.17074 
 C                    -2.30956  -1.03853  -0.90125 
 C                    -1.24091  -0.1493   -0.81322 
 O                    -0.1312   -0.42321  -1.57863 
 C                     1.09716  -0.33891  -0.96413 
 C                     2.12206   0.27548  -1.68024 
 C                     3.40305   0.36235  -1.12804 
 C                     3.66417  -0.13721   0.15103 
 N                     4.97249  -0.15218   0.64773 
 C                     2.64847  -0.82245   0.824 
 C                     1.36443  -0.91395   0.27864 
 C                    -1.34494   0.99107  -0.01632 
 C                    -2.51575   1.22384   0.71102 
 H                    -4.89393   1.49676   1.69267 
 H                    -5.56679   0.07948   1.07507 
 H                    -4.28531  -1.52246  -0.21619 
 H                    -2.22883  -1.92706  -1.52081 
 H                     1.92895   0.67781  -2.67052 
 H                     4.19775   0.82201  -1.70921 
 H                     5.02651  -0.23488   1.65804 
 H                     5.55598   0.59747   0.2902 
 H                     2.84907  -1.29774   1.7804 
 H                     0.59035  -1.45017   0.82018 
 H                    -0.52189   1.69635   0.0524 
 H                    -2.56894   2.09444   1.35902 
 

 GradGradGradGradGradGradGradGradGradGradGradGradGradGradGradGradGradGrad
 Berny optimization.
 Initialization pass.
                           ----------------------------
                           !    Initial Parameters    !
                           ! (Angstroms and Degrees)  !
 --------------------------                            --------------------------
 ! Name  Definition              Value          Derivative Info.                !
 --------------------------------------------------------------------------------
 ! R1    R(1,2)                  1.3996         calculate D2E/DX2 analytically  !
 ! R2    R(1,16)                 1.0151         calculate D2E/DX2 analytically  !
 ! R3    R(1,17)                 1.0152         calculate D2E/DX2 analytically  !
 ! R4    R(2,3)                  1.3979         calculate D2E/DX2 analytically  !
 ! R5    R(2,15)                 1.3981         calculate D2E/DX2 analytically  !
 ! R6    R(3,4)                  1.3974         calculate D2E/DX2 analytically  !
 ! R7    R(3,18)                 1.0866         calculate D2E/DX2 analytically  !
 ! R8    R(4,5)                  1.393          calculate D2E/DX2 analytically  !
 ! R9    R(4,19)                 1.0862         calculate D2E/DX2 analytically  !
 ! R10   R(5,6)                  1.3756         calculate D2E/DX2 analytically  !
 ! R11   R(5,14)                 1.3951         calculate D2E/DX2 analytically  !
 ! R12   R(6,7)                  1.3761         calculate D2E/DX2 analytically  !
 ! R13   R(7,8)                  1.3931         calculate D2E/DX2 analytically  !
 ! R14   R(7,13)                 1.3952         calculate D2E/DX2 analytically  !
 ! R15   R(8,9)                  1.3976         calculate D2E/DX2 analytically  !
 ! R16   R(8,20)                 1.0862         calculate D2E/DX2 analytically  !
 ! R17   R(9,10)                 1.3978         calculate D2E/DX2 analytically  !
 ! R18   R(9,21)                 1.0866         calculate D2E/DX2 analytically  !
 ! R19   R(10,11)                1.3995         calculate D2E/DX2 analytically  !
 ! R20   R(10,12)                1.3979         calculate D2E/DX2 analytically  !
 ! R21   R(11,22)                1.0151         calculate D2E/DX2 analytically  !
 ! R22   R(11,23)                1.015          calculate D2E/DX2 analytically  !
 ! R23   R(12,13)                1.3981         calculate D2E/DX2 analytically  !
 ! R24   R(12,24)                1.0867         calculate D2E/DX2 analytically  !
 ! R25   R(13,25)                1.0863         calculate D2E/DX2 analytically  !
 ! R26   R(14,15)                1.3979         calculate D2E/DX2 analytically  !
 ! R27   R(14,26)                1.0861         calculate D2E/DX2 analytically  !
 ! R28   R(15,27)                1.0866         calculate D2E/DX2 analytically  !
 ! A1    A(2,1,16)             113.8091         calculate D2E/DX2 analytically  !
 ! A2    A(2,1,17)             113.8039         calculate D2E/DX2 analytically  !
 ! A3    A(16,1,17)            112.2923         calculate D2E/DX2 analytically  !
 ! A4    A(1,2,3)              120.2155         calculate D2E/DX2 analytically  !
 ! A5    A(1,2,15)             120.2133         calculate D2E/DX2 analytically  !
 ! A6    A(3,2,15)             118.7689         calculate D2E/DX2 analytically  !
 ! A7    A(2,3,4)              120.6895         calculate D2E/DX2 analytically  !
 ! A8    A(2,3,18)             120.2786         calculate D2E/DX2 analytically  !
 ! A9    A(4,3,18)             119.0313         calculate D2E/DX2 analytically  !
 ! A10   A(3,4,5)              119.8585         calculate D2E/DX2 analytically  !
 ! A11   A(3,4,19)             120.0506         calculate D2E/DX2 analytically  !
 ! A12   A(5,4,19)             120.0797         calculate D2E/DX2 analytically  !
 ! A13   A(4,5,6)              117.1675         calculate D2E/DX2 analytically  !
 ! A14   A(4,5,14)             120.0453         calculate D2E/DX2 analytically  !
 ! A15   A(6,5,14)             122.7338         calculate D2E/DX2 analytically  !
 ! A16   A(5,6,7)              117.3504         calculate D2E/DX2 analytically  !
 ! A17   A(6,7,8)              117.013          calculate D2E/DX2 analytically  !
 ! A18   A(6,7,13)             122.9239         calculate D2E/DX2 analytically  !
 ! A19   A(8,7,13)             119.9153         calculate D2E/DX2 analytically  !
 ! A20   A(7,8,9)              119.9086         calculate D2E/DX2 analytically  !
 ! A21   A(7,8,20)             120.0797         calculate D2E/DX2 analytically  !
 ! A22   A(9,8,20)             120.0089         calculate D2E/DX2 analytically  !
 ! A23   A(8,9,10)             120.7003         calculate D2E/DX2 analytically  !
 ! A24   A(8,9,21)             119.0332         calculate D2E/DX2 analytically  !
 ! A25   A(10,9,21)            120.2661         calculate D2E/DX2 analytically  !
 ! A26   A(9,10,11)            120.2144         calculate D2E/DX2 analytically  !
 ! A27   A(9,10,12)            118.6849         calculate D2E/DX2 analytically  !
 ! A28   A(11,10,12)           120.2082         calculate D2E/DX2 analytically  !
 ! A29   A(10,11,22)           113.8187         calculate D2E/DX2 analytically  !
 ! A30   A(10,11,23)           113.8581         calculate D2E/DX2 analytically  !
 ! A31   A(22,11,23)           112.3429         calculate D2E/DX2 analytically  !
 ! A32   A(10,12,13)           120.7725         calculate D2E/DX2 analytically  !
 ! A33   A(10,12,24)           120.2634         calculate D2E/DX2 analytically  !
 ! A34   A(13,12,24)           118.9633         calculate D2E/DX2 analytically  !
 ! A35   A(7,13,12)            119.7643         calculate D2E/DX2 analytically  !
 ! A36   A(7,13,25)            120.7312         calculate D2E/DX2 analytically  !
 ! A37   A(12,13,25)           119.4934         calculate D2E/DX2 analytically  !
 ! A38   A(5,14,15)            119.7215         calculate D2E/DX2 analytically  !
 ! A39   A(5,14,26)            120.6936         calculate D2E/DX2 analytically  !
 ! A40   A(15,14,26)           119.5825         calculate D2E/DX2 analytically  !
 ! A41   A(2,15,14)            120.7528         calculate D2E/DX2 analytically  !
 ! A42   A(2,15,27)            120.2521         calculate D2E/DX2 analytically  !
 ! A43   A(14,15,27)           118.9939         calculate D2E/DX2 analytically  !
 ! D1    D(16,1,2,3)          -160.3646         calculate D2E/DX2 analytically  !
 ! D2    D(16,1,2,15)           30.0184         calculate D2E/DX2 analytically  !
 ! D3    D(17,1,2,3)           -29.9876         calculate D2E/DX2 analytically  !
 ! D4    D(17,1,2,15)          160.3953         calculate D2E/DX2 analytically  !
 ! D5    D(1,2,3,4)           -174.2494         calculate D2E/DX2 analytically  !
 ! D6    D(1,2,3,18)             6.0361         calculate D2E/DX2 analytically  !
 ! D7    D(15,2,3,4)            -4.4838         calculate D2E/DX2 analytically  !
 ! D8    D(15,2,3,18)          175.8018         calculate D2E/DX2 analytically  !
 ! D9    D(1,2,15,14)          174.244          calculate D2E/DX2 analytically  !
 ! D10   D(1,2,15,27)           -6.1615         calculate D2E/DX2 analytically  !
 ! D11   D(3,2,15,14)            4.4781         calculate D2E/DX2 analytically  !
 ! D12   D(3,2,15,27)         -175.9274         calculate D2E/DX2 analytically  !
 ! D13   D(2,3,4,5)              2.8686         calculate D2E/DX2 analytically  !
 ! D14   D(2,3,4,19)          -178.3533         calculate D2E/DX2 analytically  !
 ! D15   D(18,3,4,5)          -177.4135         calculate D2E/DX2 analytically  !
 ! D16   D(18,3,4,19)            1.3647         calculate D2E/DX2 analytically  !
 ! D17   D(3,4,5,6)           -178.5804         calculate D2E/DX2 analytically  !
 ! D18   D(3,4,5,14)            -1.1648         calculate D2E/DX2 analytically  !
 ! D19   D(19,4,5,6)             2.6418         calculate D2E/DX2 analytically  !
 ! D20   D(19,4,5,14)         -179.9426         calculate D2E/DX2 analytically  !
 ! D21   D(4,5,6,7)           -133.3398         calculate D2E/DX2 analytically  !
 ! D22   D(14,5,6,7)            49.3197         calculate D2E/DX2 analytically  !
 ! D23   D(4,5,14,15)            1.1548         calculate D2E/DX2 analytically  !
 ! D24   D(4,5,14,26)         -179.4032         calculate D2E/DX2 analytically  !
 ! D25   D(6,5,14,15)          178.4213         calculate D2E/DX2 analytically  !
 ! D26   D(6,5,14,26)           -2.1367         calculate D2E/DX2 analytically  !
 ! D27   D(5,6,7,8)           -137.4582         calculate D2E/DX2 analytically  !
 ! D28   D(5,6,7,13)            46.9721         calculate D2E/DX2 analytically  !
 ! D29   D(6,7,8,9)           -178.3163         calculate D2E/DX2 analytically  !
 ! D30   D(6,7,8,20)             1.0732         calculate D2E/DX2 analytically  !
 ! D31   D(13,7,8,9)            -2.6064         calculate D2E/DX2 analytically  !
 ! D32   D(13,7,8,20)          176.7831         calculate D2E/DX2 analytically  !
 ! D33   D(6,7,13,12)          178.0633         calculate D2E/DX2 analytically  !
 ! D34   D(6,7,13,25)           -0.7172         calculate D2E/DX2 analytically  !
 ! D35   D(8,7,13,12)            2.6172         calculate D2E/DX2 analytically  !
 ! D36   D(8,7,13,25)         -176.1633         calculate D2E/DX2 analytically  !
 ! D37   D(7,8,9,10)            -1.3262         calculate D2E/DX2 analytically  !
 ! D38   D(7,8,9,21)           178.467          calculate D2E/DX2 analytically  !
 ! D39   D(20,8,9,10)          179.2838         calculate D2E/DX2 analytically  !
 ! D40   D(20,8,9,21)           -0.923          calculate D2E/DX2 analytically  !
 ! D41   D(8,9,10,11)          174.363          calculate D2E/DX2 analytically  !
 ! D42   D(8,9,10,12)            5.1518         calculate D2E/DX2 analytically  !
 ! D43   D(21,9,10,11)          -5.4277         calculate D2E/DX2 analytically  !
 ! D44   D(21,9,10,12)        -174.6389         calculate D2E/DX2 analytically  !
 ! D45   D(9,10,11,22)         160.7974         calculate D2E/DX2 analytically  !
 ! D46   D(9,10,11,23)          30.286          calculate D2E/DX2 analytically  !
 ! D47   D(12,10,11,22)        -30.1565         calculate D2E/DX2 analytically  !
 ! D48   D(12,10,11,23)       -160.668          calculate D2E/DX2 analytically  !
 ! D49   D(9,10,12,13)          -5.1409         calculate D2E/DX2 analytically  !
 ! D50   D(9,10,12,24)         174.5439         calculate D2E/DX2 analytically  !
 ! D51   D(11,10,12,13)       -174.3528         calculate D2E/DX2 analytically  !
 ! D52   D(11,10,12,24)          5.3319         calculate D2E/DX2 analytically  !
 ! D53   D(10,12,13,7)           1.3024         calculate D2E/DX2 analytically  !
 ! D54   D(10,12,13,25)       -179.9019         calculate D2E/DX2 analytically  !
 ! D55   D(24,12,13,7)        -178.3864         calculate D2E/DX2 analytically  !
 ! D56   D(24,12,13,25)          0.4093         calculate D2E/DX2 analytically  !
 ! D57   D(5,14,15,2)           -2.851          calculate D2E/DX2 analytically  !
 ! D58   D(5,14,15,27)         177.5494         calculate D2E/DX2 analytically  !
 ! D59   D(26,14,15,2)         177.7007         calculate D2E/DX2 analytically  !
 ! D60   D(26,14,15,27)         -1.8989         calculate D2E/DX2 analytically  !
 --------------------------------------------------------------------------------
 Trust Radius=3.00D-01 FncErr=1.00D-07 GrdErr=1.00D-06 EigMax=2.50D+02 EigMin=1.00D-04
 Number of steps in this run=    141 maximum allowed number of steps=    162.
 GradGradGradGradGradGradGradGradGradGradGradGradGradGradGradGradGradGrad

                          Input orientation:                          
 ---------------------------------------------------------------------
 Center     Atomic      Atomic             Coordinates (Angstroms)
 Number     Number       Type             X           Y           Z
 ---------------------------------------------------------------------
      1          7           0       -4.727992    0.531722    1.424989
      2          6           0       -3.608004    0.357735    0.603901
      3          6           0       -3.476395   -0.798454   -0.170739
      4          6           0       -2.309556   -1.038532   -0.901251
      5          6           0       -1.240910   -0.149304   -0.813223
      6          8           0       -0.131197   -0.423205   -1.578635
      7          6           0        1.097160   -0.338909   -0.964129
      8          6           0        2.122062    0.275476   -1.680235
      9          6           0        3.403048    0.362351   -1.128037
     10          6           0        3.664170   -0.137207    0.151030
     11          7           0        4.972490   -0.152185    0.647735
     12          6           0        2.648468   -0.822450    0.823999
     13          6           0        1.364427   -0.913949    0.278639
     14          6           0       -1.344939    0.991068   -0.016319
     15          6           0       -2.515752    1.223837    0.711020
     16          1           0       -4.893931    1.496756    1.692671
     17          1           0       -5.566786    0.079481    1.075073
     18          1           0       -4.285310   -1.522465   -0.216192
     19          1           0       -2.228827   -1.927062   -1.520807
     20          1           0        1.928945    0.677806   -2.670520
     21          1           0        4.197748    0.822015   -1.709213
     22          1           0        5.026507   -0.234881    1.658044
     23          1           0        5.555978    0.597475    0.290200
     24          1           0        2.849074   -1.297742    1.780396
     25          1           0        0.590349   -1.450170    0.820179
     26          1           0       -0.521888    1.696349    0.052401
     27          1           0       -2.568938    2.094444    1.359023
 ---------------------------------------------------------------------
                    Distance matrix (angstroms):
                    1          2          3          4          5
     1  N    0.000000
     2  C    1.399582   0.000000
     3  C    2.425327   1.397913   0.000000
     4  C    3.704851   2.429200   1.397425   0.000000
     5  C    4.199182   2.805078   2.414865   1.393012   0.000000
     6  O    5.573523   4.178698   3.648743   2.362779   1.375623
     7  C    6.355964   5.008254   4.664553   3.478383   2.350595
     8  C    7.525378   6.169093   5.897001   4.687502   3.498818
     9  C    8.524109   7.221806   7.042060   5.886234   4.682653
    10  C    8.514623   7.303052   7.178331   6.132299   4.998973
    11  N    9.755573   8.595745   8.513003   7.497545   6.382848
    12  C    7.523770   6.370614   6.205160   5.254063   4.273275
    13  C    6.365661   5.142766   4.863006   3.860805   2.926538
    14  C    3.705862   2.430484   2.787353   2.415134   1.395108
    15  C    2.425444   1.398078   2.406240   2.785722   2.415379
    16  H    1.015126   2.033814   3.278673   4.453663   4.725842
    17  H    1.015155   2.033779   2.586997   3.970561   4.725591
    18  H    2.666294   2.160196   1.086555   2.146416   3.392697
    19  H    4.579209   3.411277   2.157050   1.086210   2.153388
    20  H    7.817247   6.440659   6.135629   4.903165   3.765852
    21  H    9.464476   8.154497   7.992827   6.816116   5.596897
    22  H    9.787351   8.718784   8.715583   7.811125   6.737581
    23  H   10.346599   9.172484   9.151221   8.121743   6.926248
    24  H    7.802895   6.768944   6.638356   5.819784   4.977322
    25  H    5.707752   4.576184   4.236160   3.397384   2.777366
    26  H    4.575113   3.408835   3.873363   3.403643   2.161650
    27  H    2.666077   2.160099   3.395954   3.871906   3.393629
                    6          7          8          9         10
     6  O    0.000000
     7  C    1.376076   0.000000
     8  C    2.361283   1.393090   0.000000
     9  C    3.648428   2.415729   1.397639   0.000000
    10  C    4.180711   2.806029   2.429390   1.397768   0.000000
    11  N    5.574747   4.201328   3.705034   2.425132   1.399515
    12  C    3.695752   2.416147   2.784552   2.404910   1.397890
    13  C    2.434581   1.395197   2.413697   2.786334   2.430726
    14  C    2.431907   2.937862   3.911622   4.916765   5.137332
    15  C    3.693422   4.278018   5.303472   6.257514   6.352752
    16  H    6.088623   6.805985   7.879860   8.836466   8.848027
    17  H    6.069637   6.981517   8.169978   9.240760   9.279621
    18  H    4.507913   5.561583   6.813988   7.968365   8.077625
    19  H    2.581662   3.727508   4.879224   6.092101   6.381695
    20  H    2.578493   2.153449   1.086199   2.156790   3.411216
    21  H    4.506372   3.393602   2.146628   1.086556   2.159934
    22  H    6.092082   4.725080   4.454253   3.279414   2.033862
    23  H    6.072750   4.725591   3.972163   2.588781   2.034223
    24  H    4.574923   3.394257   3.870339   3.394375   2.160106
    25  H    2.707322   2.162294   3.402363   3.871958   3.408814
    26  H    2.702856   2.792298   3.465744   4.310233   4.571076
    27  H    4.572852   4.975793   5.878029   6.697031   6.729869
                   11         12         13         14         15
    11  N    0.000000
    12  C    2.425161   0.000000
    13  C    3.706027   1.398052   0.000000
    14  C    6.454293   4.465677   3.325169   0.000000
    15  C    7.613883   5.556007   4.451165   1.397858   0.000000
    16  H   10.057692   7.938582   6.854052   3.971362   2.587250
    17  H   10.550481   8.268429   7.047193   4.454899   3.278856
    18  H    9.398452   7.046225   5.703918   3.873446   3.396061
    19  H    7.727337   5.523250   4.144379   3.400033   3.871891
    20  H    4.578522   3.870419   3.398515   4.226255   5.611443
    21  H    2.665425   3.394362   3.872058   5.797917   7.147731
    22  H    1.015127   2.587652   3.971740   6.700877   7.740179
    23  H    1.015026   3.279443   4.455742   6.918925   8.106926
    24  H    2.665356   1.086665   2.146334   5.104564   6.023561
    25  H    4.573584   2.151720   1.086276   3.225633   4.100011
    26  H    5.827495   4.121998   3.228471   1.086074   2.152334
    27  H    7.901039   6.001320   5.068433   2.146434   1.086597
                   16         17         18         19         20
    16  H    0.000000
    17  H    1.686070   0.000000
    18  H    3.623517   2.424000   0.000000
    19  H    5.399236   4.680468   2.468773   0.000000
    20  H    8.140010   8.400801   7.034336   5.039270   0.000000
    21  H    9.730710  10.180851   8.926812   6.992409   2.468273
    22  H   10.070494  10.613979   9.585435   8.099904   5.400403
    23  H   10.581883  11.162448  10.079759   8.381899   4.682700
    24  H    8.232317   8.556923   7.411903   6.089258   4.955813
    25  H    6.286728   6.349418   4.985112   3.695321   4.301756
    26  H    4.673873   5.395472   4.959461   4.303223   3.802408
    27  H    2.423664   3.623231   4.302239   4.957984   6.202824
                   21         22         23         24         25
    21  H    0.000000
    22  H    3.625230   0.000000
    23  H    2.427521   1.686462   0.000000
    24  H    4.299960   2.426079   3.624895   0.000000
    25  H    4.957215   4.675302   5.397333   2.459084   0.000000
    26  H    5.112994   6.090355   6.180982   4.828451   3.424491
    27  H    7.537983   7.950217   8.330520   6.406195   4.778675
                   26         27
    26  H    0.000000
    27  H    2.460925   0.000000
 Stoichiometry    C12H12N2O
 Framework group  C1[X(C12H12N2O)]
 Deg. of freedom    75
 Full point group                 C1      NOp   1
 Largest Abelian subgroup         C1      NOp   1
 Largest concise Abelian subgroup C1      NOp   1
                         Standard orientation:                         
 ---------------------------------------------------------------------
 Center     Atomic      Atomic             Coordinates (Angstroms)
 Number     Number       Type             X           Y           Z
 ---------------------------------------------------------------------
      1          7           0        4.851132   -1.244779   -0.054530
      2          6           0        3.664689   -0.505535   -0.123092
      3          6           0        3.422363    0.522405    0.792756
      4          6           0        2.193262    1.187089    0.810148
      5          6           0        1.175373    0.785472   -0.051877
      6          8           0       -0.001024    1.497248   -0.009385
      7          6           0       -1.173512    0.778457    0.037490
      8          6           0       -2.221928    1.225053   -0.763806
      9          6           0       -3.451510    0.561138   -0.736620
     10          6           0       -3.635616   -0.567256    0.067487
     11          7           0       -4.901244   -1.154250    0.178246
     12          6           0       -2.602847   -0.955131    0.925996
     13          6           0       -1.369903   -0.296372    0.905101
     14          6           0        1.391231   -0.262281   -0.947391
     15          6           0        2.623721   -0.921715   -0.958439
     16          1           0        5.080137   -1.732865   -0.914652
     17          1           0        5.639487   -0.721170    0.312716
     18          1           0        4.192209    0.818891    1.499887
     19          1           0        2.025503    2.002173    1.508251
     20          1           0       -2.087707    2.093967   -1.401616
     21          1           0       -4.267182    0.936630   -1.348410
     22          1           0       -4.881085   -2.111475    0.515583
     23          1           0       -5.476385   -1.049586   -0.651535
     24          1           0       -2.750394   -1.773556    1.625460
     25          1           0       -0.581240   -0.616052    1.580239
     26          1           0        0.608257   -0.577655   -1.630798
     27          1           0        2.765431   -1.762033   -1.632587
 ---------------------------------------------------------------------
 Rotational constants (GHZ):           1.7981662           0.2668281           0.2538590
 Standard basis: 6-31G(d,p) (6D, 7F)
 There are   285 symmetry adapted cartesian basis functions of A   symmetry.
 There are   285 symmetry adapted basis functions of A   symmetry.
   285 basis functions,   504 primitive gaussians,   285 cartesian basis functions
    53 alpha electrons       53 beta electrons
       nuclear repulsion energy       898.3647482056 Hartrees.
 NAtoms=   27 NActive=   27 NUniq=   27 SFac= 1.00D+00 NAtFMM=   60 NAOKFM=F Big=F
 Integral buffers will be    131072 words long.
 Raffenetti 2 integral format.
 Two-electron integral symmetry is turned on.
 Force inversion solution in PCM.
 ------------------------------------------------------------------------------
 Polarizable Continuum Model (PCM)
 =================================
 Model                : PCM.
 Atomic radii         : UFF (Universal Force Field).
 Polarization charges : Total charges.
 Charge compensation  : None.
 Solution method      : Matrix inversion.
 Cavity type          : Scaled VdW (van der Waals Surface) (Alpha=1.100).
 Cavity algorithm     : GePol (No added spheres)
                        Default sphere list used, NSphG=   27.
                        Lebedev-Laikov grids with approx.  5.0 points / Ang**2.
                        Smoothing algorithm: York/Karplus (Gamma=1.0000).
                        Polarization charges: spherical gaussians, with
                                              point-specific exponents (IZeta= 3).
                        Self-potential: point-specific (ISelfS= 7).
                        Self-field    : sphere-specific E.n sum rule (ISelfD= 2).
 1st derivatives      : Analytical E(r).r(x)/FMM algorithm (CHGder, D1EAlg=3).
                        Cavity 1st derivative terms included.
 2nd derivatives      : Analytical E(r).r(xy)/FMM algorithm (CHGder, D2EAlg=3).
                        Cavity 2nd derivative terms included.
 Solvent              : Water, Eps=  78.355300 Eps(inf)=   1.777849
 ------------------------------------------------------------------------------
 One-electron integrals computed using PRISM.
 NBasis=   285 RedAO= T EigKep=  4.26D-04  NBF=   285
 NBsUse=   285 1.00D-06 EigRej= -1.00D+00 NBFU=   285
 ExpMin= 1.61D-01 ExpMax= 5.48D+03 ExpMxC= 8.25D+02 IAcc=3 IRadAn=         5 AccDes= 0.00D+00
 Harris functional with IExCor=  402 and IRadAn=       5 diagonalized for initial guess.
 HarFok:  IExCor=  402 AccDes= 0.00D+00 IRadAn=         5 IDoV= 1 UseB2=F ITyADJ=14
 ICtDFT=  3500011 ScaDFX=  1.000000  1.000000  1.000000  1.000000
 FoFCou: FMM=F IPFlag=           0 FMFlag=      100000 FMFlg1=           0
         NFxFlg=           0 DoJE=T BraDBF=F KetDBF=T FulRan=T
         wScrn=  0.000000 ICntrl=       500 IOpCl=  0 I1Cent=   200000004 NGrid=           0
         NMat0=    1 NMatS0=      1 NMatT0=    0 NMatD0=    1 NMtDS0=    0 NMtDT0=    0
 Petite list used in FoFCou.
 Keep R1 ints in memory in canonical form, NReq=842203854.
 Requested convergence on RMS density matrix=1.00D-08 within  32 cycles.
 Requested convergence on MAX density matrix=1.00D-06.
 Requested convergence on             energy=1.00D-06.
 No special actions if energy rises.
 Inv3:  Mode=1 IEnd=    13406988.
 Iteration    1 A*A^-1 deviation from unit magnitude is 3.11D-15 for   1277.
 Iteration    1 A*A^-1 deviation from orthogonality  is 2.14D-15 for   1616    390.
 Iteration    1 A^-1*A deviation from unit magnitude is 3.11D-15 for    448.
 Iteration    1 A^-1*A deviation from orthogonality  is 1.42D-14 for   1569   1523.
 Error on total polarization charges =  0.00919
 SCF Done:  E(RB3LYP) =  -649.251079504     A.U. after   12 cycles
            NFock= 12  Conv=0.59D-08     -V/T= 2.0094
 QCSCF skips out because SCF is already converged.
 DoSCS=F DFT=T ScalE2(SS,OS)=  1.000000  1.000000
 Range of M.O.s used for correlation:     1   285
 NBasis=   285 NAE=    53 NBE=    53 NFC=     0 NFV=     0
 NROrb=    285 NOA=    53 NOB=    53 NVA=   232 NVB=   232
 Symmetrizing basis deriv contribution to polar:
 IMax=3 JMax=2 DiffMx= 0.00D+00
 G2DrvN: will do    28 centers at a time, making    1 passes.
 Calling FoFCou, ICntrl=  3107 FMM=F I1Cent=   0 AccDes= 0.00D+00.
 NEqPCM:  Using equilibrium solvation (IEInf=0, Eps=  78.3553, EpsInf=   1.7778)
 G2PCM: DoFxE=T DoFxN=T DoGrad=T DoDP/DQ/DG/TGxP=FFFF NFrqRd=   0 IEInf=0 SqF1=F DoCFld=F IF1Alg=4.
 End of G2Drv F.D. properties file   721 does not exist.
 End of G2Drv F.D. properties file   722 does not exist.
 End of G2Drv F.D. properties file   788 does not exist.
          IDoAtm=111111111111111111111111111
 NEqPCM:  Using equilibrium solvation (IEInf=0, Eps=  78.3553, EpsInf=   1.7778)
          Differentiating once with respect to nuclear coordinates.
 Keep R1 ints in memory in canonical form, NReq=842215103.
          There are    84 degrees of freedom in the 1st order CPHF.  IDoFFX=6 NUNeed=     0.
     78 vectors produced by pass  0 Test12= 1.46D-14 1.19D-09 XBig12= 1.20D-01 7.13D-02.
 AX will form    78 AO Fock derivatives at one time.
     78 vectors produced by pass  1 Test12= 1.46D-14 1.19D-09 XBig12= 1.63D-02 2.69D-02.
     78 vectors produced by pass  2 Test12= 1.46D-14 1.19D-09 XBig12= 1.73D-04 1.57D-03.
     78 vectors produced by pass  3 Test12= 1.46D-14 1.19D-09 XBig12= 8.13D-07 1.04D-04.
     78 vectors produced by pass  4 Test12= 1.46D-14 1.19D-09 XBig12= 1.14D-09 2.78D-06.
     57 vectors produced by pass  5 Test12= 1.46D-14 1.19D-09 XBig12= 1.29D-12 8.27D-08.
     12 vectors produced by pass  6 Test12= 1.46D-14 1.19D-09 XBig12= 1.42D-15 2.93D-09.
 InvSVY:  IOpt=1 It=  1 EMax= 3.89D-16
 Solved reduced A of dimension   459 with    84 vectors.
 End of Minotr F.D. properties file   721 does not exist.
 End of Minotr F.D. properties file   722 does not exist.
 End of Minotr F.D. properties file   788 does not exist.

 **********************************************************************

            Population analysis using the SCF density.

 **********************************************************************

 Orbital symmetries:
       Occupied  (A) (A) (A) (A) (A) (A) (A) (A) (A) (A) (A) (A)
                 (A) (A) (A) (A) (A) (A) (A) (A) (A) (A) (A) (A)
                 (A) (A) (A) (A) (A) (A) (A) (A) (A) (A) (A) (A)
                 (A) (A) (A) (A) (A) (A) (A) (A) (A) (A) (A) (A)
                 (A) (A) (A) (A) (A)
       Virtual   (A) (A) (A) (A) (A) (A) (A) (A) (A) (A) (A) (A)
                 (A) (A) (A) (A) (A) (A) (A) (A) (A) (A) (A) (A)
                 (A) (A) (A) (A) (A) (A) (A) (A) (A) (A) (A) (A)
                 (A) (A) (A) (A) (A) (A) (A) (A) (A) (A) (A) (A)
                 (A) (A) (A) (A) (A) (A) (A) (A) (A) (A) (A) (A)
                 (A) (A) (A) (A) (A) (A) (A) (A) (A) (A) (A) (A)
                 (A) (A) (A) (A) (A) (A) (A) (A) (A) (A) (A) (A)
                 (A) (A) (A) (A) (A) (A) (A) (A) (A) (A) (A) (A)
                 (A) (A) (A) (A) (A) (A) (A) (A) (A) (A) (A) (A)
                 (A) (A) (A) (A) (A) (A) (A) (A) (A) (A) (A) (A)
                 (A) (A) (A) (A) (A) (A) (A) (A) (A) (A) (A) (A)
                 (A) (A) (A) (A) (A) (A) (A) (A) (A) (A) (A) (A)
                 (A) (A) (A) (A) (A) (A) (A) (A) (A) (A) (A) (A)
                 (A) (A) (A) (A) (A) (A) (A) (A) (A) (A) (A) (A)
                 (A) (A) (A) (A) (A) (A) (A) (A) (A) (A) (A) (A)
                 (A) (A) (A) (A) (A) (A) (A) (A) (A) (A) (A) (A)
                 (A) (A) (A) (A) (A) (A) (A) (A) (A) (A) (A) (A)
                 (A) (A) (A) (A) (A) (A) (A) (A) (A) (A) (A) (A)
                 (A) (A) (A) (A) (A) (A) (A) (A) (A) (A) (A) (A)
                 (A) (A) (A) (A)
 The electronic state is 1-A.
 Alpha  occ. eigenvalues --  -19.17804 -14.33431 -14.33410 -10.23761 -10.23742
 Alpha  occ. eigenvalues --  -10.22417 -10.22376 -10.18984 -10.18966 -10.18782
 Alpha  occ. eigenvalues --  -10.18738 -10.18581 -10.18560 -10.18503 -10.18476
 Alpha  occ. eigenvalues --   -1.07307  -0.91297  -0.91240  -0.84368  -0.82689
 Alpha  occ. eigenvalues --   -0.74827  -0.74667  -0.73834  -0.70250  -0.62660
 Alpha  occ. eigenvalues --   -0.62014  -0.60983  -0.57644  -0.54170  -0.51414
 Alpha  occ. eigenvalues --   -0.50935  -0.50748  -0.49852  -0.45607  -0.44430
 Alpha  occ. eigenvalues --   -0.43987  -0.43965  -0.42183  -0.41932  -0.40791
 Alpha  occ. eigenvalues --   -0.39237  -0.38868  -0.37874  -0.36915  -0.36174
 Alpha  occ. eigenvalues --   -0.34331  -0.33357  -0.30346  -0.27947  -0.25427
 Alpha  occ. eigenvalues --   -0.24964  -0.20510  -0.18704
 Alpha virt. eigenvalues --   -0.01079   0.00134   0.01404   0.02829   0.09000
 Alpha virt. eigenvalues --    0.09397   0.10711   0.11027   0.13181   0.13239
 Alpha virt. eigenvalues --    0.16039   0.16646   0.17151   0.17347   0.17681
 Alpha virt. eigenvalues --    0.17917   0.18474   0.20129   0.20349   0.24804
 Alpha virt. eigenvalues --    0.25351   0.28313   0.33153   0.33457   0.33701
 Alpha virt. eigenvalues --    0.34055   0.34247   0.34635   0.36451   0.37764
 Alpha virt. eigenvalues --    0.48697   0.49094   0.49813   0.51446   0.52407
 Alpha virt. eigenvalues --    0.53416   0.53491   0.54781   0.55408   0.56676
 Alpha virt. eigenvalues --    0.56891   0.58515   0.58622   0.59419   0.59547
 Alpha virt. eigenvalues --    0.60070   0.60581   0.61251   0.61575   0.61976
 Alpha virt. eigenvalues --    0.62803   0.63603   0.65232   0.66763   0.67853
 Alpha virt. eigenvalues --    0.69324   0.69849   0.70249   0.71526   0.75719
 Alpha virt. eigenvalues --    0.76620   0.78288   0.79450   0.81083   0.81958
 Alpha virt. eigenvalues --    0.82159   0.83405   0.84366   0.84484   0.85889
 Alpha virt. eigenvalues --    0.86015   0.86324   0.87559   0.88536   0.89598
 Alpha virt. eigenvalues --    0.89773   0.90958   0.91821   0.93182   0.93648
 Alpha virt. eigenvalues --    0.98720   0.99229   1.00139   1.00310   1.03393
 Alpha virt. eigenvalues --    1.04209   1.05342   1.06306   1.12061   1.14714
 Alpha virt. eigenvalues --    1.15612   1.16484   1.17482   1.18617   1.21182
 Alpha virt. eigenvalues --    1.22018   1.24283   1.27238   1.29679   1.30764
 Alpha virt. eigenvalues --    1.32048   1.35414   1.36051   1.38725   1.39836
 Alpha virt. eigenvalues --    1.40248   1.40715   1.41544   1.42281   1.44242
 Alpha virt. eigenvalues --    1.46574   1.49806   1.51683   1.52982   1.68167
 Alpha virt. eigenvalues --    1.69216   1.74998   1.75327   1.76481   1.77480
 Alpha virt. eigenvalues --    1.79023   1.79572   1.80688   1.81639   1.85350
 Alpha virt. eigenvalues --    1.85953   1.87497   1.87999   1.89633   1.90977
 Alpha virt. eigenvalues --    1.91843   1.92421   1.92823   1.93971   1.95808
 Alpha virt. eigenvalues --    1.97287   1.97715   1.98480   2.00666   2.01744
 Alpha virt. eigenvalues --    2.02805   2.06476   2.06776   2.09328   2.09640
 Alpha virt. eigenvalues --    2.13897   2.16561   2.16933   2.23951   2.24466
 Alpha virt. eigenvalues --    2.25748   2.25999   2.26873   2.27577   2.30258
 Alpha virt. eigenvalues --    2.31445   2.32903   2.33507   2.34614   2.35720
 Alpha virt. eigenvalues --    2.36689   2.41236   2.41429   2.42022   2.42150
 Alpha virt. eigenvalues --    2.45204   2.45785   2.46005   2.46730   2.47234
 Alpha virt. eigenvalues --    2.48419   2.48790   2.49402   2.51109   2.55272
 Alpha virt. eigenvalues --    2.56264   2.56711   2.57813   2.59144   2.59734
 Alpha virt. eigenvalues --    2.60033   2.65434   2.66091   2.69828   2.71360
 Alpha virt. eigenvalues --    2.73430   2.74497   2.75899   2.80753   2.81314
 Alpha virt. eigenvalues --    2.81960   2.85653   2.86990   2.94094   2.97736
 Alpha virt. eigenvalues --    2.98990   3.02571   3.05777   3.06145   3.09986
 Alpha virt. eigenvalues --    3.14105   3.18367   3.20026   3.25023   3.25205
 Alpha virt. eigenvalues --    3.28375   3.28570   3.30811   3.36390   3.37312
 Alpha virt. eigenvalues --    3.38077   3.48665   3.49002   3.54081   3.55018
 Alpha virt. eigenvalues --    3.82299   3.84710   4.03562   4.04149   4.13556
 Alpha virt. eigenvalues --    4.13712   4.15146   4.16465   4.16724   4.20971
 Alpha virt. eigenvalues --    4.41602   4.44941   4.45449   4.46337   4.63670
 Alpha virt. eigenvalues --    4.83102   4.87487
          Condensed to atoms (all electrons):
               1          2          3          4          5          6
     1  N    6.834603   0.296790  -0.070184   0.004449   0.000542   0.000000
     2  C    0.296790   4.583268   0.539148  -0.027355  -0.034605   0.000169
     3  C   -0.070184   0.539148   4.950791   0.502519  -0.027195   0.004132
     4  C    0.004449  -0.027355   0.502519   4.936835   0.543158  -0.052553
     5  C    0.000542  -0.034605  -0.027195   0.543158   4.626270   0.223870
     6  O    0.000000   0.000169   0.004132  -0.052553   0.223870   8.355879
     7  C   -0.000000   0.000068  -0.000044  -0.001743  -0.034361   0.226765
     8  C   -0.000000   0.000000   0.000007  -0.000207  -0.001458  -0.053184
     9  C    0.000000  -0.000000  -0.000000   0.000007   0.000005   0.004129
    10  C   -0.000000   0.000000   0.000000   0.000000   0.000014   0.000139
    11  N    0.000000   0.000000   0.000000   0.000000  -0.000000  -0.000000
    12  C   -0.000000   0.000000   0.000001  -0.000005  -0.000025   0.004353
    13  C    0.000000   0.000019  -0.000075   0.000829   0.001989  -0.056177
    14  C    0.004695  -0.023854  -0.039137  -0.066848   0.492297  -0.056141
    15  C   -0.070575   0.536334  -0.048198  -0.039172  -0.019413   0.004490
    16  H    0.343934  -0.025351   0.005428  -0.000183  -0.000007  -0.000000
    17  H    0.343855  -0.025134  -0.009426  -0.000075   0.000003  -0.000000
    18  H   -0.007321  -0.042289   0.363692  -0.031501   0.003784  -0.000065
    19  H   -0.000103   0.004225  -0.035666   0.360039  -0.039805  -0.000851
    20  H   -0.000000   0.000000  -0.000000  -0.000013   0.000281  -0.000753
    21  H   -0.000000  -0.000000   0.000000  -0.000000  -0.000001  -0.000062
    22  H    0.000000   0.000000   0.000000   0.000000  -0.000000  -0.000000
    23  H    0.000000   0.000000   0.000000   0.000000  -0.000000  -0.000000
    24  H    0.000000  -0.000000  -0.000000  -0.000000  -0.000000  -0.000055
    25  H   -0.000000  -0.000043   0.000107   0.001293   0.006809  -0.007005
    26  H   -0.000104   0.003872   0.000472   0.005504  -0.041196  -0.007102
    27  H   -0.007224  -0.041767   0.005130   0.000614   0.003404  -0.000056
               7          8          9         10         11         12
     1  N   -0.000000  -0.000000   0.000000  -0.000000   0.000000  -0.000000
     2  C    0.000068   0.000000  -0.000000   0.000000   0.000000   0.000000
     3  C   -0.000044   0.000007  -0.000000   0.000000   0.000000   0.000001
     4  C   -0.001743  -0.000207   0.000007   0.000000   0.000000  -0.000005
     5  C   -0.034361  -0.001458   0.000005   0.000014  -0.000000  -0.000025
     6  O    0.226765  -0.053184   0.004129   0.000139  -0.000000   0.004353
     7  C    4.626476   0.541111  -0.026290  -0.034049   0.000536  -0.021711
     8  C    0.541111   4.940938   0.501367  -0.025696   0.004547  -0.039395
     9  C   -0.026290   0.501367   4.951360   0.537505  -0.070368  -0.048670
    10  C   -0.034049  -0.025696   0.537505   4.584490   0.297244   0.538083
    11  N    0.000536   0.004547  -0.070368   0.297244   6.833931  -0.070370
    12  C   -0.021711  -0.039395  -0.048670   0.538083  -0.070370   4.951498
    13  C    0.493263  -0.067156  -0.038036  -0.026715   0.004614   0.499870
    14  C    0.002052   0.000817  -0.000049   0.000012  -0.000000  -0.000323
    15  C   -0.000244  -0.000011   0.000001  -0.000000  -0.000000   0.000003
    16  H    0.000000   0.000000  -0.000000   0.000000   0.000000   0.000000
    17  H    0.000000  -0.000000  -0.000000   0.000000   0.000000  -0.000000
    18  H   -0.000001  -0.000000   0.000000  -0.000000   0.000000  -0.000000
    19  H    0.000313  -0.000015  -0.000000   0.000000   0.000000  -0.000002
    20  H   -0.040242   0.360082  -0.035547   0.004273  -0.000103   0.000261
    21  H    0.003829  -0.031715   0.364412  -0.042723  -0.007203   0.005314
    22  H   -0.000003  -0.000173   0.005460  -0.025374   0.344133  -0.009412
    23  H   -0.000006  -0.000010  -0.009408  -0.025342   0.344053   0.005458
    24  H    0.003407   0.000589   0.005141  -0.042052  -0.007179   0.364150
    25  H   -0.041446   0.005485   0.000465   0.003875  -0.000104  -0.035800
    26  H    0.006733   0.001137   0.000016   0.000003   0.000000  -0.000283
    27  H   -0.000005  -0.000000  -0.000000  -0.000000   0.000000  -0.000000
              13         14         15         16         17         18
     1  N    0.000000   0.004695  -0.070575   0.343934   0.343855  -0.007321
     2  C    0.000019  -0.023854   0.536334  -0.025351  -0.025134  -0.042289
     3  C   -0.000075  -0.039137  -0.048198   0.005428  -0.009426   0.363692
     4  C    0.000829  -0.066848  -0.039172  -0.000183  -0.000075  -0.031501
     5  C    0.001989   0.492297  -0.019413  -0.000007   0.000003   0.003784
     6  O   -0.056177  -0.056141   0.004490  -0.000000  -0.000000  -0.000065
     7  C    0.493263   0.002052  -0.000244   0.000000   0.000000  -0.000001
     8  C   -0.067156   0.000817  -0.000011   0.000000  -0.000000  -0.000000
     9  C   -0.038036  -0.000049   0.000001  -0.000000  -0.000000   0.000000
    10  C   -0.026715   0.000012  -0.000000   0.000000   0.000000  -0.000000
    11  N    0.004614  -0.000000  -0.000000   0.000000   0.000000   0.000000
    12  C    0.499870  -0.000323   0.000003   0.000000  -0.000000  -0.000000
    13  C    4.964998   0.000250  -0.000364   0.000000   0.000000   0.000000
    14  C    0.000250   4.970776   0.493188  -0.000028  -0.000188   0.000405
    15  C   -0.000364   0.493188   4.956865  -0.009412   0.005497   0.005405
    16  H    0.000000  -0.000028  -0.009412   0.433449  -0.028378  -0.000070
    17  H    0.000000  -0.000188   0.005497  -0.028378   0.433327   0.004462
    18  H    0.000000   0.000405   0.005405  -0.000070   0.004462   0.611965
    19  H   -0.000028   0.006713   0.000234   0.000003  -0.000007  -0.006594
    20  H    0.006672  -0.000021  -0.000001  -0.000000  -0.000000  -0.000000
    21  H    0.000444   0.000000  -0.000000  -0.000000  -0.000000  -0.000000
    22  H   -0.000030  -0.000000  -0.000000   0.000000  -0.000000  -0.000000
    23  H   -0.000182  -0.000000  -0.000000   0.000000   0.000000  -0.000000
    24  H   -0.031232   0.000003  -0.000000  -0.000000  -0.000000  -0.000000
    25  H    0.364190   0.001389  -0.000230  -0.000000  -0.000000  -0.000002
    26  H    0.001550   0.364350  -0.036031  -0.000006   0.000003   0.000013
    27  H    0.000003  -0.031260   0.363886   0.004515  -0.000058  -0.000188
              19         20         21         22         23         24
     1  N   -0.000103  -0.000000  -0.000000   0.000000   0.000000   0.000000
     2  C    0.004225   0.000000  -0.000000   0.000000   0.000000  -0.000000
     3  C   -0.035666  -0.000000   0.000000   0.000000   0.000000  -0.000000
     4  C    0.360039  -0.000013  -0.000000   0.000000   0.000000  -0.000000
     5  C   -0.039805   0.000281  -0.000001  -0.000000  -0.000000  -0.000000
     6  O   -0.000851  -0.000753  -0.000062  -0.000000  -0.000000  -0.000055
     7  C    0.000313  -0.040242   0.003829  -0.000003  -0.000006   0.003407
     8  C   -0.000015   0.360082  -0.031715  -0.000173  -0.000010   0.000589
     9  C   -0.000000  -0.035547   0.364412   0.005460  -0.009408   0.005141
    10  C    0.000000   0.004273  -0.042723  -0.025374  -0.025342  -0.042052
    11  N    0.000000  -0.000103  -0.007203   0.344133   0.344053  -0.007179
    12  C   -0.000002   0.000261   0.005314  -0.009412   0.005458   0.364150
    13  C   -0.000028   0.006672   0.000444  -0.000030  -0.000182  -0.031232
    14  C    0.006713  -0.000021   0.000000  -0.000000  -0.000000   0.000003
    15  C    0.000234  -0.000001  -0.000000  -0.000000  -0.000000  -0.000000
    16  H    0.000003  -0.000000  -0.000000   0.000000   0.000000  -0.000000
    17  H   -0.000007  -0.000000  -0.000000  -0.000000   0.000000  -0.000000
    18  H   -0.006594  -0.000000  -0.000000  -0.000000  -0.000000  -0.000000
    19  H    0.610671   0.000004  -0.000000   0.000000   0.000000   0.000000
    20  H    0.000004   0.611092  -0.006615   0.000003  -0.000006   0.000014
    21  H   -0.000000  -0.006615   0.611965  -0.000055   0.004473  -0.000189
    22  H    0.000000   0.000003  -0.000055   0.433352  -0.028341   0.004402
    23  H    0.000000  -0.000006   0.004473  -0.028341   0.433321  -0.000062
    24  H    0.000000   0.000014  -0.000189   0.004402  -0.000062   0.609737
    25  H    0.000075  -0.000154   0.000013  -0.000006   0.000003  -0.006116
    26  H   -0.000153   0.000061  -0.000002   0.000000   0.000000  -0.000001
    27  H    0.000014   0.000000  -0.000000   0.000000   0.000000  -0.000000
              25         26         27
     1  N   -0.000000  -0.000104  -0.007224
     2  C   -0.000043   0.003872  -0.041767
     3  C    0.000107   0.000472   0.005130
     4  C    0.001293   0.005504   0.000614
     5  C    0.006809  -0.041196   0.003404
     6  O   -0.007005  -0.007102  -0.000056
     7  C   -0.041446   0.006733  -0.000005
     8  C    0.005485   0.001137  -0.000000
     9  C    0.000465   0.000016  -0.000000
    10  C    0.003875   0.000003  -0.000000
    11  N   -0.000104   0.000000   0.000000
    12  C   -0.035800  -0.000283  -0.000000
    13  C    0.364190   0.001550   0.000003
    14  C    0.001389   0.364350  -0.031260
    15  C   -0.000230  -0.036031   0.363886
    16  H   -0.000000  -0.000006   0.004515
    17  H   -0.000000   0.000003  -0.000058
    18  H   -0.000002   0.000013  -0.000188
    19  H    0.000075  -0.000153   0.000014
    20  H   -0.000154   0.000061   0.000000
    21  H    0.000013  -0.000002  -0.000000
    22  H   -0.000006   0.000000   0.000000
    23  H    0.000003   0.000000   0.000000
    24  H   -0.006116  -0.000001  -0.000000
    25  H    0.601940   0.000029   0.000001
    26  H    0.000029   0.602075  -0.006054
    27  H    0.000001  -0.006054   0.609541
 Mulliken charges:
               1
     1  N   -0.673359
     2  C    0.256504
     3  C   -0.141504
     4  C   -0.135594
     5  C    0.295637
     6  O   -0.589922
     7  C    0.295593
     8  C   -0.137061
     9  C   -0.141500
    10  C    0.256315
    11  N   -0.673732
    12  C   -0.142993
    13  C   -0.118697
    14  C   -0.119101
    15  C   -0.142252
    16  H    0.276106
    17  H    0.276118
    18  H    0.098305
    19  H    0.100933
    20  H    0.100711
    21  H    0.098114
    22  H    0.276044
    23  H    0.276048
    24  H    0.099442
    25  H    0.105231
    26  H    0.105112
    27  H    0.099502
 Sum of Mulliken charges =  -0.00000
 Mulliken charges with hydrogens summed into heavy atoms:
               1
     1  N   -0.121135
     2  C    0.256504
     3  C   -0.043200
     4  C   -0.034662
     5  C    0.295637
     6  O   -0.589922
     7  C    0.295593
     8  C   -0.036350
     9  C   -0.043386
    10  C    0.256315
    11  N   -0.121639
    12  C   -0.043551
    13  C   -0.013465
    14  C   -0.013989
    15  C   -0.042751
 APT charges:
               1
     1  N   -1.564430
     2  C    0.235116
     3  C   -0.393231
     4  C   -0.523249
     5  C   -0.313251
     6  O   -0.353027
     7  C   -0.347847
     8  C   -0.504782
     9  C   -0.412668
    10  C    0.187268
    11  N   -1.301335
    12  C   -0.439898
    13  C   -0.575422
    14  C   -0.594808
    15  C   -0.419359
    16  H    0.760783
    17  H    1.008327
    18  H    0.747723
    19  H    0.467081
    20  H    0.482121
    21  H    0.769769
    22  H    0.638208
    23  H    0.903543
    24  H    0.530335
    25  H    0.244966
    26  H    0.244339
    27  H    0.523729
 Sum of APT charges =  -0.00000
 APT charges with hydrogens summed into heavy atoms:
               1
     1  N    0.204680
     2  C    0.235116
     3  C    0.354492
     4  C   -0.056168
     5  C   -0.313251
     6  O   -0.353027
     7  C   -0.347847
     8  C   -0.022661
     9  C    0.357101
    10  C    0.187268
    11  N    0.240416
    12  C    0.090436
    13  C   -0.330457
    14  C   -0.350468
    15  C    0.104371
 Electronic spatial extent (au):  <R**2>=           4270.2189
 Charge=             -0.0000 electrons
 Dipole moment (field-independent basis, Debye):
    X=              0.8381    Y=             -2.8165    Z=             -1.6864  Tot=              3.3880
 Quadrupole moment (field-independent basis, Debye-Ang):
   XX=            -54.8589   YY=            -83.7878   ZZ=            -83.2792
   XY=              6.9342   XZ=              4.2551   YZ=              2.3944
 Traceless Quadrupole moment (field-independent basis, Debye-Ang):
   XX=             19.1164   YY=             -9.8125   ZZ=             -9.3039
   XY=              6.9342   XZ=              4.2551   YZ=              2.3944
 Octapole moment (field-independent basis, Debye-Ang**2):
  XXX=             69.2942  YYY=            -13.8753  ZZZ=             -1.5016  XYY=            -23.2799
  XXY=            -50.5937  XXZ=            -50.7658  XZZ=              4.2349  YZZ=             -3.5506
  YYZ=             -3.3177  XYZ=             27.5945
 Hexadecapole moment (field-independent basis, Debye-Ang**3):
 XXXX=          -3538.7234 YYYY=           -558.2252 ZZZZ=           -355.1808 XXXY=            136.3268
 XXXZ=            163.4466 YYYX=             55.2933 YYYZ=              3.2085 ZZZX=              4.6066
 ZZZY=              4.9958 XXYY=           -777.1988 XXZZ=           -805.8146 YYZZ=           -133.6276
 XXYZ=             67.1929 YYXZ=            -31.0760 ZZXY=             -2.5485
 N-N= 8.983647482056D+02 E-N=-3.306424805768D+03  KE= 6.432055773192D+02
  Exact polarizability:   0.000   0.000   0.000   0.000   0.000   0.000
 Approx polarizability: 298.508  -1.820 199.125  39.040  -0.193 169.593
 D2PCM: PCM CHGder 2nd derivatives, FixD1E=F FixD2E=F DoIter=F DoCFld=F I1PDM=0
 Calling FoFJK, ICntrl=    100147 FMM=F ISym2X=0 I1Cent= 0 IOpClX= 0 NMat=1 NMatS=1 NMatT=0.
 ***** Axes restored to original set *****
 -------------------------------------------------------------------
 Center     Atomic                   Forces (Hartrees/Bohr)
 Number     Number              X              Y              Z
 -------------------------------------------------------------------
      1        7          -0.002636119    0.001844395   -0.001378100
      2        6          -0.002232148   -0.006070740    0.015329126
      3        6           0.002911904   -0.003460526   -0.011289000
      4        6          -0.006293845   -0.000631925    0.004926145
      5        6          -0.007905399   -0.001731614    0.000479421
      6        8          -0.000334757   -0.001517170   -0.006676260
      7        6           0.007807579    0.001037598   -0.001969364
      8        6           0.007507821    0.002104273    0.002276778
      9        6          -0.007254745    0.004572465   -0.007300313
     10        6           0.011522774   -0.011153207   -0.002840962
     11        7           0.000927297    0.002738626    0.002342979
     12        6          -0.012111070    0.000097630    0.002068288
     13        6           0.004087780   -0.001183275    0.004048624
     14        6          -0.003463396    0.002537202    0.004020491
     15        6           0.008932182    0.005111794   -0.006730320
     16        1          -0.002544224   -0.002875551   -0.001251015
     17        1           0.000632588    0.003738716    0.001590894
     18        1          -0.001179701    0.001200244   -0.000093383
     19        1           0.001607408    0.000714261    0.000509741
     20        1          -0.001525284   -0.000154429    0.001028306
     21        1           0.000624703    0.000709020    0.001262503
     22        1           0.002019575    0.002510463   -0.002637819
     23        1          -0.000437132   -0.001410861    0.003779793
     24        1           0.000839322    0.001062198    0.000321546
     25        1          -0.000475499    0.001513640   -0.001072114
     26        1           0.000460928   -0.001726558   -0.000112897
     27        1          -0.001488541    0.000423331   -0.000633090
 -------------------------------------------------------------------
 Cartesian Forces:  Max     0.015329126 RMS     0.004463516
 FormGI is forming the generalized inverse of G from B-inverse, IUseBI=4.

 GradGradGradGradGradGradGradGradGradGradGradGradGradGradGradGradGradGrad
 Berny optimization.
 Internal  Forces:  Max     0.013446828 RMS     0.002776934
 Search for a local minimum.
 Step number   1 out of a maximum of  141
 All quantities printed in internal units (Hartrees-Bohrs-Radians)
 Mixed Optimization -- RFO/linear search
 Second derivative matrix not updated -- analytic derivatives used.
 ITU=  0
     Eigenvalues ---    0.00045   0.00500   0.00509   0.00774   0.01643
     Eigenvalues ---    0.01646   0.01731   0.01736   0.01812   0.01815
     Eigenvalues ---    0.01853   0.01864   0.02122   0.02130   0.02310
     Eigenvalues ---    0.02311   0.02578   0.02635   0.02725   0.02800
     Eigenvalues ---    0.02805   0.02812   0.02866   0.02943   0.10767
     Eigenvalues ---    0.10788   0.11201   0.11231   0.11703   0.11725
     Eigenvalues ---    0.12529   0.12543   0.13562   0.13586   0.15496
     Eigenvalues ---    0.15507   0.17707   0.17790   0.18166   0.19320
     Eigenvalues ---    0.19583   0.20023   0.20486   0.20574   0.22692
     Eigenvalues ---    0.23105   0.25710   0.32175   0.32897   0.33936
     Eigenvalues ---    0.35678   0.35687   0.35842   0.35994   0.36101
     Eigenvalues ---    0.36122   0.36155   0.36477   0.37704   0.41288
     Eigenvalues ---    0.41327   0.41608   0.44192   0.45447   0.45532
     Eigenvalues ---    0.45980   0.45984   0.46245   0.47141   0.47391
     Eigenvalues ---    0.47747   0.47768   0.49461   0.52178   0.53023
 RFO step:  Lambda=-5.47918008D-03 EMin= 4.45251140D-04
 Linear search not attempted -- first point.
 Iteration  1 RMS(Cart)=  0.08398502 RMS(Int)=  0.00178645
 Iteration  2 RMS(Cart)=  0.00313889 RMS(Int)=  0.00036604
 Iteration  3 RMS(Cart)=  0.00000428 RMS(Int)=  0.00036604
 Iteration  4 RMS(Cart)=  0.00000000 RMS(Int)=  0.00036604
 Variable       Old X    -DE/DX   Delta X   Delta X   Delta X     New X
                                 (Linear)    (Quad)   (Total)
    R1        2.64483   0.00337   0.00000   0.00059   0.00059   2.64541
    R2        1.91831  -0.00265   0.00000  -0.00484  -0.00484   1.91347
    R3        1.91837  -0.00274   0.00000  -0.00496  -0.00496   1.91341
    R4        2.64167   0.00674   0.00000   0.01426   0.01432   2.65599
    R5        2.64199   0.00733   0.00000   0.01589   0.01597   2.65795
    R6        2.64075  -0.00181   0.00000  -0.00674  -0.00677   2.63398
    R7        2.05329   0.00008   0.00000   0.00027   0.00027   2.05356
    R8        2.63241   0.00305   0.00000   0.00354   0.00346   2.63587
    R9        2.05264  -0.00076   0.00000  -0.00146  -0.00146   2.05117
   R10        2.59955   0.01345   0.00000   0.02494   0.02494   2.62449
   R11        2.63637   0.00195   0.00000   0.00425   0.00420   2.64057
   R12        2.60041   0.01282   0.00000   0.02374   0.02374   2.62415
   R13        2.63256   0.00316   0.00000   0.00383   0.00371   2.63626
   R14        2.63654   0.00180   0.00000   0.00391   0.00378   2.64032
   R15        2.64115  -0.00209   0.00000  -0.00729  -0.00727   2.63388
   R16        2.05262  -0.00072   0.00000  -0.00141  -0.00141   2.05120
   R17        2.64140   0.00692   0.00000   0.01443   0.01457   2.65596
   R18        2.05329   0.00008   0.00000   0.00034   0.00034   2.05363
   R19        2.64470   0.00354   0.00000   0.00144   0.00144   2.64614
   R20        2.64163   0.00746   0.00000   0.01581   0.01593   2.65756
   R21        1.91831  -0.00272   0.00000  -0.00488  -0.00488   1.91344
   R22        1.91812  -0.00262   0.00000  -0.00464  -0.00464   1.91348
   R23        2.64194  -0.00269   0.00000  -0.00907  -0.00908   2.63286
   R24        2.05350  -0.00003   0.00000   0.00033   0.00033   2.05382
   R25        2.05276  -0.00094   0.00000  -0.00242  -0.00242   2.05034
   R26        2.64157  -0.00253   0.00000  -0.00919  -0.00917   2.63240
   R27        2.05238  -0.00078   0.00000  -0.00188  -0.00188   2.05050
   R28        2.05337   0.00003   0.00000   0.00043   0.00043   2.05380
    A1        1.98634   0.00194   0.00000   0.00671   0.00671   1.99305
    A2        1.98625   0.00191   0.00000   0.00696   0.00695   1.99321
    A3        1.95987  -0.00347   0.00000  -0.03037  -0.03037   1.92950
    A4        2.09816   0.00216   0.00000   0.01317   0.01170   2.10985
    A5        2.09812   0.00200   0.00000   0.01137   0.00990   2.10801
    A6        2.07291  -0.00364   0.00000  -0.00897  -0.01037   2.06254
    A7        2.10643   0.00045   0.00000   0.00293   0.00289   2.10932
    A8        2.09926  -0.00152   0.00000  -0.01212  -0.01212   2.08714
    A9        2.07749   0.00107   0.00000   0.00922   0.00922   2.08671
   A10        2.09192   0.00214   0.00000   0.00654   0.00628   2.09821
   A11        2.09528   0.00052   0.00000   0.00882   0.00881   2.10409
   A12        2.09579  -0.00264   0.00000  -0.01489  -0.01490   2.08088
   A13        2.04496   0.00379   0.00000   0.00932   0.00933   2.05429
   A14        2.09519  -0.00180   0.00000  -0.00542  -0.00568   2.08950
   A15        2.14211  -0.00202   0.00000  -0.00483  -0.00480   2.13731
   A16        2.04815   0.00899   0.00000   0.02885   0.02885   2.07700
   A17        2.04226   0.00373   0.00000   0.00911   0.00930   2.05156
   A18        2.14543  -0.00233   0.00000  -0.00492  -0.00473   2.14070
   A19        2.09292  -0.00138   0.00000  -0.00360  -0.00401   2.08891
   A20        2.09280   0.00194   0.00000   0.00604   0.00579   2.09859
   A21        2.09579  -0.00257   0.00000  -0.01527  -0.01515   2.08064
   A22        2.09455   0.00063   0.00000   0.00927   0.00939   2.10394
   A23        2.10662   0.00039   0.00000   0.00276   0.00276   2.10938
   A24        2.07752   0.00107   0.00000   0.00881   0.00879   2.08632
   A25        2.09904  -0.00146   0.00000  -0.01154  -0.01156   2.08748
   A26        2.09814   0.00225   0.00000   0.01363   0.01195   2.11008
   A27        2.07144  -0.00355   0.00000  -0.00791  -0.00947   2.06197
   A28        2.09803   0.00189   0.00000   0.01179   0.01009   2.10812
   A29        1.98651   0.00192   0.00000   0.00593   0.00591   1.99242
   A30        1.98720   0.00189   0.00000   0.00567   0.00565   1.99285
   A31        1.96075  -0.00352   0.00000  -0.03226  -0.03229   1.92846
   A32        2.10788   0.00137   0.00000   0.00543   0.00540   2.11328
   A33        2.09899  -0.00183   0.00000  -0.01342  -0.01341   2.08558
   A34        2.07630   0.00046   0.00000   0.00799   0.00800   2.08430
   A35        2.09028   0.00141   0.00000   0.00399   0.00365   2.09393
   A36        2.10716  -0.00211   0.00000  -0.01265  -0.01256   2.09459
   A37        2.08555   0.00071   0.00000   0.00902   0.00911   2.09466
   A38        2.08953   0.00165   0.00000   0.00449   0.00439   2.09393
   A39        2.10650  -0.00214   0.00000  -0.01252  -0.01249   2.09401
   A40        2.08711   0.00050   0.00000   0.00811   0.00814   2.09525
   A41        2.10753   0.00135   0.00000   0.00516   0.00521   2.11275
   A42        2.09880  -0.00182   0.00000  -0.01337  -0.01340   2.08540
   A43        2.07683   0.00047   0.00000   0.00820   0.00817   2.08501
    D1       -2.79889   0.00215   0.00000   0.06341   0.06381  -2.73508
    D2        0.52392  -0.00084   0.00000  -0.03546  -0.03586   0.48806
    D3       -0.52338   0.00079   0.00000   0.03240   0.03280  -0.49058
    D4        2.79943  -0.00219   0.00000  -0.06647  -0.06686   2.73256
    D5       -3.04123  -0.00128   0.00000  -0.02901  -0.02893  -3.07015
    D6        0.10535  -0.00152   0.00000  -0.03914  -0.03897   0.06638
    D7       -0.07826   0.00223   0.00000   0.07050   0.07022  -0.00804
    D8        3.06832   0.00200   0.00000   0.06037   0.06018   3.12850
    D9        3.04113   0.00161   0.00000   0.03791   0.03764   3.07877
   D10       -0.10754   0.00147   0.00000   0.03594   0.03576  -0.07178
   D11        0.07816  -0.00192   0.00000  -0.06178  -0.06159   0.01657
   D12       -3.07051  -0.00207   0.00000  -0.06376  -0.06347  -3.13398
   D13        0.05007  -0.00137   0.00000  -0.04856  -0.04874   0.00133
   D14       -3.11285  -0.00057   0.00000  -0.02345  -0.02338  -3.13623
   D15       -3.09645  -0.00115   0.00000  -0.03862  -0.03876  -3.13521
   D16        0.02382  -0.00035   0.00000  -0.01351  -0.01340   0.01042
   D17       -3.11682   0.00137   0.00000   0.04002   0.04008  -3.07674
   D18       -0.02033   0.00049   0.00000   0.01760   0.01754  -0.00279
   D19        0.04611   0.00053   0.00000   0.01461   0.01476   0.06087
   D20       -3.14059  -0.00035   0.00000  -0.00781  -0.00778   3.13482
   D21       -2.32722  -0.00117   0.00000  -0.06408  -0.06415  -2.39137
   D22        0.86079  -0.00028   0.00000  -0.04100  -0.04094   0.81986
   D23        0.02015  -0.00023   0.00000  -0.00907  -0.00895   0.01120
   D24       -3.13118   0.00011   0.00000   0.00091   0.00094  -3.13023
   D25        3.11404  -0.00100   0.00000  -0.03241  -0.03223   3.08181
   D26       -0.03729  -0.00067   0.00000  -0.02243  -0.02234  -0.05963
   D27       -2.39910  -0.00049   0.00000  -0.04451  -0.04449  -2.44359
   D28        0.81982  -0.00077   0.00000  -0.05327  -0.05328   0.76654
   D29       -3.11221   0.00090   0.00000   0.03017   0.03018  -3.08203
   D30        0.01873   0.00085   0.00000   0.03491   0.03493   0.05366
   D31       -0.04549   0.00112   0.00000   0.03857   0.03864  -0.00685
   D32        3.08545   0.00107   0.00000   0.04331   0.04339   3.12883
   D33        3.10779  -0.00036   0.00000  -0.02092  -0.02098   3.08681
   D34       -0.01252  -0.00083   0.00000  -0.04006  -0.04000  -0.05252
   D35        0.04568  -0.00086   0.00000  -0.03046  -0.03051   0.01516
   D36       -3.07463  -0.00133   0.00000  -0.04961  -0.04954  -3.12417
   D37       -0.02315   0.00016   0.00000   0.00891   0.00900  -0.01415
   D38        3.11484   0.00047   0.00000   0.01851   0.01866   3.13349
   D39        3.12909   0.00023   0.00000   0.00432   0.00433   3.13343
   D40       -0.01611   0.00054   0.00000   0.01392   0.01400  -0.00211
   D41        3.04321   0.00180   0.00000   0.04197   0.04185   3.08506
   D42        0.08992  -0.00191   0.00000  -0.06403  -0.06380   0.02612
   D43       -0.09473   0.00148   0.00000   0.03220   0.03214  -0.06259
   D44       -3.04802  -0.00223   0.00000  -0.07379  -0.07351  -3.12153
   D45        2.80644  -0.00235   0.00000  -0.07231  -0.07272   2.73372
   D46        0.52859  -0.00089   0.00000  -0.03651  -0.03695   0.49164
   D47       -0.52633   0.00083   0.00000   0.03318   0.03362  -0.49271
   D48       -2.80419   0.00229   0.00000   0.06898   0.06939  -2.73479
   D49       -0.08973   0.00214   0.00000   0.07216   0.07198  -0.01774
   D50        3.04636   0.00214   0.00000   0.07010   0.06989   3.11626
   D51       -3.04303  -0.00162   0.00000  -0.03404  -0.03375  -3.07678
   D52        0.09306  -0.00161   0.00000  -0.03610  -0.03584   0.05722
   D53        0.02273  -0.00069   0.00000  -0.02532  -0.02540  -0.00267
   D54       -3.13988  -0.00027   0.00000  -0.00668  -0.00664   3.13666
   D55       -3.11343  -0.00069   0.00000  -0.02322  -0.02324  -3.13667
   D56        0.00714  -0.00027   0.00000  -0.00458  -0.00449   0.00266
   D57       -0.04976   0.00082   0.00000   0.03128   0.03142  -0.01834
   D58        3.09882   0.00097   0.00000   0.03332   0.03339   3.13221
   D59        3.10146   0.00050   0.00000   0.02153   0.02163   3.12310
   D60       -0.03314   0.00066   0.00000   0.02357   0.02360  -0.00954
         Item               Value     Threshold  Converged?
 Maximum Force            0.013447     0.000450     NO 
 RMS     Force            0.002777     0.000300     NO 
 Maximum Displacement     0.257015     0.001800     NO 
 RMS     Displacement     0.082662     0.001200     NO 
 Predicted change in Energy=-3.049903D-03
 GradGradGradGradGradGradGradGradGradGradGradGradGradGradGradGradGradGrad

                          Input orientation:                          
 ---------------------------------------------------------------------
 Center     Atomic      Atomic             Coordinates (Angstroms)
 Number     Number       Type             X           Y           Z
 ---------------------------------------------------------------------
      1          7           0       -4.818131    0.526047    1.384467
      2          6           0       -3.656910    0.324857    0.628963
      3          6           0       -3.531828   -0.789013   -0.219003
      4          6           0       -2.344181   -1.034674   -0.905986
      5          6           0       -1.256883   -0.173485   -0.758589
      6          8           0       -0.127122   -0.422656   -1.526948
      7          6           0        1.125057   -0.323946   -0.934813
      8          6           0        2.148277    0.258908   -1.682789
      9          6           0        3.443227    0.322242   -1.171179
     10          6           0        3.738669   -0.181303    0.107304
     11          7           0        5.051174   -0.179367    0.595268
     12          6           0        2.698660   -0.778910    0.841460
     13          6           0        1.405605   -0.852220    0.327873
     14          6           0       -1.363647    0.939979    0.078865
     15          6           0       -2.548045    1.178189    0.772354
     16          1           0       -4.974510    1.488725    1.656654
     17          1           0       -5.655059    0.132854    0.971950
     18          1           0       -4.370220   -1.470240   -0.337083
     19          1           0       -2.254568   -1.893651   -1.563479
     20          1           0        1.924210    0.656182   -2.667761
     21          1           0        4.233172    0.771980   -1.766760
     22          1           0        5.117746   -0.200752    1.605397
     23          1           0        5.633169    0.557952    0.217188
     24          1           0        2.907886   -1.196843    1.822670
     25          1           0        0.617250   -1.321224    0.907307
     26          1           0       -0.524003    1.618502    0.188407
     27          1           0       -2.618997    2.041866    1.428263
 ---------------------------------------------------------------------
                    Distance matrix (angstroms):
                    1          2          3          4          5
     1  N    0.000000
     2  C    1.399892   0.000000
     3  C    2.440302   1.405488   0.000000
     4  C    3.715166   2.434677   1.393845   0.000000
     5  C    4.214799   2.816697   2.417728   1.394844   0.000000
     6  O    5.601958   4.203110   3.665646   2.382332   1.388819
     7  C    6.436073   5.072825   4.734475   3.541408   2.393184
     8  C    7.616447   6.248900   5.958558   4.739088   3.554746
     9  C    8.650023   7.324785   7.126915   5.950263   4.744155
    10  C    8.680456   7.431213   7.303145   6.225437   5.070046
    11  N    9.925907   8.722735   8.643069   7.594510   6.451709
    12  C    7.648524   6.454203   6.320100   5.343148   4.309642
    13  C    6.461494   5.206268   4.968030   3.951783   2.954644
    14  C    3.716100   2.437220   2.789113   2.414671   1.397330
    15  C    2.439931   1.406528   2.412572   2.784808   2.416177
    16  H    1.012566   2.036371   3.284435   4.455704   4.734669
    17  H    1.012531   2.036443   2.603136   3.981417   4.736303
    18  H    2.673858   2.159728   1.086698   2.149001   3.398839
    19  H    4.595343   3.419816   2.158526   1.085435   2.145273
    20  H    7.867443   6.490537   6.152508   4.917520   3.801662
    21  H    9.587325   8.257893   8.070160   6.875063   5.661361
    22  H    9.964873   8.844449   8.859437   7.917248   6.798902
    23  H   10.516332   9.302122   9.273713   8.211947   6.997139
    24  H    7.927908   6.843761   6.767915   5.920817   5.005543
    25  H    5.760509   4.588628   4.332052   3.484281   2.757696
    26  H    4.589505   3.417999   3.874161   3.398542   2.155256
    27  H    2.671295   2.159691   3.400091   3.871607   3.397860
                    6          7          8          9         10
     6  O    0.000000
     7  C    1.388640   0.000000
     8  C    2.380391   1.395051   0.000000
     9  C    3.664538   2.418128   1.393790   0.000000
    10  C    4.203971   2.817326   2.434659   1.405476   0.000000
    11  N    5.601584   4.216213   3.715971   2.440787   1.400279
    12  C    3.704230   2.416271   2.784210   2.411977   1.406321
    13  C    2.444205   1.397196   2.414318   2.788982   2.437615
    14  C    2.442213   2.969629   3.987593   5.005022   5.224147
    15  C    3.702751   4.320013   5.378499   6.356517   6.466320
    16  H    6.106215   6.870676   7.962313   8.956317   9.006052
    17  H    6.091893   7.057930   8.243518   9.349207   9.438667
    18  H    4.529579   5.645293   6.876895   8.059693   8.222707
    19  H    2.586733   3.779029   4.902326   6.126088   6.453104
    20  H    2.583275   2.145322   1.085450   2.158399   3.419741
    21  H    4.527342   3.399054   2.148739   1.086735   2.159952
    22  H    6.113057   4.733858   4.454346   3.284344   2.036299
    23  H    6.097914   4.735813   3.980428   2.603645   2.036590
    24  H    4.585911   3.397667   3.870977   3.399609   2.159630
    25  H    2.699465   2.155421   3.398450   3.873917   3.417994
    26  H    2.695604   2.784623   3.534254   4.389496   4.627769
    27  H    4.584384   5.019874   5.965273   6.816506   6.863478
                   11         12         13         14         15
    11  N    0.000000
    12  C    2.440161   0.000000
    13  C    3.716773   1.393247   0.000000
    14  C    6.532192   4.476435   3.307982   0.000000
    15  C    7.721558   5.600262   4.466708   1.393008   0.000000
    16  H   10.218777   8.042652   6.924706   3.978551   2.601182
    17  H   10.717406   8.404342   7.158085   4.457047   3.284220
    18  H    9.555014   7.199720   5.846731   3.875777   3.400786
    19  H    7.808511   5.617905   4.249549   3.394186   3.870201
    20  H    4.596021   3.869612   3.393825   4.293542   5.666388
    21  H    2.674577   3.400412   3.875648   5.895671   7.252379
    22  H    1.012546   2.601892   3.979506   6.755740   7.833249
    23  H    1.012572   3.284548   4.457929   7.008602   8.223452
    24  H    2.671227   1.086837   2.147098   5.084571   6.042444
    25  H    4.589214   2.151908   1.084994   3.118222   4.035390
    26  H    5.872007   4.069351   3.138042   1.085078   2.152119
    27  H    8.028654   6.048024   5.077796   2.147308   1.086824
                   16         17         18         19         20
    16  H    0.000000
    17  H    1.664438   0.000000
    18  H    3.618788   2.436039   0.000000
    19  H    5.404425   4.700900   2.481795   0.000000
    20  H    8.184499   8.424173   7.040851   5.018294   0.000000
    21  H    9.849613  10.280375   9.004991   7.016957   2.481233
    22  H   10.232819  10.796568   9.767616   8.201140   5.403044
    23  H   10.745289  11.321416  10.221964   8.449706   4.699889
    24  H    8.328986   8.707230   7.596717   6.213090   4.956339
    25  H    6.302786   6.438974   5.142525   3.831423   4.289451
    26  H    4.688241   5.398965   4.960831   4.289427   3.882976
    27  H    2.430343   3.615276   4.303268   4.956977   6.272022
                   21         22         23         24         25
    21  H    0.000000
    22  H    3.619409   0.000000
    23  H    2.437590   1.663857   0.000000
    24  H    4.303098   2.433697   3.617187   0.000000
    25  H    4.960547   4.690122   5.400649   2.469893   0.000000
    26  H    5.212483   6.094824   6.247908   4.730205   3.234387
    27  H    7.666354   8.057165   8.471537   6.418039   4.696282
                   26         27
    26  H    0.000000
    27  H    2.470927   0.000000
 Stoichiometry    C12H12N2O
 Framework group  C1[X(C12H12N2O)]
 Deg. of freedom    75
 Full point group                 C1      NOp   1
 Largest Abelian subgroup         C1      NOp   1
 Largest concise Abelian subgroup C1      NOp   1
                         Standard orientation:                         
 ---------------------------------------------------------------------
 Center     Atomic      Atomic             Coordinates (Angstroms)
 Number     Number       Type             X           Y           Z
 ---------------------------------------------------------------------
      1          7           0        4.940625   -1.186974   -0.063067
      2          6           0        3.716243   -0.508957   -0.092736
      3          6           0        3.476319    0.584586    0.756968
      4          6           0        2.229001    1.205925    0.787570
      5          6           0        1.195603    0.746461   -0.028868
      6          8           0       -0.000566    1.452013   -0.014913
      7          6           0       -1.197137    0.748089    0.017156
      8          6           0       -2.248873    1.227604   -0.763923
      9          6           0       -3.495888    0.606593   -0.719773
     10          6           0       -3.712605   -0.518310    0.094467
     11          7           0       -4.981661   -1.102185    0.191268
     12          6           0       -2.645878   -0.979250    0.886533
     13          6           0       -1.401345   -0.353915    0.851447
     14          6           0        1.416445   -0.338458   -0.881343
     15          6           0        2.660706   -0.964405   -0.903124
     16          1           0        5.160114   -1.684762   -0.917070
     17          1           0        5.724633   -0.615554    0.226811
     18          1           0        4.272045    0.947579    1.401924
     19          1           0        2.050520    2.053257    1.442049
     20          1           0       -2.085031    2.091529   -1.400314
     21          1           0       -4.309272    0.994288   -1.327303
     22          1           0       -4.970084   -2.074069    0.475094
     23          1           0       -5.558264   -0.980192   -0.632108
     24          1           0       -2.796145   -1.832911    1.542199
     25          1           0       -0.591654   -0.721223    1.473298
     26          1           0        0.618686   -0.692646   -1.525955
     27          1           0        2.820685   -1.813052   -1.562967
 ---------------------------------------------------------------------
 Rotational constants (GHZ):           1.8661192           0.2597066           0.2467449
 Standard basis: 6-31G(d,p) (6D, 7F)
 There are   285 symmetry adapted cartesian basis functions of A   symmetry.
 There are   285 symmetry adapted basis functions of A   symmetry.
   285 basis functions,   504 primitive gaussians,   285 cartesian basis functions
    53 alpha electrons       53 beta electrons
       nuclear repulsion energy       893.8407082924 Hartrees.
 NAtoms=   27 NActive=   27 NUniq=   27 SFac= 1.00D+00 NAtFMM=   60 NAOKFM=F Big=F
 Integral buffers will be    131072 words long.
 Raffenetti 2 integral format.
 Two-electron integral symmetry is turned on.
 ------------------------------------------------------------------------------
 Polarizable Continuum Model (PCM)
 =================================
 Model                : PCM.
 Atomic radii         : UFF (Universal Force Field).
 Polarization charges : Total charges.
 Charge compensation  : None.
 Solution method      : Matrix inversion.
[...]
     2    N    1  S      Val( 2S)     1.37330
     3    N    1  S      Ryd( 3S)     0.00011
     4    N    1  S      Ryd( 4S)     0.00001
     5    N    1  px     Val( 2p)     1.32257
     6    N    1  px     Ryd( 3p)     0.00206
     7    N    1  py     Val( 2p)     1.52079
     8    N    1  py     Ryd( 3p)     0.00278
     9    N    1  pz     Val( 2p)     1.56298
    10    N    1  pz     Ryd( 3p)     0.00275
    11    N    1  dxy    Ryd( 3d)     0.00092
    12    N    1  dxz    Ryd( 3d)     0.00033
    13    N    1  dyz    Ryd( 3d)     0.00088
    14    N    1  dx2y2  Ryd( 3d)     0.00039
    15    N    1  dz2    Ryd( 3d)     0.00088

    16    C    2  S      Cor( 1S)     1.99897
    17    C    2  S      Val( 2S)     0.85102
    18    C    2  S      Ryd( 3S)     0.00111
    19    C    2  S      Ryd( 4S)     0.00009
    20    C    2  px     Val( 2p)     0.93421
    21    C    2  px     Ryd( 3p)     0.00482
    22    C    2  py     Val( 2p)     1.00251
    23    C    2  py     Ryd( 3p)     0.00386
    24    C    2  pz     Val( 2p)     1.00667
    25    C    2  pz     Ryd( 3p)     0.00249
    26    C    2  dxy    Ryd( 3d)     0.00124
    27    C    2  dxz    Ryd( 3d)     0.00107
    28    C    2  dyz    Ryd( 3d)     0.00060
    29    C    2  dx2y2  Ryd( 3d)     0.00107
    30    C    2  dz2    Ryd( 3d)     0.00102

    31    C    3  S      Cor( 1S)     1.99905
    32    C    3  S      Val( 2S)     0.95114
    33    C    3  S      Ryd( 3S)     0.00060
    34    C    3  S      Ryd( 4S)     0.00004
    35    C    3  px     Val( 2p)     1.14349
    36    C    3  px     Ryd( 3p)     0.00433
    37    C    3  py     Val( 2p)     1.08658
    38    C    3  py     Ryd( 3p)     0.00425
    39    C    3  pz     Val( 2p)     1.13055
    40    C    3  pz     Ryd( 3p)     0.00422
    41    C    3  dxy    Ryd( 3d)     0.00048
    42    C    3  dxz    Ryd( 3d)     0.00058
    43    C    3  dyz    Ryd( 3d)     0.00047
    44    C    3  dx2y2  Ryd( 3d)     0.00060
    45    C    3  dz2    Ryd( 3d)     0.00036

    46    C    4  S      Cor( 1S)     1.99903
    47    C    4  S      Val( 2S)     0.95835
    48    C    4  S      Ryd( 3S)     0.00077
    49    C    4  S      Ryd( 4S)     0.00004
    50    C    4  px     Val( 2p)     1.06324
    51    C    4  px     Ryd( 3p)     0.00508
    52    C    4  py     Val( 2p)     1.16498
    53    C    4  py     Ryd( 3p)     0.00431
    54    C    4  pz     Val( 2p)     1.11344
    55    C    4  pz     Ryd( 3p)     0.00435
    56    C    4  dxy    Ryd( 3d)     0.00060
    57    C    4  dxz    Ryd( 3d)     0.00065
    58    C    4  dyz    Ryd( 3d)     0.00049
    59    C    4  dx2y2  Ryd( 3d)     0.00050
    60    C    4  dz2    Ryd( 3d)     0.00039

    61    C    5  S      Cor( 1S)     1.99869
    62    C    5  S      Val( 2S)     0.84118
    63    C    5  S      Ryd( 3S)     0.00129
    64    C    5  S      Ryd( 4S)     0.00013
    65    C    5  px     Val( 2p)     0.80890
    66    C    5  px     Ryd( 3p)     0.00536
    67    C    5  py     Val( 2p)     0.98987
    68    C    5  py     Ryd( 3p)     0.00635
    69    C    5  pz     Val( 2p)     1.03048
    70    C    5  pz     Ryd( 3p)     0.00291
    71    C    5  dxy    Ryd( 3d)     0.00164
    72    C    5  dxz    Ryd( 3d)     0.00131
    73    C    5  dyz    Ryd( 3d)     0.00067
    74    C    5  dx2y2  Ryd( 3d)     0.00130
    75    C    5  dz2    Ryd( 3d)     0.00123

    76    O    6  S      Cor( 1S)     1.99971
    77    O    6  S      Val( 2S)     1.57844
    78    O    6  S      Ryd( 3S)     0.00059
    79    O    6  S      Ryd( 4S)     0.00014
    80    O    6  px     Val( 2p)     1.38196
    81    O    6  px     Ryd( 3p)     0.00051
    82    O    6  py     Val( 2p)     1.73650
    83    O    6  py     Ryd( 3p)     0.00218
    84    O    6  pz     Val( 2p)     1.74499
    85    O    6  pz     Ryd( 3p)     0.00264
    86    O    6  dxy    Ryd( 3d)     0.00131
    87    O    6  dxz    Ryd( 3d)     0.00040
    88    O    6  dyz    Ryd( 3d)     0.00143
    89    O    6  dx2y2  Ryd( 3d)     0.00140
    90    O    6  dz2    Ryd( 3d)     0.00085

    91    C    7  S      Cor( 1S)     1.99869
    92    C    7  S      Val( 2S)     0.84112
    93    C    7  S      Ryd( 3S)     0.00128
    94    C    7  S      Ryd( 4S)     0.00013
    95    C    7  px     Val( 2p)     0.80809
    96    C    7  px     Ryd( 3p)     0.00540
    97    C    7  py     Val( 2p)     0.98969
    98    C    7  py     Ryd( 3p)     0.00627
    99    C    7  pz     Val( 2p)     1.03204
   100    C    7  pz     Ryd( 3p)     0.00297
   101    C    7  dxy    Ryd( 3d)     0.00163
   102    C    7  dxz    Ryd( 3d)     0.00131
   103    C    7  dyz    Ryd( 3d)     0.00066
   104    C    7  dx2y2  Ryd( 3d)     0.00130
   105    C    7  dz2    Ryd( 3d)     0.00124

   106    C    8  S      Cor( 1S)     1.99903
   107    C    8  S      Val( 2S)     0.95818
   108    C    8  S      Ryd( 3S)     0.00077
   109    C    8  S      Ryd( 4S)     0.00004
   110    C    8  px     Val( 2p)     1.06469
   111    C    8  px     Ryd( 3p)     0.00506
   112    C    8  py     Val( 2p)     1.16134
   113    C    8  py     Ryd( 3p)     0.00429
   114    C    8  pz     Val( 2p)     1.11608
   115    C    8  pz     Ryd( 3p)     0.00440
   116    C    8  dxy    Ryd( 3d)     0.00060
   117    C    8  dxz    Ryd( 3d)     0.00065
   118    C    8  dyz    Ryd( 3d)     0.00049
   119    C    8  dx2y2  Ryd( 3d)     0.00050
   120    C    8  dz2    Ryd( 3d)     0.00039

   121    C    9  S      Cor( 1S)     1.99905
   122    C    9  S      Val( 2S)     0.95110
   123    C    9  S      Ryd( 3S)     0.00060
   124    C    9  S      Ryd( 4S)     0.00004
   125    C    9  px     Val( 2p)     1.14288
   126    C    9  px     Ryd( 3p)     0.00422
   127    C    9  py     Val( 2p)     1.08913
   128    C    9  py     Ryd( 3p)     0.00425
   129    C    9  pz     Val( 2p)     1.12855
   130    C    9  pz     Ryd( 3p)     0.00432
   131    C    9  dxy    Ryd( 3d)     0.00049
   132    C    9  dxz    Ryd( 3d)     0.00058
   133    C    9  dyz    Ryd( 3d)     0.00046
   134    C    9  dx2y2  Ryd( 3d)     0.00059
   135    C    9  dz2    Ryd( 3d)     0.00037

   136    C   10  S      Cor( 1S)     1.99897
   137    C   10  S      Val( 2S)     0.85099
   138    C   10  S      Ryd( 3S)     0.00112
   139    C   10  S      Ryd( 4S)     0.00009
   140    C   10  px     Val( 2p)     0.92471
   141    C   10  px     Ryd( 3p)     0.00541
   142    C   10  py     Val( 2p)     1.01022
   143    C   10  py     Ryd( 3p)     0.00319
   144    C   10  pz     Val( 2p)     1.00826
   145    C   10  pz     Ryd( 3p)     0.00260
   146    C   10  dxy    Ryd( 3d)     0.00109
   147    C   10  dxz    Ryd( 3d)     0.00113
   148    C   10  dyz    Ryd( 3d)     0.00054
   149    C   10  dx2y2  Ryd( 3d)     0.00121
   150    C   10  dz2    Ryd( 3d)     0.00102

   151    N   11  S      Cor( 1S)     1.99950
   152    N   11  S      Val( 2S)     1.37298
   153    N   11  S      Ryd( 3S)     0.00010
   154    N   11  S      Ryd( 4S)     0.00001
   155    N   11  px     Val( 2p)     1.38943
   156    N   11  px     Ryd( 3p)     0.00257
   157    N   11  py     Val( 2p)     1.45382
   158    N   11  py     Ryd( 3p)     0.00226
   159    N   11  pz     Val( 2p)     1.56502
   160    N   11  pz     Ryd( 3p)     0.00278
   161    N   11  dxy    Ryd( 3d)     0.00042
   162    N   11  dxz    Ryd( 3d)     0.00098
   163    N   11  dyz    Ryd( 3d)     0.00029
   164    N   11  dx2y2  Ryd( 3d)     0.00087
   165    N   11  dz2    Ryd( 3d)     0.00084

   166    C   12  S      Cor( 1S)     1.99905
   167    C   12  S      Val( 2S)     0.94878
   168    C   12  S      Ryd( 3S)     0.00068
   169    C   12  S      Ryd( 4S)     0.00004
   170    C   12  px     Val( 2p)     1.05945
   171    C   12  px     Ryd( 3p)     0.00454
   172    C   12  py     Val( 2p)     1.16831
   173    C   12  py     Ryd( 3p)     0.00443
   174    C   12  pz     Val( 2p)     1.14305
   175    C   12  pz     Ryd( 3p)     0.00430
   176    C   12  dxy    Ryd( 3d)     0.00054
   177    C   12  dxz    Ryd( 3d)     0.00055
   178    C   12  dyz    Ryd( 3d)     0.00050
   179    C   12  dx2y2  Ryd( 3d)     0.00051
   180    C   12  dz2    Ryd( 3d)     0.00036

   181    C   13  S      Cor( 1S)     1.99902
   182    C   13  S      Val( 2S)     0.95897
   183    C   13  S      Ryd( 3S)     0.00075
   184    C   13  S      Ryd( 4S)     0.00005
   185    C   13  px     Val( 2p)     1.15298
   186    C   13  px     Ryd( 3p)     0.00417
   187    C   13  py     Val( 2p)     1.08206
   188    C   13  py     Ryd( 3p)     0.00488
   189    C   13  pz     Val( 2p)     1.12286
   190    C   13  pz     Ryd( 3p)     0.00461
   191    C   13  dxy    Ryd( 3d)     0.00047
   192    C   13  dxz    Ryd( 3d)     0.00066
   193    C   13  dyz    Ryd( 3d)     0.00050
   194    C   13  dx2y2  Ryd( 3d)     0.00065
   195    C   13  dz2    Ryd( 3d)     0.00042

   196    C   14  S      Cor( 1S)     1.99902
   197    C   14  S      Val( 2S)     0.95886
   198    C   14  S      Ryd( 3S)     0.00075
   199    C   14  S      Ryd( 4S)     0.00005
   200    C   14  px     Val( 2p)     1.15219
   201    C   14  px     Ryd( 3p)     0.00419
   202    C   14  py     Val( 2p)     1.08358
   203    C   14  py     Ryd( 3p)     0.00484
   204    C   14  pz     Val( 2p)     1.12267
   205    C   14  pz     Ryd( 3p)     0.00464
   206    C   14  dxy    Ryd( 3d)     0.00047
   207    C   14  dxz    Ryd( 3d)     0.00065
   208    C   14  dyz    Ryd( 3d)     0.00050
   209    C   14  dx2y2  Ryd( 3d)     0.00065
   210    C   14  dz2    Ryd( 3d)     0.00041

   211    C   15  S      Cor( 1S)     1.99905
   212    C   15  S      Val( 2S)     0.94879
   213    C   15  S      Ryd( 3S)     0.00068
   214    C   15  S      Ryd( 4S)     0.00004
   215    C   15  px     Val( 2p)     1.06044
   216    C   15  px     Ryd( 3p)     0.00463
   217    C   15  py     Val( 2p)     1.17034
   218    C   15  py     Ryd( 3p)     0.00424
   219    C   15  pz     Val( 2p)     1.13939
   220    C   15  pz     Ryd( 3p)     0.00441
   221    C   15  dxy    Ryd( 3d)     0.00054
   222    C   15  dxz    Ryd( 3d)     0.00054
   223    C   15  dyz    Ryd( 3d)     0.00050
   224    C   15  dx2y2  Ryd( 3d)     0.00054
   225    C   15  dz2    Ryd( 3d)     0.00035

   226    H   16  S      Val( 1S)     0.57572
   227    H   16  S      Ryd( 2S)     0.00137
   228    H   16  px     Ryd( 2p)     0.00022
   229    H   16  py     Ryd( 2p)     0.00042
   230    H   16  pz     Ryd( 2p)     0.00061

   231    H   17  S      Val( 1S)     0.57595
   232    H   17  S      Ryd( 2S)     0.00141
   233    H   17  px     Ryd( 2p)     0.00045
   234    H   17  py     Ryd( 2p)     0.00044
   235    H   17  pz     Ryd( 2p)     0.00036

   236    H   18  S      Val( 1S)     0.75613
   237    H   18  S      Ryd( 2S)     0.00096
   238    H   18  px     Ryd( 2p)     0.00025
   239    H   18  py     Ryd( 2p)     0.00014
   240    H   18  pz     Ryd( 2p)     0.00023

   241    H   19  S      Val( 1S)     0.74809
   242    H   19  S      Ryd( 2S)     0.00121
   243    H   19  px     Ryd( 2p)     0.00008
   244    H   19  py     Ryd( 2p)     0.00032
   245    H   19  pz     Ryd( 2p)     0.00022

   246    H   20  S      Val( 1S)     0.74809
   247    H   20  S      Ryd( 2S)     0.00118
   248    H   20  px     Ryd( 2p)     0.00008
   249    H   20  py     Ryd( 2p)     0.00032
   250    H   20  pz     Ryd( 2p)     0.00022

   251    H   21  S      Val( 1S)     0.75628
   252    H   21  S      Ryd( 2S)     0.00096
   253    H   21  px     Ryd( 2p)     0.00025
   254    H   21  py     Ryd( 2p)     0.00015
   255    H   21  pz     Ryd( 2p)     0.00022

   256    H   22  S      Val( 1S)     0.57594
   257    H   22  S      Ryd( 2S)     0.00143
   258    H   22  px     Ryd( 2p)     0.00025
   259    H   22  py     Ryd( 2p)     0.00064
   260    H   22  pz     Ryd( 2p)     0.00036

   261    H   23  S      Val( 1S)     0.57580
   262    H   23  S      Ryd( 2S)     0.00135
   263    H   23  px     Ryd( 2p)     0.00039
   264    H   23  py     Ryd( 2p)     0.00027
   265    H   23  pz     Ryd( 2p)     0.00060

   266    H   24  S      Val( 1S)     0.75636
   267    H   24  S      Ryd( 2S)     0.00094
   268    H   24  px     Ryd( 2p)     0.00007
   269    H   24  py     Ryd( 2p)     0.00031
   270    H   24  pz     Ryd( 2p)     0.00024

   271    H   25  S      Val( 1S)     0.74486
   272    H   25  S      Ryd( 2S)     0.00089
   273    H   25  px     Ryd( 2p)     0.00027
   274    H   25  py     Ryd( 2p)     0.00014
   275    H   25  pz     Ryd( 2p)     0.00023

   276    H   26  S      Val( 1S)     0.74484
   277    H   26  S      Ryd( 2S)     0.00088
   278    H   26  px     Ryd( 2p)     0.00027
   279    H   26  py     Ryd( 2p)     0.00014
   280    H   26  pz     Ryd( 2p)     0.00023

   281    H   27  S      Val( 1S)     0.75653
   282    H   27  S      Ryd( 2S)     0.00093
   283    H   27  px     Ryd( 2p)     0.00007
   284    H   27  py     Ryd( 2p)     0.00032
   285    H   27  pz     Ryd( 2p)     0.00023

 WARNING:  1 low occupancy (<1.9990e) core orbital  found on  C    2
           1 low occupancy (<1.9990e) core orbital  found on  C    5
           1 low occupancy (<1.9990e) core orbital  found on  C    7
           1 low occupancy (<1.9990e) core orbital  found on  C   10


 Summary of Natural Population Analysis:                  
                                                          
                                       Natural Population 
                Natural  -----------------------------------------------
    Atom  No    Charge         Core      Valence    Rydberg      Total
 -----------------------------------------------------------------------
      N    1   -0.79026      1.99950     5.77964    0.01112     7.79026
      C    2    0.18924      1.99897     3.79441    0.01738     5.81076
      C    3   -0.32675      1.99905     4.31176    0.01593     6.32675
      C    4   -0.31624      1.99903     4.30002    0.01719     6.31624
      C    5    0.30869      1.99869     3.67043    0.02219     5.69131
      O    6   -0.45304      1.99971     6.44189    0.01144     8.45304
      C    7    0.30816      1.99869     3.67095    0.02220     5.69184
      C    8   -0.31653      1.99903     4.30030    0.01720     6.31653
      C    9   -0.32664      1.99905     4.31166    0.01593     6.32664
      C   10    0.18945      1.99897     3.79418    0.01740     5.81055
      N   11   -0.79187      1.99950     5.78124    0.01113     7.79187
      C   12   -0.33510      1.99905     4.31960    0.01645     6.33510
      C   13   -0.33303      1.99902     4.31687    0.01714     6.33303
      C   14   -0.33347      1.99902     4.31730    0.01715     6.33347
      C   15   -0.33448      1.99905     4.31897    0.01646     6.33448
      H   16    0.42166      0.00000     0.57572    0.00262     0.57834
      H   17    0.42138      0.00000     0.57595    0.00266     0.57862
      H   18    0.24228      0.00000     0.75613    0.00159     0.75772
      H   19    0.25009      0.00000     0.74809    0.00183     0.74991
      H   20    0.25012      0.00000     0.74809    0.00179     0.74988
      H   21    0.24213      0.00000     0.75628    0.00158     0.75787
      H   22    0.42137      0.00000     0.57594    0.00269     0.57863
      H   23    0.42160      0.00000     0.57580    0.00260     0.57840
      H   24    0.24207      0.00000     0.75636    0.00156     0.75793
      H   25    0.25361      0.00000     0.74486    0.00153     0.74639
      H   26    0.25365      0.00000     0.74484    0.00152     0.74635
      H   27    0.24191      0.00000     0.75653    0.00156     0.75809
 =======================================================================
   * Total *   -0.00000     29.98635    75.74381    0.26984   106.00000

                                 Natural Population      
 --------------------------------------------------------
   Core                      29.98635 ( 99.9545% of  30)
   Valence                   75.74381 ( 99.6629% of  76)
   Natural Minimal Basis    105.73016 ( 99.7454% of 106)
   Natural Rydberg Basis      0.26984 (  0.2546% of 106)
 --------------------------------------------------------

    Atom  No          Natural Electron Configuration
 ----------------------------------------------------------------------------
      N    1      [core]2S( 1.37)2p( 4.41)3p( 0.01)
      C    2      [core]2S( 0.85)2p( 2.94)3p( 0.01)
      C    3      [core]2S( 0.95)2p( 3.36)3p( 0.01)
      C    4      [core]2S( 0.96)2p( 3.34)3p( 0.01)
      C    5      [core]2S( 0.84)2p( 2.83)3p( 0.01)3d( 0.01)
      O    6      [core]2S( 1.58)2p( 4.86)3p( 0.01)3d( 0.01)
      C    7      [core]2S( 0.84)2p( 2.83)3p( 0.01)3d( 0.01)
      C    8      [core]2S( 0.96)2p( 3.34)3p( 0.01)
      C    9      [core]2S( 0.95)2p( 3.36)3p( 0.01)
      C   10      [core]2S( 0.85)2p( 2.94)3p( 0.01)
      N   11      [core]2S( 1.37)2p( 4.41)3p( 0.01)
      C   12      [core]2S( 0.95)2p( 3.37)3p( 0.01)
      C   13      [core]2S( 0.96)2p( 3.36)3p( 0.01)
      C   14      [core]2S( 0.96)2p( 3.36)3p( 0.01)
      C   15      [core]2S( 0.95)2p( 3.37)3p( 0.01)
      H   16            1S( 0.58)
      H   17            1S( 0.58)
      H   18            1S( 0.76)
      H   19            1S( 0.75)
      H   20            1S( 0.75)
      H   21            1S( 0.76)
      H   22            1S( 0.58)
      H   23            1S( 0.58)
      H   24            1S( 0.76)
      H   25            1S( 0.74)
      H   26            1S( 0.74)
      H   27            1S( 0.76)


 NBO analysis skipped by request.
 1\1\GINC-DRG2-W001\SP\RB3LYP TD-FC\6-31G(d,p)\C12H12N2O1\QDUEZ\17-Jul-
 2024\0\\# TD(NStates=10, Root=1) B3LYP/6-31G** SCRF=(Solvent=water) vo
 lume pop=NPA density=current Geom=AllCheck Guess=Read\\HLBLWEWZXPIGSM-
 UHFFFAOYSA-N_conf_2\\0,1\N,0,-4.8484276695,0.5288965089,1.3579232755\C
 ,0,-3.6728314433,0.3157394572,0.6271469227\C,0,-3.5603402975,-0.767768
 8763,-0.2616074405\C,0,-2.3643415912,-1.0231627683,-0.9298380833\C,0,-
 1.2588330173,-0.1948745435,-0.7336181868\O,0,-0.1253741383,-0.44979974
 08,-1.4950475077\C,0,1.1302336788,-0.3328323858,-0.9126442717\C,0,2.14
 62983151,0.2321859344,-1.6841102101\C,0,3.4471797715,0.3021332219,-1.1
 892838018\C,0,3.7579082375,-0.1817150749,0.0936521547\N,0,5.075129542,
 -0.1662663412,0.5694027458\C,0,2.720853815,-0.7451883074,0.8589868284\
 C,0,1.4219510054,-0.8269314035,0.3615407275\C,0,-1.3555068985,0.893908
 8972,0.1370631768\C,0,-2.5484866627,1.1402700896,0.8132324328\H,0,-4.9
 854889175,1.4886123728,1.6506526342\H,0,-5.6844797002,0.1735760639,0.9
 105106075\H,0,-4.4149545102,-1.4191406204,-0.4239140642\H,0,-2.2825038
 213,-1.8612552991,-1.6147499146\H,0,1.910331215,0.6129836575,-2.672794
 3293\H,0,4.230493525,0.7421295505,-1.8007210002\H,0,5.1507413073,-0.15
 8514475,1.5791310564\H,0,5.652256423,0.5620655978,0.1670459615\H,0,2.9
 376479968,-1.1309036296,1.8517179172\H,0,0.6367074921,-1.2700922054,0.
 9649232764\H,0,-0.5027342128,1.5481252777,0.2849194026\H,0,-2.61342944
 41,1.9878190417,1.4904796901\\Version=ES64L-G16RevA.03\State=1-A\HF=-6
 49.2542692\RMSD=4.319e-09\Dipole=-0.1680516,1.0942863,1.016708\Quadrup
 ole=22.5696338,-11.3250356,-11.2445982,2.083939,2.3011626,1.8861458\PG
 =C01 [X(C12H12N2O1)]\\@


 The juvenile sea squirt wanders through the sea searching
 for a suitable rock or hunk of coral to cling to and make
 its home for life.  For this task it has a rudimentary
 nervous system.  When it finds its spot and takes root, it
 doesn't need its brain any more so it eats it.
 It's rather like getting tenure.

                               -- source unknown
 Job cpu time:       0 days  0 hours 47 minutes 12.5 seconds.
 Elapsed time:       0 days  0 hours 17 minutes 22.3 seconds.
 File lengths (MBytes):  RWF=    702 Int=      0 D2E=      0 Chk=     43 Scr=      1
 Normal termination of Gaussian 16 at Wed Jul 17 21:06:52 2024.
