 Entering Gaussian System, Link 0=g16
 Initial command:
 /opt/sw/arch/manual/gaussian/G16_A03/g16/l1.exe "/scratch/1380839/Gau-66093.inp" -scrdir="/scratch/1380839/"
 Entering Link 1 = /opt/sw/arch/manual/gaussian/G16_A03/g16/l1.exe PID=     66094.
  
 Copyright (c) 1988,1990,1992,1993,1995,1998,2003,2009,2016,
            Gaussian, Inc.  All Rights Reserved.
  
 This is part of the Gaussian(R) 16 program.  It is based on
 the Gaussian(R) 09 system (copyright 2009, Gaussian, Inc.),
 the Gaussian(R) 03 system (copyright 2003, Gaussian, Inc.),
 the Gaussian(R) 98 system (copyright 1998, Gaussian, Inc.),
 the Gaussian(R) 94 system (copyright 1995, Gaussian, Inc.),
 the Gaussian 92(TM) system (copyright 1992, Gaussian, Inc.),
 the Gaussian 90(TM) system (copyright 1990, Gaussian, Inc.),
 the Gaussian 88(TM) system (copyright 1988, Gaussian, Inc.),
 the Gaussian 86(TM) system (copyright 1986, Carnegie Mellon
 University), and the Gaussian 82(TM) system (copyright 1983,
 Carnegie Mellon University). Gaussian is a federally registered
 trademark of Gaussian, Inc.
  
 This software contains proprietary and confidential information,
 including trade secrets, belonging to Gaussian, Inc.
  
 This software is provided under written license and may be
 used, copied, transmitted, or stored only in accord with that
 written license.
  
 The following legend is applicable only to US Government
 contracts under FAR:
  
                    RESTRICTED RIGHTS LEGEND
  
 Use, reproduction and disclosure by the US Government is
 subject to restrictions as set forth in subparagraphs (a)
 and (c) of the Commercial Computer Software - Restricted
 Rights clause in FAR 52.227-19.
  
 Gaussian, Inc.
 340 Quinnipiac St., Bldg. 40, Wallingford CT 06492
  
  
 ---------------------------------------------------------------
 Warning -- This program may not be used in any manner that
 competes with the business of Gaussian, Inc. or will provide
 assistance to any competitor of Gaussian, Inc.  The licensee
 of this program is prohibited from giving any competitor of
 Gaussian, Inc. access to this program.  By using this program,
 the user acknowledges that Gaussian, Inc. is engaged in the
 business of creating and licensing software in the field of
 computational chemistry and represents and warrants to the
 licensee that it is not a competitor of Gaussian, Inc. and that
 it will not use this program in any manner prohibited above.
 ---------------------------------------------------------------
  

 Cite this work as:
 Gaussian 16, Revision A.03,
 M. J. Frisch, G. W. Trucks, H. B. Schlegel, G. E. Scuseria, 
 M. A. Robb, J. R. Cheeseman, G. Scalmani, V. Barone, 
 G. A. Petersson, H. Nakatsuji, X. Li, M. Caricato, A. V. Marenich, 
 J. Bloino, B. G. Janesko, R. Gomperts, B. Mennucci, H. P. Hratchian, 
 J. V. Ortiz, A. F. Izmaylov, J. L. Sonnenberg, D. Williams-Young, 
 F. Ding, F. Lipparini, F. Egidi, J. Goings, B. Peng, A. Petrone, 
 T. Henderson, D. Ranasinghe, V. G. Zakrzewski, J. Gao, N. Rega, 
 G. Zheng, W. Liang, M. Hada, M. Ehara, K. Toyota, R. Fukuda, 
 J. Hasegawa, M. Ishida, T. Nakajima, Y. Honda, O. Kitao, H. Nakai, 
 T. Vreven, K. Throssell, J. A. Montgomery, Jr., J. E. Peralta, 
 F. Ogliaro, M. J. Bearpark, J. J. Heyd, E. N. Brothers, K. N. Kudin, 
 V. N. Staroverov, T. A. Keith, R. Kobayashi, J. Normand, 
 K. Raghavachari, A. P. Rendell, J. C. Burant, S. S. Iyengar, 
 J. Tomasi, M. Cossi, J. M. Millam, M. Klene, C. Adamo, R. Cammi, 
 J. W. Ochterski, R. L. Martin, K. Morokuma, O. Farkas, 
 J. B. Foresman, and D. J. Fox, Gaussian, Inc., Wallingford CT, 2016.
 
 ******************************************
 Gaussian 16:  ES64L-G16RevA.03 25-Dec-2016
                17-Jul-2024 
 ******************************************
 %nprocshared=4
 Will use up to    4 processors via shared memory.
 %mem=8GB
 %Chk=HLBLWEWZXPIGSM-UHFFFAOYSA-N_conf_0_0.chk
 -------------------------------------------------------
 # opt=CalcFc B3LYP/6-31G** SCRF=(Solvent=water) scf=xqc
 -------------------------------------------------------
 1/10=4,18=20,19=15,26=3,38=1/1,3;
 2/9=110,12=2,17=6,18=5,40=1/2;
 3/5=1,6=6,7=101,11=2,25=1,30=1,70=2201,71=2,72=1,74=-5,140=1/1,2,3;
 4//1;
 5/5=2,8=3,13=1,38=5,53=1/2,8;
 8/6=4,10=90,11=11/1;
 11/6=1,8=1,9=11,15=111,16=1/1,2,10;
 10/6=1,13=1/2;
 6/7=2,8=2,9=2,10=2,28=1/1;
 7/10=1,18=20,25=1/1,2,3,16;
 1/10=4,18=20,19=15,26=3/3(2);
 2/9=110/2;
 99//99;
 2/9=110/2;
 3/5=1,6=6,7=101,11=2,25=1,30=1,70=2205,71=1,72=1,74=-5/1,2,3;
 4/5=5,16=3,69=1/1;
 5/5=2,8=3,13=1,38=5,53=1/2,8;
 7//1,2,3,16;
 1/18=20,19=15,26=3/3(-5);
 2/9=110/2;
 6/7=2,8=2,9=2,10=2,19=2,28=1/1;
 99/9=1/99;
 ----------------------------------
 HLBLWEWZXPIGSM-UHFFFAOYSA-N_conf_0
 ----------------------------------
 Symbolic Z-matrix:
 Charge =  0 Multiplicity = 1
 N                     4.81343   0.77626  -1.36439 
 C                     3.59873   0.3874   -0.78825 
 C                     3.51746   0.14591   0.5861 
 C                     2.34287  -0.3549    1.15436 
 C                     1.24749  -0.64419   0.34371 
 O                     0.13441  -1.16778   0.96054 
 C                    -1.09174  -0.68019   0.57175 
 C                    -2.09321  -1.61252   0.31043 
 C                    -3.36881  -1.1781   -0.05959 
 C                    -3.6703    0.18585  -0.11341 
 N                    -4.9108    0.61435  -0.59961 
 C                    -2.64747   1.11066   0.11719 
 C                    -1.36876   0.68456   0.4878 
 C                     1.34381  -0.4849   -1.03902 
 C                     2.52227   0.01682  -1.59943 
 H                     5.41152   1.30915  -0.74101 
 H                     4.71354   1.21678  -2.27348 
 H                     4.37157   0.34291   1.22819 
 H                     2.28819  -0.52746   2.22537 
 H                    -1.8779   -2.67523   0.37472 
 H                    -4.12791  -1.91692  -0.30149 
 H                    -5.15896   1.55678  -0.3155 
 H                    -5.66417  -0.04702  -0.43973 
 H                    -2.83922   2.17544   0.01644 
 H                    -0.59849   1.4206    0.69872 
 H                     0.5196   -0.76499  -1.6888 
 H                     2.59284   0.11071  -2.67973 
 

 GradGradGradGradGradGradGradGradGradGradGradGradGradGradGradGradGradGrad
 Berny optimization.
 Initialization pass.
                           ----------------------------
                           !    Initial Parameters    !
                           ! (Angstroms and Degrees)  !
 --------------------------                            --------------------------
 ! Name  Definition              Value          Derivative Info.                !
 --------------------------------------------------------------------------------
 ! R1    R(1,2)                  1.3995         calculate D2E/DX2 analytically  !
 ! R2    R(1,16)                 1.015          calculate D2E/DX2 analytically  !
 ! R3    R(1,17)                 1.0151         calculate D2E/DX2 analytically  !
 ! R4    R(2,3)                  1.3978         calculate D2E/DX2 analytically  !
 ! R5    R(2,15)                 1.3979         calculate D2E/DX2 analytically  !
 ! R6    R(3,4)                  1.3976         calculate D2E/DX2 analytically  !
 ! R7    R(3,18)                 1.0866         calculate D2E/DX2 analytically  !
 ! R8    R(4,5)                  1.3931         calculate D2E/DX2 analytically  !
 ! R9    R(4,19)                 1.0862         calculate D2E/DX2 analytically  !
 ! R10   R(5,6)                  1.3761         calculate D2E/DX2 analytically  !
 ! R11   R(5,14)                 1.3952         calculate D2E/DX2 analytically  !
 ! R12   R(6,7)                  1.3756         calculate D2E/DX2 analytically  !
 ! R13   R(7,8)                  1.393          calculate D2E/DX2 analytically  !
 ! R14   R(7,13)                 1.3951         calculate D2E/DX2 analytically  !
 ! R15   R(8,9)                  1.3974         calculate D2E/DX2 analytically  !
 ! R16   R(8,20)                 1.0862         calculate D2E/DX2 analytically  !
 ! R17   R(9,10)                 1.3979         calculate D2E/DX2 analytically  !
 ! R18   R(9,21)                 1.0866         calculate D2E/DX2 analytically  !
 ! R19   R(10,11)                1.3996         calculate D2E/DX2 analytically  !
 ! R20   R(10,12)                1.3981         calculate D2E/DX2 analytically  !
 ! R21   R(11,22)                1.0151         calculate D2E/DX2 analytically  !
 ! R22   R(11,23)                1.0152         calculate D2E/DX2 analytically  !
 ! R23   R(12,13)                1.3979         calculate D2E/DX2 analytically  !
 ! R24   R(12,24)                1.0866         calculate D2E/DX2 analytically  !
 ! R25   R(13,25)                1.0861         calculate D2E/DX2 analytically  !
 ! R26   R(14,15)                1.3981         calculate D2E/DX2 analytically  !
 ! R27   R(14,26)                1.0863         calculate D2E/DX2 analytically  !
 ! R28   R(15,27)                1.0867         calculate D2E/DX2 analytically  !
 ! A1    A(2,1,16)             113.8582         calculate D2E/DX2 analytically  !
 ! A2    A(2,1,17)             113.8188         calculate D2E/DX2 analytically  !
 ! A3    A(16,1,17)            112.3429         calculate D2E/DX2 analytically  !
 ! A4    A(1,2,3)              120.2145         calculate D2E/DX2 analytically  !
 ! A5    A(1,2,15)             120.2081         calculate D2E/DX2 analytically  !
 ! A6    A(3,2,15)             118.6849         calculate D2E/DX2 analytically  !
 ! A7    A(2,3,4)              120.7003         calculate D2E/DX2 analytically  !
 ! A8    A(2,3,18)             120.2662         calculate D2E/DX2 analytically  !
 ! A9    A(4,3,18)             119.0332         calculate D2E/DX2 analytically  !
 ! A10   A(3,4,5)              119.9086         calculate D2E/DX2 analytically  !
 ! A11   A(3,4,19)             120.0089         calculate D2E/DX2 analytically  !
 ! A12   A(5,4,19)             120.0796         calculate D2E/DX2 analytically  !
 ! A13   A(4,5,6)              117.0128         calculate D2E/DX2 analytically  !
 ! A14   A(4,5,14)             119.9152         calculate D2E/DX2 analytically  !
 ! A15   A(6,5,14)             122.9241         calculate D2E/DX2 analytically  !
 ! A16   A(5,6,7)              117.3505         calculate D2E/DX2 analytically  !
 ! A17   A(6,7,8)              117.1676         calculate D2E/DX2 analytically  !
 ! A18   A(6,7,13)             122.7338         calculate D2E/DX2 analytically  !
 ! A19   A(8,7,13)             120.0453         calculate D2E/DX2 analytically  !
 ! A20   A(7,8,9)              119.8585         calculate D2E/DX2 analytically  !
 ! A21   A(7,8,20)             120.0796         calculate D2E/DX2 analytically  !
 ! A22   A(9,8,20)             120.0506         calculate D2E/DX2 analytically  !
 ! A23   A(8,9,10)             120.6895         calculate D2E/DX2 analytically  !
 ! A24   A(8,9,21)             119.0313         calculate D2E/DX2 analytically  !
 ! A25   A(10,9,21)            120.2786         calculate D2E/DX2 analytically  !
 ! A26   A(9,10,11)            120.2154         calculate D2E/DX2 analytically  !
 ! A27   A(9,10,12)            118.7689         calculate D2E/DX2 analytically  !
 ! A28   A(11,10,12)           120.2133         calculate D2E/DX2 analytically  !
 ! A29   A(10,11,22)           113.809          calculate D2E/DX2 analytically  !
 ! A30   A(10,11,23)           113.8038         calculate D2E/DX2 analytically  !
 ! A31   A(22,11,23)           112.2922         calculate D2E/DX2 analytically  !
 ! A32   A(10,12,13)           120.7528         calculate D2E/DX2 analytically  !
 ! A33   A(10,12,24)           120.2521         calculate D2E/DX2 analytically  !
 ! A34   A(13,12,24)           118.9938         calculate D2E/DX2 analytically  !
 ! A35   A(7,13,12)            119.7215         calculate D2E/DX2 analytically  !
 ! A36   A(7,13,25)            120.6936         calculate D2E/DX2 analytically  !
 ! A37   A(12,13,25)           119.5826         calculate D2E/DX2 analytically  !
 ! A38   A(5,14,15)            119.7643         calculate D2E/DX2 analytically  !
 ! A39   A(5,14,26)            120.7313         calculate D2E/DX2 analytically  !
 ! A40   A(15,14,26)           119.4933         calculate D2E/DX2 analytically  !
 ! A41   A(2,15,14)            120.7726         calculate D2E/DX2 analytically  !
 ! A42   A(2,15,27)            120.2633         calculate D2E/DX2 analytically  !
 ! A43   A(14,15,27)           118.9634         calculate D2E/DX2 analytically  !
 ! D1    D(16,1,2,3)           -30.2858         calculate D2E/DX2 analytically  !
 ! D2    D(16,1,2,15)          160.6684         calculate D2E/DX2 analytically  !
 ! D3    D(17,1,2,3)          -160.7975         calculate D2E/DX2 analytically  !
 ! D4    D(17,1,2,15)           30.1567         calculate D2E/DX2 analytically  !
 ! D5    D(1,2,3,4)           -174.3627         calculate D2E/DX2 analytically  !
 ! D6    D(1,2,3,18)             5.428          calculate D2E/DX2 analytically  !
 ! D7    D(15,2,3,4)            -5.1517         calculate D2E/DX2 analytically  !
 ! D8    D(15,2,3,18)          174.639          calculate D2E/DX2 analytically  !
 ! D9    D(1,2,15,14)          174.3525         calculate D2E/DX2 analytically  !
 ! D10   D(1,2,15,27)           -5.3324         calculate D2E/DX2 analytically  !
 ! D11   D(3,2,15,14)            5.1408         calculate D2E/DX2 analytically  !
 ! D12   D(3,2,15,27)         -174.5441         calculate D2E/DX2 analytically  !
 ! D13   D(2,3,4,5)              1.3263         calculate D2E/DX2 analytically  !
 ! D14   D(2,3,4,19)          -179.284          calculate D2E/DX2 analytically  !
 ! D15   D(18,3,4,5)          -178.467          calculate D2E/DX2 analytically  !
 ! D16   D(18,3,4,19)            0.9227         calculate D2E/DX2 analytically  !
 ! D17   D(3,4,5,6)            178.3159         calculate D2E/DX2 analytically  !
 ! D18   D(3,4,5,14)             2.6063         calculate D2E/DX2 analytically  !
 ! D19   D(19,4,5,6)            -1.0734         calculate D2E/DX2 analytically  !
 ! D20   D(19,4,5,14)         -176.7831         calculate D2E/DX2 analytically  !
 ! D21   D(4,5,6,7)            137.4602         calculate D2E/DX2 analytically  !
 ! D22   D(14,5,6,7)           -46.9704         calculate D2E/DX2 analytically  !
 ! D23   D(4,5,14,15)           -2.617          calculate D2E/DX2 analytically  !
 ! D24   D(4,5,14,26)          176.1633         calculate D2E/DX2 analytically  !
 ! D25   D(6,5,14,15)         -178.0628         calculate D2E/DX2 analytically  !
 ! D26   D(6,5,14,26)            0.7175         calculate D2E/DX2 analytically  !
 ! D27   D(5,6,7,8)            133.3378         calculate D2E/DX2 analytically  !
 ! D28   D(5,6,7,13)           -49.3218         calculate D2E/DX2 analytically  !
 ! D29   D(6,7,8,9)            178.5803         calculate D2E/DX2 analytically  !
 ! D30   D(6,7,8,20)            -2.6419         calculate D2E/DX2 analytically  !
 ! D31   D(13,7,8,9)             1.1647         calculate D2E/DX2 analytically  !
 ! D32   D(13,7,8,20)          179.9426         calculate D2E/DX2 analytically  !
 ! D33   D(6,7,13,12)         -178.421          calculate D2E/DX2 analytically  !
 ! D34   D(6,7,13,25)            2.1368         calculate D2E/DX2 analytically  !
 ! D35   D(8,7,13,12)           -1.1545         calculate D2E/DX2 analytically  !
 ! D36   D(8,7,13,25)          179.4033         calculate D2E/DX2 analytically  !
 ! D37   D(7,8,9,10)            -2.8687         calculate D2E/DX2 analytically  !
 ! D38   D(7,8,9,21)           177.4134         calculate D2E/DX2 analytically  !
 ! D39   D(20,8,9,10)          178.3531         calculate D2E/DX2 analytically  !
 ! D40   D(20,8,9,21)           -1.3649         calculate D2E/DX2 analytically  !
 ! D41   D(8,9,10,11)          174.2496         calculate D2E/DX2 analytically  !
 ! D42   D(8,9,10,12)            4.484          calculate D2E/DX2 analytically  !
 ! D43   D(21,9,10,11)          -6.036          calculate D2E/DX2 analytically  !
 ! D44   D(21,9,10,12)        -175.8016         calculate D2E/DX2 analytically  !
 ! D45   D(9,10,11,22)         160.3648         calculate D2E/DX2 analytically  !
 ! D46   D(9,10,11,23)          29.9881         calculate D2E/DX2 analytically  !
 ! D47   D(12,10,11,22)        -30.0182         calculate D2E/DX2 analytically  !
 ! D48   D(12,10,11,23)       -160.3949         calculate D2E/DX2 analytically  !
 ! D49   D(9,10,12,13)          -4.4782         calculate D2E/DX2 analytically  !
 ! D50   D(9,10,12,24)         175.9274         calculate D2E/DX2 analytically  !
 ! D51   D(11,10,12,13)       -174.244          calculate D2E/DX2 analytically  !
 ! D52   D(11,10,12,24)          6.1616         calculate D2E/DX2 analytically  !
 ! D53   D(10,12,13,7)           2.8509         calculate D2E/DX2 analytically  !
 ! D54   D(10,12,13,25)       -177.7007         calculate D2E/DX2 analytically  !
 ! D55   D(24,12,13,7)        -177.5497         calculate D2E/DX2 analytically  !
 ! D56   D(24,12,13,25)          1.8987         calculate D2E/DX2 analytically  !
 ! D57   D(5,14,15,2)           -1.3024         calculate D2E/DX2 analytically  !
 ! D58   D(5,14,15,27)         178.3865         calculate D2E/DX2 analytically  !
 ! D59   D(26,14,15,2)         179.9021         calculate D2E/DX2 analytically  !
 ! D60   D(26,14,15,27)         -0.409          calculate D2E/DX2 analytically  !
 --------------------------------------------------------------------------------
 Trust Radius=3.00D-01 FncErr=1.00D-07 GrdErr=1.00D-06 EigMax=2.50D+02 EigMin=1.00D-04
 Number of steps in this run=    141 maximum allowed number of steps=    162.
 GradGradGradGradGradGradGradGradGradGradGradGradGradGradGradGradGradGrad

                          Input orientation:                          
 ---------------------------------------------------------------------
 Center     Atomic      Atomic             Coordinates (Angstroms)
 Number     Number       Type             X           Y           Z
 ---------------------------------------------------------------------
      1          7           0        4.813427    0.776264   -1.364386
      2          6           0        3.598729    0.387395   -0.788252
      3          6           0        3.517460    0.145910    0.586097
      4          6           0        2.342873   -0.354903    1.154362
      5          6           0        1.247494   -0.644187    0.343709
      6          8           0        0.134409   -1.167779    0.960539
      7          6           0       -1.091737   -0.680188    0.571749
      8          6           0       -2.093209   -1.612520    0.310429
      9          6           0       -3.368812   -1.178098   -0.059586
     10          6           0       -3.670300    0.185854   -0.113412
     11          7           0       -4.910797    0.614347   -0.599611
     12          6           0       -2.647468    1.110657    0.117188
     13          6           0       -1.368759    0.684560    0.487796
     14          6           0        1.343811   -0.484896   -1.039015
     15          6           0        2.522269    0.016823   -1.599428
     16          1           0        5.411517    1.309149   -0.741009
     17          1           0        4.713545    1.216785   -2.273477
     18          1           0        4.371571    0.342910    1.228192
     19          1           0        2.288193   -0.527458    2.225373
     20          1           0       -1.877897   -2.675232    0.374721
     21          1           0       -4.127907   -1.916922   -0.301486
     22          1           0       -5.158964    1.556778   -0.315503
     23          1           0       -5.664175   -0.047017   -0.439734
     24          1           0       -2.839221    2.175445    0.016436
     25          1           0       -0.598493    1.420602    0.698718
     26          1           0        0.519601   -0.764987   -1.688802
     27          1           0        2.592839    0.110708   -2.679727
 ---------------------------------------------------------------------
                    Distance matrix (angstroms):
                    1          2          3          4          5
     1  N    0.000000
     2  C    1.399515   0.000000
     3  C    2.425131   1.397768   0.000000
     4  C    3.705033   2.429389   1.397638   0.000000
     5  C    4.201327   2.806030   2.415730   1.393090   0.000000
     6  O    5.574746   4.180711   3.648427   2.361281   1.376076
     7  C    6.382855   4.998980   4.682663   3.498827   2.350595
     8  C    7.497528   6.132285   5.886227   4.687499   3.478372
     9  C    8.512994   7.178325   7.042062   5.897005   4.664546
    10  C    8.595763   7.303068   7.221828   6.169110   5.008255
    11  N    9.755595   8.514642   8.524133   7.525397   6.355966
    12  C    7.613924   6.352788   6.257552   5.303499   4.278028
    13  C    6.454333   5.137367   4.916802   3.911650   2.937875
    14  C    3.706026   2.430726   2.786333   2.413696   1.395197
    15  C    2.425160   1.397890   2.404909   2.784551   2.416147
    16  H    1.015026   2.034224   2.588782   3.972163   4.725593
    17  H    1.015126   2.033862   3.279414   4.454253   4.725081
    18  H    2.665426   2.159933   1.086555   2.146628   3.393602
    19  H    4.578523   3.411216   2.156791   1.086200   2.153449
    20  H    7.727298   6.381663   6.092076   4.879207   3.727489
    21  H    9.398429   8.077606   7.968357   6.813985   5.561571
    22  H   10.057730   8.848057   8.836501   7.879884   6.805990
    23  H   10.550494   9.279631   9.240777   8.169991   6.981515
    24  H    7.901101   6.729921   6.697083   5.878064   4.975809
    25  H    5.827560   4.571134   4.310289   3.465785   2.792321
    26  H    4.573581   3.408812   3.871957   3.402362   2.162295
    27  H    2.665351   2.160104   3.394373   3.870338   3.394257
                    6          7          8          9         10
     6  O    0.000000
     7  C    1.375622   0.000000
     8  C    2.362778   1.393011   0.000000
     9  C    3.648742   2.414864   1.397425   0.000000
    10  C    4.178696   2.805078   2.429198   1.397912   0.000000
    11  N    5.573522   4.199181   3.704849   2.425325   1.399582
    12  C    3.693421   2.415378   2.785720   2.406239   1.398078
    13  C    2.431905   1.395108   2.415132   2.787352   2.430483
    14  C    2.434584   2.926532   3.860783   4.862985   5.142757
    15  C    3.695753   4.273274   5.254042   6.205142   6.370614
    16  H    6.072752   6.926263   8.121736   9.151225   9.172518
    17  H    6.092084   6.737590   7.811110   8.715576   8.718805
    18  H    4.506369   5.596908   6.816112   7.992832   8.154524
    19  H    2.578489   3.765864   4.903168   6.135640   6.440681
    20  H    2.581661   2.153386   1.086209   2.157049   3.411275
    21  H    4.507911   3.392696   2.146415   1.086555   2.160195
    22  H    6.088620   4.725840   4.453660   3.278671   2.033812
    23  H    6.069633   4.725589   3.970559   2.586996   2.033778
    24  H    4.572850   3.393628   3.871904   3.395953   2.160098
    25  H    2.702853   2.161649   3.403641   3.873362   3.408835
    26  H    2.707327   2.777353   3.397354   4.236125   4.576158
    27  H    4.574926   4.977320   5.819759   6.638331   6.768939
                   11         12         13         14         15
    11  N    0.000000
    12  C    2.425444   0.000000
    13  C    3.705862   1.397858   0.000000
    14  C    6.365652   4.451169   3.325178   0.000000
    15  C    7.523772   5.556026   4.465700   1.398052   0.000000
    16  H   10.346638   8.106982   6.918975   4.455743   3.279443
    17  H    9.787375   7.740223   6.700918   3.971740   2.587651
    18  H    9.464507   7.147775   5.797957   3.872057   3.394361
    19  H    7.817270   5.611473   4.226282   3.398515   3.870418
    20  H    4.579207   3.871889   3.400031   4.144348   5.523213
    21  H    2.666292   3.396060   3.873444   5.703889   7.046195
    22  H    1.015126   2.587248   3.971360   6.854048   7.938593
    23  H    1.015155   3.278855   4.454897   7.047179   8.268423
    24  H    2.666077   1.086597   2.146434   5.068446   6.001353
    25  H    4.575114   2.152334   1.086073   3.228495   4.122042
    26  H    5.707725   4.099996   3.225627   1.086276   2.151719
    27  H    7.802890   6.023575   5.104583   2.146334   1.086665
                   16         17         18         19         20
    16  H    0.000000
    17  H    1.686462   0.000000
    18  H    2.427522   3.625230   0.000000
    19  H    4.682703   5.400404   2.468273   0.000000
    20  H    8.381868   8.099867   6.992385   5.039262   0.000000
    21  H   10.079749   9.585413   8.926808   7.034343   2.468773
    22  H   10.581940  10.070535   9.730753   8.140039   5.399233
    23  H   11.162478  10.613994  10.180875   8.400820   4.680465
    24  H    8.330599   7.950283   7.538041   6.202860   4.957981
    25  H    6.181057   6.090421   5.113052   3.802443   4.303220
    26  H    5.397333   4.675300   4.957213   4.301756   3.695288
    27  H    3.624891   2.426075   4.299958   4.955812   6.089219
                   21         22         23         24         25
    21  H    0.000000
    22  H    3.623515   0.000000
    23  H    2.423999   1.686069   0.000000
    24  H    4.302238   2.423662   3.623229   0.000000
    25  H    4.959459   4.673872   5.395471   2.460926   0.000000
    26  H    4.985071   6.286703   6.349389   4.778667   3.424498
    27  H    7.411865   8.232321   8.556911   6.406224   4.828490
                   26         27
    26  H    0.000000
    27  H    2.459083   0.000000
 Stoichiometry    C12H12N2O
 Framework group  C1[X(C12H12N2O)]
 Deg. of freedom    75
 Full point group                 C1      NOp   1
 Largest Abelian subgroup         C1      NOp   1
 Largest concise Abelian subgroup C1      NOp   1
                         Standard orientation:                         
 ---------------------------------------------------------------------
 Center     Atomic      Atomic             Coordinates (Angstroms)
 Number     Number       Type             X           Y           Z
 ---------------------------------------------------------------------
      1          7           0        4.901253   -1.154244    0.178248
      2          6           0        3.635624   -0.567257    0.067482
      3          6           0        3.451524    0.561161   -0.736592
      4          6           0        2.221940    1.225071   -0.763776
      5          6           0        1.173512    0.778444    0.037489
      6          8           0        0.001026    1.497238   -0.009379
      7          6           0       -1.175373    0.785469   -0.051872
      8          6           0       -2.193244    1.187056    0.810187
      9          6           0       -3.422348    0.522379    0.792793
     10          6           0       -3.664697   -0.505522   -0.123091
     11          7           0       -4.851144   -1.244760   -0.054536
     12          6           0       -2.623747   -0.921676   -0.958471
     13          6           0       -1.391253   -0.262250   -0.947420
     14          6           0        1.369895   -0.296413    0.905066
     15          6           0        2.602842   -0.955166    0.925960
     16          1           0        5.476413   -1.049547   -0.651516
     17          1           0        4.881097   -2.111479    0.515554
     18          1           0        4.267203    0.936677   -1.348357
     19          1           0        2.087724    2.094007   -1.401559
     20          1           0       -2.025468    2.002113    1.508316
     21          1           0       -4.192179    0.818841    1.499951
     22          1           0       -5.080165   -1.732812   -0.914672
     23          1           0       -5.639490   -0.721155    0.312738
     24          1           0       -2.765475   -1.761966   -1.632651
     25          1           0       -0.608292   -0.577602   -1.630854
     26          1           0        0.581225   -0.616120    1.580182
     27          1           0        2.750384   -1.773615    1.625396
 ---------------------------------------------------------------------
 Rotational constants (GHZ):           1.7981799           0.2668271           0.2538584
 Standard basis: 6-31G(d,p) (6D, 7F)
 There are   285 symmetry adapted cartesian basis functions of A   symmetry.
 There are   285 symmetry adapted basis functions of A   symmetry.
   285 basis functions,   504 primitive gaussians,   285 cartesian basis functions
    53 alpha electrons       53 beta electrons
       nuclear repulsion energy       898.3646415815 Hartrees.
 NAtoms=   27 NActive=   27 NUniq=   27 SFac= 1.00D+00 NAtFMM=   60 NAOKFM=F Big=F
 Integral buffers will be    131072 words long.
 Raffenetti 2 integral format.
 Two-electron integral symmetry is turned on.
 Force inversion solution in PCM.
 ------------------------------------------------------------------------------
 Polarizable Continuum Model (PCM)
 =================================
 Model                : PCM.
 Atomic radii         : UFF (Universal Force Field).
 Polarization charges : Total charges.
 Charge compensation  : None.
 Solution method      : Matrix inversion.
 Cavity type          : Scaled VdW (van der Waals Surface) (Alpha=1.100).
 Cavity algorithm     : GePol (No added spheres)
                        Default sphere list used, NSphG=   27.
                        Lebedev-Laikov grids with approx.  5.0 points / Ang**2.
                        Smoothing algorithm: York/Karplus (Gamma=1.0000).
                        Polarization charges: spherical gaussians, with
                                              point-specific exponents (IZeta= 3).
                        Self-potential: point-specific (ISelfS= 7).
                        Self-field    : sphere-specific E.n sum rule (ISelfD= 2).
 1st derivatives      : Analytical E(r).r(x)/FMM algorithm (CHGder, D1EAlg=3).
                        Cavity 1st derivative terms included.
 2nd derivatives      : Analytical E(r).r(xy)/FMM algorithm (CHGder, D2EAlg=3).
                        Cavity 2nd derivative terms included.
 Solvent              : Water, Eps=  78.355300 Eps(inf)=   1.777849
 ------------------------------------------------------------------------------
 One-electron integrals computed using PRISM.
 NBasis=   285 RedAO= T EigKep=  4.26D-04  NBF=   285
 NBsUse=   285 1.00D-06 EigRej= -1.00D+00 NBFU=   285
 ExpMin= 1.61D-01 ExpMax= 5.48D+03 ExpMxC= 8.25D+02 IAcc=3 IRadAn=         5 AccDes= 0.00D+00
 Harris functional with IExCor=  402 and IRadAn=       5 diagonalized for initial guess.
 HarFok:  IExCor=  402 AccDes= 0.00D+00 IRadAn=         5 IDoV= 1 UseB2=F ITyADJ=14
 ICtDFT=  3500011 ScaDFX=  1.000000  1.000000  1.000000  1.000000
 FoFCou: FMM=F IPFlag=           0 FMFlag=      100000 FMFlg1=           0
         NFxFlg=           0 DoJE=T BraDBF=F KetDBF=T FulRan=T
         wScrn=  0.000000 ICntrl=       500 IOpCl=  0 I1Cent=   200000004 NGrid=           0
         NMat0=    1 NMatS0=      1 NMatT0=    0 NMatD0=    1 NMtDS0=    0 NMtDT0=    0
 Petite list used in FoFCou.
 Keep R1 ints in memory in canonical form, NReq=842203854.
 Requested convergence on RMS density matrix=1.00D-08 within  32 cycles.
 Requested convergence on MAX density matrix=1.00D-06.
 Requested convergence on             energy=1.00D-06.
 No special actions if energy rises.
 Inv3:  Mode=1 IEnd=    13406988.
 Iteration    1 A*A^-1 deviation from unit magnitude is 3.44D-15 for    754.
 Iteration    1 A*A^-1 deviation from orthogonality  is 1.58D-15 for   1234    589.
 Iteration    1 A^-1*A deviation from unit magnitude is 3.66D-15 for    754.
 Iteration    1 A^-1*A deviation from orthogonality  is 9.60D-15 for   1909   1884.
 Error on total polarization charges =  0.00919
 SCF Done:  E(RB3LYP) =  -649.251079457     A.U. after   12 cycles
            NFock= 12  Conv=0.59D-08     -V/T= 2.0094
 QCSCF skips out because SCF is already converged.
 DoSCS=F DFT=T ScalE2(SS,OS)=  1.000000  1.000000
 Range of M.O.s used for correlation:     1   285
 NBasis=   285 NAE=    53 NBE=    53 NFC=     0 NFV=     0
 NROrb=    285 NOA=    53 NOB=    53 NVA=   232 NVB=   232
 Symmetrizing basis deriv contribution to polar:
 IMax=3 JMax=2 DiffMx= 0.00D+00
 G2DrvN: will do    28 centers at a time, making    1 passes.
 Calling FoFCou, ICntrl=  3107 FMM=F I1Cent=   0 AccDes= 0.00D+00.
 NEqPCM:  Using equilibrium solvation (IEInf=0, Eps=  78.3553, EpsInf=   1.7778)
 G2PCM: DoFxE=T DoFxN=T DoGrad=T DoDP/DQ/DG/TGxP=FFFF NFrqRd=   0 IEInf=0 SqF1=F DoCFld=F IF1Alg=4.
 End of G2Drv F.D. properties file   721 does not exist.
 End of G2Drv F.D. properties file   722 does not exist.
 End of G2Drv F.D. properties file   788 does not exist.
          IDoAtm=111111111111111111111111111
 NEqPCM:  Using equilibrium solvation (IEInf=0, Eps=  78.3553, EpsInf=   1.7778)
          Differentiating once with respect to nuclear coordinates.
 Keep R1 ints in memory in canonical form, NReq=842215103.
          There are    84 degrees of freedom in the 1st order CPHF.  IDoFFX=6 NUNeed=     0.
     78 vectors produced by pass  0 Test12= 1.46D-14 1.19D-09 XBig12= 1.12D-01 7.52D-02.
 AX will form    78 AO Fock derivatives at one time.
     78 vectors produced by pass  1 Test12= 1.46D-14 1.19D-09 XBig12= 1.55D-02 2.37D-02.
     78 vectors produced by pass  2 Test12= 1.46D-14 1.19D-09 XBig12= 1.48D-04 1.27D-03.
     78 vectors produced by pass  3 Test12= 1.46D-14 1.19D-09 XBig12= 5.06D-07 6.75D-05.
     78 vectors produced by pass  4 Test12= 1.46D-14 1.19D-09 XBig12= 7.94D-10 2.36D-06.
     57 vectors produced by pass  5 Test12= 1.46D-14 1.19D-09 XBig12= 8.99D-13 6.71D-08.
     13 vectors produced by pass  6 Test12= 1.46D-14 1.19D-09 XBig12= 9.23D-16 2.69D-09.
 InvSVY:  IOpt=1 It=  1 EMax= 3.33D-16
 Solved reduced A of dimension   460 with    84 vectors.
 End of Minotr F.D. properties file   721 does not exist.
 End of Minotr F.D. properties file   722 does not exist.
 End of Minotr F.D. properties file   788 does not exist.

 **********************************************************************

            Population analysis using the SCF density.

 **********************************************************************

 Orbital symmetries:
       Occupied  (A) (A) (A) (A) (A) (A) (A) (A) (A) (A) (A) (A)
                 (A) (A) (A) (A) (A) (A) (A) (A) (A) (A) (A) (A)
                 (A) (A) (A) (A) (A) (A) (A) (A) (A) (A) (A) (A)
                 (A) (A) (A) (A) (A) (A) (A) (A) (A) (A) (A) (A)
                 (A) (A) (A) (A) (A)
       Virtual   (A) (A) (A) (A) (A) (A) (A) (A) (A) (A) (A) (A)
                 (A) (A) (A) (A) (A) (A) (A) (A) (A) (A) (A) (A)
                 (A) (A) (A) (A) (A) (A) (A) (A) (A) (A) (A) (A)
                 (A) (A) (A) (A) (A) (A) (A) (A) (A) (A) (A) (A)
                 (A) (A) (A) (A) (A) (A) (A) (A) (A) (A) (A) (A)
                 (A) (A) (A) (A) (A) (A) (A) (A) (A) (A) (A) (A)
                 (A) (A) (A) (A) (A) (A) (A) (A) (A) (A) (A) (A)
                 (A) (A) (A) (A) (A) (A) (A) (A) (A) (A) (A) (A)
                 (A) (A) (A) (A) (A) (A) (A) (A) (A) (A) (A) (A)
                 (A) (A) (A) (A) (A) (A) (A) (A) (A) (A) (A) (A)
                 (A) (A) (A) (A) (A) (A) (A) (A) (A) (A) (A) (A)
                 (A) (A) (A) (A) (A) (A) (A) (A) (A) (A) (A) (A)
                 (A) (A) (A) (A) (A) (A) (A) (A) (A) (A) (A) (A)
                 (A) (A) (A) (A) (A) (A) (A) (A) (A) (A) (A) (A)
                 (A) (A) (A) (A) (A) (A) (A) (A) (A) (A) (A) (A)
                 (A) (A) (A) (A) (A) (A) (A) (A) (A) (A) (A) (A)
                 (A) (A) (A) (A) (A) (A) (A) (A) (A) (A) (A) (A)
                 (A) (A) (A) (A) (A) (A) (A) (A) (A) (A) (A) (A)
                 (A) (A) (A) (A) (A) (A) (A) (A) (A) (A) (A) (A)
                 (A) (A) (A) (A)
 The electronic state is 1-A.
 Alpha  occ. eigenvalues --  -19.17804 -14.33431 -14.33410 -10.23761 -10.23742
 Alpha  occ. eigenvalues --  -10.22417 -10.22376 -10.18984 -10.18966 -10.18782
 Alpha  occ. eigenvalues --  -10.18738 -10.18581 -10.18560 -10.18503 -10.18476
 Alpha  occ. eigenvalues --   -1.07307  -0.91297  -0.91240  -0.84368  -0.82689
 Alpha  occ. eigenvalues --   -0.74827  -0.74667  -0.73834  -0.70250  -0.62660
 Alpha  occ. eigenvalues --   -0.62014  -0.60983  -0.57644  -0.54170  -0.51414
 Alpha  occ. eigenvalues --   -0.50935  -0.50748  -0.49852  -0.45607  -0.44430
 Alpha  occ. eigenvalues --   -0.43987  -0.43965  -0.42183  -0.41932  -0.40791
 Alpha  occ. eigenvalues --   -0.39237  -0.38868  -0.37874  -0.36915  -0.36174
 Alpha  occ. eigenvalues --   -0.34331  -0.33357  -0.30346  -0.27947  -0.25427
 Alpha  occ. eigenvalues --   -0.24964  -0.20510  -0.18704
 Alpha virt. eigenvalues --   -0.01079   0.00134   0.01404   0.02829   0.09000
 Alpha virt. eigenvalues --    0.09397   0.10711   0.11027   0.13181   0.13239
 Alpha virt. eigenvalues --    0.16039   0.16646   0.17151   0.17347   0.17681
 Alpha virt. eigenvalues --    0.17917   0.18474   0.20129   0.20349   0.24804
 Alpha virt. eigenvalues --    0.25351   0.28313   0.33153   0.33457   0.33701
 Alpha virt. eigenvalues --    0.34055   0.34247   0.34635   0.36452   0.37764
 Alpha virt. eigenvalues --    0.48697   0.49094   0.49813   0.51446   0.52407
 Alpha virt. eigenvalues --    0.53416   0.53491   0.54781   0.55408   0.56676
 Alpha virt. eigenvalues --    0.56891   0.58515   0.58622   0.59419   0.59547
 Alpha virt. eigenvalues --    0.60070   0.60581   0.61251   0.61575   0.61976
 Alpha virt. eigenvalues --    0.62803   0.63603   0.65232   0.66763   0.67853
 Alpha virt. eigenvalues --    0.69324   0.69849   0.70249   0.71526   0.75719
 Alpha virt. eigenvalues --    0.76620   0.78288   0.79450   0.81083   0.81958
 Alpha virt. eigenvalues --    0.82159   0.83405   0.84366   0.84484   0.85890
 Alpha virt. eigenvalues --    0.86015   0.86324   0.87559   0.88536   0.89598
 Alpha virt. eigenvalues --    0.89773   0.90958   0.91821   0.93182   0.93648
 Alpha virt. eigenvalues --    0.98720   0.99229   1.00139   1.00310   1.03393
 Alpha virt. eigenvalues --    1.04209   1.05342   1.06306   1.12061   1.14714
 Alpha virt. eigenvalues --    1.15612   1.16484   1.17482   1.18617   1.21182
 Alpha virt. eigenvalues --    1.22018   1.24283   1.27238   1.29679   1.30764
 Alpha virt. eigenvalues --    1.32048   1.35414   1.36051   1.38725   1.39836
 Alpha virt. eigenvalues --    1.40248   1.40715   1.41544   1.42281   1.44242
 Alpha virt. eigenvalues --    1.46574   1.49806   1.51683   1.52982   1.68167
 Alpha virt. eigenvalues --    1.69216   1.74998   1.75327   1.76481   1.77480
 Alpha virt. eigenvalues --    1.79023   1.79572   1.80688   1.81639   1.85350
 Alpha virt. eigenvalues --    1.85953   1.87497   1.87999   1.89633   1.90977
 Alpha virt. eigenvalues --    1.91843   1.92421   1.92823   1.93971   1.95808
 Alpha virt. eigenvalues --    1.97287   1.97715   1.98480   2.00666   2.01744
 Alpha virt. eigenvalues --    2.02806   2.06476   2.06776   2.09328   2.09640
 Alpha virt. eigenvalues --    2.13897   2.16561   2.16933   2.23951   2.24466
 Alpha virt. eigenvalues --    2.25748   2.25999   2.26873   2.27577   2.30258
 Alpha virt. eigenvalues --    2.31445   2.32903   2.33507   2.34614   2.35720
 Alpha virt. eigenvalues --    2.36689   2.41236   2.41429   2.42022   2.42150
 Alpha virt. eigenvalues --    2.45204   2.45785   2.46005   2.46730   2.47234
 Alpha virt. eigenvalues --    2.48419   2.48790   2.49402   2.51109   2.55272
 Alpha virt. eigenvalues --    2.56264   2.56711   2.57813   2.59144   2.59734
 Alpha virt. eigenvalues --    2.60033   2.65434   2.66091   2.69828   2.71360
 Alpha virt. eigenvalues --    2.73430   2.74497   2.75899   2.80753   2.81315
 Alpha virt. eigenvalues --    2.81960   2.85653   2.86990   2.94094   2.97736
 Alpha virt. eigenvalues --    2.98990   3.02571   3.05777   3.06145   3.09986
 Alpha virt. eigenvalues --    3.14105   3.18367   3.20026   3.25023   3.25205
 Alpha virt. eigenvalues --    3.28375   3.28571   3.30811   3.36390   3.37312
 Alpha virt. eigenvalues --    3.38077   3.48665   3.49003   3.54081   3.55018
 Alpha virt. eigenvalues --    3.82299   3.84710   4.03562   4.04149   4.13556
 Alpha virt. eigenvalues --    4.13712   4.15146   4.16465   4.16724   4.20971
 Alpha virt. eigenvalues --    4.41602   4.44941   4.45449   4.46337   4.63670
 Alpha virt. eigenvalues --    4.83102   4.87487
          Condensed to atoms (all electrons):
               1          2          3          4          5          6
     1  N    6.833931   0.297244  -0.070368   0.004547   0.000536  -0.000000
     2  C    0.297244   4.584490   0.537505  -0.025696  -0.034049   0.000139
     3  C   -0.070368   0.537505   4.951359   0.501369  -0.026290   0.004129
     4  C    0.004547  -0.025696   0.501369   4.940938   0.541110  -0.053184
     5  C    0.000536  -0.034049  -0.026290   0.541110   4.626475   0.226766
     6  O   -0.000000   0.000139   0.004129  -0.053184   0.226766   8.355879
     7  C   -0.000000   0.000014   0.000005  -0.001457  -0.034361   0.223868
     8  C    0.000000   0.000000   0.000007  -0.000207  -0.001744  -0.052553
     9  C    0.000000   0.000000  -0.000000   0.000007  -0.000044   0.004132
    10  C    0.000000   0.000000  -0.000000   0.000000   0.000068   0.000169
    11  N    0.000000  -0.000000   0.000000  -0.000000  -0.000000   0.000000
    12  C   -0.000000  -0.000000   0.000001  -0.000011  -0.000244   0.004490
    13  C   -0.000000   0.000012  -0.000049   0.000817   0.002052  -0.056140
    14  C    0.004614  -0.026715  -0.038037  -0.067156   0.493261  -0.056177
    15  C   -0.070370   0.538083  -0.048671  -0.039395  -0.021710   0.004353
    16  H    0.344053  -0.025342  -0.009408  -0.000010  -0.000006  -0.000000
    17  H    0.344133  -0.025374   0.005460  -0.000173  -0.000003  -0.000000
    18  H   -0.007203  -0.042723   0.364412  -0.031716   0.003829  -0.000062
    19  H   -0.000103   0.004273  -0.035547   0.360082  -0.040242  -0.000753
    20  H    0.000000   0.000000  -0.000000  -0.000015   0.000313  -0.000852
    21  H    0.000000  -0.000000   0.000000  -0.000000  -0.000001  -0.000065
    22  H    0.000000   0.000000  -0.000000   0.000000   0.000000  -0.000000
    23  H    0.000000   0.000000  -0.000000  -0.000000   0.000000  -0.000000
    24  H    0.000000  -0.000000  -0.000000  -0.000000  -0.000005  -0.000056
    25  H    0.000000   0.000003   0.000016   0.001137   0.006733  -0.007102
    26  H   -0.000104   0.003875   0.000465   0.005485  -0.041446  -0.007005
    27  H   -0.007179  -0.042052   0.005141   0.000589   0.003407  -0.000055
               7          8          9         10         11         12
     1  N   -0.000000   0.000000   0.000000   0.000000   0.000000  -0.000000
     2  C    0.000014   0.000000   0.000000   0.000000  -0.000000  -0.000000
     3  C    0.000005   0.000007  -0.000000  -0.000000   0.000000   0.000001
     4  C   -0.001457  -0.000207   0.000007   0.000000  -0.000000  -0.000011
     5  C   -0.034361  -0.001744  -0.000044   0.000068  -0.000000  -0.000244
     6  O    0.223868  -0.052553   0.004132   0.000169   0.000000   0.004490
     7  C    4.626269   0.543159  -0.027195  -0.034605   0.000542  -0.019413
     8  C    0.543159   4.936836   0.502518  -0.027355   0.004449  -0.039172
     9  C   -0.027195   0.502518   4.950793   0.539148  -0.070184  -0.048198
    10  C   -0.034605  -0.027355   0.539148   4.583267   0.296790   0.536334
    11  N    0.000542   0.004449  -0.070184   0.296790   6.834603  -0.070575
    12  C   -0.019413  -0.039172  -0.048198   0.536334  -0.070575   4.956865
    13  C    0.492299  -0.066848  -0.039137  -0.023854   0.004695   0.493187
    14  C    0.001989   0.000829  -0.000075   0.000019   0.000000  -0.000364
    15  C   -0.000025  -0.000005   0.000001   0.000000  -0.000000   0.000003
    16  H   -0.000000   0.000000   0.000000   0.000000   0.000000  -0.000000
    17  H   -0.000000   0.000000   0.000000   0.000000   0.000000  -0.000000
    18  H   -0.000001  -0.000000   0.000000  -0.000000  -0.000000  -0.000000
    19  H    0.000281  -0.000013  -0.000000   0.000000  -0.000000  -0.000001
    20  H   -0.039805   0.360039  -0.035666   0.004225  -0.000103   0.000234
    21  H    0.003784  -0.031500   0.363691  -0.042289  -0.007321   0.005405
    22  H   -0.000007  -0.000183   0.005428  -0.025351   0.343934  -0.009412
    23  H    0.000003  -0.000075  -0.009426  -0.025134   0.343855   0.005497
    24  H    0.003404   0.000614   0.005130  -0.041767  -0.007224   0.363886
    25  H   -0.041196   0.005504   0.000472   0.003872  -0.000104  -0.036031
    26  H    0.006810   0.001293   0.000107  -0.000043  -0.000000  -0.000230
    27  H   -0.000000  -0.000000  -0.000000  -0.000000   0.000000  -0.000000
              13         14         15         16         17         18
     1  N   -0.000000   0.004614  -0.070370   0.344053   0.344133  -0.007203
     2  C    0.000012  -0.026715   0.538083  -0.025342  -0.025374  -0.042723
     3  C   -0.000049  -0.038037  -0.048671  -0.009408   0.005460   0.364412
     4  C    0.000817  -0.067156  -0.039395  -0.000010  -0.000173  -0.031716
     5  C    0.002052   0.493261  -0.021710  -0.000006  -0.000003   0.003829
     6  O   -0.056140  -0.056177   0.004353  -0.000000  -0.000000  -0.000062
     7  C    0.492299   0.001989  -0.000025  -0.000000  -0.000000  -0.000001
     8  C   -0.066848   0.000829  -0.000005   0.000000   0.000000  -0.000000
     9  C   -0.039137  -0.000075   0.000001   0.000000   0.000000   0.000000
    10  C   -0.023854   0.000019   0.000000   0.000000   0.000000  -0.000000
    11  N    0.004695   0.000000  -0.000000   0.000000   0.000000  -0.000000
    12  C    0.493187  -0.000364   0.000003  -0.000000  -0.000000  -0.000000
    13  C    4.970774   0.000250  -0.000323  -0.000000  -0.000000   0.000000
    14  C    0.000250   4.965000   0.499870  -0.000182  -0.000030   0.000444
    15  C   -0.000323   0.499870   4.951497   0.005458  -0.009412   0.005314
    16  H   -0.000000  -0.000182   0.005458   0.433321  -0.028341   0.004473
    17  H   -0.000000  -0.000030  -0.009412  -0.028341   0.433352  -0.000055
    18  H    0.000000   0.000444   0.005314   0.004473  -0.000055   0.611965
    19  H   -0.000021   0.006672   0.000261  -0.000006   0.000003  -0.006615
    20  H    0.006713  -0.000028  -0.000002   0.000000   0.000000  -0.000000
    21  H    0.000405   0.000000  -0.000000  -0.000000  -0.000000  -0.000000
    22  H   -0.000028   0.000000   0.000000   0.000000   0.000000  -0.000000
    23  H   -0.000188   0.000000  -0.000000   0.000000  -0.000000  -0.000000
    24  H   -0.031260   0.000003  -0.000000   0.000000   0.000000  -0.000000
    25  H    0.364350   0.001550  -0.000283   0.000000   0.000000  -0.000002
    26  H    0.001389   0.364190  -0.035800   0.000003  -0.000006   0.000013
    27  H    0.000003  -0.031232   0.364150  -0.000062   0.004402  -0.000189
              19         20         21         22         23         24
     1  N   -0.000103   0.000000   0.000000   0.000000   0.000000   0.000000
     2  C    0.004273   0.000000  -0.000000   0.000000   0.000000  -0.000000
     3  C   -0.035547  -0.000000   0.000000  -0.000000  -0.000000  -0.000000
     4  C    0.360082  -0.000015  -0.000000   0.000000  -0.000000  -0.000000
     5  C   -0.040242   0.000313  -0.000001   0.000000   0.000000  -0.000005
     6  O   -0.000753  -0.000852  -0.000065  -0.000000  -0.000000  -0.000056
     7  C    0.000281  -0.039805   0.003784  -0.000007   0.000003   0.003404
     8  C   -0.000013   0.360039  -0.031500  -0.000183  -0.000075   0.000614
     9  C   -0.000000  -0.035666   0.363691   0.005428  -0.009426   0.005130
    10  C    0.000000   0.004225  -0.042289  -0.025351  -0.025134  -0.041767
    11  N   -0.000000  -0.000103  -0.007321   0.343934   0.343855  -0.007224
    12  C   -0.000001   0.000234   0.005405  -0.009412   0.005497   0.363886
    13  C   -0.000021   0.006713   0.000405  -0.000028  -0.000188  -0.031260
    14  C    0.006672  -0.000028   0.000000   0.000000   0.000000   0.000003
    15  C    0.000261  -0.000002  -0.000000   0.000000  -0.000000  -0.000000
    16  H   -0.000006   0.000000  -0.000000   0.000000   0.000000   0.000000
    17  H    0.000003   0.000000  -0.000000   0.000000  -0.000000   0.000000
    18  H   -0.006615  -0.000000  -0.000000  -0.000000  -0.000000  -0.000000
    19  H    0.611093   0.000004  -0.000000  -0.000000  -0.000000   0.000000
    20  H    0.000004   0.610671  -0.006594   0.000003  -0.000007   0.000014
    21  H   -0.000000  -0.006594   0.611965  -0.000070   0.004462  -0.000188
    22  H   -0.000000   0.000003  -0.000070   0.433449  -0.028378   0.004515
    23  H   -0.000000  -0.000007   0.004462  -0.028378   0.433327  -0.000058
    24  H    0.000000   0.000014  -0.000188   0.004515  -0.000058   0.609541
    25  H    0.000061  -0.000153   0.000013  -0.000006   0.000003  -0.006054
    26  H   -0.000154   0.000075  -0.000002  -0.000000  -0.000000   0.000001
    27  H    0.000014   0.000000  -0.000000  -0.000000  -0.000000  -0.000000
              25         26         27
     1  N    0.000000  -0.000104  -0.007179
     2  C    0.000003   0.003875  -0.042052
     3  C    0.000016   0.000465   0.005141
     4  C    0.001137   0.005485   0.000589
     5  C    0.006733  -0.041446   0.003407
     6  O   -0.007102  -0.007005  -0.000055
     7  C   -0.041196   0.006810  -0.000000
     8  C    0.005504   0.001293  -0.000000
     9  C    0.000472   0.000107  -0.000000
    10  C    0.003872  -0.000043  -0.000000
    11  N   -0.000104  -0.000000   0.000000
    12  C   -0.036031  -0.000230  -0.000000
    13  C    0.364350   0.001389   0.000003
    14  C    0.001550   0.364190  -0.031232
    15  C   -0.000283  -0.035800   0.364150
    16  H    0.000000   0.000003  -0.000062
    17  H    0.000000  -0.000006   0.004402
    18  H   -0.000002   0.000013  -0.000189
    19  H    0.000061  -0.000154   0.000014
    20  H   -0.000153   0.000075   0.000000
    21  H    0.000013  -0.000002  -0.000000
    22  H   -0.000006  -0.000000  -0.000000
    23  H    0.000003  -0.000000  -0.000000
    24  H   -0.006054   0.000001  -0.000000
    25  H    0.602076   0.000029  -0.000001
    26  H    0.000029   0.601940  -0.006116
    27  H   -0.000001  -0.006116   0.609738
 Mulliken charges:
               1
     1  N   -0.673731
     2  C    0.256315
     3  C   -0.141500
     4  C   -0.137062
     5  C    0.295594
     6  O   -0.589922
     7  C    0.295637
     8  C   -0.135594
     9  C   -0.141504
    10  C    0.256504
    11  N   -0.673358
    12  C   -0.142252
    13  C   -0.119100
    14  C   -0.118698
    15  C   -0.142993
    16  H    0.276048
    17  H    0.276044
    18  H    0.098114
    19  H    0.100711
    20  H    0.100932
    21  H    0.098305
    22  H    0.276106
    23  H    0.276118
    24  H    0.099502
    25  H    0.105111
    26  H    0.105231
    27  H    0.099442
 Sum of Mulliken charges =  -0.00000
 Mulliken charges with hydrogens summed into heavy atoms:
               1
     1  N   -0.121639
     2  C    0.256315
     3  C   -0.043386
     4  C   -0.036351
     5  C    0.295594
     6  O   -0.589922
     7  C    0.295637
     8  C   -0.034661
     9  C   -0.043199
    10  C    0.256504
    11  N   -0.121135
    12  C   -0.042750
    13  C   -0.013989
    14  C   -0.013467
    15  C   -0.043551
 APT charges:
               1
     1  N   -1.301349
     2  C    0.187273
     3  C   -0.412665
     4  C   -0.504785
     5  C   -0.347848
     6  O   -0.353027
     7  C   -0.313252
     8  C   -0.523250
     9  C   -0.393230
    10  C    0.235119
    11  N   -1.564431
    12  C   -0.419358
    13  C   -0.594807
    14  C   -0.575424
    15  C   -0.439899
    16  H    0.903554
    17  H    0.638210
    18  H    0.769772
    19  H    0.482122
    20  H    0.467074
    21  H    0.747717
    22  H    0.760789
    23  H    1.008322
    24  H    0.523736
    25  H    0.244344
    26  H    0.244962
    27  H    0.530332
 Sum of APT charges =  -0.00000
 APT charges with hydrogens summed into heavy atoms:
               1
     1  N    0.240415
     2  C    0.187273
     3  C    0.357107
     4  C   -0.022663
     5  C   -0.347848
     6  O   -0.353027
     7  C   -0.313252
     8  C   -0.056176
     9  C    0.354487
    10  C    0.235119
    11  N    0.204680
    12  C    0.104378
    13  C   -0.350463
    14  C   -0.330463
    15  C    0.090433
 Electronic spatial extent (au):  <R**2>=           4270.2276
 Charge=             -0.0000 electrons
 Dipole moment (field-independent basis, Debye):
    X=             -0.8381    Y=             -2.8164    Z=             -1.6864  Tot=              3.3880
 Quadrupole moment (field-independent basis, Debye-Ang):
   XX=            -54.8584   YY=            -83.7880   ZZ=            -83.2792
   XY=             -6.9341   XZ=             -4.2553   YZ=              2.3943
 Traceless Quadrupole moment (field-independent basis, Debye-Ang):
   XX=             19.1168   YY=             -9.8128   ZZ=             -9.3040
   XY=             -6.9341   XZ=             -4.2553   YZ=              2.3943
 Octapole moment (field-independent basis, Debye-Ang**2):
  XXX=            -69.2912  YYY=            -13.8746  ZZZ=             -1.5018  XYY=             23.2818
  XXY=            -50.5919  XXZ=            -50.7661  XZZ=             -4.2376  YZZ=             -3.5505
  YYZ=             -3.3174  XYZ=            -27.5940
 Hexadecapole moment (field-independent basis, Debye-Ang**3):
 XXXX=          -3538.7056 YYYY=           -558.2201 ZZZZ=           -355.1814 XXXY=           -136.3238
 XXXZ=           -163.4517 YYYX=            -55.2956 YYYZ=              3.2064 ZZZX=             -4.6065
 ZZZY=              4.9981 XXYY=           -777.2065 XXZZ=           -805.8172 YYZZ=           -133.6272
 XXYZ=             67.1919 YYXZ=             31.0749 ZZXY=              2.5502
 N-N= 8.983646415815D+02 E-N=-3.306424608709D+03  KE= 6.432055968481D+02
  Exact polarizability:   0.000   0.000   0.000   0.000   0.000   0.000
 Approx polarizability: 298.508   1.823 199.124 -39.039  -0.193 169.593
 D2PCM: PCM CHGder 2nd derivatives, FixD1E=F FixD2E=F DoIter=F DoCFld=F I1PDM=0
 Calling FoFJK, ICntrl=    100147 FMM=F ISym2X=0 I1Cent= 0 IOpClX= 0 NMat=1 NMatS=1 NMatT=0.
 ***** Axes restored to original set *****
 -------------------------------------------------------------------
 Center     Atomic                   Forces (Hartrees/Bohr)
 Number     Number              X              Y              Z
 -------------------------------------------------------------------
      1        7           0.000430219    0.003629925   -0.000697600
      2        6           0.012307449   -0.009640001   -0.004565465
      3        6          -0.006229196   -0.000577029    0.009365255
      4        6           0.006962446    0.003823843   -0.001695966
      5        6           0.007964862    0.000820802    0.001341993
      6        8           0.000774285   -0.004678915    0.004949287
      7        6          -0.007799209   -0.002172610   -0.000416903
      8        6          -0.006948251    0.001182227   -0.003821637
      9        6           0.004779966   -0.008272931    0.007524356
     10        6          -0.004313817    0.002194011   -0.015918845
     11        7          -0.002469323    0.000584039    0.002410488
     12        6           0.009633494    0.002069066    0.007358106
     13        6          -0.004155053    0.003781370   -0.001742723
     14        6           0.003457565    0.001487971   -0.004508908
     15        6          -0.012277391   -0.000301454   -0.000367713
     16        1          -0.000955581    0.000628196   -0.003893544
     17        1           0.002291175    0.001072313    0.003307025
     18        1           0.000389300    0.001312842   -0.000782132
     19        1          -0.001657956    0.000203038   -0.000786489
     20        1           0.001475478    0.001055758   -0.000247327
     21        1          -0.001203132    0.000844710    0.000824669
     22        1          -0.002189150   -0.003390710   -0.000122788
     23        1           0.000211243    0.004077680    0.000487074
     24        1          -0.001389461   -0.000127803    0.000921140
     25        1           0.000549154   -0.001483662   -0.000838318
     26        1          -0.000370145    0.000706988    0.001740685
     27        1           0.000731030    0.001170336    0.000176280
 -------------------------------------------------------------------
 Cartesian Forces:  Max     0.015918845 RMS     0.004463568
 FormGI is forming the generalized inverse of G from B-inverse, IUseBI=4.

 GradGradGradGradGradGradGradGradGradGradGradGradGradGradGradGradGradGrad
 Berny optimization.
 Internal  Forces:  Max     0.013447554 RMS     0.002776994
 Search for a local minimum.
 Step number   1 out of a maximum of  141
 All quantities printed in internal units (Hartrees-Bohrs-Radians)
 Mixed Optimization -- RFO/linear search
 Second derivative matrix not updated -- analytic derivatives used.
 ITU=  0
     Eigenvalues ---    0.00045   0.00500   0.00509   0.00774   0.01643
     Eigenvalues ---    0.01646   0.01731   0.01736   0.01812   0.01815
     Eigenvalues ---    0.01853   0.01864   0.02122   0.02130   0.02310
     Eigenvalues ---    0.02311   0.02578   0.02635   0.02725   0.02800
     Eigenvalues ---    0.02805   0.02812   0.02866   0.02943   0.10767
     Eigenvalues ---    0.10788   0.11201   0.11231   0.11703   0.11725
     Eigenvalues ---    0.12529   0.12543   0.13562   0.13586   0.15496
     Eigenvalues ---    0.15507   0.17707   0.17790   0.18166   0.19320
     Eigenvalues ---    0.19583   0.20023   0.20486   0.20574   0.22692
     Eigenvalues ---    0.23105   0.25710   0.32175   0.32897   0.33936
     Eigenvalues ---    0.35679   0.35687   0.35842   0.35994   0.36101
     Eigenvalues ---    0.36122   0.36155   0.36477   0.37704   0.41288
     Eigenvalues ---    0.41327   0.41608   0.44192   0.45448   0.45532
     Eigenvalues ---    0.45980   0.45984   0.46245   0.47141   0.47391
     Eigenvalues ---    0.47748   0.47768   0.49461   0.52178   0.53023
 RFO step:  Lambda=-5.47925947D-03 EMin= 4.45337523D-04
 Linear search not attempted -- first point.
 Iteration  1 RMS(Cart)=  0.08398154 RMS(Int)=  0.00178648
 Iteration  2 RMS(Cart)=  0.00313913 RMS(Int)=  0.00036605
 Iteration  3 RMS(Cart)=  0.00000428 RMS(Int)=  0.00036604
 Iteration  4 RMS(Cart)=  0.00000000 RMS(Int)=  0.00036604
 Variable       Old X    -DE/DX   Delta X   Delta X   Delta X     New X
                                 (Linear)    (Quad)   (Total)
    R1        2.64470   0.00354   0.00000   0.00144   0.00144   2.64614
    R2        1.91812  -0.00262   0.00000  -0.00464  -0.00464   1.91348
    R3        1.91831  -0.00272   0.00000  -0.00487  -0.00487   1.91344
    R4        2.64140   0.00692   0.00000   0.01443   0.01457   2.65596
    R5        2.64163   0.00746   0.00000   0.01581   0.01593   2.65756
    R6        2.64115  -0.00209   0.00000  -0.00729  -0.00727   2.63388
    R7        2.05329   0.00008   0.00000   0.00034   0.00034   2.05363
    R8        2.63256   0.00316   0.00000   0.00383   0.00371   2.63626
    R9        2.05262  -0.00072   0.00000  -0.00142  -0.00142   2.05120
   R10        2.60041   0.01282   0.00000   0.02374   0.02374   2.62415
   R11        2.63654   0.00180   0.00000   0.00391   0.00378   2.64032
   R12        2.59955   0.01345   0.00000   0.02494   0.02494   2.62449
   R13        2.63241   0.00305   0.00000   0.00354   0.00346   2.63587
   R14        2.63637   0.00195   0.00000   0.00425   0.00420   2.64057
   R15        2.64075  -0.00181   0.00000  -0.00674  -0.00677   2.63398
   R16        2.05264  -0.00075   0.00000  -0.00146  -0.00146   2.05117
   R17        2.64167   0.00674   0.00000   0.01427   0.01432   2.65599
   R18        2.05329   0.00008   0.00000   0.00027   0.00027   2.05356
   R19        2.64483   0.00337   0.00000   0.00059   0.00059   2.64541
   R20        2.64198   0.00733   0.00000   0.01589   0.01597   2.65795
   R21        1.91831  -0.00265   0.00000  -0.00484  -0.00484   1.91347
   R22        1.91837  -0.00274   0.00000  -0.00496  -0.00496   1.91341
   R23        2.64157  -0.00253   0.00000  -0.00919  -0.00917   2.63240
   R24        2.05337   0.00003   0.00000   0.00043   0.00043   2.05380
   R25        2.05238  -0.00078   0.00000  -0.00188  -0.00188   2.05050
   R26        2.64193  -0.00269   0.00000  -0.00907  -0.00908   2.63286
   R27        2.05276  -0.00094   0.00000  -0.00242  -0.00242   2.05034
   R28        2.05350  -0.00003   0.00000   0.00033   0.00033   2.05382
    A1        1.98720   0.00189   0.00000   0.00567   0.00565   1.99285
    A2        1.98651   0.00192   0.00000   0.00593   0.00591   1.99242
    A3        1.96075  -0.00352   0.00000  -0.03226  -0.03230   1.92846
    A4        2.09814   0.00225   0.00000   0.01363   0.01195   2.11008
    A5        2.09803   0.00189   0.00000   0.01179   0.01009   2.10812
    A6        2.07144  -0.00355   0.00000  -0.00791  -0.00947   2.06197
    A7        2.10662   0.00039   0.00000   0.00276   0.00276   2.10938
    A8        2.09904  -0.00146   0.00000  -0.01155  -0.01156   2.08748
    A9        2.07752   0.00107   0.00000   0.00881   0.00879   2.08632
   A10        2.09280   0.00194   0.00000   0.00604   0.00579   2.09859
   A11        2.09455   0.00063   0.00000   0.00927   0.00939   2.10394
   A12        2.09578  -0.00257   0.00000  -0.01527  -0.01515   2.08064
   A13        2.04226   0.00373   0.00000   0.00912   0.00930   2.05156
   A14        2.09292  -0.00138   0.00000  -0.00360  -0.00401   2.08891
   A15        2.14543  -0.00233   0.00000  -0.00492  -0.00473   2.14070
   A16        2.04815   0.00899   0.00000   0.02885   0.02885   2.07700
   A17        2.04496   0.00379   0.00000   0.00932   0.00933   2.05429
   A18        2.14211  -0.00202   0.00000  -0.00483  -0.00480   2.13731
   A19        2.09519  -0.00180   0.00000  -0.00541  -0.00568   2.08950
   A20        2.09193   0.00214   0.00000   0.00654   0.00628   2.09821
   A21        2.09578  -0.00264   0.00000  -0.01489  -0.01490   2.08088
   A22        2.09528   0.00052   0.00000   0.00882   0.00881   2.10409
   A23        2.10643   0.00045   0.00000   0.00294   0.00289   2.10932
   A24        2.07749   0.00107   0.00000   0.00922   0.00922   2.08671
   A25        2.09926  -0.00152   0.00000  -0.01212  -0.01212   2.08714
   A26        2.09815   0.00216   0.00000   0.01317   0.01170   2.10985
   A27        2.07291  -0.00364   0.00000  -0.00897  -0.01037   2.06254
   A28        2.09812   0.00200   0.00000   0.01137   0.00989   2.10801
   A29        1.98634   0.00194   0.00000   0.00671   0.00671   1.99305
   A30        1.98625   0.00191   0.00000   0.00696   0.00696   1.99321
   A31        1.95987  -0.00347   0.00000  -0.03037  -0.03037   1.92950
   A32        2.10753   0.00135   0.00000   0.00516   0.00521   2.11275
   A33        2.09880  -0.00182   0.00000  -0.01337  -0.01340   2.08540
   A34        2.07683   0.00047   0.00000   0.00820   0.00817   2.08501
   A35        2.08953   0.00165   0.00000   0.00449   0.00439   2.09393
   A36        2.10650  -0.00214   0.00000  -0.01252  -0.01249   2.09401
   A37        2.08711   0.00050   0.00000   0.00811   0.00814   2.09525
   A38        2.09028   0.00141   0.00000   0.00399   0.00365   2.09393
   A39        2.10716  -0.00211   0.00000  -0.01266  -0.01256   2.09459
   A40        2.08555   0.00071   0.00000   0.00902   0.00911   2.09466
   A41        2.10788   0.00137   0.00000   0.00543   0.00540   2.11328
   A42        2.09899  -0.00183   0.00000  -0.01342  -0.01341   2.08558
   A43        2.07630   0.00046   0.00000   0.00798   0.00800   2.08430
    D1       -0.52859   0.00089   0.00000   0.03651   0.03695  -0.49164
    D2        2.80419  -0.00230   0.00000  -0.06899  -0.06940   2.73480
    D3       -2.80645   0.00235   0.00000   0.07231   0.07272  -2.73372
    D4        0.52633  -0.00083   0.00000  -0.03318  -0.03362   0.49272
    D5       -3.04320  -0.00180   0.00000  -0.04197  -0.04185  -3.08505
    D6        0.09474  -0.00148   0.00000  -0.03221  -0.03214   0.06260
    D7       -0.08991   0.00191   0.00000   0.06403   0.06380  -0.02612
    D8        3.04803   0.00223   0.00000   0.07379   0.07351   3.12153
    D9        3.04303   0.00162   0.00000   0.03404   0.03375   3.07678
   D10       -0.09307   0.00161   0.00000   0.03610   0.03584  -0.05723
   D11        0.08972  -0.00214   0.00000  -0.07216  -0.07198   0.01774
   D12       -3.04637  -0.00214   0.00000  -0.07009  -0.06989  -3.11626
   D13        0.02315  -0.00016   0.00000  -0.00891  -0.00900   0.01415
   D14       -3.12910  -0.00023   0.00000  -0.00432  -0.00433  -3.13343
   D15       -3.11484  -0.00047   0.00000  -0.01851  -0.01866  -3.13349
   D16        0.01610  -0.00054   0.00000  -0.01392  -0.01399   0.00211
   D17        3.11220  -0.00090   0.00000  -0.03016  -0.03017   3.08203
   D18        0.04549  -0.00112   0.00000  -0.03857  -0.03864   0.00685
   D19       -0.01873  -0.00085   0.00000  -0.03491  -0.03492  -0.05366
   D20       -3.08545  -0.00107   0.00000  -0.04331  -0.04339  -3.12884
   D21        2.39913   0.00049   0.00000   0.04451   0.04449   2.44363
   D22       -0.81979   0.00077   0.00000   0.05327   0.05329  -0.76650
   D23       -0.04568   0.00086   0.00000   0.03046   0.03051  -0.01516
   D24        3.07463   0.00133   0.00000   0.04961   0.04954   3.12417
   D25       -3.10778   0.00036   0.00000   0.02091   0.02097  -3.08681
   D26        0.01252   0.00083   0.00000   0.04006   0.04000   0.05252
   D27        2.32718   0.00117   0.00000   0.06408   0.06415   2.39133
   D28       -0.86083   0.00028   0.00000   0.04101   0.04094  -0.81989
   D29        3.11681  -0.00137   0.00000  -0.04002  -0.04008   3.07674
   D30       -0.04611  -0.00053   0.00000  -0.01461  -0.01476  -0.06087
   D31        0.02033  -0.00049   0.00000  -0.01760  -0.01753   0.00279
   D32        3.14059   0.00035   0.00000   0.00781   0.00778  -3.13482
   D33       -3.11403   0.00100   0.00000   0.03240   0.03223  -3.08181
   D34        0.03729   0.00067   0.00000   0.02243   0.02234   0.05963
   D35       -0.02015   0.00023   0.00000   0.00907   0.00895  -0.01120
   D36        3.13118  -0.00011   0.00000  -0.00091  -0.00094   3.13023
   D37       -0.05007   0.00137   0.00000   0.04856   0.04874  -0.00133
   D38        3.09645   0.00115   0.00000   0.03862   0.03876   3.13521
   D39        3.11285   0.00057   0.00000   0.02345   0.02338   3.13623
   D40       -0.02382   0.00035   0.00000   0.01352   0.01340  -0.01042
   D41        3.04123   0.00128   0.00000   0.02901   0.02892   3.07015
   D42        0.07826  -0.00223   0.00000  -0.07050  -0.07022   0.00804
   D43       -0.10535   0.00152   0.00000   0.03913   0.03896  -0.06638
   D44       -3.06832  -0.00200   0.00000  -0.06038  -0.06018  -3.12850
   D45        2.79889  -0.00215   0.00000  -0.06341  -0.06381   2.73509
   D46        0.52339  -0.00079   0.00000  -0.03240  -0.03280   0.49059
   D47       -0.52392   0.00084   0.00000   0.03546   0.03586  -0.48806
   D48       -2.79942   0.00219   0.00000   0.06647   0.06686  -2.73256
   D49       -0.07816   0.00192   0.00000   0.06178   0.06159  -0.01657
   D50        3.07051   0.00207   0.00000   0.06376   0.06347   3.13398
   D51       -3.04113  -0.00161   0.00000  -0.03791  -0.03764  -3.07877
   D52        0.10754  -0.00147   0.00000  -0.03594  -0.03576   0.07178
   D53        0.04976  -0.00082   0.00000  -0.03128  -0.03142   0.01834
   D54       -3.10146  -0.00050   0.00000  -0.02153  -0.02163  -3.12310
   D55       -3.09883  -0.00097   0.00000  -0.03331  -0.03338  -3.13221
   D56        0.03314  -0.00066   0.00000  -0.02357  -0.02360   0.00954
   D57       -0.02273   0.00069   0.00000   0.02532   0.02540   0.00267
   D58        3.11343   0.00069   0.00000   0.02322   0.02324   3.13668
   D59        3.13988   0.00027   0.00000   0.00668   0.00664  -3.13666
   D60       -0.00714   0.00027   0.00000   0.00457   0.00448  -0.00265
         Item               Value     Threshold  Converged?
 Maximum Force            0.013448     0.000450     NO 
 RMS     Force            0.002777     0.000300     NO 
 Maximum Displacement     0.297361     0.001800     NO 
 RMS     Displacement     0.082658     0.001200     NO 
 Predicted change in Energy=-3.049948D-03
 GradGradGradGradGradGradGradGradGradGradGradGradGradGradGradGradGradGrad

                          Input orientation:                          
 ---------------------------------------------------------------------
 Center     Atomic      Atomic             Coordinates (Angstroms)
 Number     Number       Type             X           Y           Z
 ---------------------------------------------------------------------
      1          7           0        4.900421    0.735947   -1.342330
      2          6           0        3.680990    0.336433   -0.781831
      3          6           0        3.565588    0.094631    0.597870
      4          6           0        2.369878   -0.367332    1.145152
      5          6           0        1.269810   -0.613429    0.323292
      6          8           0        0.130383   -1.140995    0.916335
      7          6           0       -1.114907   -0.675499    0.514607
      8          6           0       -2.126817   -1.615641    0.320288
      9          6           0       -3.416444   -1.200629   -0.007476
     10          6           0       -3.720990    0.164441   -0.146158
     11          7           0       -4.993202    0.578654   -0.557987
     12          6           0       -2.686825    1.098369    0.045159
     13          6           0       -1.399725    0.686116    0.382638
     14          6           0        1.374062   -0.402490   -1.053949
     15          6           0        2.567153    0.068800   -1.597601
     16          1           0        5.500771    1.247799   -0.707595
     17          1           0        4.810231    1.230463   -2.221290
     18          1           0        4.417686    0.275355    1.247686
     19          1           0        2.284058   -0.545200    2.212485
     20          1           0       -1.898165   -2.670924    0.431038
     21          1           0       -4.195256   -1.942508   -0.162332
     22          1           0       -5.232525    1.522439   -0.279990
     23          1           0       -5.737642   -0.063121   -0.314775
     24          1           0       -2.897025    2.159080   -0.063907
     25          1           0       -0.618231    1.421552    0.543246
     26          1           0        0.526895   -0.607631   -1.700042
     27          1           0        2.639827    0.225321   -2.670651
 ---------------------------------------------------------------------
                    Distance matrix (angstroms):
                    1          2          3          4          5
     1  N    0.000000
     2  C    1.400280   0.000000
     3  C    2.440787   1.405476   0.000000
     4  C    3.715971   2.434659   1.393790   0.000000
     5  C    4.216213   2.817326   2.418128   1.395051   0.000000
     6  O    5.601584   4.203971   3.664537   2.380389   1.388640
     7  C    6.451711   5.070048   4.744162   3.554755   2.393184
     8  C    7.594494   6.225422   5.950258   4.739087   3.541400
     9  C    8.643056   7.303134   7.126916   5.958562   4.734468
    10  C    8.722739   7.431216   7.324799   6.248915   5.072825
    11  N    9.925911   8.680459   8.650039   7.616464   6.436073
    12  C    7.721579   6.466338   6.356544   5.378523   4.320020
    13  C    6.532216   5.224169   5.005050   3.987617   2.969640
    14  C    3.716774   2.437616   2.788982   2.414318   1.397196
    15  C    2.440161   1.406321   2.411977   2.784209   2.416271
    16  H    1.012572   2.036590   2.603644   3.980428   4.735813
    17  H    1.012546   2.036299   3.284343   4.454346   4.733859
    18  H    2.674577   2.159952   1.086735   2.148739   3.399054
    19  H    4.596021   3.419741   2.158399   1.085451   2.145322
    20  H    7.808481   6.453078   6.126069   4.902314   3.779015
    21  H    9.554991   8.222688   8.059687   6.876895   5.645284
    22  H   10.218794   9.006065   8.956343   7.962336   6.870680
    23  H   10.717405   9.438666   9.349220   8.243532   7.057929
    24  H    8.028688   6.863507   6.816544   5.965304   5.019885
    25  H    5.872051   4.627809   4.389539   3.534289   2.784642
    26  H    4.589214   3.417994   3.873917   3.398450   2.155421
    27  H    2.671228   2.159630   3.399609   3.870976   3.397667
                    6          7          8          9         10
     6  O    0.000000
     7  C    1.388819   0.000000
     8  C    2.382333   1.394844   0.000000
     9  C    3.665647   2.417727   1.393845   0.000000
    10  C    4.203109   2.816696   2.434677   1.405488   0.000000
    11  N    5.601958   4.214798   3.715166   2.440302   1.399892
    12  C    3.702750   2.416177   2.784808   2.412572   1.406528
    13  C    2.442212   1.397330   2.414671   2.789113   2.437220
    14  C    2.444207   2.954635   3.951762   4.968006   5.206252
    15  C    3.704231   4.309637   5.343126   6.320078   6.454191
    16  H    6.097914   6.997145   8.211938   9.273710   9.302137
    17  H    6.113058   6.798903   7.917232   8.859423   8.844451
    18  H    4.527341   5.661371   6.875061   8.070165   8.257915
    19  H    2.583273   3.801675   4.917528   6.152524   6.490562
    20  H    2.586735   2.145273   1.085435   2.158526   3.419816
    21  H    4.529580   3.398839   2.149001   1.086698   2.159728
    22  H    6.106215   4.734669   4.455704   3.284435   2.036371
    23  H    6.091893   4.736302   3.981417   2.603136   2.036443
    24  H    4.584383   3.397860   3.871607   3.400092   2.159691
    25  H    2.695602   2.155256   3.398542   3.874161   3.417999
    26  H    2.699468   2.757679   3.484252   4.332015   4.588593
    27  H    4.585913   5.005534   5.920790   6.767884   6.843740
                   11         12         13         14         15
    11  N    0.000000
    12  C    2.439931   0.000000
    13  C    3.716100   1.393008   0.000000
    14  C    6.461476   4.466701   3.307982   0.000000
    15  C    7.648511   5.600264   4.476444   1.393247   0.000000
    16  H   10.516349   8.223484   7.008633   4.457929   3.284549
    17  H    9.964875   7.833268   6.755762   3.979507   2.601893
    18  H    9.587349   7.252413   5.895703   3.875648   3.400411
    19  H    7.867470   5.666419   4.293570   3.393825   3.869612
    20  H    4.595343   3.870201   3.394186   4.249524   5.617876
    21  H    2.673858   3.400787   3.875777   5.846704   7.199690
    22  H    1.012566   2.601182   3.978551   6.924692   8.042646
    23  H    1.012531   3.284219   4.457046   7.158065   8.404325
    24  H    2.671295   1.086824   2.147308   5.077795   6.048035
    25  H    4.589505   2.152119   1.085078   3.138056   4.069378
    26  H    5.760471   4.035364   3.118206   1.084994   2.151908
    27  H    7.927882   6.042438   5.084574   2.147098   1.086837
                   16         17         18         19         20
    16  H    0.000000
    17  H    1.663856   0.000000
    18  H    2.437589   3.619408   0.000000
    19  H    4.699888   5.403044   2.481233   0.000000
    20  H    8.449682   8.201112   7.016940   5.018291   0.000000
    21  H   10.221952   9.767592   9.004990   7.040862   2.481795
    22  H   10.745321  10.232832   9.849649   8.184534   5.404425
    23  H   11.321428  10.796564  10.280396   8.424199   4.700900
    24  H    8.471584   8.057197   7.666400   6.272058   4.956977
    25  H    6.247958   6.094865   5.212530   3.883009   4.289427
    26  H    5.400649   4.690123   4.960547   4.289451   3.831397
    27  H    3.617188   2.433699   4.303098   4.956338   6.213057
                   21         22         23         24         25
    21  H    0.000000
    22  H    3.618788   0.000000
    23  H    2.436040   1.664438   0.000000
    24  H    4.303268   2.430343   3.615276   0.000000
    25  H    4.960831   4.688241   5.398965   2.470927   0.000000
    26  H    5.142486   6.302751   6.438935   4.696259   3.234384
    27  H    7.596677   8.328968   8.707201   6.418042   4.730227
                   26         27
    26  H    0.000000
    27  H    2.469893   0.000000
 Stoichiometry    C12H12N2O
 Framework group  C1[X(C12H12N2O)]
 Deg. of freedom    75
 Full point group                 C1      NOp   1
 Largest Abelian subgroup         C1      NOp   1
 Largest concise Abelian subgroup C1      NOp   1
                         Standard orientation:                         
 ---------------------------------------------------------------------
 Center     Atomic      Atomic             Coordinates (Angstroms)
 Number     Number       Type             X           Y           Z
 ---------------------------------------------------------------------
      1          7           0        4.981661   -1.102190    0.191276
      2          6           0        3.712606   -0.518315    0.094469
      3          6           0        3.495901    0.606611   -0.719744
      4          6           0        2.248886    1.227622   -0.763897
      5          6           0        1.197138    0.748085    0.017152
      6          8           0        0.000568    1.452011   -0.014918
      7          6           0       -1.195603    0.746461   -0.028871
      8          6           0       -2.228986    1.205906    0.787596
      9          6           0       -3.476306    0.584569    0.756997
     10          6           0       -3.716246   -0.508950   -0.092734
     11          7           0       -4.940628   -1.186965   -0.063064
     12          6           0       -2.660722   -0.964379   -0.903150
     13          6           0       -1.416460   -0.338434   -0.881371
     14          6           0        1.401333   -0.353944    0.851415
     15          6           0        2.645867   -0.979278    0.886503
     16          1           0        5.558279   -0.980172   -0.632087
     17          1           0        4.970081   -2.074083    0.475072
     18          1           0        4.309295    0.994323   -1.327250
     19          1           0        2.085054    2.091565   -1.400266
     20          1           0       -2.050494    2.053220    1.442095
     21          1           0       -4.272021    0.947546    1.401976
     22          1           0       -5.160130   -1.684732   -0.917076
     23          1           0       -5.724631   -0.615551    0.226840
     24          1           0       -2.820713   -1.813007   -1.563014
     25          1           0       -0.618711   -0.692606   -1.526005
     26          1           0        0.591633   -0.721270    1.473243
     27          1           0        2.796122   -1.832958    1.542148
 ---------------------------------------------------------------------
 Rotational constants (GHZ):           1.8661222           0.2597064           0.2467448
 Standard basis: 6-31G(d,p) (6D, 7F)
 There are   285 symmetry adapted cartesian basis functions of A   symmetry.
 There are   285 symmetry adapted basis functions of A   symmetry.
   285 basis functions,   504 primitive gaussians,   285 cartesian basis functions
    53 alpha electrons       53 beta electrons
       nuclear repulsion energy       893.8406625970 Hartrees.
 NAtoms=   27 NActive=   27 NUniq=   27 SFac= 1.00D+00 NAtFMM=   60 NAOKFM=F Big=F
 Integral buffers will be    131072 words long.
 Raffenetti 2 integral format.
 Two-electron integral symmetry is turned on.
 ------------------------------------------------------------------------------
 Polarizable Continuum Model (PCM)
 =================================
 Model                : PCM.
 Atomic radii         : UFF (Universal Force Field).
 Polarization charges : Total charges.
 Charge compensation  : None.
 Solution method      : Matrix inversion.
[...]


 NATURAL POPULATIONS:  Natural atomic orbital occupancies 
                                                          
   NAO  Atom  No  lang   Type(AO)    Occupancy
 --------------------------------------------
     1    N    1  S      Cor( 1S)     1.99950
     2    N    1  S      Val( 2S)     1.37298
     3    N    1  S      Ryd( 3S)     0.00010
     4    N    1  S      Ryd( 4S)     0.00001
     5    N    1  px     Val( 2p)     1.38943
     6    N    1  px     Ryd( 3p)     0.00257
     7    N    1  py     Val( 2p)     1.45382
     8    N    1  py     Ryd( 3p)     0.00226
     9    N    1  pz     Val( 2p)     1.56502
    10    N    1  pz     Ryd( 3p)     0.00278
    11    N    1  dxy    Ryd( 3d)     0.00042
    12    N    1  dxz    Ryd( 3d)     0.00098
    13    N    1  dyz    Ryd( 3d)     0.00029
    14    N    1  dx2y2  Ryd( 3d)     0.00087
    15    N    1  dz2    Ryd( 3d)     0.00084

    16    C    2  S      Cor( 1S)     1.99897
    17    C    2  S      Val( 2S)     0.85099
    18    C    2  S      Ryd( 3S)     0.00112
    19    C    2  S      Ryd( 4S)     0.00009
    20    C    2  px     Val( 2p)     0.92471
    21    C    2  px     Ryd( 3p)     0.00541
    22    C    2  py     Val( 2p)     1.01022
    23    C    2  py     Ryd( 3p)     0.00319
    24    C    2  pz     Val( 2p)     1.00826
    25    C    2  pz     Ryd( 3p)     0.00260
    26    C    2  dxy    Ryd( 3d)     0.00109
    27    C    2  dxz    Ryd( 3d)     0.00113
    28    C    2  dyz    Ryd( 3d)     0.00054
    29    C    2  dx2y2  Ryd( 3d)     0.00121
    30    C    2  dz2    Ryd( 3d)     0.00102

    31    C    3  S      Cor( 1S)     1.99905
    32    C    3  S      Val( 2S)     0.95110
    33    C    3  S      Ryd( 3S)     0.00060
    34    C    3  S      Ryd( 4S)     0.00004
    35    C    3  px     Val( 2p)     1.14288
    36    C    3  px     Ryd( 3p)     0.00422
    37    C    3  py     Val( 2p)     1.08913
    38    C    3  py     Ryd( 3p)     0.00425
    39    C    3  pz     Val( 2p)     1.12855
    40    C    3  pz     Ryd( 3p)     0.00432
    41    C    3  dxy    Ryd( 3d)     0.00049
    42    C    3  dxz    Ryd( 3d)     0.00058
    43    C    3  dyz    Ryd( 3d)     0.00046
    44    C    3  dx2y2  Ryd( 3d)     0.00059
    45    C    3  dz2    Ryd( 3d)     0.00037

    46    C    4  S      Cor( 1S)     1.99903
    47    C    4  S      Val( 2S)     0.95818
    48    C    4  S      Ryd( 3S)     0.00077
    49    C    4  S      Ryd( 4S)     0.00004
    50    C    4  px     Val( 2p)     1.06469
    51    C    4  px     Ryd( 3p)     0.00506
    52    C    4  py     Val( 2p)     1.16134
    53    C    4  py     Ryd( 3p)     0.00429
    54    C    4  pz     Val( 2p)     1.11608
    55    C    4  pz     Ryd( 3p)     0.00440
    56    C    4  dxy    Ryd( 3d)     0.00060
    57    C    4  dxz    Ryd( 3d)     0.00065
    58    C    4  dyz    Ryd( 3d)     0.00049
    59    C    4  dx2y2  Ryd( 3d)     0.00050
    60    C    4  dz2    Ryd( 3d)     0.00039

    61    C    5  S      Cor( 1S)     1.99869
    62    C    5  S      Val( 2S)     0.84112
    63    C    5  S      Ryd( 3S)     0.00128
    64    C    5  S      Ryd( 4S)     0.00013
    65    C    5  px     Val( 2p)     0.80809
    66    C    5  px     Ryd( 3p)     0.00540
    67    C    5  py     Val( 2p)     0.98969
    68    C    5  py     Ryd( 3p)     0.00627
    69    C    5  pz     Val( 2p)     1.03204
    70    C    5  pz     Ryd( 3p)     0.00297
    71    C    5  dxy    Ryd( 3d)     0.00163
    72    C    5  dxz    Ryd( 3d)     0.00131
    73    C    5  dyz    Ryd( 3d)     0.00066
    74    C    5  dx2y2  Ryd( 3d)     0.00130
    75    C    5  dz2    Ryd( 3d)     0.00124

    76    O    6  S      Cor( 1S)     1.99971
    77    O    6  S      Val( 2S)     1.57844
    78    O    6  S      Ryd( 3S)     0.00059
    79    O    6  S      Ryd( 4S)     0.00014
    80    O    6  px     Val( 2p)     1.38196
    81    O    6  px     Ryd( 3p)     0.00051
    82    O    6  py     Val( 2p)     1.73650
    83    O    6  py     Ryd( 3p)     0.00218
    84    O    6  pz     Val( 2p)     1.74499
    85    O    6  pz     Ryd( 3p)     0.00264
    86    O    6  dxy    Ryd( 3d)     0.00131
    87    O    6  dxz    Ryd( 3d)     0.00040
    88    O    6  dyz    Ryd( 3d)     0.00143
    89    O    6  dx2y2  Ryd( 3d)     0.00140
    90    O    6  dz2    Ryd( 3d)     0.00085

    91    C    7  S      Cor( 1S)     1.99869
    92    C    7  S      Val( 2S)     0.84118
    93    C    7  S      Ryd( 3S)     0.00129
    94    C    7  S      Ryd( 4S)     0.00013
    95    C    7  px     Val( 2p)     0.80890
    96    C    7  px     Ryd( 3p)     0.00536
    97    C    7  py     Val( 2p)     0.98987
    98    C    7  py     Ryd( 3p)     0.00635
    99    C    7  pz     Val( 2p)     1.03048
   100    C    7  pz     Ryd( 3p)     0.00291
   101    C    7  dxy    Ryd( 3d)     0.00164
   102    C    7  dxz    Ryd( 3d)     0.00131
   103    C    7  dyz    Ryd( 3d)     0.00067
   104    C    7  dx2y2  Ryd( 3d)     0.00130
   105    C    7  dz2    Ryd( 3d)     0.00123

   106    C    8  S      Cor( 1S)     1.99903
   107    C    8  S      Val( 2S)     0.95835
   108    C    8  S      Ryd( 3S)     0.00077
   109    C    8  S      Ryd( 4S)     0.00004
   110    C    8  px     Val( 2p)     1.06324
   111    C    8  px     Ryd( 3p)     0.00508
   112    C    8  py     Val( 2p)     1.16498
   113    C    8  py     Ryd( 3p)     0.00431
   114    C    8  pz     Val( 2p)     1.11344
   115    C    8  pz     Ryd( 3p)     0.00435
   116    C    8  dxy    Ryd( 3d)     0.00060
   117    C    8  dxz    Ryd( 3d)     0.00065
   118    C    8  dyz    Ryd( 3d)     0.00049
   119    C    8  dx2y2  Ryd( 3d)     0.00050
   120    C    8  dz2    Ryd( 3d)     0.00039

   121    C    9  S      Cor( 1S)     1.99905
   122    C    9  S      Val( 2S)     0.95114
   123    C    9  S      Ryd( 3S)     0.00060
   124    C    9  S      Ryd( 4S)     0.00004
   125    C    9  px     Val( 2p)     1.14349
   126    C    9  px     Ryd( 3p)     0.00433
   127    C    9  py     Val( 2p)     1.08658
   128    C    9  py     Ryd( 3p)     0.00425
   129    C    9  pz     Val( 2p)     1.13055
   130    C    9  pz     Ryd( 3p)     0.00422
   131    C    9  dxy    Ryd( 3d)     0.00048
   132    C    9  dxz    Ryd( 3d)     0.00058
   133    C    9  dyz    Ryd( 3d)     0.00047
   134    C    9  dx2y2  Ryd( 3d)     0.00060
   135    C    9  dz2    Ryd( 3d)     0.00036

   136    C   10  S      Cor( 1S)     1.99897
   137    C   10  S      Val( 2S)     0.85102
   138    C   10  S      Ryd( 3S)     0.00111
   139    C   10  S      Ryd( 4S)     0.00009
   140    C   10  px     Val( 2p)     0.93421
   141    C   10  px     Ryd( 3p)     0.00482
   142    C   10  py     Val( 2p)     1.00251
   143    C   10  py     Ryd( 3p)     0.00386
   144    C   10  pz     Val( 2p)     1.00667
   145    C   10  pz     Ryd( 3p)     0.00249
   146    C   10  dxy    Ryd( 3d)     0.00124
   147    C   10  dxz    Ryd( 3d)     0.00107
   148    C   10  dyz    Ryd( 3d)     0.00060
   149    C   10  dx2y2  Ryd( 3d)     0.00107
   150    C   10  dz2    Ryd( 3d)     0.00102

   151    N   11  S      Cor( 1S)     1.99950
   152    N   11  S      Val( 2S)     1.37330
   153    N   11  S      Ryd( 3S)     0.00011
   154    N   11  S      Ryd( 4S)     0.00001
   155    N   11  px     Val( 2p)     1.32257
   156    N   11  px     Ryd( 3p)     0.00206
   157    N   11  py     Val( 2p)     1.52079
   158    N   11  py     Ryd( 3p)     0.00278
   159    N   11  pz     Val( 2p)     1.56298
   160    N   11  pz     Ryd( 3p)     0.00275
   161    N   11  dxy    Ryd( 3d)     0.00092
   162    N   11  dxz    Ryd( 3d)     0.00033
   163    N   11  dyz    Ryd( 3d)     0.00088
   164    N   11  dx2y2  Ryd( 3d)     0.00039
   165    N   11  dz2    Ryd( 3d)     0.00088

   166    C   12  S      Cor( 1S)     1.99905
   167    C   12  S      Val( 2S)     0.94879
   168    C   12  S      Ryd( 3S)     0.00068
   169    C   12  S      Ryd( 4S)     0.00004
   170    C   12  px     Val( 2p)     1.06044
   171    C   12  px     Ryd( 3p)     0.00463
   172    C   12  py     Val( 2p)     1.17034
   173    C   12  py     Ryd( 3p)     0.00424
   174    C   12  pz     Val( 2p)     1.13939
   175    C   12  pz     Ryd( 3p)     0.00441
   176    C   12  dxy    Ryd( 3d)     0.00054
   177    C   12  dxz    Ryd( 3d)     0.00054
   178    C   12  dyz    Ryd( 3d)     0.00050
   179    C   12  dx2y2  Ryd( 3d)     0.00054
   180    C   12  dz2    Ryd( 3d)     0.00035

   181    C   13  S      Cor( 1S)     1.99902
   182    C   13  S      Val( 2S)     0.95886
   183    C   13  S      Ryd( 3S)     0.00075
   184    C   13  S      Ryd( 4S)     0.00005
   185    C   13  px     Val( 2p)     1.15219
   186    C   13  px     Ryd( 3p)     0.00419
   187    C   13  py     Val( 2p)     1.08358
   188    C   13  py     Ryd( 3p)     0.00484
   189    C   13  pz     Val( 2p)     1.12267
   190    C   13  pz     Ryd( 3p)     0.00464
   191    C   13  dxy    Ryd( 3d)     0.00047
   192    C   13  dxz    Ryd( 3d)     0.00065
   193    C   13  dyz    Ryd( 3d)     0.00050
   194    C   13  dx2y2  Ryd( 3d)     0.00065
   195    C   13  dz2    Ryd( 3d)     0.00041

   196    C   14  S      Cor( 1S)     1.99902
   197    C   14  S      Val( 2S)     0.95897
   198    C   14  S      Ryd( 3S)     0.00075
   199    C   14  S      Ryd( 4S)     0.00005
   200    C   14  px     Val( 2p)     1.15298
   201    C   14  px     Ryd( 3p)     0.00417
   202    C   14  py     Val( 2p)     1.08206
   203    C   14  py     Ryd( 3p)     0.00488
   204    C   14  pz     Val( 2p)     1.12286
   205    C   14  pz     Ryd( 3p)     0.00461
   206    C   14  dxy    Ryd( 3d)     0.00047
   207    C   14  dxz    Ryd( 3d)     0.00066
   208    C   14  dyz    Ryd( 3d)     0.00050
   209    C   14  dx2y2  Ryd( 3d)     0.00065
   210    C   14  dz2    Ryd( 3d)     0.00042

   211    C   15  S      Cor( 1S)     1.99905
   212    C   15  S      Val( 2S)     0.94878
   213    C   15  S      Ryd( 3S)     0.00068
   214    C   15  S      Ryd( 4S)     0.00004
   215    C   15  px     Val( 2p)     1.05945
   216    C   15  px     Ryd( 3p)     0.00454
   217    C   15  py     Val( 2p)     1.16831
   218    C   15  py     Ryd( 3p)     0.00443
   219    C   15  pz     Val( 2p)     1.14305
   220    C   15  pz     Ryd( 3p)     0.00430
   221    C   15  dxy    Ryd( 3d)     0.00054
   222    C   15  dxz    Ryd( 3d)     0.00055
   223    C   15  dyz    Ryd( 3d)     0.00050
   224    C   15  dx2y2  Ryd( 3d)     0.00051
   225    C   15  dz2    Ryd( 3d)     0.00036

   226    H   16  S      Val( 1S)     0.57580
   227    H   16  S      Ryd( 2S)     0.00135
   228    H   16  px     Ryd( 2p)     0.00039
   229    H   16  py     Ryd( 2p)     0.00027
   230    H   16  pz     Ryd( 2p)     0.00060

   231    H   17  S      Val( 1S)     0.57594
   232    H   17  S      Ryd( 2S)     0.00143
   233    H   17  px     Ryd( 2p)     0.00025
   234    H   17  py     Ryd( 2p)     0.00064
   235    H   17  pz     Ryd( 2p)     0.00036

   236    H   18  S      Val( 1S)     0.75628
   237    H   18  S      Ryd( 2S)     0.00096
   238    H   18  px     Ryd( 2p)     0.00025
   239    H   18  py     Ryd( 2p)     0.00015
   240    H   18  pz     Ryd( 2p)     0.00022

   241    H   19  S      Val( 1S)     0.74809
   242    H   19  S      Ryd( 2S)     0.00118
   243    H   19  px     Ryd( 2p)     0.00008
   244    H   19  py     Ryd( 2p)     0.00032
   245    H   19  pz     Ryd( 2p)     0.00022

   246    H   20  S      Val( 1S)     0.74809
   247    H   20  S      Ryd( 2S)     0.00121
   248    H   20  px     Ryd( 2p)     0.00008
   249    H   20  py     Ryd( 2p)     0.00032
   250    H   20  pz     Ryd( 2p)     0.00022

   251    H   21  S      Val( 1S)     0.75613
   252    H   21  S      Ryd( 2S)     0.00096
   253    H   21  px     Ryd( 2p)     0.00025
   254    H   21  py     Ryd( 2p)     0.00014
   255    H   21  pz     Ryd( 2p)     0.00023

   256    H   22  S      Val( 1S)     0.57572
   257    H   22  S      Ryd( 2S)     0.00137
   258    H   22  px     Ryd( 2p)     0.00022
   259    H   22  py     Ryd( 2p)     0.00042
   260    H   22  pz     Ryd( 2p)     0.00061

   261    H   23  S      Val( 1S)     0.57595
   262    H   23  S      Ryd( 2S)     0.00141
   263    H   23  px     Ryd( 2p)     0.00045
   264    H   23  py     Ryd( 2p)     0.00044
   265    H   23  pz     Ryd( 2p)     0.00036

   266    H   24  S      Val( 1S)     0.75653
   267    H   24  S      Ryd( 2S)     0.00093
   268    H   24  px     Ryd( 2p)     0.00007
   269    H   24  py     Ryd( 2p)     0.00032
   270    H   24  pz     Ryd( 2p)     0.00023

   271    H   25  S      Val( 1S)     0.74484
   272    H   25  S      Ryd( 2S)     0.00088
   273    H   25  px     Ryd( 2p)     0.00027
   274    H   25  py     Ryd( 2p)     0.00014
   275    H   25  pz     Ryd( 2p)     0.00023

   276    H   26  S      Val( 1S)     0.74486
   277    H   26  S      Ryd( 2S)     0.00089
   278    H   26  px     Ryd( 2p)     0.00027
   279    H   26  py     Ryd( 2p)     0.00014
   280    H   26  pz     Ryd( 2p)     0.00023

   281    H   27  S      Val( 1S)     0.75637
   282    H   27  S      Ryd( 2S)     0.00094
   283    H   27  px     Ryd( 2p)     0.00007
   284    H   27  py     Ryd( 2p)     0.00031
   285    H   27  pz     Ryd( 2p)     0.00024

 WARNING:  1 low occupancy (<1.9990e) core orbital  found on  C    2
           1 low occupancy (<1.9990e) core orbital  found on  C    5
           1 low occupancy (<1.9990e) core orbital  found on  C    7
           1 low occupancy (<1.9990e) core orbital  found on  C   10


 Summary of Natural Population Analysis:                  
                                                          
                                       Natural Population 
                Natural  -----------------------------------------------
    Atom  No    Charge         Core      Valence    Rydberg      Total
 -----------------------------------------------------------------------
      N    1   -0.79187      1.99950     5.78124    0.01113     7.79187
      C    2    0.18945      1.99897     3.79418    0.01740     5.81055
      C    3   -0.32664      1.99905     4.31166    0.01593     6.32664
      C    4   -0.31653      1.99903     4.30030    0.01720     6.31653
      C    5    0.30816      1.99869     3.67095    0.02220     5.69184
      O    6   -0.45304      1.99971     6.44189    0.01144     8.45304
      C    7    0.30869      1.99869     3.67043    0.02219     5.69131
      C    8   -0.31624      1.99903     4.30002    0.01719     6.31624
      C    9   -0.32675      1.99905     4.31176    0.01593     6.32675
      C   10    0.18924      1.99897     3.79441    0.01738     5.81076
      N   11   -0.79026      1.99950     5.77964    0.01112     7.79026
      C   12   -0.33448      1.99905     4.31897    0.01646     6.33448
      C   13   -0.33347      1.99902     4.31730    0.01715     6.33347
      C   14   -0.33303      1.99902     4.31687    0.01714     6.33303
      C   15   -0.33510      1.99905     4.31960    0.01645     6.33510
      H   16    0.42160      0.00000     0.57580    0.00260     0.57840
      H   17    0.42137      0.00000     0.57594    0.00269     0.57863
      H   18    0.24213      0.00000     0.75628    0.00158     0.75787
      H   19    0.25012      0.00000     0.74809    0.00179     0.74988
      H   20    0.25009      0.00000     0.74809    0.00183     0.74991
      H   21    0.24228      0.00000     0.75613    0.00159     0.75772
      H   22    0.42166      0.00000     0.57572    0.00262     0.57834
      H   23    0.42138      0.00000     0.57595    0.00266     0.57862
      H   24    0.24191      0.00000     0.75653    0.00156     0.75809
      H   25    0.25365      0.00000     0.74484    0.00152     0.74635
      H   26    0.25361      0.00000     0.74486    0.00153     0.74639
      H   27    0.24207      0.00000     0.75637    0.00156     0.75793
 =======================================================================
   * Total *    0.00000     29.98635    75.74381    0.26984   106.00000

                                 Natural Population      
 --------------------------------------------------------
   Core                      29.98635 ( 99.9545% of  30)
   Valence                   75.74381 ( 99.6629% of  76)
   Natural Minimal Basis    105.73016 ( 99.7454% of 106)
   Natural Rydberg Basis      0.26984 (  0.2546% of 106)
 --------------------------------------------------------

    Atom  No          Natural Electron Configuration
 ----------------------------------------------------------------------------
      N    1      [core]2S( 1.37)2p( 4.41)3p( 0.01)
      C    2      [core]2S( 0.85)2p( 2.94)3p( 0.01)
      C    3      [core]2S( 0.95)2p( 3.36)3p( 0.01)
      C    4      [core]2S( 0.96)2p( 3.34)3p( 0.01)
      C    5      [core]2S( 0.84)2p( 2.83)3p( 0.01)3d( 0.01)
      O    6      [core]2S( 1.58)2p( 4.86)3p( 0.01)3d( 0.01)
      C    7      [core]2S( 0.84)2p( 2.83)3p( 0.01)3d( 0.01)
      C    8      [core]2S( 0.96)2p( 3.34)3p( 0.01)
      C    9      [core]2S( 0.95)2p( 3.36)3p( 0.01)
      C   10      [core]2S( 0.85)2p( 2.94)3p( 0.01)
      N   11      [core]2S( 1.37)2p( 4.41)3p( 0.01)
      C   12      [core]2S( 0.95)2p( 3.37)3p( 0.01)
      C   13      [core]2S( 0.96)2p( 3.36)3p( 0.01)
      C   14      [core]2S( 0.96)2p( 3.36)3p( 0.01)
      C   15      [core]2S( 0.95)2p( 3.37)3p( 0.01)
      H   16            1S( 0.58)
      H   17            1S( 0.58)
      H   18            1S( 0.76)
      H   19            1S( 0.75)
      H   20            1S( 0.75)
      H   21            1S( 0.76)
      H   22            1S( 0.58)
      H   23            1S( 0.58)
      H   24            1S( 0.76)
      H   25            1S( 0.74)
      H   26            1S( 0.74)
      H   27            1S( 0.76)


 NBO analysis skipped by request.
 1\1\GINC-DRG2-W011\SP\RB3LYP TD-FC\6-31G(d,p)\C12H12N2O1\QDUEZ\17-Jul-
 2024\0\\# TD(NStates=10, Root=1) B3LYP/6-31G** SCRF=(Solvent=water) vo
 lume pop=NPA density=current Geom=AllCheck Guess=Read\\HLBLWEWZXPIGSM-
 UHFFFAOYSA-N_conf_0\\0,1\N,0,4.9274942497,0.7370910743,-1.3162341804\C
 ,0,3.702112541,0.3315197344,-0.7725423159\C,0,3.5731806648,0.068800905
 4,0.6025727414\C,0,2.3693048462,-0.3911551455,1.1328196703\C,0,1.27187
 15471,-0.6093819121,0.2992670452\O,0,0.1283594352,-1.1481630403,0.8750
 454787\C,0,-1.1197592919,-0.6816141211,0.4825888303\C,0,-2.1435328645,
 -1.6200621653,0.3487389792\C,0,-3.4389211368,-1.2070422958,0.042871434
 9\C,0,-3.7360138801,0.153848532,-0.1474991239\N,0,-5.0191039803,0.5642
 911665,-0.5305306851\C,0,-2.6919110385,1.0862137953,-0.0090287808\C,0,
 -1.3986703923,0.6766213155,0.3085590814\C,0,1.3838554435,-0.3620633083
 ,-1.0715259297\C,0,2.5848483309,0.1090920415,-1.5977500117\H,0,5.52719
 34495,1.228535596,-0.664868702\H,0,4.844996266,1.2574623151,-2.1809516
 771\H,0,4.4216198877,0.2324742785,1.2616589008\H,0,2.2730402709,-0.586
 4084331,2.1962071587\H,0,-1.9192322249,-2.6720470775,0.4944019313\H,0,
 -4.2282103645,-1.9473121087,-0.0572143439\H,0,-5.2424096303,1.51807382
 21,-0.2736960306\H,0,-5.7589472826,-0.0623231551,-0.2382977412\H,0,-2.
 8987680678,2.1444615936,-0.1451992808\H,0,-0.6090811448,1.4118910142,0
 .4226164346\H,0,0.5349028334,-0.5327055389,-1.7251543163\H,0,2.6617815
 337,0.299901117,-2.6649726789\\Version=ES64L-G16RevA.03\State=1-A\HF=-
 649.2542692\RMSD=4.343e-09\Dipole=-0.3722709,1.4276003,-0.2877022\Quad
 rupole=20.825975,-8.5314344,-12.2945405,6.4700183,-4.6146461,-1.803098
 \PG=C01 [X(C12H12N2O1)]\\@


 YOU ARE IN A MAZE OF TWISTY LITTLE PASSAGES.
 Job cpu time:       0 days  0 hours 55 minutes 23.6 seconds.
 Elapsed time:       0 days  0 hours 21 minutes 23.8 seconds.
 File lengths (MBytes):  RWF=    702 Int=      0 D2E=      0 Chk=     43 Scr=      1
 Normal termination of Gaussian 16 at Wed Jul 17 20:10:34 2024.
