 Entering Gaussian System, Link 0=g16
 Initial command:
 /opt/sw/arch/manual/gaussian/G16_A03/g16/l1.exe "/scratch/1381416/Gau-192559.inp" -scrdir="/scratch/1381416/"
 Entering Link 1 = /opt/sw/arch/manual/gaussian/G16_A03/g16/l1.exe PID=    192560.
  
 Copyright (c) 1988,1990,1992,1993,1995,1998,2003,2009,2016,
            Gaussian, Inc.  All Rights Reserved.
  
 This is part of the Gaussian(R) 16 program.  It is based on
 the Gaussian(R) 09 system (copyright 2009, Gaussian, Inc.),
 the Gaussian(R) 03 system (copyright 2003, Gaussian, Inc.),
 the Gaussian(R) 98 system (copyright 1998, Gaussian, Inc.),
 the Gaussian(R) 94 system (copyright 1995, Gaussian, Inc.),
 the Gaussian 92(TM) system (copyright 1992, Gaussian, Inc.),
 the Gaussian 90(TM) system (copyright 1990, Gaussian, Inc.),
 the Gaussian 88(TM) system (copyright 1988, Gaussian, Inc.),
 the Gaussian 86(TM) system (copyright 1986, Carnegie Mellon
 University), and the Gaussian 82(TM) system (copyright 1983,
 Carnegie Mellon University). Gaussian is a federally registered
 trademark of Gaussian, Inc.
  
 This software contains proprietary and confidential information,
 including trade secrets, belonging to Gaussian, Inc.
  
 This software is provided under written license and may be
 used, copied, transmitted, or stored only in accord with that
 written license.
  
 The following legend is applicable only to US Government
 contracts under FAR:
  
                    RESTRICTED RIGHTS LEGEND
  
 Use, reproduction and disclosure by the US Government is
 subject to restrictions as set forth in subparagraphs (a)
 and (c) of the Commercial Computer Software - Restricted
 Rights clause in FAR 52.227-19.
  
 Gaussian, Inc.
 340 Quinnipiac St., Bldg. 40, Wallingford CT 06492
  
  
 ---------------------------------------------------------------
 Warning -- This program may not be used in any manner that
 competes with the business of Gaussian, Inc. or will provide
 assistance to any competitor of Gaussian, Inc.  The licensee
 of this program is prohibited from giving any competitor of
 Gaussian, Inc. access to this program.  By using this program,
 the user acknowledges that Gaussian, Inc. is engaged in the
 business of creating and licensing software in the field of
 computational chemistry and represents and warrants to the
 licensee that it is not a competitor of Gaussian, Inc. and that
 it will not use this program in any manner prohibited above.
 ---------------------------------------------------------------
  

 Cite this work as:
 Gaussian 16, Revision A.03,
 M. J. Frisch, G. W. Trucks, H. B. Schlegel, G. E. Scuseria, 
 M. A. Robb, J. R. Cheeseman, G. Scalmani, V. Barone, 
 G. A. Petersson, H. Nakatsuji, X. Li, M. Caricato, A. V. Marenich, 
 J. Bloino, B. G. Janesko, R. Gomperts, B. Mennucci, H. P. Hratchian, 
 J. V. Ortiz, A. F. Izmaylov, J. L. Sonnenberg, D. Williams-Young, 
 F. Ding, F. Lipparini, F. Egidi, J. Goings, B. Peng, A. Petrone, 
 T. Henderson, D. Ranasinghe, V. G. Zakrzewski, J. Gao, N. Rega, 
 G. Zheng, W. Liang, M. Hada, M. Ehara, K. Toyota, R. Fukuda, 
 J. Hasegawa, M. Ishida, T. Nakajima, Y. Honda, O. Kitao, H. Nakai, 
 T. Vreven, K. Throssell, J. A. Montgomery, Jr., J. E. Peralta, 
 F. Ogliaro, M. J. Bearpark, J. J. Heyd, E. N. Brothers, K. N. Kudin, 
 V. N. Staroverov, T. A. Keith, R. Kobayashi, J. Normand, 
 K. Raghavachari, A. P. Rendell, J. C. Burant, S. S. Iyengar, 
 J. Tomasi, M. Cossi, J. M. Millam, M. Klene, C. Adamo, R. Cammi, 
 J. W. Ochterski, R. L. Martin, K. Morokuma, O. Farkas, 
 J. B. Foresman, and D. J. Fox, Gaussian, Inc., Wallingford CT, 2016.
 
 ******************************************
 Gaussian 16:  ES64L-G16RevA.03 25-Dec-2016
                19-Jul-2024 
 ******************************************
 %nprocshared=5
 Will use up to    5 processors via shared memory.
 %mem=10GB
 %Chk=XPAQFJJCWGSXGJ-UHFFFAOYSA-N_conf_2_0.chk
 -------------------------------------------------------
 # opt=CalcFc B3LYP/6-31G** SCRF=(Solvent=water) scf=xqc
 -------------------------------------------------------
 1/10=4,18=20,19=15,26=3,38=1/1,3;
 2/9=110,12=2,17=6,18=5,40=1/2;
 3/5=1,6=6,7=101,11=2,25=1,30=1,70=2201,71=2,72=1,74=-5,140=1/1,2,3;
 4//1;
 5/5=2,8=3,13=1,38=5,53=1/2,8;
 8/6=4,10=90,11=11/1;
 11/6=1,8=1,9=11,15=111,16=1/1,2,10;
 10/6=1,13=1/2;
 6/7=2,8=2,9=2,10=2,28=1/1;
 7/10=1,18=20,25=1/1,2,3,16;
 1/10=4,18=20,19=15,26=3/3(2);
 2/9=110/2;
 99//99;
 2/9=110/2;
 3/5=1,6=6,7=101,11=2,25=1,30=1,70=2205,71=1,72=1,74=-5/1,2,3;
 4/5=5,16=3,69=1/1;
 5/5=2,8=3,13=1,38=5,53=1/2,8;
 7//1,2,3,16;
 1/18=20,19=15,26=3/3(-5);
 2/9=110/2;
 6/7=2,8=2,9=2,10=2,19=2,28=1/1;
 99/9=1/99;
 ----------------------------------
 XPAQFJJCWGSXGJ-UHFFFAOYSA-N_conf_2
 ----------------------------------
 Symbolic Z-matrix:
 Charge =  0 Multiplicity = 1
 O                     0.22399   0.06092   2.02863 
 C                     0.47427   0.03057   0.83009 
 N                    -0.43317   0.05397  -0.21345 
 C                    -1.84065   0.04534  -0.12458 
 C                    -2.55904   0.14917  -1.3208 
 C                    -3.95887   0.13897  -1.31695 
 C                    -4.66648  -0.01837  -0.12584 
 N                    -6.0606    0.09141  -0.11135 
 C                    -3.94934  -0.06286   1.06984 
 C                    -2.54806  -0.05487   1.07195 
 C                     1.90355   0.00293   0.41118 
 C                     2.33362  -0.73689  -0.69582 
 C                     3.68594  -0.73136  -1.05429 
 C                     4.62688  -0.03413  -0.29079 
 N                     5.95186   0.06592  -0.7274 
 C                     4.18167   0.73452   0.78784 
 C                     2.83333   0.7334    1.15699 
 H                    -0.05556   0.15378  -1.14629 
 H                    -2.04612   0.25494  -2.27261 
 H                    -4.49087   0.25599  -2.2571 
 H                    -6.50646  -0.19986  -0.97508 
 H                    -6.4947   -0.32464   0.70682 
 H                    -4.47184  -0.1073    2.02186 
 H                    -2.04329  -0.11699   2.03065 
 H                     1.63828  -1.3346   -1.27813 
 H                     4.0026   -1.28752  -1.93316 
 H                     6.26858  -0.72783  -1.27539 
 H                     6.60935   0.31049   0.00711 
 H                     4.88283   1.33919   1.35738 
 H                     2.50831   1.31572   2.01683 
 

 GradGradGradGradGradGradGradGradGradGradGradGradGradGradGradGradGradGrad
 Berny optimization.
 Initialization pass.
                           ----------------------------
                           !    Initial Parameters    !
                           ! (Angstroms and Degrees)  !
 --------------------------                            --------------------------
 ! Name  Definition              Value          Derivative Info.                !
 --------------------------------------------------------------------------------
 ! R1    R(1,2)                  1.2248         calculate D2E/DX2 analytically  !
 ! R2    R(2,3)                  1.3831         calculate D2E/DX2 analytically  !
 ! R3    R(2,11)                 1.4897         calculate D2E/DX2 analytically  !
 ! R4    R(3,4)                  1.4103         calculate D2E/DX2 analytically  !
 ! R5    R(3,18)                 1.0113         calculate D2E/DX2 analytically  !
 ! R6    R(4,5)                  1.3992         calculate D2E/DX2 analytically  !
 ! R7    R(4,10)                 1.3936         calculate D2E/DX2 analytically  !
 ! R8    R(5,6)                  1.3999         calculate D2E/DX2 analytically  !
 ! R9    R(5,19)                 1.0864         calculate D2E/DX2 analytically  !
 ! R10   R(6,7)                  1.3944         calculate D2E/DX2 analytically  !
 ! R11   R(6,20)                 1.0866         calculate D2E/DX2 analytically  !
 ! R12   R(7,8)                  1.3985         calculate D2E/DX2 analytically  !
 ! R13   R(7,9)                  1.395          calculate D2E/DX2 analytically  !
 ! R14   R(8,21)                 1.0147         calculate D2E/DX2 analytically  !
 ! R15   R(8,22)                 1.0154         calculate D2E/DX2 analytically  !
 ! R16   R(9,10)                 1.4013         calculate D2E/DX2 analytically  !
 ! R17   R(9,23)                 1.0869         calculate D2E/DX2 analytically  !
 ! R18   R(10,24)                1.0852         calculate D2E/DX2 analytically  !
 ! R19   R(11,12)                1.3992         calculate D2E/DX2 analytically  !
 ! R20   R(11,17)                1.398          calculate D2E/DX2 analytically  !
 ! R21   R(12,13)                1.399          calculate D2E/DX2 analytically  !
 ! R22   R(12,25)                1.0862         calculate D2E/DX2 analytically  !
 ! R23   R(13,14)                1.398          calculate D2E/DX2 analytically  !
 ! R24   R(13,26)                1.0872         calculate D2E/DX2 analytically  !
 ! R25   R(14,15)                1.3986         calculate D2E/DX2 analytically  !
 ! R26   R(14,16)                1.3973         calculate D2E/DX2 analytically  !
 ! R27   R(15,27)                1.0152         calculate D2E/DX2 analytically  !
 ! R28   R(15,28)                1.0157         calculate D2E/DX2 analytically  !
 ! R29   R(16,17)                1.398          calculate D2E/DX2 analytically  !
 ! R30   R(16,29)                1.087          calculate D2E/DX2 analytically  !
 ! R31   R(17,30)                1.0881         calculate D2E/DX2 analytically  !
 ! A1    A(1,2,3)              127.1458         calculate D2E/DX2 analytically  !
 ! A2    A(1,2,11)             118.1455         calculate D2E/DX2 analytically  !
 ! A3    A(3,2,11)             114.6857         calculate D2E/DX2 analytically  !
 ! A4    A(2,3,4)              127.382          calculate D2E/DX2 analytically  !
 ! A5    A(2,3,18)             116.9139         calculate D2E/DX2 analytically  !
 ! A6    A(4,3,18)             115.5541         calculate D2E/DX2 analytically  !
 ! A7    A(3,4,5)              117.2625         calculate D2E/DX2 analytically  !
 ! A8    A(3,4,10)             124.1343         calculate D2E/DX2 analytically  !
 ! A9    A(5,4,10)             118.6028         calculate D2E/DX2 analytically  !
 ! A10   A(4,5,6)              120.6982         calculate D2E/DX2 analytically  !
 ! A11   A(4,5,19)             120.92           calculate D2E/DX2 analytically  !
 ! A12   A(6,5,19)             118.3752         calculate D2E/DX2 analytically  !
 ! A13   A(5,6,7)              120.7066         calculate D2E/DX2 analytically  !
 ! A14   A(5,6,20)             119.1072         calculate D2E/DX2 analytically  !
 ! A15   A(7,6,20)             120.1862         calculate D2E/DX2 analytically  !
 ! A16   A(6,7,8)              120.39           calculate D2E/DX2 analytically  !
 ! A17   A(6,7,9)              118.3534         calculate D2E/DX2 analytically  !
 ! A18   A(8,7,9)              120.4047         calculate D2E/DX2 analytically  !
 ! A19   A(7,8,21)             113.995          calculate D2E/DX2 analytically  !
 ! A20   A(7,8,22)             113.7268         calculate D2E/DX2 analytically  !
 ! A21   A(21,8,22)            112.3596         calculate D2E/DX2 analytically  !
 ! A22   A(7,9,10)             121.0102         calculate D2E/DX2 analytically  !
 ! A23   A(7,9,23)             120.328          calculate D2E/DX2 analytically  !
 ! A24   A(10,9,23)            118.6617         calculate D2E/DX2 analytically  !
 ! A25   A(4,10,9)             120.4457         calculate D2E/DX2 analytically  !
 ! A26   A(4,10,24)            121.7681         calculate D2E/DX2 analytically  !
 ! A27   A(9,10,24)            117.7822         calculate D2E/DX2 analytically  !
 ! A28   A(2,11,12)            121.817          calculate D2E/DX2 analytically  !
 ! A29   A(2,11,17)            118.582          calculate D2E/DX2 analytically  !
 ! A30   A(12,11,17)           119.5998         calculate D2E/DX2 analytically  !
 ! A31   A(11,12,13)           119.8504         calculate D2E/DX2 analytically  !
 ! A32   A(11,12,25)           121.2205         calculate D2E/DX2 analytically  !
 ! A33   A(13,12,25)           118.9203         calculate D2E/DX2 analytically  !
 ! A34   A(12,13,14)           120.8386         calculate D2E/DX2 analytically  !
 ! A35   A(12,13,26)           119.1208         calculate D2E/DX2 analytically  !
 ! A36   A(14,13,26)           120.0374         calculate D2E/DX2 analytically  !
 ! A37   A(13,14,15)           120.1855         calculate D2E/DX2 analytically  !
 ! A38   A(13,14,16)           118.782          calculate D2E/DX2 analytically  !
 ! A39   A(15,14,16)           120.2289         calculate D2E/DX2 analytically  !
 ! A40   A(14,15,27)           114.0866         calculate D2E/DX2 analytically  !
 ! A41   A(14,15,28)           113.8733         calculate D2E/DX2 analytically  !
 ! A42   A(27,15,28)           112.1274         calculate D2E/DX2 analytically  !
 ! A43   A(14,16,17)           120.711          calculate D2E/DX2 analytically  !
 ! A44   A(14,16,29)           120.3271         calculate D2E/DX2 analytically  !
 ! A45   A(17,16,29)           118.9608         calculate D2E/DX2 analytically  !
 ! A46   A(11,17,16)           120.0678         calculate D2E/DX2 analytically  !
 ! A47   A(11,17,30)           120.1678         calculate D2E/DX2 analytically  !
 ! A48   A(16,17,30)           119.757          calculate D2E/DX2 analytically  !
 ! D1    D(1,2,3,4)             -3.6996         calculate D2E/DX2 analytically  !
 ! D2    D(1,2,3,18)           171.6227         calculate D2E/DX2 analytically  !
 ! D3    D(11,2,3,4)           178.093          calculate D2E/DX2 analytically  !
 ! D4    D(11,2,3,18)           -6.5847         calculate D2E/DX2 analytically  !
 ! D5    D(1,2,11,12)          143.3916         calculate D2E/DX2 analytically  !
 ! D6    D(1,2,11,17)          -36.2053         calculate D2E/DX2 analytically  !
 ! D7    D(3,2,11,12)          -38.2288         calculate D2E/DX2 analytically  !
 ! D8    D(3,2,11,17)          142.1742         calculate D2E/DX2 analytically  !
 ! D9    D(2,3,4,5)            176.5183         calculate D2E/DX2 analytically  !
 ! D10   D(2,3,4,10)            -3.2569         calculate D2E/DX2 analytically  !
 ! D11   D(18,3,4,5)             1.1414         calculate D2E/DX2 analytically  !
 ! D12   D(18,3,4,10)         -178.6338         calculate D2E/DX2 analytically  !
 ! D13   D(3,4,5,6)            179.574          calculate D2E/DX2 analytically  !
 ! D14   D(3,4,5,19)            -1.376          calculate D2E/DX2 analytically  !
 ! D15   D(10,4,5,6)            -0.638          calculate D2E/DX2 analytically  !
 ! D16   D(10,4,5,19)          178.4121         calculate D2E/DX2 analytically  !
 ! D17   D(3,4,10,9)          -179.6724         calculate D2E/DX2 analytically  !
 ! D18   D(3,4,10,24)            1.0668         calculate D2E/DX2 analytically  !
 ! D19   D(5,4,10,9)             0.5552         calculate D2E/DX2 analytically  !
 ! D20   D(5,4,10,24)         -178.7056         calculate D2E/DX2 analytically  !
 ! D21   D(4,5,6,7)             -2.0918         calculate D2E/DX2 analytically  !
 ! D22   D(4,5,6,20)           177.8851         calculate D2E/DX2 analytically  !
 ! D23   D(19,5,6,7)           178.8344         calculate D2E/DX2 analytically  !
 ! D24   D(19,5,6,20)           -1.1887         calculate D2E/DX2 analytically  !
 ! D25   D(5,6,7,8)            174.2759         calculate D2E/DX2 analytically  !
 ! D26   D(5,6,7,9)              4.7996         calculate D2E/DX2 analytically  !
 ! D27   D(20,6,7,8)            -5.7007         calculate D2E/DX2 analytically  !
 ! D28   D(20,6,7,9)          -175.177          calculate D2E/DX2 analytically  !
 ! D29   D(6,7,8,21)            30.7194         calculate D2E/DX2 analytically  !
 ! D30   D(6,7,8,22)           161.2984         calculate D2E/DX2 analytically  !
 ! D31   D(9,7,8,21)          -160.0211         calculate D2E/DX2 analytically  !
 ! D32   D(9,7,8,22)           -29.4421         calculate D2E/DX2 analytically  !
 ! D33   D(6,7,9,10)            -4.8967         calculate D2E/DX2 analytically  !
 ! D34   D(6,7,9,23)           175.269          calculate D2E/DX2 analytically  !
 ! D35   D(8,7,9,10)          -174.3714         calculate D2E/DX2 analytically  !
 ! D36   D(8,7,9,23)             5.7943         calculate D2E/DX2 analytically  !
 ! D37   D(7,9,10,4)             2.2631         calculate D2E/DX2 analytically  !
 ! D38   D(7,9,10,24)         -178.4472         calculate D2E/DX2 analytically  !
 ! D39   D(23,9,10,4)         -177.8999         calculate D2E/DX2 analytically  !
 ! D40   D(23,9,10,24)           1.3898         calculate D2E/DX2 analytically  !
 ! D41   D(2,11,12,13)         179.8716         calculate D2E/DX2 analytically  !
 ! D42   D(2,11,12,25)          -1.2185         calculate D2E/DX2 analytically  !
 ! D43   D(17,11,12,13)         -0.5354         calculate D2E/DX2 analytically  !
 ! D44   D(17,11,12,25)        178.3745         calculate D2E/DX2 analytically  !
 ! D45   D(2,11,17,16)        -179.6961         calculate D2E/DX2 analytically  !
 ! D46   D(2,11,17,30)          -0.6823         calculate D2E/DX2 analytically  !
 ! D47   D(12,11,17,16)          0.6978         calculate D2E/DX2 analytically  !
 ! D48   D(12,11,17,30)        179.7116         calculate D2E/DX2 analytically  !
 ! D49   D(11,12,13,14)          2.3815         calculate D2E/DX2 analytically  !
 ! D50   D(11,12,13,26)       -178.2721         calculate D2E/DX2 analytically  !
 ! D51   D(25,12,13,14)       -176.5534         calculate D2E/DX2 analytically  !
 ! D52   D(25,12,13,26)          2.793          calculate D2E/DX2 analytically  !
 ! D53   D(12,13,14,15)       -174.0719         calculate D2E/DX2 analytically  !
 ! D54   D(12,13,14,16)         -4.3117         calculate D2E/DX2 analytically  !
 ! D55   D(26,13,14,15)          6.5876         calculate D2E/DX2 analytically  !
 ! D56   D(26,13,14,16)        176.3478         calculate D2E/DX2 analytically  !
 ! D57   D(13,14,15,27)        -30.4985         calculate D2E/DX2 analytically  !
 ! D58   D(13,14,15,28)       -160.9683         calculate D2E/DX2 analytically  !
 ! D59   D(16,14,15,27)        159.8903         calculate D2E/DX2 analytically  !
 ! D60   D(16,14,15,28)         29.4205         calculate D2E/DX2 analytically  !
 ! D61   D(13,14,16,17)          4.4692         calculate D2E/DX2 analytically  !
 ! D62   D(13,14,16,29)       -175.9062         calculate D2E/DX2 analytically  !
 ! D63   D(15,14,16,17)        174.2249         calculate D2E/DX2 analytically  !
 ! D64   D(15,14,16,29)         -6.1506         calculate D2E/DX2 analytically  !
 ! D65   D(14,16,17,11)         -2.7068         calculate D2E/DX2 analytically  !
 ! D66   D(14,16,17,30)        178.2754         calculate D2E/DX2 analytically  !
 ! D67   D(29,16,17,11)        177.6636         calculate D2E/DX2 analytically  !
 ! D68   D(29,16,17,30)         -1.3542         calculate D2E/DX2 analytically  !
 --------------------------------------------------------------------------------
 Trust Radius=3.00D-01 FncErr=1.00D-07 GrdErr=1.00D-06 EigMax=2.50D+02 EigMin=1.00D-04
 Number of steps in this run=    157 maximum allowed number of steps=    180.
 GradGradGradGradGradGradGradGradGradGradGradGradGradGradGradGradGradGrad

                          Input orientation:                          
 ---------------------------------------------------------------------
 Center     Atomic      Atomic             Coordinates (Angstroms)
 Number     Number       Type             X           Y           Z
 ---------------------------------------------------------------------
      1          8           0        0.223990    0.060919    2.028627
      2          6           0        0.474269    0.030567    0.830089
      3          7           0       -0.433166    0.053974   -0.213449
      4          6           0       -1.840650    0.045342   -0.124580
      5          6           0       -2.559041    0.149175   -1.320799
      6          6           0       -3.958865    0.138975   -1.316948
      7          6           0       -4.666480   -0.018368   -0.125836
      8          7           0       -6.060603    0.091414   -0.111350
      9          6           0       -3.949340   -0.062858    1.069842
     10          6           0       -2.548062   -0.054872    1.071948
     11          6           0        1.903550    0.002925    0.411182
     12          6           0        2.333622   -0.736893   -0.695821
     13          6           0        3.685936   -0.731365   -1.054289
     14          6           0        4.626876   -0.034132   -0.290795
     15          7           0        5.951858    0.065916   -0.727404
     16          6           0        4.181672    0.734516    0.787837
     17          6           0        2.833330    0.733399    1.156993
     18          1           0       -0.055560    0.153780   -1.146293
     19          1           0       -2.046118    0.254940   -2.272614
     20          1           0       -4.490872    0.255991   -2.257103
     21          1           0       -6.506459   -0.199861   -0.975084
     22          1           0       -6.494703   -0.324636    0.706816
     23          1           0       -4.471837   -0.107297    2.021863
     24          1           0       -2.043293   -0.116989    2.030650
     25          1           0        1.638280   -1.334603   -1.278133
     26          1           0        4.002605   -1.287518   -1.933162
     27          1           0        6.268577   -0.727833   -1.275392
     28          1           0        6.609349    0.310486    0.007114
     29          1           0        4.882826    1.339186    1.357383
     30          1           0        2.508311    1.315720    2.016834
 ---------------------------------------------------------------------
                    Distance matrix (angstroms):
                    1          2          3          4          5
     1  O    0.000000
     2  C    1.224768   0.000000
     3  N    2.336409   1.383097   0.000000
     4  C    2.983167   2.504089   1.410313   0.000000
     5  C    4.355653   3.720398   2.398882   1.399217   0.000000
     6  C    5.356794   4.926885   3.695333   2.432559   1.399866
     7  C    5.344595   5.229100   4.234838   2.826548   2.428436
     8  N    6.639016   6.602617   5.628487   4.220225   3.705001
     9  C    4.283839   4.431086   3.744859   2.425887   2.773636
    10  C    2.934777   3.033196   2.477272   1.393612   2.401457
    11  C    2.332469   1.489661   2.419300   3.782575   4.789141
    12  C    3.536901   2.524795   2.917751   4.285178   5.011374
    13  C    4.702888   3.800819   4.276771   5.657807   6.312378
    14  C    4.977365   4.301711   5.061401   6.470150   7.261675
    15  N    6.356430   5.694824   6.405687   7.815818   8.531967
    16  C    4.201969   3.773880   4.771000   6.129913   7.087044
    17  C    2.832071   2.483145   3.606899   4.895093   5.963090
    18  H    3.188556   2.049874   1.011310   2.059661   2.509561
    19  H    4.867414   4.003681   2.623388   2.167995   1.086383
    20  H    6.374595   5.850999   4.547780   3.408182   2.149428
    21  H    7.374906   7.214035   6.126125   4.749027   3.977870
    22  H    6.858329   6.979107   6.142676   4.742185   4.452545
    23  H    4.698844   5.089528   4.618819   3.399068   3.859787
    24  H    2.274253   2.793070   2.767258   2.170814   3.401331
    25  H    3.857766   2.768250   2.711565   3.916361   4.452069
    26  H    5.638439   4.671409   4.942983   6.260280   6.744945
    27  H    6.933665   6.211460   6.830250   8.226891   8.871193
    28  H    6.702359   6.196358   7.050636   8.455184   9.265460
    29  H    4.877426   4.628812   5.690259   7.005382   7.998136
    30  H    2.606297   2.682780   3.901083   5.011285   6.178890
                    6          7          8          9         10
     6  C    0.000000
     7  C    1.394354   0.000000
     8  N    2.423433   1.398514   0.000000
     9  C    2.395328   1.394961   2.424138   0.000000
    10  C    2.781145   2.433868   3.709384   1.401302   0.000000
    11  C    6.113334   6.591975   7.981766   5.890202   4.500756
    12  C    6.383442   7.059928   8.455217   6.561059   5.236506
    13  C    7.698666   8.434052   9.826551   7.953381   6.621273
    14  C    8.648579   9.294833  10.689722   8.683528   7.303235
    15  N    9.928511  10.635699  12.028274  10.063817   8.689126
    16  C    8.429302   8.927005  10.301762   8.174882   6.781827
    17  C    7.253112   7.645780   9.006823   6.829805   5.439484
    18  H    3.907062   4.725627   6.093893   4.485501   3.343157
    19  H    2.141342   3.398477   4.562224   3.859439   3.396178
    20  H    1.086561   2.156016   2.663718   3.385776   3.867004
    21  H    2.592666   2.034622   1.014724   3.277095   4.458729
    22  H    3.277351   2.032120   1.015351   2.584413   3.972665
    23  H    3.386953   2.158334   2.667257   1.086886   2.146159
    24  H    3.865404   3.397244   4.557452   2.135205   1.085247
    25  H    5.788002   6.542954   7.916293   6.192884   4.968506
    26  H    8.111696   8.945960  10.319331   8.587855   7.311726
    27  H   10.264193  11.018180  12.411077  10.504673   9.148552
    28  H   10.652216  11.281407  12.672399  10.618601   9.226350
    29  H    9.314937   9.758695  11.111828   8.947377   7.565908
    30  H    7.370427   7.605816   8.913718   6.670722   5.323367
                   11         12         13         14         15
    11  C    0.000000
    12  C    1.399195   0.000000
    13  C    2.421505   1.399029   0.000000
    14  C    2.812588   2.432475   1.398008   0.000000
    15  N    4.205847   3.706364   2.424235   1.398647   0.000000
    16  C    2.422176   2.789547   2.405824   1.397309   2.424157
    17  C    1.397968   2.417516   2.786079   2.429404   3.704282
    18  H    2.507309   2.589288   3.845872   4.763653   6.022645
    19  H    4.781857   4.759426   5.942521   6.967067   8.148069
    20  H    6.933427   7.070865   8.323570   9.331874  10.555885
    21  H    8.525908   8.860780  10.206551  11.155576  12.463613
    22  H    8.409837   8.948557  10.339842  11.170011  12.535007
    23  H    6.576625   7.355030   8.740791   9.388308  10.781554
    24  H    4.267860   5.193776   6.535929   7.063083   8.459478
    25  H    2.170975   1.086207   2.146368   3.405550   4.568557
    26  H    3.401063   2.149350   1.087200   2.158255   2.661809
    27  H    4.736244   3.977419   2.592091   2.036132   1.015204
    28  H    4.733118   4.457910   3.279996   2.034136   1.015689
    29  H    3.399555   3.876105   3.396452   2.160556   2.666530
    30  H    2.160390   3.406205   3.874165   3.411095   4.577212
                   16         17         18         19         20
    16  C    0.000000
    17  C    1.397965   0.000000
    18  H    4.693852   3.739889   0.000000
    19  H    6.955697   5.983322   2.289357   0.000000
    20  H    9.204002   8.094930   4.573438   2.444803   0.000000
    21  H   10.872769   9.625403   6.462854   4.667448   2.431864
    22  H   10.729089   9.398633   6.717549   5.385427   3.624539
    23  H    8.781497   7.404069   5.441405   4.945490   4.294402
    24  H    6.404673   5.026717   3.757309   4.319309   4.951220
    25  H    3.875349   3.410955   2.258706   4.134057   6.407407
    26  H    3.394779   3.873031   4.377808   6.251516   8.638663
    27  H    3.278803   4.455628   6.386596   8.431753  10.848844
    28  H    2.585139   3.969811   6.765790   8.950830  11.328925
    29  H    1.087026   2.146525   5.662264   7.897007  10.104653
    30  H    2.156008   1.088146   4.234254   6.345663   8.269106
                   21         22         23         24         25
    21  H    0.000000
    22  H    1.686563   0.000000
    23  H    3.623527   2.422514   0.000000
    24  H    5.381557   4.648732   2.428579   0.000000
    25  H    8.228988   8.432406   7.051935   5.097510   0.000000
    26  H   10.608550  10.866927   9.426098   7.323581   2.453837
    27  H   12.789468  12.922579  11.252265   8.966060   4.669886
    28  H   13.162431  13.138080  11.270601   8.896384   5.391633
    29  H   11.727100  11.516931   9.489129   7.109491   4.962073
    30  H    9.618453   9.244521   7.123726   4.771786   4.317172
                   26         27         28         29         30
    26  H    0.000000
    27  H    2.424983   0.000000
    28  H    3.621243   1.684948   0.000000
    29  H    4.301401   3.622758   2.421226   0.000000
    30  H    4.961072   5.399487   4.676322   2.464498   0.000000
 Stoichiometry    C13H13N3O
 Framework group  C1[X(C13H13N3O)]
 Deg. of freedom    84
 Full point group                 C1      NOp   1
 Largest Abelian subgroup         C1      NOp   1
 Largest concise Abelian subgroup C1      NOp   1
                         Standard orientation:                         
 ---------------------------------------------------------------------
 Center     Atomic      Atomic             Coordinates (Angstroms)
 Number     Number       Type             X           Y           Z
 ---------------------------------------------------------------------
      1          8           0        0.211290    1.934072    0.322321
      2          6           0        0.464738    0.750967    0.132367
      3          7           0       -0.439885   -0.272736   -0.083607
      4          6           0       -1.847609   -0.190414   -0.060797
      5          6           0       -2.562706   -1.348964   -0.383604
      6          6           0       -3.962544   -1.350482   -0.374858
      7          6           0       -4.673484   -0.210275   -0.002416
      8          7           0       -6.067536   -0.179286   -0.109649
      9          6           0       -3.959582    0.958642    0.261957
     10          6           0       -2.558307    0.965612    0.256484
     11          6           0        1.895106    0.337614    0.084624
     12          6           0        2.327431   -0.885388    0.609132
     13          6           0        3.680701   -1.233427    0.539776
     14          6           0        4.620260   -0.352551   -0.004020
     15          7           0        5.946496   -0.760107   -0.180680
     16          6           0        4.172905    0.847821   -0.562100
     17          6           0        2.823582    1.207186   -0.495111
     18          1           0       -0.059696   -1.170448   -0.352522
     19          1           0       -2.047144   -2.263898   -0.661669
     20          1           0       -4.491928   -2.254448   -0.663325
     21          1           0       -6.511361   -1.082916    0.017387
     22          1           0       -6.504213    0.547473    0.448985
     23          1           0       -4.484660    1.885019    0.479763
     24          1           0       -2.056158    1.897827    0.494354
     25          1           0        1.633080   -1.569283    1.088726
     26          1           0        3.999189   -2.198724    0.925486
     27          1           0        6.263926   -1.443791    0.499360
     28          1           0        6.602255    0.008445   -0.285239
     29          1           0        4.873108    1.520459   -1.050873
     30          1           0        2.496820    2.158560   -0.910052
 ---------------------------------------------------------------------
 Rotational constants (GHZ):           1.9071097           0.1695584           0.1584948
 Standard basis: 6-31G(d,p) (6D, 7F)
 There are   320 symmetry adapted cartesian basis functions of A   symmetry.
 There are   320 symmetry adapted basis functions of A   symmetry.
   320 basis functions,   567 primitive gaussians,   320 cartesian basis functions
    60 alpha electrons       60 beta electrons
       nuclear repulsion energy      1067.7532029537 Hartrees.
 NAtoms=   30 NActive=   30 NUniq=   30 SFac= 1.00D+00 NAtFMM=   60 NAOKFM=F Big=F
 Integral buffers will be    131072 words long.
 Raffenetti 2 integral format.
 Two-electron integral symmetry is turned on.
 Force inversion solution in PCM.
 ------------------------------------------------------------------------------
 Polarizable Continuum Model (PCM)
 =================================
 Model                : PCM.
 Atomic radii         : UFF (Universal Force Field).
 Polarization charges : Total charges.
 Charge compensation  : None.
 Solution method      : Matrix inversion.
 Cavity type          : Scaled VdW (van der Waals Surface) (Alpha=1.100).
 Cavity algorithm     : GePol (No added spheres)
                        Default sphere list used, NSphG=   30.
                        Lebedev-Laikov grids with approx.  5.0 points / Ang**2.
                        Smoothing algorithm: York/Karplus (Gamma=1.0000).
                        Polarization charges: spherical gaussians, with
                                              point-specific exponents (IZeta= 3).
                        Self-potential: point-specific (ISelfS= 7).
                        Self-field    : sphere-specific E.n sum rule (ISelfD= 2).
 1st derivatives      : Analytical E(r).r(x)/FMM algorithm (CHGder, D1EAlg=3).
                        Cavity 1st derivative terms included.
 2nd derivatives      : Analytical E(r).r(xy)/FMM algorithm (CHGder, D2EAlg=3).
                        Cavity 2nd derivative terms included.
 Solvent              : Water, Eps=  78.355300 Eps(inf)=   1.777849
 ------------------------------------------------------------------------------
 One-electron integrals computed using PRISM.
 NBasis=   320 RedAO= T EigKep=  4.23D-04  NBF=   320
 NBsUse=   320 1.00D-06 EigRej= -1.00D+00 NBFU=   320
 ExpMin= 1.61D-01 ExpMax= 5.48D+03 ExpMxC= 8.25D+02 IAcc=3 IRadAn=         5 AccDes= 0.00D+00
 Harris functional with IExCor=  402 and IRadAn=       5 diagonalized for initial guess.
 HarFok:  IExCor=  402 AccDes= 0.00D+00 IRadAn=         5 IDoV= 1 UseB2=F ITyADJ=14
 ICtDFT=  3500011 ScaDFX=  1.000000  1.000000  1.000000  1.000000
 FoFCou: FMM=F IPFlag=           0 FMFlag=      100000 FMFlg1=           0
         NFxFlg=           0 DoJE=T BraDBF=F KetDBF=T FulRan=T
         wScrn=  0.000000 ICntrl=       500 IOpCl=  0 I1Cent=   200000004 NGrid=           0
         NMat0=    1 NMatS0=      1 NMatT0=    0 NMatD0=    1 NMtDS0=    0 NMtDT0=    0
 Petite list used in FoFCou.
 Requested convergence on RMS density matrix=1.00D-08 within  32 cycles.
 Requested convergence on MAX density matrix=1.00D-06.
 Requested convergence on             energy=1.00D-06.
 No special actions if energy rises.
 Inv3:  Mode=1 IEnd=    16850700.
 Iteration    1 A*A^-1 deviation from unit magnitude is 3.44D-15 for   2175.
 Iteration    1 A*A^-1 deviation from orthogonality  is 2.36D-15 for   1987   1806.
 Iteration    1 A^-1*A deviation from unit magnitude is 3.44D-15 for    760.
 Iteration    1 A^-1*A deviation from orthogonality  is 3.19D-14 for   2124   2075.
 Error on total polarization charges =  0.00934
 SCF Done:  E(RB3LYP) =  -742.753311464     A.U. after   13 cycles
            NFock= 13  Conv=0.63D-08     -V/T= 2.0095
 QCSCF skips out because SCF is already converged.
 DoSCS=F DFT=T ScalE2(SS,OS)=  1.000000  1.000000
 Range of M.O.s used for correlation:     1   320
 NBasis=   320 NAE=    60 NBE=    60 NFC=     0 NFV=     0
 NROrb=    320 NOA=    60 NOB=    60 NVA=   260 NVB=   260
 Symmetrizing basis deriv contribution to polar:
 IMax=3 JMax=2 DiffMx= 0.00D+00
 G2DrvN: will do    31 centers at a time, making    1 passes.
 Calling FoFCou, ICntrl=  3107 FMM=F I1Cent=   0 AccDes= 0.00D+00.
 NEqPCM:  Using equilibrium solvation (IEInf=0, Eps=  78.3553, EpsInf=   1.7778)
 G2PCM: DoFxE=T DoFxN=T DoGrad=T DoDP/DQ/DG/TGxP=FFFF NFrqRd=   0 IEInf=0 SqF1=F DoCFld=F IF1Alg=4.
 End of G2Drv F.D. properties file   721 does not exist.
 End of G2Drv F.D. properties file   722 does not exist.
 End of G2Drv F.D. properties file   788 does not exist.
          IDoAtm=111111111111111111111111111111
 NEqPCM:  Using equilibrium solvation (IEInf=0, Eps=  78.3553, EpsInf=   1.7778)
          Differentiating once with respect to nuclear coordinates.
 Keep R1 ints in memory in canonical form, NReq=1335502880.
 CalDSu:  requested number of processors reduced to:   2 ShMem   1 Linda.
 CoulSu:  requested number of processors reduced to:   1 ShMem   1 Linda.
 CoulSu:  requested number of processors reduced to:   1 ShMem   1 Linda.
          There are    93 degrees of freedom in the 1st order CPHF.  IDoFFX=6 NUNeed=     0.
     87 vectors produced by pass  0 Test12= 1.68D-14 1.08D-09 XBig12= 1.60D-01 2.28D-01.
 AX will form    87 AO Fock derivatives at one time.
 CalDSu:  requested number of processors reduced to:   3 ShMem   1 Linda.
 CoulSu:  requested number of processors reduced to:   1 ShMem   1 Linda.
 CoulSu:  requested number of processors reduced to:   1 ShMem   1 Linda.
     87 vectors produced by pass  1 Test12= 1.68D-14 1.08D-09 XBig12= 3.91D-02 5.18D-02.
 CalDSu:  requested number of processors reduced to:   3 ShMem   1 Linda.
 CoulSu:  requested number of processors reduced to:   1 ShMem   1 Linda.
 CoulSu:  requested number of processors reduced to:   1 ShMem   1 Linda.
     87 vectors produced by pass  2 Test12= 1.68D-14 1.08D-09 XBig12= 2.53D-04 3.01D-03.
 CalDSu:  requested number of processors reduced to:   3 ShMem   1 Linda.
 CoulSu:  requested number of processors reduced to:   1 ShMem   1 Linda.
 CoulSu:  requested number of processors reduced to:   1 ShMem   1 Linda.
     87 vectors produced by pass  3 Test12= 1.68D-14 1.08D-09 XBig12= 9.95D-07 1.30D-04.
 CalDSu:  requested number of processors reduced to:   3 ShMem   1 Linda.
 CoulSu:  requested number of processors reduced to:   1 ShMem   1 Linda.
 CoulSu:  requested number of processors reduced to:   1 ShMem   1 Linda.
     87 vectors produced by pass  4 Test12= 1.68D-14 1.08D-09 XBig12= 2.08D-09 4.39D-06.
 CalDSu:  requested number of processors reduced to:   3 ShMem   1 Linda.
 CoulSu:  requested number of processors reduced to:   1 ShMem   1 Linda.
 CoulSu:  requested number of processors reduced to:   1 ShMem   1 Linda.
     69 vectors produced by pass  5 Test12= 1.68D-14 1.08D-09 XBig12= 2.19D-12 1.57D-07.
 CalDSu:  requested number of processors reduced to:   3 ShMem   1 Linda.
 CoulSu:  requested number of processors reduced to:   2 ShMem   1 Linda.
 CoulSu:  requested number of processors reduced to:   2 ShMem   1 Linda.
     20 vectors produced by pass  6 Test12= 1.68D-14 1.08D-09 XBig12= 2.09D-15 4.80D-09.
 InvSVY:  IOpt=1 It=  1 EMax= 5.55D-16
 Solved reduced A of dimension   524 with    93 vectors.
 End of Minotr F.D. properties file   721 does not exist.
 End of Minotr F.D. properties file   722 does not exist.
 End of Minotr F.D. properties file   788 does not exist.

 **********************************************************************

            Population analysis using the SCF density.

 **********************************************************************

 Orbital symmetries:
       Occupied  (A) (A) (A) (A) (A) (A) (A) (A) (A) (A) (A) (A)
                 (A) (A) (A) (A) (A) (A) (A) (A) (A) (A) (A) (A)
                 (A) (A) (A) (A) (A) (A) (A) (A) (A) (A) (A) (A)
                 (A) (A) (A) (A) (A) (A) (A) (A) (A) (A) (A) (A)
                 (A) (A) (A) (A) (A) (A) (A) (A) (A) (A) (A) (A)
       Virtual   (A) (A) (A) (A) (A) (A) (A) (A) (A) (A) (A) (A)
                 (A) (A) (A) (A) (A) (A) (A) (A) (A) (A) (A) (A)
                 (A) (A) (A) (A) (A) (A) (A) (A) (A) (A) (A) (A)
                 (A) (A) (A) (A) (A) (A) (A) (A) (A) (A) (A) (A)
                 (A) (A) (A) (A) (A) (A) (A) (A) (A) (A) (A) (A)
                 (A) (A) (A) (A) (A) (A) (A) (A) (A) (A) (A) (A)
                 (A) (A) (A) (A) (A) (A) (A) (A) (A) (A) (A) (A)
                 (A) (A) (A) (A) (A) (A) (A) (A) (A) (A) (A) (A)
                 (A) (A) (A) (A) (A) (A) (A) (A) (A) (A) (A) (A)
                 (A) (A) (A) (A) (A) (A) (A) (A) (A) (A) (A) (A)
                 (A) (A) (A) (A) (A) (A) (A) (A) (A) (A) (A) (A)
                 (A) (A) (A) (A) (A) (A) (A) (A) (A) (A) (A) (A)
                 (A) (A) (A) (A) (A) (A) (A) (A) (A) (A) (A) (A)
                 (A) (A) (A) (A) (A) (A) (A) (A) (A) (A) (A) (A)
                 (A) (A) (A) (A) (A) (A) (A) (A) (A) (A) (A) (A)
                 (A) (A) (A) (A) (A) (A) (A) (A) (A) (A) (A) (A)
                 (A) (A) (A) (A) (A) (A) (A) (A) (A) (A) (A) (A)
                 (A) (A) (A) (A) (A) (A) (A) (A) (A) (A) (A) (A)
                 (A) (A) (A) (A) (A) (A) (A) (A) (A) (A) (A) (A)
                 (A) (A) (A) (A) (A) (A) (A) (A) (A) (A) (A) (A)
                 (A) (A) (A) (A) (A) (A) (A) (A) (A) (A) (A) (A)
                 (A) (A) (A) (A) (A) (A) (A) (A)
 The electronic state is 1-A.
 Alpha  occ. eigenvalues --  -19.12005 -14.37399 -14.34180 -14.33424 -10.29235
 Alpha  occ. eigenvalues --  -10.23390 -10.22697 -10.22240 -10.19841 -10.19594
 Alpha  occ. eigenvalues --  -10.19146 -10.19133 -10.18861 -10.18839 -10.18502
 Alpha  occ. eigenvalues --  -10.18498 -10.18300  -1.03895  -0.93994  -0.91934
 Alpha  occ. eigenvalues --   -0.91208  -0.84576  -0.82888  -0.75169  -0.74751
 Alpha  occ. eigenvalues --   -0.74434  -0.71886  -0.64114  -0.62288  -0.61927
 Alpha  occ. eigenvalues --   -0.59591  -0.56960  -0.54465  -0.52189  -0.50930
 Alpha  occ. eigenvalues --   -0.50540  -0.49624  -0.48870  -0.44623  -0.43992
 Alpha  occ. eigenvalues --   -0.43683  -0.42937  -0.42497  -0.42287  -0.41219
 Alpha  occ. eigenvalues --   -0.40695  -0.39318  -0.38297  -0.37905  -0.37012
 Alpha  occ. eigenvalues --   -0.34785  -0.34539  -0.33517  -0.31198  -0.27288
 Alpha  occ. eigenvalues --   -0.25924  -0.25287  -0.24984  -0.21240  -0.19010
 Alpha virt. eigenvalues --   -0.02438  -0.00942  -0.00406   0.02363   0.06776
 Alpha virt. eigenvalues --    0.09223   0.09289   0.09416   0.10978   0.11852
 Alpha virt. eigenvalues --    0.13115   0.13971   0.16150   0.17046   0.17407
 Alpha virt. eigenvalues --    0.17714   0.18277   0.18443   0.20057   0.20935
 Alpha virt. eigenvalues --    0.23169   0.24585   0.26042   0.28773   0.29685
 Alpha virt. eigenvalues --    0.31221   0.32856   0.33051   0.34330   0.34720
 Alpha virt. eigenvalues --    0.35396   0.37058   0.38919   0.41952   0.46992
 Alpha virt. eigenvalues --    0.49952   0.51782   0.52118   0.52671   0.53084
 Alpha virt. eigenvalues --    0.53971   0.54491   0.55412   0.56198   0.56371
 Alpha virt. eigenvalues --    0.57283   0.58655   0.59022   0.59295   0.59517
 Alpha virt. eigenvalues --    0.59627   0.60055   0.60424   0.61564   0.62160
 Alpha virt. eigenvalues --    0.62521   0.63076   0.64138   0.65541   0.66210
 Alpha virt. eigenvalues --    0.67933   0.68417   0.69625   0.70173   0.72473
 Alpha virt. eigenvalues --    0.75014   0.75563   0.76266   0.77304   0.78492
 Alpha virt. eigenvalues --    0.80493   0.81040   0.81453   0.81834   0.82822
 Alpha virt. eigenvalues --    0.83554   0.83884   0.84428   0.85913   0.86104
 Alpha virt. eigenvalues --    0.87161   0.87435   0.88566   0.88887   0.89717
 Alpha virt. eigenvalues --    0.91379   0.91940   0.96268   0.96621   0.97460
 Alpha virt. eigenvalues --    0.99578   0.99984   1.00600   1.00893   1.02003
 Alpha virt. eigenvalues --    1.03227   1.05619   1.06886   1.09205   1.11843
 Alpha virt. eigenvalues --    1.15642   1.15827   1.16460   1.17012   1.19228
 Alpha virt. eigenvalues --    1.21069   1.21381   1.24756   1.26749   1.28734
 Alpha virt. eigenvalues --    1.29994   1.30807   1.31227   1.34688   1.37822
 Alpha virt. eigenvalues --    1.38515   1.39696   1.40020   1.40749   1.41361
 Alpha virt. eigenvalues --    1.41955   1.43657   1.44804   1.47202   1.48259
 Alpha virt. eigenvalues --    1.51658   1.52481   1.57158   1.60389   1.69588
 Alpha virt. eigenvalues --    1.72990   1.75009   1.75488   1.76400   1.77431
 Alpha virt. eigenvalues --    1.79230   1.79717   1.80030   1.80561   1.81159
 Alpha virt. eigenvalues --    1.81593   1.84840   1.86669   1.87205   1.88162
 Alpha virt. eigenvalues --    1.89540   1.91479   1.92845   1.93109   1.94462
 Alpha virt. eigenvalues --    1.95592   1.96244   1.96519   1.96904   1.98168
 Alpha virt. eigenvalues --    1.99313   1.99572   2.03825   2.04222   2.05994
 Alpha virt. eigenvalues --    2.08393   2.09369   2.10970   2.12389   2.16608
 Alpha virt. eigenvalues --    2.16842   2.20042   2.22226   2.23759   2.25208
 Alpha virt. eigenvalues --    2.26495   2.26767   2.29274   2.30681   2.32216
 Alpha virt. eigenvalues --    2.32966   2.33535   2.34079   2.34644   2.35532
 Alpha virt. eigenvalues --    2.36167   2.40269   2.41361   2.41644   2.42799
 Alpha virt. eigenvalues --    2.44564   2.44993   2.45763   2.46808   2.48112
 Alpha virt. eigenvalues --    2.48468   2.49765   2.50600   2.51080   2.53972
 Alpha virt. eigenvalues --    2.54774   2.55468   2.57353   2.58508   2.59282
 Alpha virt. eigenvalues --    2.59692   2.60252   2.63186   2.65253   2.66494
 Alpha virt. eigenvalues --    2.68108   2.68889   2.71543   2.73161   2.74621
 Alpha virt. eigenvalues --    2.78160   2.78979   2.80115   2.82251   2.85184
 Alpha virt. eigenvalues --    2.86219   2.88758   2.94214   2.96232   2.98408
 Alpha virt. eigenvalues --    2.98650   3.04448   3.05177   3.05691   3.11802
 Alpha virt. eigenvalues --    3.15401   3.18706   3.20338   3.24794   3.25773
 Alpha virt. eigenvalues --    3.27923   3.28526   3.30198   3.34243   3.37341
 Alpha virt. eigenvalues --    3.39665   3.48273   3.48624   3.51659   3.53825
 Alpha virt. eigenvalues --    3.60324   3.83176   3.84982   4.03571   4.04076
 Alpha virt. eigenvalues --    4.10182   4.13364   4.13524   4.15424   4.15758
 Alpha virt. eigenvalues --    4.17444   4.22686   4.27167   4.38500   4.43685
 Alpha virt. eigenvalues --    4.44203   4.46816   4.58523   4.82432   4.86744
          Condensed to atoms (all electrons):
               1          2          3          4          5          6
     1  O    8.147455   0.558059  -0.086201  -0.001049   0.000282  -0.000004
     2  C    0.558059   4.468813   0.230031  -0.023700   0.005561  -0.000124
     3  N   -0.086201   0.230031   7.178239   0.207257  -0.058511   0.005217
     4  C   -0.001049  -0.023700   0.207257   4.632268   0.504538  -0.023591
     5  C    0.000282   0.005561  -0.058511   0.504538   4.975015   0.525856
     6  C   -0.000004  -0.000124   0.005217  -0.023591   0.525856   4.916814
     7  C   -0.000002   0.000003   0.000289  -0.033586  -0.025465   0.539276
     8  N    0.000000  -0.000000   0.000000   0.000480   0.004859  -0.071001
     9  C    0.000604   0.000187   0.005255  -0.027946  -0.044392  -0.047577
    10  C   -0.009183  -0.003212  -0.063910   0.551197  -0.058469  -0.044165
    11  C   -0.097014   0.329643  -0.098549   0.006434  -0.000446   0.000001
    12  C    0.001533  -0.047522  -0.006034   0.000370  -0.000050  -0.000000
    13  C   -0.000086   0.004521   0.000201   0.000003  -0.000001   0.000000
    14  C   -0.000016   0.000543  -0.000005  -0.000000   0.000000   0.000000
    15  N   -0.000000   0.000001   0.000000  -0.000000   0.000000   0.000000
    16  C    0.000743   0.005698  -0.000103   0.000002   0.000000   0.000000
    17  C    0.004723  -0.032636   0.004900  -0.000111   0.000004  -0.000000
    18  H    0.002721  -0.024957   0.339122  -0.023859  -0.006592   0.000017
    19  H    0.000003   0.000168  -0.009119  -0.043408   0.362510  -0.031219
    20  H   -0.000000   0.000001  -0.000104   0.003856  -0.033528   0.365041
    21  H   -0.000000  -0.000000  -0.000000   0.000003  -0.000052  -0.009377
    22  H    0.000000   0.000000  -0.000000  -0.000003  -0.000187   0.005539
    23  H   -0.000005   0.000002  -0.000108   0.003682   0.000710   0.005348
    24  H    0.023922   0.003331  -0.012428  -0.032973   0.005674   0.000316
    25  H   -0.000036  -0.007432   0.005233  -0.000102  -0.000008  -0.000000
    26  H    0.000001  -0.000157   0.000004  -0.000000   0.000000  -0.000000
    27  H   -0.000000  -0.000000   0.000000  -0.000000   0.000000   0.000000
    28  H    0.000000  -0.000000   0.000000  -0.000000   0.000000  -0.000000
    29  H    0.000001  -0.000158   0.000001  -0.000000   0.000000  -0.000000
    30  H    0.009962  -0.007240   0.000459   0.000001   0.000000  -0.000000
               7          8          9         10         11         12
     1  O   -0.000002   0.000000   0.000604  -0.009183  -0.097014   0.001533
     2  C    0.000003  -0.000000   0.000187  -0.003212   0.329643  -0.047522
     3  N    0.000289   0.000000   0.005255  -0.063910  -0.098549  -0.006034
     4  C   -0.033586   0.000480  -0.027946   0.551197   0.006434   0.000370
     5  C   -0.025465   0.004859  -0.044392  -0.058469  -0.000446  -0.000050
     6  C    0.539276  -0.071001  -0.047577  -0.044165   0.000001  -0.000000
     7  C    4.582154   0.295493   0.534167  -0.023508   0.000000  -0.000000
     8  N    0.295493   6.837114  -0.070854   0.004509   0.000000  -0.000000
     9  C    0.534167  -0.070854   4.973692   0.497821   0.000001  -0.000000
    10  C   -0.023508   0.004509   0.497821   4.935706   0.000640  -0.000034
    11  C    0.000000   0.000000   0.000001   0.000640   5.017047   0.509094
    12  C   -0.000000  -0.000000  -0.000000  -0.000034   0.509094   4.928858
    13  C   -0.000000  -0.000000   0.000000   0.000000  -0.036023   0.506487
    14  C    0.000000   0.000000   0.000000   0.000000  -0.029741  -0.025946
    15  N   -0.000000   0.000000  -0.000000   0.000000   0.000482   0.004715
    16  C    0.000000  -0.000000  -0.000000  -0.000000  -0.038160  -0.043322
    17  C   -0.000000  -0.000000  -0.000000  -0.000003   0.507063  -0.040917
    18  H   -0.000012  -0.000000  -0.000042   0.004736   0.001388   0.005756
    19  H    0.003885  -0.000112   0.000598   0.005436   0.000011  -0.000025
    20  H   -0.041855  -0.007313   0.005354   0.000583  -0.000000   0.000000
    21  H   -0.025073   0.343727   0.005524  -0.000179  -0.000000  -0.000000
    22  H   -0.025290   0.343916  -0.009489  -0.000053  -0.000000  -0.000000
    23  H   -0.043087  -0.007274   0.364953  -0.032539  -0.000000   0.000000
    24  H    0.004267  -0.000099  -0.037296   0.354269   0.000506  -0.000011
    25  H    0.000000  -0.000000  -0.000000  -0.000014  -0.047212   0.365248
    26  H    0.000000   0.000000  -0.000000  -0.000000   0.003690  -0.032175
    27  H   -0.000000   0.000000  -0.000000   0.000000   0.000005  -0.000082
    28  H    0.000000   0.000000  -0.000000  -0.000000   0.000002  -0.000195
    29  H   -0.000000  -0.000000  -0.000000  -0.000000   0.004051   0.000712
    30  H   -0.000000  -0.000000  -0.000000  -0.000000  -0.047948   0.005633
              13         14         15         16         17         18
     1  O   -0.000086  -0.000016  -0.000000   0.000743   0.004723   0.002721
     2  C    0.004521   0.000543   0.000001   0.005698  -0.032636  -0.024957
     3  N    0.000201  -0.000005   0.000000  -0.000103   0.004900   0.339122
     4  C    0.000003  -0.000000  -0.000000   0.000002  -0.000111  -0.023859
     5  C   -0.000001   0.000000   0.000000   0.000000   0.000004  -0.006592
     6  C    0.000000   0.000000   0.000000   0.000000  -0.000000   0.000017
     7  C   -0.000000   0.000000  -0.000000   0.000000  -0.000000  -0.000012
     8  N   -0.000000   0.000000   0.000000  -0.000000  -0.000000  -0.000000
     9  C    0.000000   0.000000  -0.000000  -0.000000  -0.000000  -0.000042
    10  C    0.000000   0.000000   0.000000  -0.000000  -0.000003   0.004736
    11  C   -0.036023  -0.029741   0.000482  -0.038160   0.507063   0.001388
    12  C    0.506487  -0.025946   0.004715  -0.043322  -0.040917   0.005756
    13  C    4.949092   0.536541  -0.070563  -0.047612  -0.040843  -0.000168
    14  C    0.536541   4.570068   0.303900   0.527487  -0.023075  -0.000008
    15  N   -0.070563   0.303900   6.819946  -0.070438   0.004433  -0.000000
    16  C   -0.047612   0.527487  -0.070438   4.966201   0.505974  -0.000051
    17  C   -0.040843  -0.023075   0.004433   0.505974   4.882418  -0.000291
    18  H   -0.000168  -0.000008  -0.000000  -0.000051  -0.000291   0.405604
    19  H   -0.000000   0.000000  -0.000000  -0.000000   0.000000   0.006075
    20  H   -0.000000  -0.000000   0.000000  -0.000000   0.000000  -0.000013
    21  H   -0.000000   0.000000   0.000000  -0.000000  -0.000000   0.000000
    22  H   -0.000000   0.000000   0.000000  -0.000000  -0.000000   0.000000
    23  H   -0.000000   0.000000   0.000000  -0.000000  -0.000000   0.000003
    24  H    0.000000   0.000000   0.000000  -0.000000  -0.000005  -0.000155
    25  H   -0.029625   0.003522  -0.000110   0.000619   0.005192   0.001848
    26  H    0.364390  -0.042497  -0.007346   0.005116   0.000721   0.000001
    27  H   -0.009106  -0.024033   0.343467   0.005398  -0.000172  -0.000000
    28  H    0.005488  -0.024511   0.343274  -0.009049  -0.000041   0.000000
    29  H    0.005063  -0.043046  -0.007289   0.365764  -0.033105   0.000000
    30  H    0.000520   0.003856  -0.000106  -0.036041   0.368625  -0.000039
              19         20         21         22         23         24
     1  O    0.000003  -0.000000  -0.000000   0.000000  -0.000005   0.023922
     2  C    0.000168   0.000001  -0.000000   0.000000   0.000002   0.003331
     3  N   -0.009119  -0.000104  -0.000000  -0.000000  -0.000108  -0.012428
     4  C   -0.043408   0.003856   0.000003  -0.000003   0.003682  -0.032973
     5  C    0.362510  -0.033528  -0.000052  -0.000187   0.000710   0.005674
     6  C   -0.031219   0.365041  -0.009377   0.005539   0.005348   0.000316
     7  C    0.003885  -0.041855  -0.025073  -0.025290  -0.043087   0.004267
     8  N   -0.000112  -0.007313   0.343727   0.343916  -0.007274  -0.000099
     9  C    0.000598   0.005354   0.005524  -0.009489   0.364953  -0.037296
    10  C    0.005436   0.000583  -0.000179  -0.000053  -0.032539   0.354269
    11  C    0.000011  -0.000000  -0.000000  -0.000000  -0.000000   0.000506
    12  C   -0.000025   0.000000  -0.000000  -0.000000   0.000000  -0.000011
    13  C   -0.000000  -0.000000  -0.000000  -0.000000  -0.000000   0.000000
    14  C    0.000000  -0.000000   0.000000   0.000000   0.000000   0.000000
    15  N   -0.000000   0.000000   0.000000   0.000000   0.000000   0.000000
    16  C   -0.000000  -0.000000  -0.000000  -0.000000  -0.000000  -0.000000
    17  C    0.000000   0.000000  -0.000000  -0.000000  -0.000000  -0.000005
    18  H    0.006075  -0.000013   0.000000   0.000000   0.000003  -0.000155
    19  H    0.605692  -0.006385  -0.000007   0.000003   0.000014  -0.000150
    20  H   -0.006385   0.611989   0.004520  -0.000067  -0.000190   0.000011
    21  H   -0.000007   0.004520   0.433514  -0.028415  -0.000061   0.000003
    22  H    0.000003  -0.000067  -0.028415   0.433510   0.004589  -0.000006
    23  H    0.000014  -0.000190  -0.000061   0.004589   0.614056  -0.006744
    24  H   -0.000150   0.000011   0.000003  -0.000006  -0.006744   0.583426
    25  H    0.000019   0.000000  -0.000000  -0.000000   0.000000  -0.000001
    26  H   -0.000000   0.000000   0.000000  -0.000000   0.000000  -0.000000
    27  H    0.000000   0.000000   0.000000   0.000000   0.000000  -0.000000
    28  H    0.000000   0.000000   0.000000   0.000000  -0.000000   0.000000
    29  H   -0.000000   0.000000   0.000000  -0.000000   0.000000  -0.000000
    30  H   -0.000000   0.000000   0.000000  -0.000000   0.000000  -0.000006
              25         26         27         28         29         30
     1  O   -0.000036   0.000001  -0.000000   0.000000   0.000001   0.009962
     2  C   -0.007432  -0.000157  -0.000000  -0.000000  -0.000158  -0.007240
     3  N    0.005233   0.000004   0.000000   0.000000   0.000001   0.000459
     4  C   -0.000102  -0.000000  -0.000000  -0.000000  -0.000000   0.000001
     5  C   -0.000008   0.000000   0.000000   0.000000   0.000000   0.000000
     6  C   -0.000000  -0.000000   0.000000  -0.000000  -0.000000  -0.000000
     7  C    0.000000   0.000000  -0.000000   0.000000  -0.000000  -0.000000
     8  N   -0.000000   0.000000   0.000000   0.000000  -0.000000  -0.000000
     9  C   -0.000000  -0.000000  -0.000000  -0.000000  -0.000000  -0.000000
    10  C   -0.000014  -0.000000   0.000000  -0.000000  -0.000000  -0.000000
    11  C   -0.047212   0.003690   0.000005   0.000002   0.004051  -0.047948
    12  C    0.365248  -0.032175  -0.000082  -0.000195   0.000712   0.005633
    13  C   -0.029625   0.364390  -0.009106   0.005488   0.005063   0.000520
    14  C    0.003522  -0.042497  -0.024033  -0.024511  -0.043046   0.003856
    15  N   -0.000110  -0.007346   0.343467   0.343274  -0.007289  -0.000106
    16  C    0.000619   0.005116   0.005398  -0.009049   0.365764  -0.036041
    17  C    0.005192   0.000721  -0.000172  -0.000041  -0.033105   0.368625
    18  H    0.001848   0.000001  -0.000000   0.000000   0.000000  -0.000039
    19  H    0.000019  -0.000000   0.000000   0.000000  -0.000000  -0.000000
    20  H    0.000000   0.000000   0.000000   0.000000   0.000000   0.000000
    21  H   -0.000000   0.000000   0.000000   0.000000   0.000000   0.000000
    22  H   -0.000000  -0.000000   0.000000   0.000000  -0.000000  -0.000000
    23  H    0.000000   0.000000   0.000000  -0.000000   0.000000   0.000000
    24  H   -0.000001  -0.000000  -0.000000   0.000000  -0.000000  -0.000006
    25  H    0.597921  -0.005619  -0.000005   0.000003   0.000016  -0.000150
    26  H   -0.005619   0.607780   0.004499  -0.000047  -0.000173   0.000017
    27  H   -0.000005   0.004499   0.426372  -0.028042  -0.000049   0.000003
    28  H    0.000003  -0.000047  -0.028042   0.427135   0.004566  -0.000005
    29  H    0.000016  -0.000173  -0.000049   0.004566   0.607214  -0.005822
    30  H   -0.000150   0.000017   0.000003  -0.000005  -0.005822   0.602319
 Mulliken charges:
               1
     1  O   -0.556413
     2  C    0.540577
     3  N   -0.641137
     4  C    0.300239
     5  C   -0.157309
     6  C   -0.136364
     7  C    0.258343
     8  N   -0.673445
     9  C   -0.150559
    10  C   -0.119627
    11  C    0.015034
    12  C   -0.132096
    13  C   -0.138280
    14  C    0.266960
    15  N   -0.664367
    16  C   -0.138227
    17  C   -0.112853
    18  H    0.288916
    19  H    0.106012
    20  H    0.098100
    21  H    0.275873
    22  H    0.275952
    23  H    0.096650
    24  H    0.114148
    25  H    0.110693
    26  H    0.101796
    27  H    0.281744
    28  H    0.281422
    29  H    0.102255
    30  H    0.105962
 Sum of Mulliken charges =  -0.00000
 Mulliken charges with hydrogens summed into heavy atoms:
               1
     1  O   -0.556413
     2  C    0.540577
     3  N   -0.352221
     4  C    0.300239
     5  C   -0.051297
     6  C   -0.038264
     7  C    0.258343
     8  N   -0.121619
     9  C   -0.053909
    10  C   -0.005478
    11  C    0.015034
    12  C   -0.021403
    13  C   -0.036484
    14  C    0.266960
    15  N   -0.101200
    16  C   -0.035972
    17  C   -0.006891
 APT charges:
               1
     1  O   -0.114737
     2  C   -0.159287
     3  N   -0.641934
     4  C   -0.504239
     5  C   -0.679493
     6  C   -0.349727
     7  C    0.382498
     8  N   -1.551806
     9  C   -0.371067
    10  C   -0.563957
    11  C   -0.556297
    12  C   -0.632876
    13  C   -0.389797
    14  C    0.357548
    15  N   -1.583099
    16  C   -0.359489
    17  C   -0.569044
    18  H    0.457175
    19  H    0.320299
    20  H    0.755263
    21  H    0.956370
    22  H    0.885707
    23  H    0.690790
    24  H    0.280450
    25  H    0.212463
    26  H    0.629050
    27  H    0.869521
    28  H    1.054407
    29  H    0.804037
    30  H    0.371271
 Sum of APT charges =  -0.00000
 APT charges with hydrogens summed into heavy atoms:
               1
     1  O   -0.114737
     2  C   -0.159287
     3  N   -0.184759
     4  C   -0.504239
     5  C   -0.359194
     6  C    0.405535
     7  C    0.382498
     8  N    0.290270
     9  C    0.319724
    10  C   -0.283507
    11  C   -0.556297
    12  C   -0.420412
    13  C    0.239253
    14  C    0.357548
    15  N    0.340829
    16  C    0.444548
    17  C   -0.197773
 Electronic spatial extent (au):  <R**2>=           6467.9778
 Charge=              0.0000 electrons
 Dipole moment (field-independent basis, Debye):
    X=              1.6208    Y=             -4.7757    Z=              1.2402  Tot=              5.1935
 Quadrupole moment (field-independent basis, Debye-Ang):
   XX=            -45.4522   YY=            -93.7659   ZZ=           -102.0664
   XY=              2.2925   XZ=             -2.7323   YZ=             -3.4585
 Traceless Quadrupole moment (field-independent basis, Debye-Ang):
   XX=             34.9760   YY=            -13.3377   ZZ=            -21.6382
   XY=              2.2925   XZ=             -2.7323   YZ=             -3.4585
 Octapole moment (field-independent basis, Debye-Ang**2):
  XXX=             56.9706  YYY=            -22.9050  ZZZ=              2.9416  XYY=            -10.0645
  XXY=            -17.6961  XXZ=             83.5791  XZZ=              6.3250  YZZ=              1.4765
  YYZ=             -1.9999  XYZ=            -31.5880
 Hexadecapole moment (field-independent basis, Debye-Ang**3):
 XXXX=          -4853.4421 YYYY=           -711.4094 ZZZZ=           -189.0735 XXXY=            110.9294
 XXXZ=           -145.4203 YYYX=             -9.8104 YYYZ=             -9.8943 ZZZX=             -3.9156
 ZZZY=             -2.0928 XXYY=          -1203.7222 XXZZ=          -1403.0846 YYZZ=           -148.1998
 XXYZ=            -71.8449 YYXZ=             16.8443 ZZXY=             -0.1142
 N-N= 1.067753202954D+03 E-N=-3.862821469749D+03  KE= 7.357608103851D+02
  Exact polarizability:   0.000   0.000   0.000   0.000   0.000   0.000
 Approx polarizability: 395.154  -7.140 276.967 -12.915  -4.533 114.320
 D2PCM: PCM CHGder 2nd derivatives, FixD1E=F FixD2E=F DoIter=F DoCFld=F I1PDM=0
 Calling FoFJK, ICntrl=    100147 FMM=F ISym2X=0 I1Cent= 0 IOpClX= 0 NMat=1 NMatS=1 NMatT=0.
 ***** Axes restored to original set *****
 -------------------------------------------------------------------
 Center     Atomic                   Forces (Hartrees/Bohr)
 Number     Number              X              Y              Z
 -------------------------------------------------------------------
      1        8          -0.018828824    0.001048690    0.012199267
      2        6           0.014103578    0.001896163   -0.016289164
      3        7           0.002645685   -0.001805397    0.015715802
      4        6           0.003953631    0.000223595   -0.006035641
      5        6          -0.013465037    0.000792498   -0.002667685
      6        6           0.014576984   -0.003229619   -0.008363835
      7        6          -0.010839686    0.013662676    0.003108398
      8        7          -0.002203232   -0.003145062    0.000174921
      9        6           0.012894288   -0.004651103    0.002975121
     10        6          -0.011512854   -0.000917970    0.013387399
     11        6          -0.007655289   -0.001441490   -0.006806548
     12        6           0.014040647    0.002639343   -0.003220942
     13        6          -0.012271442   -0.010324782   -0.002114927
     14        6           0.009694243    0.011399502   -0.013629891
     15        7          -0.001707460   -0.004416038    0.004832941
     16        6          -0.010834732    0.002930865    0.014660075
     17        6           0.012329633    0.000110047   -0.001668003
     18        1           0.001061953   -0.000420624    0.002249901
     19        1           0.001924589   -0.000103139    0.000621210
     20        1          -0.000480319   -0.001125482    0.000123259
     21        1          -0.001046977   -0.000825201    0.003522136
     22        1          -0.001052011   -0.000095046   -0.004216542
     23        1          -0.000649967   -0.001087489   -0.000673634
     24        1           0.002646840    0.000821440   -0.005124680
     25        1          -0.000459538    0.001106561    0.000254662
     26        1           0.001349505   -0.000633294    0.001233242
     27        1           0.001193750    0.002333158    0.002025759
     28        1          -0.000132238   -0.001874668   -0.003221960
     29        1           0.001251365   -0.001163326   -0.000689925
     30        1          -0.000527083   -0.001704808   -0.002360717
 -------------------------------------------------------------------
 Cartesian Forces:  Max     0.018828824 RMS     0.006879289
 FormGI is forming the generalized inverse of G from B-inverse, IUseBI=4.

 GradGradGradGradGradGradGradGradGradGradGradGradGradGradGradGradGradGrad
 Berny optimization.
 Internal  Forces:  Max     0.018520232 RMS     0.003860853
 Search for a local minimum.
 Step number   1 out of a maximum of  157
 All quantities printed in internal units (Hartrees-Bohrs-Radians)
 Mixed Optimization -- RFO/linear search
 Second derivative matrix not updated -- analytic derivatives used.
 ITU=  0
     Eigenvalues ---    0.00222   0.00488   0.00560   0.00601   0.00688
     Eigenvalues ---    0.01342   0.01568   0.01615   0.01658   0.01737
     Eigenvalues ---    0.01761   0.01809   0.01861   0.01885   0.02045
     Eigenvalues ---    0.02150   0.02228   0.02325   0.02345   0.02377
     Eigenvalues ---    0.02669   0.02713   0.02755   0.02806   0.02846
     Eigenvalues ---    0.02934   0.05169   0.11123   0.11125   0.11508
     Eigenvalues ---    0.11583   0.11812   0.11891   0.12492   0.12675
     Eigenvalues ---    0.13062   0.13495   0.13554   0.15323   0.15406
     Eigenvalues ---    0.17339   0.17995   0.18616   0.19184   0.19357
     Eigenvalues ---    0.19537   0.19783   0.20258   0.21788   0.21851
     Eigenvalues ---    0.22558   0.25725   0.30147   0.31951   0.32935
     Eigenvalues ---    0.34996   0.35365   0.35590   0.35776   0.35825
     Eigenvalues ---    0.35939   0.35954   0.36202   0.36411   0.37790
     Eigenvalues ---    0.39791   0.40940   0.41315   0.41536   0.44673
     Eigenvalues ---    0.45018   0.45499   0.45588   0.45950   0.46023
     Eigenvalues ---    0.46509   0.46769   0.47155   0.47733   0.48386
     Eigenvalues ---    0.51194   0.51494   0.54054   0.82053
 RFO step:  Lambda=-9.39152754D-03 EMin= 2.21924496D-03
 Linear search not attempted -- first point.
 Iteration  1 RMS(Cart)=  0.07007078 RMS(Int)=  0.00183073
 Iteration  2 RMS(Cart)=  0.00274617 RMS(Int)=  0.00032504
 Iteration  3 RMS(Cart)=  0.00000532 RMS(Int)=  0.00032504
 Iteration  4 RMS(Cart)=  0.00000000 RMS(Int)=  0.00032504
 Variable       Old X    -DE/DX   Delta X   Delta X   Delta X     New X
                                 (Linear)    (Quad)   (Total)
    R1        2.31448   0.01581   0.00000   0.02105   0.02105   2.33552
    R2        2.61367  -0.01019   0.00000  -0.02165  -0.02165   2.59202
    R3        2.81505   0.00905   0.00000   0.00788   0.00788   2.82293
    R4        2.66511   0.00504   0.00000   0.00791   0.00791   2.67302
    R5        1.91110  -0.00172   0.00000  -0.00229  -0.00229   1.90881
    R6        2.64414   0.00447   0.00000   0.00862   0.00855   2.65269
    R7        2.63354   0.00676   0.00000   0.01740   0.01732   2.65087
    R8        2.64536  -0.00679   0.00000  -0.01852  -0.01852   2.62685
    R9        2.05297   0.00035   0.00000   0.00171   0.00171   2.05468
   R10        2.63495   0.01003   0.00000   0.02112   0.02120   2.65614
   R11        2.05330   0.00001   0.00000   0.00024   0.00024   2.05354
   R12        2.64281   0.00397   0.00000   0.00101   0.00101   2.64382
   R13        2.63609   0.00879   0.00000   0.01748   0.01755   2.65364
   R14        1.91755  -0.00230   0.00000  -0.00421  -0.00421   1.91334
   R15        1.91873  -0.00291   0.00000  -0.00541  -0.00541   1.91332
   R16        2.64808  -0.00440   0.00000  -0.01443  -0.01443   2.63365
   R17        2.05392  -0.00023   0.00000   0.00034   0.00034   2.05426
   R18        2.05082  -0.00334   0.00000  -0.00947  -0.00947   2.04135
   R19        2.64410   0.00496   0.00000   0.01034   0.01029   2.65439
   R20        2.64178   0.00384   0.00000   0.01149   0.01146   2.65323
   R21        2.64378  -0.00545   0.00000  -0.01779  -0.01781   2.62598
   R22        2.05263  -0.00045   0.00000   0.00055   0.00055   2.05319
   R23        2.64185   0.00745   0.00000   0.01975   0.01978   2.66164
   R24        2.05451  -0.00028   0.00000  -0.00144  -0.00144   2.05307
   R25        2.64306  -0.00203   0.00000  -0.02361  -0.02361   2.61945
   R26        2.64053   0.00934   0.00000   0.02340   0.02345   2.66398
   R27        1.91846  -0.00254   0.00000  -0.00683  -0.00683   1.91162
   R28        1.91937  -0.00287   0.00000  -0.00758  -0.00758   1.91179
   R29        2.64177  -0.00644   0.00000  -0.02065  -0.02064   2.62113
   R30        2.05418  -0.00020   0.00000  -0.00086  -0.00086   2.05332
   R31        2.05630  -0.00262   0.00000  -0.00582  -0.00582   2.05048
    A1        2.21911  -0.01852   0.00000  -0.06472  -0.06475   2.15436
    A2        2.06203   0.01832   0.00000   0.05756   0.05754   2.11957
    A3        2.00164   0.00022   0.00000   0.00750   0.00747   2.00912
    A4        2.22324   0.00526   0.00000   0.02957   0.02956   2.25280
    A5        2.04053  -0.00436   0.00000  -0.01636  -0.01636   2.02417
    A6        2.01680  -0.00088   0.00000  -0.01293  -0.01293   2.00387
    A7        2.04662   0.00186   0.00000   0.00426   0.00434   2.05095
    A8        2.16655  -0.00134   0.00000  -0.00095  -0.00088   2.16567
    A9        2.07001  -0.00052   0.00000  -0.00327  -0.00347   2.06654
   A10        2.10658   0.00207   0.00000   0.00790   0.00778   2.11436
   A11        2.11045  -0.00307   0.00000  -0.02031  -0.02029   2.09017
   A12        2.06604   0.00100   0.00000   0.01260   0.01262   2.07866
   A13        2.10673   0.00066   0.00000   0.00205   0.00209   2.10882
   A14        2.07881   0.00024   0.00000   0.00618   0.00616   2.08497
   A15        2.09764  -0.00090   0.00000  -0.00823  -0.00825   2.08939
   A16        2.10120   0.00158   0.00000   0.01042   0.00916   2.11036
   A17        2.06566  -0.00352   0.00000  -0.00935  -0.01050   2.05515
   A18        2.10146   0.00250   0.00000   0.01367   0.01241   2.11387
   A19        1.98959   0.00177   0.00000   0.00590   0.00591   1.99550
   A20        1.98491   0.00221   0.00000   0.00971   0.00971   1.99462
   A21        1.96105  -0.00353   0.00000  -0.02879  -0.02879   1.93226
   A22        2.11203   0.00208   0.00000   0.01073   0.01076   2.12278
   A23        2.10012  -0.00194   0.00000  -0.01577  -0.01578   2.08434
   A24        2.07104  -0.00014   0.00000   0.00504   0.00503   2.07606
   A25        2.10217  -0.00063   0.00000  -0.00362  -0.00375   2.09842
   A26        2.12525  -0.00455   0.00000  -0.03841  -0.03836   2.08690
   A27        2.05569   0.00518   0.00000   0.04212   0.04217   2.09786
   A28        2.12611   0.00511   0.00000   0.02979   0.02978   2.15589
   A29        2.06965  -0.00008   0.00000  -0.00423  -0.00423   2.06542
   A30        2.08741  -0.00503   0.00000  -0.02567  -0.02584   2.06157
   A31        2.09178   0.00483   0.00000   0.02155   0.02144   2.11322
   A32        2.11570  -0.00326   0.00000  -0.01449  -0.01447   2.10122
   A33        2.07555  -0.00157   0.00000  -0.00728  -0.00726   2.06829
   A34        2.10903  -0.00117   0.00000  -0.00321  -0.00321   2.10583
   A35        2.07905   0.00191   0.00000   0.01242   0.01242   2.09147
   A36        2.09505  -0.00074   0.00000  -0.00921  -0.00921   2.08584
   A37        2.09763   0.00154   0.00000   0.01225   0.01082   2.10845
   A38        2.07314  -0.00240   0.00000  -0.00710  -0.00848   2.06466
   A39        2.09839   0.00142   0.00000   0.01027   0.00882   2.10721
   A40        1.99119   0.00180   0.00000   0.02615   0.02547   2.01665
   A41        1.98746   0.00222   0.00000   0.02853   0.02784   2.01530
   A42        1.95699  -0.00269   0.00000  -0.00358  -0.00455   1.95245
   A43        2.10681  -0.00017   0.00000  -0.00179  -0.00174   2.10507
   A44        2.10010  -0.00166   0.00000  -0.01550  -0.01553   2.08457
   A45        2.07626   0.00183   0.00000   0.01730   0.01728   2.09354
   A46        2.09558   0.00409   0.00000   0.02019   0.02013   2.11571
   A47        2.09732  -0.00344   0.00000  -0.02348  -0.02347   2.07386
   A48        2.09015  -0.00064   0.00000   0.00343   0.00344   2.09359
    D1       -0.06457   0.00066   0.00000   0.00612   0.00588  -0.05869
    D2        2.99538   0.00087   0.00000   0.00964   0.00940   3.00478
    D3        3.10831  -0.00057   0.00000  -0.00793  -0.00769   3.10062
    D4       -0.11492  -0.00036   0.00000  -0.00441  -0.00417  -0.11909
    D5        2.50266   0.00076   0.00000   0.09056   0.09016   2.59282
    D6       -0.63190   0.00149   0.00000   0.11040   0.11030  -0.52160
    D7       -0.66722   0.00120   0.00000   0.10101   0.10111  -0.56611
    D8        2.48141   0.00192   0.00000   0.12085   0.12125   2.60266
    D9        3.08083   0.00023   0.00000   0.00296   0.00298   3.08381
   D10       -0.05684  -0.00017   0.00000  -0.00820  -0.00822  -0.06506
   D11        0.01992   0.00017   0.00000  -0.00035  -0.00033   0.01959
   D12       -3.11775  -0.00023   0.00000  -0.01151  -0.01154  -3.12928
   D13        3.13416  -0.00011   0.00000  -0.00261  -0.00257   3.13158
   D14       -0.02402   0.00030   0.00000   0.01122   0.01117  -0.01284
   D15       -0.01113   0.00026   0.00000   0.00792   0.00798  -0.00316
   D16        3.11388   0.00067   0.00000   0.02175   0.02172   3.13560
   D17       -3.13587   0.00023   0.00000   0.00550   0.00537  -3.13051
   D18        0.01862  -0.00006   0.00000  -0.00299  -0.00292   0.01570
   D19        0.00969  -0.00018   0.00000  -0.00582  -0.00594   0.00375
   D20       -3.11900  -0.00046   0.00000  -0.01431  -0.01423  -3.13323
   D21       -0.03651   0.00076   0.00000   0.02428   0.02440  -0.01211
   D22        3.10468   0.00085   0.00000   0.02573   0.02587   3.13055
   D23        3.12125   0.00039   0.00000   0.01110   0.01105   3.13230
   D24       -0.02075   0.00048   0.00000   0.01255   0.01252  -0.00823
   D25        3.04169   0.00160   0.00000   0.03341   0.03325   3.07494
   D26        0.08377  -0.00206   0.00000  -0.05809  -0.05780   0.02597
   D27       -0.09950   0.00151   0.00000   0.03194   0.03177  -0.06772
   D28       -3.05742  -0.00215   0.00000  -0.05956  -0.05928  -3.11669
   D29        0.53616  -0.00094   0.00000  -0.03617  -0.03655   0.49961
   D30        2.81519  -0.00226   0.00000  -0.06308  -0.06346   2.75173
   D31       -2.79289   0.00216   0.00000   0.05478   0.05516  -2.73774
   D32       -0.51386   0.00084   0.00000   0.02787   0.02824  -0.48562
   D33       -0.08546   0.00208   0.00000   0.06000   0.05991  -0.02556
   D34        3.05902   0.00204   0.00000   0.05747   0.05735   3.11637
   D35       -3.04335  -0.00148   0.00000  -0.03116  -0.03098  -3.07433
   D36        0.10113  -0.00152   0.00000  -0.03369  -0.03353   0.06760
   D37        0.03950  -0.00088   0.00000  -0.02840  -0.02851   0.01099
   D38       -3.11449  -0.00068   0.00000  -0.02081  -0.02076  -3.13525
   D39       -3.10494  -0.00084   0.00000  -0.02594  -0.02600  -3.13094
   D40        0.02426  -0.00064   0.00000  -0.01836  -0.01825   0.00600
   D41        3.13935   0.00086   0.00000   0.01533   0.01545  -3.12838
   D42       -0.02127   0.00037   0.00000   0.00182   0.00188  -0.01938
   D43       -0.00935   0.00015   0.00000  -0.00462  -0.00456  -0.01391
   D44        3.11322  -0.00034   0.00000  -0.01814  -0.01813   3.09509
   D45       -3.13629  -0.00052   0.00000  -0.00861  -0.00828   3.13862
   D46       -0.01191  -0.00013   0.00000   0.00123   0.00142  -0.01049
   D47        0.01218   0.00015   0.00000   0.01056   0.01053   0.02271
   D48        3.13656   0.00054   0.00000   0.02039   0.02023  -3.12640
   D49        0.04157  -0.00124   0.00000  -0.03279  -0.03283   0.00873
   D50       -3.11143  -0.00119   0.00000  -0.03253  -0.03264   3.13911
   D51       -3.08144  -0.00074   0.00000  -0.01950  -0.01943  -3.10087
   D52        0.04875  -0.00069   0.00000  -0.01924  -0.01923   0.02952
   D53       -3.03813  -0.00144   0.00000  -0.03433  -0.03431  -3.07243
   D54       -0.07525   0.00223   0.00000   0.06403   0.06377  -0.01148
   D55        0.11498  -0.00151   0.00000  -0.03473  -0.03464   0.08033
   D56        3.07785   0.00216   0.00000   0.06363   0.06344   3.14129
   D57       -0.53230   0.00171   0.00000   0.08011   0.08077  -0.45153
   D58       -2.80943   0.00176   0.00000   0.03261   0.03265  -2.77678
   D59        2.79061  -0.00162   0.00000  -0.01789  -0.01794   2.77267
   D60        0.51349  -0.00157   0.00000  -0.06540  -0.06606   0.44742
   D61        0.07800  -0.00188   0.00000  -0.05794  -0.05784   0.02016
   D62       -3.07014  -0.00193   0.00000  -0.05473  -0.05457  -3.12472
   D63        3.04080   0.00180   0.00000   0.04066   0.04038   3.08118
   D64       -0.10735   0.00175   0.00000   0.04388   0.04365  -0.06370
   D65       -0.04724   0.00064   0.00000   0.02084   0.02092  -0.02633
   D66        3.11149   0.00028   0.00000   0.01131   0.01137   3.12287
   D67        3.10081   0.00070   0.00000   0.01779   0.01775   3.11857
   D68       -0.02364   0.00034   0.00000   0.00826   0.00821  -0.01542
         Item               Value     Threshold  Converged?
 Maximum Force            0.018520     0.000450     NO 
 RMS     Force            0.003861     0.000300     NO 
 Maximum Displacement     0.260908     0.001800     NO 
 RMS     Displacement     0.070413     0.001200     NO 
 Predicted change in Energy=-5.357698D-03
 GradGradGradGradGradGradGradGradGradGradGradGradGradGradGradGradGradGrad

                          Input orientation:                          
 ---------------------------------------------------------------------
 Center     Atomic      Atomic             Coordinates (Angstroms)
 Number     Number       Type             X           Y           Z
 ---------------------------------------------------------------------
      1          8           0        0.175423    0.176297    2.024892
      2          6           0        0.479709    0.096878    0.829666
      3          7           0       -0.442898    0.070753   -0.184980
      4          6           0       -1.855148    0.060129   -0.105902
      5          6           0       -2.572448    0.104230   -1.311735
      6          6           0       -3.962346    0.085380   -1.322553
      7          6           0       -4.690972    0.006816   -0.123152
      8          7           0       -6.088702    0.067482   -0.125955
      9          6           0       -3.968168   -0.019336    1.080499
     10          6           0       -2.574733    0.000079    1.096753
     11          6           0        1.906635    0.045740    0.390575
     12          6           0        2.342289   -0.644730   -0.752437
     13          6           0        3.686007   -0.671625   -1.105572
     14          6           0        4.649172   -0.013006   -0.316684
     15          7           0        5.977978    0.031456   -0.708749
     16          6           0        4.212245    0.683242    0.828585
     17          6           0        2.870092    0.695662    1.178391
     18          1           0       -0.071248    0.127936   -1.122478
     19          1           0       -2.036983    0.156735   -2.256571
     20          1           0       -4.490100    0.131053   -2.271383
     21          1           0       -6.519689   -0.280361   -0.973539
     22          1           0       -6.524857   -0.341216    0.691274
     23          1           0       -4.504951   -0.055949    2.025084
     24          1           0       -2.041875   -0.026696    2.036038
     25          1           0        1.634187   -1.196536   -1.364469
     26          1           0        4.000923   -1.213950   -1.992737
     27          1           0        6.281379   -0.724572   -1.308481
     28          1           0        6.643641    0.216533    0.030259
     29          1           0        4.937549    1.211111    1.441710
[...]
    45    N    3  dz2    Ryd( 3d)     0.00047

    46    C    4  S      Cor( 1S)     1.99896
    47    C    4  S      Val( 2S)     0.84821
    48    C    4  S      Ryd( 3S)     0.00085
    49    C    4  S      Ryd( 4S)     0.00009
    50    C    4  px     Val( 2p)     0.89172
    51    C    4  px     Ryd( 3p)     0.00524
    52    C    4  py     Val( 2p)     1.08887
    53    C    4  py     Ryd( 3p)     0.00696
    54    C    4  pz     Val( 2p)     0.93506
    55    C    4  pz     Ryd( 3p)     0.00154
    56    C    4  dxy    Ryd( 3d)     0.00086
    57    C    4  dxz    Ryd( 3d)     0.00161
    58    C    4  dyz    Ryd( 3d)     0.00059
    59    C    4  dx2y2  Ryd( 3d)     0.00114
    60    C    4  dz2    Ryd( 3d)     0.00041

    61    C    5  S      Cor( 1S)     1.99908
    62    C    5  S      Val( 2S)     0.96162
    63    C    5  S      Ryd( 3S)     0.00068
    64    C    5  S      Ryd( 4S)     0.00004
    65    C    5  px     Val( 2p)     1.10032
    66    C    5  px     Ryd( 3p)     0.00434
    67    C    5  py     Val( 2p)     1.15549
    68    C    5  py     Ryd( 3p)     0.00458
    69    C    5  pz     Val( 2p)     1.01320
    70    C    5  pz     Ryd( 3p)     0.00106
    71    C    5  dxy    Ryd( 3d)     0.00074
    72    C    5  dxz    Ryd( 3d)     0.00055
    73    C    5  dyz    Ryd( 3d)     0.00039
    74    C    5  dx2y2  Ryd( 3d)     0.00053
    75    C    5  dz2    Ryd( 3d)     0.00038

    76    C    6  S      Cor( 1S)     1.99906
    77    C    6  S      Val( 2S)     0.96455
    78    C    6  S      Ryd( 3S)     0.00066
    79    C    6  S      Ryd( 4S)     0.00004
    80    C    6  px     Val( 2p)     1.10048
    81    C    6  px     Ryd( 3p)     0.00448
    82    C    6  py     Val( 2p)     1.15784
    83    C    6  py     Ryd( 3p)     0.00457
    84    C    6  pz     Val( 2p)     0.99971
    85    C    6  pz     Ryd( 3p)     0.00073
    86    C    6  dxy    Ryd( 3d)     0.00074
    87    C    6  dxz    Ryd( 3d)     0.00058
    88    C    6  dyz    Ryd( 3d)     0.00039
    89    C    6  dx2y2  Ryd( 3d)     0.00053
    90    C    6  dz2    Ryd( 3d)     0.00038

    91    C    7  S      Cor( 1S)     1.99896
    92    C    7  S      Val( 2S)     0.85416
    93    C    7  S      Ryd( 3S)     0.00101
    94    C    7  S      Ryd( 4S)     0.00009
    95    C    7  px     Val( 2p)     0.90684
    96    C    7  px     Ryd( 3p)     0.00543
    97    C    7  py     Val( 2p)     1.08723
    98    C    7  py     Ryd( 3p)     0.00405
    99    C    7  pz     Val( 2p)     0.95363
   100    C    7  pz     Ryd( 3p)     0.00166
   101    C    7  dxy    Ryd( 3d)     0.00097
   102    C    7  dxz    Ryd( 3d)     0.00152
   103    C    7  dyz    Ryd( 3d)     0.00059
   104    C    7  dx2y2  Ryd( 3d)     0.00116
   105    C    7  dz2    Ryd( 3d)     0.00043

   106    N    8  S      Cor( 1S)     1.99949
   107    N    8  S      Val( 2S)     1.37595
   108    N    8  S      Ryd( 3S)     0.00011
   109    N    8  S      Ryd( 4S)     0.00001
   110    N    8  px     Val( 2p)     1.31330
   111    N    8  px     Ryd( 3p)     0.00221
   112    N    8  py     Val( 2p)     1.44092
   113    N    8  py     Ryd( 3p)     0.00198
   114    N    8  pz     Val( 2p)     1.60787
   115    N    8  pz     Ryd( 3p)     0.00315
   116    N    8  dxy    Ryd( 3d)     0.00034
   117    N    8  dxz    Ryd( 3d)     0.00092
   118    N    8  dyz    Ryd( 3d)     0.00083
   119    N    8  dx2y2  Ryd( 3d)     0.00053
   120    N    8  dz2    Ryd( 3d)     0.00072

   121    C    9  S      Cor( 1S)     1.99906
   122    C    9  S      Val( 2S)     0.96587
   123    C    9  S      Ryd( 3S)     0.00064
   124    C    9  S      Ryd( 4S)     0.00004
   125    C    9  px     Val( 2p)     1.10287
   126    C    9  px     Ryd( 3p)     0.00441
   127    C    9  py     Val( 2p)     1.15399
   128    C    9  py     Ryd( 3p)     0.00440
   129    C    9  pz     Val( 2p)     0.99910
   130    C    9  pz     Ryd( 3p)     0.00071
   131    C    9  dxy    Ryd( 3d)     0.00077
   132    C    9  dxz    Ryd( 3d)     0.00056
   133    C    9  dyz    Ryd( 3d)     0.00040
   134    C    9  dx2y2  Ryd( 3d)     0.00052
   135    C    9  dz2    Ryd( 3d)     0.00037

   136    C   10  S      Cor( 1S)     1.99907
   137    C   10  S      Val( 2S)     0.96599
   138    C   10  S      Ryd( 3S)     0.00073
   139    C   10  S      Ryd( 4S)     0.00004
   140    C   10  px     Val( 2p)     1.09397
   141    C   10  px     Ryd( 3p)     0.00464
   142    C   10  py     Val( 2p)     1.17526
   143    C   10  py     Ryd( 3p)     0.00485
   144    C   10  pz     Val( 2p)     1.00312
   145    C   10  pz     Ryd( 3p)     0.00142
   146    C   10  dxy    Ryd( 3d)     0.00072
   147    C   10  dxz    Ryd( 3d)     0.00051
   148    C   10  dyz    Ryd( 3d)     0.00041
   149    C   10  dx2y2  Ryd( 3d)     0.00055
   150    C   10  dz2    Ryd( 3d)     0.00036

   151    C   11  S      Cor( 1S)     1.99894
   152    C   11  S      Val( 2S)     0.89236
   153    C   11  S      Ryd( 3S)     0.00107
   154    C   11  S      Ryd( 4S)     0.00005
   155    C   11  px     Val( 2p)     1.08820
   156    C   11  px     Ryd( 3p)     0.00519
   157    C   11  py     Val( 2p)     1.09256
   158    C   11  py     Ryd( 3p)     0.00544
   159    C   11  pz     Val( 2p)     1.12503
   160    C   11  pz     Ryd( 3p)     0.00247
   161    C   11  dxy    Ryd( 3d)     0.00060
   162    C   11  dxz    Ryd( 3d)     0.00081
   163    C   11  dyz    Ryd( 3d)     0.00047
   164    C   11  dx2y2  Ryd( 3d)     0.00072
   165    C   11  dz2    Ryd( 3d)     0.00036

   166    C   12  S      Cor( 1S)     1.99908
   167    C   12  S      Val( 2S)     0.94022
   168    C   12  S      Ryd( 3S)     0.00060
   169    C   12  S      Ryd( 4S)     0.00004
   170    C   12  px     Val( 2p)     1.12509
   171    C   12  px     Ryd( 3p)     0.00372
   172    C   12  py     Val( 2p)     1.12600
   173    C   12  py     Ryd( 3p)     0.00449
   174    C   12  pz     Val( 2p)     1.07967
   175    C   12  pz     Ryd( 3p)     0.00246
   176    C   12  dxy    Ryd( 3d)     0.00071
   177    C   12  dxz    Ryd( 3d)     0.00056
   178    C   12  dyz    Ryd( 3d)     0.00048
   179    C   12  dx2y2  Ryd( 3d)     0.00055
   180    C   12  dz2    Ryd( 3d)     0.00034

   181    C   13  S      Cor( 1S)     1.99906
   182    C   13  S      Val( 2S)     0.95111
   183    C   13  S      Ryd( 3S)     0.00072
   184    C   13  S      Ryd( 4S)     0.00004
   185    C   13  px     Val( 2p)     1.07994
   186    C   13  px     Ryd( 3p)     0.00426
   187    C   13  py     Val( 2p)     1.16988
   188    C   13  py     Ryd( 3p)     0.00433
   189    C   13  pz     Val( 2p)     1.07175
   190    C   13  pz     Ryd( 3p)     0.00128
   191    C   13  dxy    Ryd( 3d)     0.00070
   192    C   13  dxz    Ryd( 3d)     0.00071
   193    C   13  dyz    Ryd( 3d)     0.00036
   194    C   13  dx2y2  Ryd( 3d)     0.00056
   195    C   13  dz2    Ryd( 3d)     0.00037

   196    C   14  S      Cor( 1S)     1.99901
   197    C   14  S      Val( 2S)     0.83599
   198    C   14  S      Ryd( 3S)     0.00126
   199    C   14  S      Ryd( 4S)     0.00009
   200    C   14  px     Val( 2p)     0.91432
   201    C   14  px     Ryd( 3p)     0.00591
   202    C   14  py     Val( 2p)     1.07595
   203    C   14  py     Ryd( 3p)     0.00450
   204    C   14  pz     Val( 2p)     1.04679
   205    C   14  pz     Ryd( 3p)     0.00255
   206    C   14  dxy    Ryd( 3d)     0.00095
   207    C   14  dxz    Ryd( 3d)     0.00149
   208    C   14  dyz    Ryd( 3d)     0.00057
   209    C   14  dx2y2  Ryd( 3d)     0.00103
   210    C   14  dz2    Ryd( 3d)     0.00044

   211    N   15  S      Cor( 1S)     1.99950
   212    N   15  S      Val( 2S)     1.34484
   213    N   15  S      Ryd( 3S)     0.00017
   214    N   15  S      Ryd( 4S)     0.00001
   215    N   15  px     Val( 2p)     1.31828
   216    N   15  px     Ryd( 3p)     0.00241
   217    N   15  py     Val( 2p)     1.43797
   218    N   15  py     Ryd( 3p)     0.00220
   219    N   15  pz     Val( 2p)     1.73474
   220    N   15  pz     Ryd( 3p)     0.00451
   221    N   15  dxy    Ryd( 3d)     0.00056
   222    N   15  dxz    Ryd( 3d)     0.00067
   223    N   15  dyz    Ryd( 3d)     0.00077
   224    N   15  dx2y2  Ryd( 3d)     0.00032
   225    N   15  dz2    Ryd( 3d)     0.00073

   226    C   16  S      Cor( 1S)     1.99905
   227    C   16  S      Val( 2S)     0.95262
   228    C   16  S      Ryd( 3S)     0.00062
   229    C   16  S      Ryd( 4S)     0.00004
   230    C   16  px     Val( 2p)     1.13670
   231    C   16  px     Ryd( 3p)     0.00432
   232    C   16  py     Val( 2p)     1.11527
   233    C   16  py     Ryd( 3p)     0.00397
   234    C   16  pz     Val( 2p)     1.07669
   235    C   16  pz     Ryd( 3p)     0.00132
   236    C   16  dxy    Ryd( 3d)     0.00069
   237    C   16  dxz    Ryd( 3d)     0.00055
   238    C   16  dyz    Ryd( 3d)     0.00048
   239    C   16  dx2y2  Ryd( 3d)     0.00057
   240    C   16  dz2    Ryd( 3d)     0.00036

   241    C   17  S      Cor( 1S)     1.99908
   242    C   17  S      Val( 2S)     0.94576
   243    C   17  S      Ryd( 3S)     0.00068
   244    C   17  S      Ryd( 4S)     0.00004
   245    C   17  px     Val( 2p)     1.06920
   246    C   17  px     Ryd( 3p)     0.00472
   247    C   17  py     Val( 2p)     1.18120
   248    C   17  py     Ryd( 3p)     0.00512
   249    C   17  pz     Val( 2p)     1.02445
   250    C   17  pz     Ryd( 3p)     0.00224
   251    C   17  dxy    Ryd( 3d)     0.00066
   252    C   17  dxz    Ryd( 3d)     0.00073
   253    C   17  dyz    Ryd( 3d)     0.00033
   254    C   17  dx2y2  Ryd( 3d)     0.00062
   255    C   17  dz2    Ryd( 3d)     0.00034

   256    H   18  S      Val( 1S)     0.56021
   257    H   18  S      Ryd( 2S)     0.00226
   258    H   18  px     Ryd( 2p)     0.00018
   259    H   18  py     Ryd( 2p)     0.00050
   260    H   18  pz     Ryd( 2p)     0.00042

   261    H   19  S      Val( 1S)     0.73648
   262    H   19  S      Ryd( 2S)     0.00080
   263    H   19  px     Ryd( 2p)     0.00013
   264    H   19  py     Ryd( 2p)     0.00033
   265    H   19  pz     Ryd( 2p)     0.00012

   266    H   20  S      Val( 1S)     0.73415
   267    H   20  S      Ryd( 2S)     0.00070
   268    H   20  px     Ryd( 2p)     0.00014
   269    H   20  py     Ryd( 2p)     0.00033
   270    H   20  pz     Ryd( 2p)     0.00012

   271    H   21  S      Val( 1S)     0.56385
   272    H   21  S      Ryd( 2S)     0.00103
   273    H   21  px     Ryd( 2p)     0.00030
   274    H   21  py     Ryd( 2p)     0.00052
   275    H   21  pz     Ryd( 2p)     0.00042

   276    H   22  S      Val( 1S)     0.56343
   277    H   22  S      Ryd( 2S)     0.00098
   278    H   22  px     Ryd( 2p)     0.00030
   279    H   22  py     Ryd( 2p)     0.00041
   280    H   22  pz     Ryd( 2p)     0.00053

   281    H   23  S      Val( 1S)     0.73648
   282    H   23  S      Ryd( 2S)     0.00071
   283    H   23  px     Ryd( 2p)     0.00013
   284    H   23  py     Ryd( 2p)     0.00033
   285    H   23  pz     Ryd( 2p)     0.00012

   286    H   24  S      Val( 1S)     0.71315
   287    H   24  S      Ryd( 2S)     0.00234
   288    H   24  px     Ryd( 2p)     0.00023
   289    H   24  py     Ryd( 2p)     0.00030
   290    H   24  pz     Ryd( 2p)     0.00010

   291    H   25  S      Val( 1S)     0.77375
   292    H   25  S      Ryd( 2S)     0.00100
   293    H   25  px     Ryd( 2p)     0.00019
   294    H   25  py     Ryd( 2p)     0.00025
   295    H   25  pz     Ryd( 2p)     0.00021

   296    H   26  S      Val( 1S)     0.76477
   297    H   26  S      Ryd( 2S)     0.00098
   298    H   26  px     Ryd( 2p)     0.00009
   299    H   26  py     Ryd( 2p)     0.00037
   300    H   26  pz     Ryd( 2p)     0.00015

   301    H   27  S      Val( 1S)     0.58632
   302    H   27  S      Ryd( 2S)     0.00138
   303    H   27  px     Ryd( 2p)     0.00022
   304    H   27  py     Ryd( 2p)     0.00047
   305    H   27  pz     Ryd( 2p)     0.00056

   306    H   28  S      Val( 1S)     0.58644
   307    H   28  S      Ryd( 2S)     0.00140
   308    H   28  px     Ryd( 2p)     0.00036
   309    H   28  py     Ryd( 2p)     0.00041
   310    H   28  pz     Ryd( 2p)     0.00047

   311    H   29  S      Val( 1S)     0.76511
   312    H   29  S      Ryd( 2S)     0.00097
   313    H   29  px     Ryd( 2p)     0.00021
   314    H   29  py     Ryd( 2p)     0.00024
   315    H   29  pz     Ryd( 2p)     0.00015

   316    H   30  S      Val( 1S)     0.75770
   317    H   30  S      Ryd( 2S)     0.00195
   318    H   30  px     Ryd( 2p)     0.00012
   319    H   30  py     Ryd( 2p)     0.00036
   320    H   30  pz     Ryd( 2p)     0.00014

 WARNING:  1 low occupancy (<1.9990e) core orbital  found on  C    4
           1 low occupancy (<1.9990e) core orbital  found on  C    7
           1 low occupancy (<1.9990e) core orbital  found on  C   11


 Summary of Natural Population Analysis:                  
                                                          
                                       Natural Population 
                Natural  -----------------------------------------------
    Atom  No    Charge         Core      Valence    Rydberg      Total
 -----------------------------------------------------------------------
      O    1   -0.73728      1.99980     6.72096    0.01652     8.73728
      C    2    0.55717      1.99929     3.40300    0.04054     5.44283
      N    3   -0.58898      1.99933     5.58019    0.00946     7.58898
      C    4    0.21788      1.99896     3.76386    0.01930     5.78212
      C    5   -0.24299      1.99908     4.23063    0.01329     6.24299
      C    6   -0.23475      1.99906     4.22258    0.01311     6.23475
      C    7    0.18226      1.99896     3.80185    0.01692     5.81774
      N    8   -0.74835      1.99949     5.73804    0.01081     7.74835
      C    9   -0.23371      1.99906     4.22183    0.01282     6.23371
      C   10   -0.25165      1.99907     4.23834    0.01424     6.25165
      C   11   -0.21429      1.99894     4.19815    0.01720     6.21429
      C   12   -0.28400      1.99908     4.27098    0.01395     6.28400
      C   13   -0.28506      1.99906     4.27268    0.01332     6.28506
      C   14    0.10915      1.99901     3.87305    0.01879     5.89085
      N   15   -0.84769      1.99950     5.83583    0.01236     7.84769
      C   16   -0.29326      1.99905     4.28127    0.01294     6.29326
      C   17   -0.23518      1.99908     4.22061    0.01549     6.23518
      H   18    0.43642      0.00000     0.56021    0.00336     0.56358
      H   19    0.26214      0.00000     0.73648    0.00138     0.73786
      H   20    0.26456      0.00000     0.73415    0.00129     0.73544
      H   21    0.43389      0.00000     0.56385    0.00227     0.56611
      H   22    0.43435      0.00000     0.56343    0.00222     0.56565
      H   23    0.26223      0.00000     0.73648    0.00129     0.73777
      H   24    0.28388      0.00000     0.71315    0.00297     0.71612
      H   25    0.22460      0.00000     0.77375    0.00165     0.77540
      H   26    0.23364      0.00000     0.76477    0.00159     0.76636
      H   27    0.41106      0.00000     0.58632    0.00262     0.58894
      H   28    0.41092      0.00000     0.58644    0.00264     0.58908
      H   29    0.23332      0.00000     0.76511    0.00158     0.76668
      H   30    0.23973      0.00000     0.75770    0.00257     0.76027
 =======================================================================
   * Total *   -0.00000     33.98582    85.71569    0.29848   120.00000

                                 Natural Population      
 --------------------------------------------------------
   Core                      33.98582 ( 99.9583% of  34)
   Valence                   85.71569 ( 99.6694% of  86)
   Natural Minimal Basis    119.70152 ( 99.7513% of 120)
   Natural Rydberg Basis      0.29848 (  0.2487% of 120)
 --------------------------------------------------------

    Atom  No          Natural Electron Configuration
 ----------------------------------------------------------------------------
      O    1      [core]2S( 1.69)2p( 5.03)3d( 0.01)
      C    2      [core]2S( 0.75)2p( 2.65)3p( 0.03)3d( 0.01)
      N    3      [core]2S( 1.25)2p( 4.33)3p( 0.01)
      C    4      [core]2S( 0.85)2p( 2.92)3p( 0.01)
      C    5      [core]2S( 0.96)2p( 3.27)3p( 0.01)
      C    6      [core]2S( 0.96)2p( 3.26)3p( 0.01)
      C    7      [core]2S( 0.85)2p( 2.95)3p( 0.01)
      N    8      [core]2S( 1.38)2p( 4.36)3p( 0.01)
      C    9      [core]2S( 0.97)2p( 3.26)3p( 0.01)
      C   10      [core]2S( 0.97)2p( 3.27)3p( 0.01)
      C   11      [core]2S( 0.89)2p( 3.31)3p( 0.01)
      C   12      [core]2S( 0.94)2p( 3.33)3p( 0.01)
      C   13      [core]2S( 0.95)2p( 3.32)3p( 0.01)
      C   14      [core]2S( 0.84)2p( 3.04)3p( 0.01)
      N   15      [core]2S( 1.34)2p( 4.49)3p( 0.01)
      C   16      [core]2S( 0.95)2p( 3.33)3p( 0.01)
      C   17      [core]2S( 0.95)2p( 3.27)3p( 0.01)
      H   18            1S( 0.56)
      H   19            1S( 0.74)
      H   20            1S( 0.73)
      H   21            1S( 0.56)
      H   22            1S( 0.56)
      H   23            1S( 0.74)
      H   24            1S( 0.71)
      H   25            1S( 0.77)
      H   26            1S( 0.76)
      H   27            1S( 0.59)
      H   28            1S( 0.59)
      H   29            1S( 0.77)
      H   30            1S( 0.76)


 NBO analysis skipped by request.
 1\1\GINC-DRG2-W001\SP\RB3LYP TD-FC\6-31G(d,p)\C13H13N3O1\QDUEZ\19-Jul-
 2024\0\\# TD(NStates=10, Root=1) B3LYP/6-31G** SCRF=(Solvent=water) vo
 lume pop=NPA density=current Geom=AllCheck Guess=Read\\XPAQFJJCWGSXGJ-
 UHFFFAOYSA-N_conf_2\\0,1\O,0,0.1751851331,0.3560706804,1.9821085974\C,
 0,0.4795760213,0.1762048218,0.79598677\N,0,-0.4514917052,0.0536588164,
 -0.2047447407\C,0,-1.8628029403,0.0511599331,-0.1157650277\C,0,-2.5872
 994845,0.009975931,-1.3178159372\C,0,-3.9771886099,-0.0108923485,-1.32
 00140586\C,0,-4.6999078043,0.0082824236,-0.1140048849\N,0,-6.098615252
 5,0.0558727744,-0.1124503393\C,0,-3.969480891,0.0474336565,1.085239369
 3\C,0,-2.576141845,0.068787114,1.0929373818\C,0,1.9063618784,0.0940892
 768,0.3627781103\C,0,2.341548556,-0.5098024673,-0.8298591919\C,0,3.689
 2867073,-0.563015449,-1.1602381522\C,0,4.6626892205,-0.0080044486,-0.3
 042731513\N,0,5.9988426032,-0.0023586224,-0.6586140459\C,0,4.230174508
 8,0.5865547888,0.9001192339\C,0,2.8824320447,0.6261024049,1.2221226872
 \H,0,-0.092050341,0.0377923928,-1.1481465553\H,0,-2.0558302538,-0.0103
 840735,-2.2662550846\H,0,-4.5103497371,-0.0425959883,-2.266415223\H,0,
 -6.5293168776,-0.3486240527,-0.9347776676\H,0,-6.5262404497,-0.3112689
 92,0.7287888517\H,0,-4.5018226583,0.0629635819,2.0329816697\H,0,-2.035
 0573602,0.1013192116,2.0272656965\H,0,1.6341042323,-0.9846612534,-1.50
 38947234\H,0,4.0009739558,-1.0456861956,-2.0821906542\H,0,6.2861451246
 ,-0.6910921274,-1.3404603781\H,0,6.6632978591,0.1006971506,0.096205740
 5\H,0,4.9641566171,1.0154416736,1.5768966334\H,0,2.5588217483,1.075979
 3869,2.154614178\\Version=ES64L-G16RevA.03\State=1-A\HF=-742.7592116\R
 MSD=4.490e-09\Dipole=-4.8791064,-1.2058438,-2.28614\Quadrupole=40.0101
 421,-22.8357371,-17.174405,2.200993,1.6241646,2.2775527\PG=C01 [X(C13H
 13N3O1)]\\@


 MATERIAL COPIED FROM ONE SCHOLARLY BOOK WITHOUT CREDIT COMPRISES PLAGIARISM.
 MATERIAL COPIED FROM TWO SCHOLARLY BOOKS COMPRISES AN ESSAY.
 MATERIAL COPIED FROM THREE SCHOLARLY BOOKS COMPRISES A DISSERTATION.
 MATERIAL COPIED FROM FOUR SCHOLARLY BOOKS COMPRISES A FIFTH SCHOLARLY BOOK.

                               -- C&EN, 25 FEB 1980
 Job cpu time:       0 days  0 hours 42 minutes  5.6 seconds.
 Elapsed time:       0 days  0 hours 14 minutes  4.3 seconds.
 File lengths (MBytes):  RWF=    869 Int=      0 D2E=      0 Chk=     53 Scr=      1
 Normal termination of Gaussian 16 at Fri Jul 19 13:22:30 2024.
