 Entering Gaussian System, Link 0=g16
 Initial command:
 /opt/sw/arch/manual/gaussian/G16_A03/g16/l1.exe "/scratch/1381417/Gau-254438.inp" -scrdir="/scratch/1381417/"
 Entering Link 1 = /opt/sw/arch/manual/gaussian/G16_A03/g16/l1.exe PID=    254439.
  
 Copyright (c) 1988,1990,1992,1993,1995,1998,2003,2009,2016,
            Gaussian, Inc.  All Rights Reserved.
  
 This is part of the Gaussian(R) 16 program.  It is based on
 the Gaussian(R) 09 system (copyright 2009, Gaussian, Inc.),
 the Gaussian(R) 03 system (copyright 2003, Gaussian, Inc.),
 the Gaussian(R) 98 system (copyright 1998, Gaussian, Inc.),
 the Gaussian(R) 94 system (copyright 1995, Gaussian, Inc.),
 the Gaussian 92(TM) system (copyright 1992, Gaussian, Inc.),
 the Gaussian 90(TM) system (copyright 1990, Gaussian, Inc.),
 the Gaussian 88(TM) system (copyright 1988, Gaussian, Inc.),
 the Gaussian 86(TM) system (copyright 1986, Carnegie Mellon
 University), and the Gaussian 82(TM) system (copyright 1983,
 Carnegie Mellon University). Gaussian is a federally registered
 trademark of Gaussian, Inc.
  
 This software contains proprietary and confidential information,
 including trade secrets, belonging to Gaussian, Inc.
  
 This software is provided under written license and may be
 used, copied, transmitted, or stored only in accord with that
 written license.
  
 The following legend is applicable only to US Government
 contracts under FAR:
  
                    RESTRICTED RIGHTS LEGEND
  
 Use, reproduction and disclosure by the US Government is
 subject to restrictions as set forth in subparagraphs (a)
 and (c) of the Commercial Computer Software - Restricted
 Rights clause in FAR 52.227-19.
  
 Gaussian, Inc.
 340 Quinnipiac St., Bldg. 40, Wallingford CT 06492
  
  
 ---------------------------------------------------------------
 Warning -- This program may not be used in any manner that
 competes with the business of Gaussian, Inc. or will provide
 assistance to any competitor of Gaussian, Inc.  The licensee
 of this program is prohibited from giving any competitor of
 Gaussian, Inc. access to this program.  By using this program,
 the user acknowledges that Gaussian, Inc. is engaged in the
 business of creating and licensing software in the field of
 computational chemistry and represents and warrants to the
 licensee that it is not a competitor of Gaussian, Inc. and that
 it will not use this program in any manner prohibited above.
 ---------------------------------------------------------------
  

 Cite this work as:
 Gaussian 16, Revision A.03,
 M. J. Frisch, G. W. Trucks, H. B. Schlegel, G. E. Scuseria, 
 M. A. Robb, J. R. Cheeseman, G. Scalmani, V. Barone, 
 G. A. Petersson, H. Nakatsuji, X. Li, M. Caricato, A. V. Marenich, 
 J. Bloino, B. G. Janesko, R. Gomperts, B. Mennucci, H. P. Hratchian, 
 J. V. Ortiz, A. F. Izmaylov, J. L. Sonnenberg, D. Williams-Young, 
 F. Ding, F. Lipparini, F. Egidi, J. Goings, B. Peng, A. Petrone, 
 T. Henderson, D. Ranasinghe, V. G. Zakrzewski, J. Gao, N. Rega, 
 G. Zheng, W. Liang, M. Hada, M. Ehara, K. Toyota, R. Fukuda, 
 J. Hasegawa, M. Ishida, T. Nakajima, Y. Honda, O. Kitao, H. Nakai, 
 T. Vreven, K. Throssell, J. A. Montgomery, Jr., J. E. Peralta, 
 F. Ogliaro, M. J. Bearpark, J. J. Heyd, E. N. Brothers, K. N. Kudin, 
 V. N. Staroverov, T. A. Keith, R. Kobayashi, J. Normand, 
 K. Raghavachari, A. P. Rendell, J. C. Burant, S. S. Iyengar, 
 J. Tomasi, M. Cossi, J. M. Millam, M. Klene, C. Adamo, R. Cammi, 
 J. W. Ochterski, R. L. Martin, K. Morokuma, O. Farkas, 
 J. B. Foresman, and D. J. Fox, Gaussian, Inc., Wallingford CT, 2016.
 
 ******************************************
 Gaussian 16:  ES64L-G16RevA.03 25-Dec-2016
                19-Jul-2024 
 ******************************************
 %nprocshared=5
 Will use up to    5 processors via shared memory.
 %mem=10GB
 %Chk=XPAQFJJCWGSXGJ-UHFFFAOYSA-N_conf_3_0.chk
 -------------------------------------------------------
 # opt=CalcFc B3LYP/6-31G** SCRF=(Solvent=water) scf=xqc
 -------------------------------------------------------
 1/10=4,18=20,19=15,26=3,38=1/1,3;
 2/9=110,12=2,17=6,18=5,40=1/2;
 3/5=1,6=6,7=101,11=2,25=1,30=1,70=2201,71=2,72=1,74=-5,140=1/1,2,3;
 4//1;
 5/5=2,8=3,13=1,38=5,53=1/2,8;
 8/6=4,10=90,11=11/1;
 11/6=1,8=1,9=11,15=111,16=1/1,2,10;
 10/6=1,13=1/2;
 6/7=2,8=2,9=2,10=2,28=1/1;
 7/10=1,18=20,25=1/1,2,3,16;
 1/10=4,18=20,19=15,26=3/3(2);
 2/9=110/2;
 99//99;
 2/9=110/2;
 3/5=1,6=6,7=101,11=2,25=1,30=1,70=2205,71=1,72=1,74=-5/1,2,3;
 4/5=5,16=3,69=1/1;
 5/5=2,8=3,13=1,38=5,53=1/2,8;
 7//1,2,3,16;
 1/18=20,19=15,26=3/3(-5);
 2/9=110/2;
 6/7=2,8=2,9=2,10=2,19=2,28=1/1;
 99/9=1/99;
 ----------------------------------
 XPAQFJJCWGSXGJ-UHFFFAOYSA-N_conf_3
 ----------------------------------
 Symbolic Z-matrix:
 Charge =  0 Multiplicity = 1
 O                    -0.82276  -1.92641   0.02824 
 C                    -0.02376  -1.00511   0.14317 
 N                    -0.29209   0.34708   0.02581 
 C                    -1.55064   0.95522  -0.16196 
 C                    -1.57186   2.34143  -0.35045 
 C                    -2.78254   3.01813  -0.53997 
 C                    -3.98909   2.32043  -0.58308 
 N                    -5.20347   3.01098  -0.65291 
 C                    -3.97066   0.94883  -0.32952 
 C                    -2.76171   0.26591  -0.14128 
 C                     1.40864  -1.33787   0.38958 
 C                     2.22566  -0.53484   1.19321 
 C                     3.56414  -0.88717   1.3996 
 C                     4.11066  -2.0185    0.78704 
 N                     5.41188  -2.42597   1.09582 
 C                     3.26786  -2.85493   0.05077 
 C                     1.92898  -2.51246  -0.16216 
 H                     0.50253   0.97166  -0.00057 
 H                    -0.65249   2.92004  -0.34351 
 H                    -2.77202   4.09863  -0.65405 
 H                    -5.14536   3.89685  -1.1445 
 H                    -5.97815   2.44051  -0.97786 
 H                    -4.90013   0.38802  -0.27562 
 H                    -2.80672  -0.80358   0.03823 
 H                     1.82945   0.33946   1.70191 
 H                     4.17684  -0.27463   2.05653 
 H                     5.82293  -3.05498   0.4129 
 H                     6.03819  -1.66892   1.35004 
 H                     3.64457  -3.787    -0.3628 
 H                     1.29112  -3.17083  -0.74859 
 

 GradGradGradGradGradGradGradGradGradGradGradGradGradGradGradGradGradGrad
 Berny optimization.
 Initialization pass.
                           ----------------------------
                           !    Initial Parameters    !
                           ! (Angstroms and Degrees)  !
 --------------------------                            --------------------------
 ! Name  Definition              Value          Derivative Info.                !
 --------------------------------------------------------------------------------
 ! R1    R(1,2)                  1.2249         calculate D2E/DX2 analytically  !
 ! R2    R(2,3)                  1.3835         calculate D2E/DX2 analytically  !
 ! R3    R(2,11)                 1.491          calculate D2E/DX2 analytically  !
 ! R4    R(3,4)                  1.4103         calculate D2E/DX2 analytically  !
 ! R5    R(3,18)                 1.011          calculate D2E/DX2 analytically  !
 ! R6    R(4,5)                  1.3991         calculate D2E/DX2 analytically  !
 ! R7    R(4,10)                 1.3937         calculate D2E/DX2 analytically  !
 ! R8    R(5,6)                  1.3999         calculate D2E/DX2 analytically  !
 ! R9    R(5,19)                 1.0863         calculate D2E/DX2 analytically  !
 ! R10   R(6,7)                  1.3944         calculate D2E/DX2 analytically  !
 ! R11   R(6,20)                 1.0866         calculate D2E/DX2 analytically  !
 ! R12   R(7,8)                  1.3987         calculate D2E/DX2 analytically  !
 ! R13   R(7,9)                  1.395          calculate D2E/DX2 analytically  !
 ! R14   R(8,21)                 1.0148         calculate D2E/DX2 analytically  !
 ! R15   R(8,22)                 1.0155         calculate D2E/DX2 analytically  !
 ! R16   R(9,10)                 1.4012         calculate D2E/DX2 analytically  !
 ! R17   R(9,23)                 1.0869         calculate D2E/DX2 analytically  !
 ! R18   R(10,24)                1.0854         calculate D2E/DX2 analytically  !
 ! R19   R(11,12)                1.3994         calculate D2E/DX2 analytically  !
 ! R20   R(11,17)                1.3982         calculate D2E/DX2 analytically  !
 ! R21   R(12,13)                1.3994         calculate D2E/DX2 analytically  !
 ! R22   R(12,25)                1.0864         calculate D2E/DX2 analytically  !
 ! R23   R(13,14)                1.3978         calculate D2E/DX2 analytically  !
 ! R24   R(13,26)                1.0873         calculate D2E/DX2 analytically  !
 ! R25   R(14,15)                1.3981         calculate D2E/DX2 analytically  !
 ! R26   R(14,16)                1.3972         calculate D2E/DX2 analytically  !
 ! R27   R(15,27)                1.0154         calculate D2E/DX2 analytically  !
 ! R28   R(15,28)                1.0149         calculate D2E/DX2 analytically  !
 ! R29   R(16,17)                1.3983         calculate D2E/DX2 analytically  !
 ! R30   R(16,29)                1.0871         calculate D2E/DX2 analytically  !
 ! R31   R(17,30)                1.0882         calculate D2E/DX2 analytically  !
 ! A1    A(1,2,3)              126.9145         calculate D2E/DX2 analytically  !
 ! A2    A(1,2,11)             118.3128         calculate D2E/DX2 analytically  !
 ! A3    A(3,2,11)             114.7369         calculate D2E/DX2 analytically  !
 ! A4    A(2,3,4)              127.2864         calculate D2E/DX2 analytically  !
 ! A5    A(2,3,18)             116.9716         calculate D2E/DX2 analytically  !
 ! A6    A(4,3,18)             115.5622         calculate D2E/DX2 analytically  !
 ! A7    A(3,4,5)              117.303          calculate D2E/DX2 analytically  !
 ! A8    A(3,4,10)             124.0706         calculate D2E/DX2 analytically  !
 ! A9    A(5,4,10)             118.6109         calculate D2E/DX2 analytically  !
 ! A10   A(4,5,6)              120.6837         calculate D2E/DX2 analytically  !
 ! A11   A(4,5,19)             120.9318         calculate D2E/DX2 analytically  !
 ! A12   A(6,5,19)             118.3816         calculate D2E/DX2 analytically  !
 ! A13   A(5,6,7)              120.7071         calculate D2E/DX2 analytically  !
 ! A14   A(5,6,20)             119.1143         calculate D2E/DX2 analytically  !
 ! A15   A(7,6,20)             120.1787         calculate D2E/DX2 analytically  !
 ! A16   A(6,7,8)              120.3807         calculate D2E/DX2 analytically  !
 ! A17   A(6,7,9)              118.3546         calculate D2E/DX2 analytically  !
 ! A18   A(8,7,9)              120.396          calculate D2E/DX2 analytically  !
 ! A19   A(7,8,21)             113.9195         calculate D2E/DX2 analytically  !
 ! A20   A(7,8,22)             113.6381         calculate D2E/DX2 analytically  !
 ! A21   A(21,8,22)            112.2764         calculate D2E/DX2 analytically  !
 ! A22   A(7,9,10)             120.9996         calculate D2E/DX2 analytically  !
 ! A23   A(7,9,23)             120.3349         calculate D2E/DX2 analytically  !
 ! A24   A(10,9,23)            118.6654         calculate D2E/DX2 analytically  !
 ! A25   A(4,10,9)             120.4448         calculate D2E/DX2 analytically  !
 ! A26   A(4,10,24)            121.7258         calculate D2E/DX2 analytically  !
 ! A27   A(9,10,24)            117.8189         calculate D2E/DX2 analytically  !
 ! A28   A(2,11,12)            121.852          calculate D2E/DX2 analytically  !
 ! A29   A(2,11,17)            118.6726         calculate D2E/DX2 analytically  !
 ! A30   A(12,11,17)           119.4345         calculate D2E/DX2 analytically  !
 ! A31   A(11,12,13)           119.9115         calculate D2E/DX2 analytically  !
 ! A32   A(11,12,25)           121.1857         calculate D2E/DX2 analytically  !
 ! A33   A(13,12,25)           118.8434         calculate D2E/DX2 analytically  !
 ! A34   A(12,13,14)           120.8719         calculate D2E/DX2 analytically  !
 ! A35   A(12,13,26)           119.0951         calculate D2E/DX2 analytically  !
 ! A36   A(14,13,26)           120.0285         calculate D2E/DX2 analytically  !
 ! A37   A(13,14,15)           120.1996         calculate D2E/DX2 analytically  !
 ! A38   A(13,14,16)           118.6614         calculate D2E/DX2 analytically  !
 ! A39   A(15,14,16)           120.222          calculate D2E/DX2 analytically  !
 ! A40   A(14,15,27)           114.1292         calculate D2E/DX2 analytically  !
 ! A41   A(14,15,28)           114.3491         calculate D2E/DX2 analytically  !
 ! A42   A(27,15,28)           112.3795         calculate D2E/DX2 analytically  !
 ! A43   A(14,16,17)           120.745          calculate D2E/DX2 analytically  !
 ! A44   A(14,16,29)           120.3155         calculate D2E/DX2 analytically  !
 ! A45   A(17,16,29)           118.939          calculate D2E/DX2 analytically  !
 ! A46   A(11,17,16)           120.1336         calculate D2E/DX2 analytically  !
 ! A47   A(11,17,30)           120.1829         calculate D2E/DX2 analytically  !
 ! A48   A(16,17,30)           119.6789         calculate D2E/DX2 analytically  !
 ! D1    D(1,2,3,4)              4.5518         calculate D2E/DX2 analytically  !
 ! D2    D(1,2,3,18)          -170.3279         calculate D2E/DX2 analytically  !
 ! D3    D(11,2,3,4)          -177.675          calculate D2E/DX2 analytically  !
 ! D4    D(11,2,3,18)            7.4453         calculate D2E/DX2 analytically  !
 ! D5    D(1,2,11,12)         -145.4699         calculate D2E/DX2 analytically  !
 ! D6    D(1,2,11,17)           32.1885         calculate D2E/DX2 analytically  !
 ! D7    D(3,2,11,12)           36.5524         calculate D2E/DX2 analytically  !
 ! D8    D(3,2,11,17)         -145.7892         calculate D2E/DX2 analytically  !
 ! D9    D(2,3,4,5)           -175.5061         calculate D2E/DX2 analytically  !
 ! D10   D(2,3,4,10)             5.9503         calculate D2E/DX2 analytically  !
 ! D11   D(18,3,4,5)            -0.5645         calculate D2E/DX2 analytically  !
 ! D12   D(18,3,4,10)         -179.1081         calculate D2E/DX2 analytically  !
 ! D13   D(3,4,5,6)           -179.8372         calculate D2E/DX2 analytically  !
 ! D14   D(3,4,5,19)            -0.4578         calculate D2E/DX2 analytically  !
 ! D15   D(10,4,5,6)            -1.2113         calculate D2E/DX2 analytically  !
 ! D16   D(10,4,5,19)          178.1681         calculate D2E/DX2 analytically  !
 ! D17   D(3,4,10,9)           179.6384         calculate D2E/DX2 analytically  !
 ! D18   D(3,4,10,24)            0.845          calculate D2E/DX2 analytically  !
 ! D19   D(5,4,10,9)             1.1125         calculate D2E/DX2 analytically  !
 ! D20   D(5,4,10,24)         -177.6809         calculate D2E/DX2 analytically  !
 ! D21   D(4,5,6,7)             -1.8465         calculate D2E/DX2 analytically  !
 ! D22   D(4,5,6,20)           178.1728         calculate D2E/DX2 analytically  !
 ! D23   D(19,5,6,7)           178.7586         calculate D2E/DX2 analytically  !
 ! D24   D(19,5,6,20)           -1.2221         calculate D2E/DX2 analytically  !
 ! D25   D(5,6,7,8)            174.2794         calculate D2E/DX2 analytically  !
 ! D26   D(5,6,7,9)              4.9058         calculate D2E/DX2 analytically  !
 ! D27   D(20,6,7,8)            -5.7401         calculate D2E/DX2 analytically  !
 ! D28   D(20,6,7,9)          -175.1137         calculate D2E/DX2 analytically  !
 ! D29   D(6,7,8,21)            30.9359         calculate D2E/DX2 analytically  !
 ! D30   D(6,7,8,22)           161.2369         calculate D2E/DX2 analytically  !
 ! D31   D(9,7,8,21)          -159.9084         calculate D2E/DX2 analytically  !
 ! D32   D(9,7,8,22)           -29.6074         calculate D2E/DX2 analytically  !
 ! D33   D(6,7,9,10)            -5.0175         calculate D2E/DX2 analytically  !
 ! D34   D(6,7,9,23)           175.0642         calculate D2E/DX2 analytically  !
 ! D35   D(8,7,9,10)          -174.3894         calculate D2E/DX2 analytically  !
 ! D36   D(8,7,9,23)             5.6923         calculate D2E/DX2 analytically  !
 ! D37   D(7,9,10,4)             2.0473         calculate D2E/DX2 analytically  !
 ! D38   D(7,9,10,24)         -179.1131         calculate D2E/DX2 analytically  !
 ! D39   D(23,9,10,4)         -178.0331         calculate D2E/DX2 analytically  !
 ! D40   D(23,9,10,24)           0.8065         calculate D2E/DX2 analytically  !
 ! D41   D(2,11,12,13)         179.8567         calculate D2E/DX2 analytically  !
 ! D42   D(2,11,12,25)           2.6939         calculate D2E/DX2 analytically  !
 ! D43   D(17,11,12,13)          2.2157         calculate D2E/DX2 analytically  !
 ! D44   D(17,11,12,25)       -174.9471         calculate D2E/DX2 analytically  !
 ! D45   D(2,11,17,16)        -179.9321         calculate D2E/DX2 analytically  !
 ! D46   D(2,11,17,30)          -0.7113         calculate D2E/DX2 analytically  !
 ! D47   D(12,11,17,16)         -2.2158         calculate D2E/DX2 analytically  !
 ! D48   D(12,11,17,30)        177.0049         calculate D2E/DX2 analytically  !
 ! D49   D(11,12,13,14)          1.5179         calculate D2E/DX2 analytically  !
 ! D50   D(11,12,13,26)       -177.7042         calculate D2E/DX2 analytically  !
 ! D51   D(25,12,13,14)        178.747          calculate D2E/DX2 analytically  !
 ! D52   D(25,12,13,26)         -0.4751         calculate D2E/DX2 analytically  !
 ! D53   D(12,13,14,15)       -174.2431         calculate D2E/DX2 analytically  !
 ! D54   D(12,13,14,16)         -5.176          calculate D2E/DX2 analytically  !
 ! D55   D(26,13,14,15)          4.9718         calculate D2E/DX2 analytically  !
 ! D56   D(26,13,14,16)        174.0389         calculate D2E/DX2 analytically  !
 ! D57   D(13,14,15,27)       -161.6807         calculate D2E/DX2 analytically  !
 ! D58   D(13,14,15,28)        -30.3324         calculate D2E/DX2 analytically  !
 ! D59   D(16,14,15,27)         29.4237         calculate D2E/DX2 analytically  !
 ! D60   D(16,14,15,28)        160.7721         calculate D2E/DX2 analytically  !
 ! D61   D(13,14,16,17)          5.1741         calculate D2E/DX2 analytically  !
 ! D62   D(13,14,16,29)       -174.5732         calculate D2E/DX2 analytically  !
 ! D63   D(15,14,16,17)        174.2387         calculate D2E/DX2 analytically  !
 ! D64   D(15,14,16,29)         -5.5086         calculate D2E/DX2 analytically  !
 ! D65   D(14,16,17,11)         -1.522          calculate D2E/DX2 analytically  !
 ! D66   D(14,16,17,30)        179.2534         calculate D2E/DX2 analytically  !
 ! D67   D(29,16,17,11)        178.2288         calculate D2E/DX2 analytically  !
 ! D68   D(29,16,17,30)         -0.9959         calculate D2E/DX2 analytically  !
 --------------------------------------------------------------------------------
 Trust Radius=3.00D-01 FncErr=1.00D-07 GrdErr=1.00D-06 EigMax=2.50D+02 EigMin=1.00D-04
 Number of steps in this run=    157 maximum allowed number of steps=    180.
 GradGradGradGradGradGradGradGradGradGradGradGradGradGradGradGradGradGrad

                          Input orientation:                          
 ---------------------------------------------------------------------
 Center     Atomic      Atomic             Coordinates (Angstroms)
 Number     Number       Type             X           Y           Z
 ---------------------------------------------------------------------
      1          8           0       -0.822759   -1.926409    0.028241
      2          6           0       -0.023757   -1.005109    0.143174
      3          7           0       -0.292087    0.347076    0.025810
      4          6           0       -1.550641    0.955223   -0.161963
      5          6           0       -1.571861    2.341433   -0.350454
      6          6           0       -2.782544    3.018130   -0.539969
      7          6           0       -3.989088    2.320425   -0.583077
      8          7           0       -5.203466    3.010977   -0.652906
      9          6           0       -3.970660    0.948829   -0.329517
     10          6           0       -2.761709    0.265914   -0.141283
     11          6           0        1.408636   -1.337873    0.389582
     12          6           0        2.225665   -0.534836    1.193205
     13          6           0        3.564142   -0.887170    1.399597
     14          6           0        4.110658   -2.018496    0.787043
     15          7           0        5.411877   -2.425965    1.095820
     16          6           0        3.267857   -2.854929    0.050768
     17          6           0        1.928984   -2.512461   -0.162163
     18          1           0        0.502525    0.971660   -0.000573
     19          1           0       -0.652488    2.920039   -0.343514
     20          1           0       -2.772025    4.098628   -0.654052
     21          1           0       -5.145362    3.896853   -1.144497
     22          1           0       -5.978147    2.440505   -0.977864
     23          1           0       -4.900126    0.388021   -0.275615
     24          1           0       -2.806721   -0.803576    0.038233
     25          1           0        1.829448    0.339463    1.701910
     26          1           0        4.176840   -0.274627    2.056527
     27          1           0        5.822934   -3.054979    0.412900
     28          1           0        6.038192   -1.668918    1.350045
     29          1           0        3.644566   -3.787002   -0.362804
     30          1           0        1.291118   -3.170826   -0.748586
 ---------------------------------------------------------------------
                    Distance matrix (angstroms):
                    1          2          3          4          5
     1  O    0.000000
     2  C    1.224910   0.000000
     3  N    2.334599   1.383539   0.000000
     4  C    2.978219   2.503474   1.410340   0.000000
     5  C    4.349602   3.720167   2.399345   1.399128   0.000000
     6  C    5.349027   4.925855   3.695540   2.432296   1.399853
     7  C    5.332443   5.225942   4.234698   2.826153   2.428485
     8  N    6.635687   6.602430   5.628381   4.220223   3.705175
     9  C    4.278349   4.429374   3.744365   2.425821   2.773810
    10  C    2.931646   3.031963   2.476599   1.393650   2.401514
    11  C    2.335822   1.491040   2.421537   3.784153   4.792527
    12  C    3.547746   2.526583   2.911984   4.279864   5.007695
    13  C    4.712275   3.803358   4.275646   5.656313   6.313880
    14  C    4.992280   4.305218   5.055647   6.464821   7.252165
    15  N    6.345074   5.698463   6.431942   7.841626   8.578600
    16  C    4.194734   3.776916   4.788179   6.146579   7.112386
    17  C    2.819894   2.485667   3.625664   4.912496   5.987625
    18  H    3.186849   2.050671   1.011044   2.059565   2.510333
    19  H    4.863666   4.004866   2.624200   2.167981   1.086315
    20  H    6.369163   5.851212   4.548236   3.408068   2.149488
    21  H    7.346468   7.205426   6.125751   4.747692   3.977405
    22  H    6.830828   6.970204   6.141750   4.740735   4.451833
    23  H    4.698280   5.088730   4.618069   3.399072   3.859893
    24  H    2.279684   2.792225   2.765419   2.170528   3.401035
    25  H    3.869050   2.769820   2.703753   3.908732   4.448481
    26  H    5.642545   4.673279   4.947892   6.264045   6.759060
    27  H    6.751804   6.201493   7.008373   8.413191   9.186237
    28  H    6.991860   6.216463   6.774235   8.170842   8.768553
    29  H    4.855071   4.631580   5.721788   7.036988   8.047918
    30  H    2.573034   2.685974   3.934699   5.044204   6.224159
                    6          7          8          9         10
     6  C    0.000000
     7  C    1.394417   0.000000
     8  N    2.423565   1.398733   0.000000
     9  C    2.395395   1.394958   2.424221   0.000000
    10  C    2.781021   2.433651   3.709354   1.401202   0.000000
    11  C    6.115948   6.592772   7.982429   5.889222   4.499526
    12  C    6.380409   7.066176   8.436403   6.550907   5.224554
    13  C    7.700241   8.442212   9.812200   7.945689   6.612133
    14  C    8.639722   9.290282  10.682788   8.680980   7.301352
    15  N    9.973090  10.664195  12.054206  10.072379   8.693915
    16  C    8.452760   8.935844  10.327988   8.185923   6.792070
    17  C    7.275210   7.652290   9.034437   6.842101   5.451826
    18  H    3.907771   4.725788   6.094481   4.485322   3.342619
    19  H    2.141345   3.398504   4.562389   3.859551   3.396187
    20  H    1.086555   2.155988   2.663624   3.385747   3.866877
    21  H    2.592396   2.034032   1.014797   3.276425   4.457797
    22  H    3.276779   2.031411   1.015464   2.583690   3.971673
    23  H    3.386962   2.158405   2.667258   1.086885   2.146109
    24  H    3.865274   3.397558   4.557727   2.135631   1.085386
    25  H    5.785478   6.557495   7.883149   6.175701   4.947878
    26  H    8.125089   8.965723  10.301765   8.577401   7.298357
    27  H   10.575673  11.232217  12.629856  10.606420   9.221255
    28  H   10.165922  10.963492  12.340507  10.480966   9.132683
    29  H    9.362102   9.778643  11.161736   8.967769   7.583902
    30  H    7.412248   7.619829   8.966798   6.695781   5.348402
                   11         12         13         14         15
    11  C    0.000000
    12  C    1.399363   0.000000
    13  C    2.422699   1.399378   0.000000
    14  C    2.814630   2.432984   1.397784   0.000000
    15  N    4.208165   3.706454   2.423695   1.398051   0.000000
    16  C    2.423418   2.788219   2.403997   1.397152   2.423420
    17  C    1.398156   2.415790   2.784673   2.429957   3.704125
    18  H    2.511414   2.581442   3.845675   4.751840   6.070228
    19  H    4.787011   4.751992   5.942494   6.953764   8.211453
    20  H    6.937049   7.061037   8.320016   9.320262  10.611721
    21  H    8.527054   8.912730  10.257424  11.153300  12.508091
    22  H    8.408960   8.992704  10.381764  11.170567  12.558477
    23  H    6.574320   7.333894   8.722172   9.386948  10.776677
    24  H    4.263585   5.170212   6.515228   7.063064   8.443696
    25  H    2.170886   1.086354   2.145969   3.406005   4.566041
    26  H    3.401786   2.149446   1.087274   2.158019   2.660174
    27  H    4.736562   4.460980   3.282546   2.036215   1.015385
    28  H    4.739712   3.980717   2.595093   2.038275   1.014899
    29  H    3.400544   3.874407   3.394342   2.160325   2.665220
    30  H    2.160775   3.404758   3.872520   3.411133   4.575730
                   16         17         18         19         20
    16  C    0.000000
    17  C    1.398286   0.000000
    18  H    4.721491   3.768288   0.000000
    19  H    6.991052   6.017386   2.290817   0.000000
    20  H    9.237365   8.126989   4.574674   2.444984   0.000000
    21  H   10.853455   9.596388   6.462504   4.667083   2.431868
    22  H   10.704592   9.365894   6.716526   5.384700   3.624009
    23  H    8.794271   7.420405   5.441041   4.945519   4.294256
    24  H    6.411608   5.038587   3.755540   4.318768   4.950967
    25  H    3.872910   3.408540   2.249188   4.123486   6.391826
    26  H    3.392238   3.870832   4.391524   6.268053   8.646347
    27  H    2.588354   3.973395   6.685172   8.843307  11.233245
    28  H    3.281691   4.459139   6.280161   8.288055  10.719184
    29  H    1.087065   2.146609   5.713886   7.965515  10.170576
    30  H    2.155518   1.088214   4.282708   6.406271   8.328447
                   21         22         23         24         25
    21  H    0.000000
    22  H    1.685896   0.000000
    23  H    3.623120   2.422390   0.000000
    24  H    5.381647   4.649135   2.429146   0.000000
    25  H    8.330969   8.517870   7.014281   5.056524   0.000000
    26  H   10.702862  10.940897   9.395175   7.288582   2.452164
    27  H   13.078875  13.091985  11.283276   8.926373   5.397380
    28  H   12.738620  12.911193  11.248136   8.983438   4.676636
    29  H   11.701090  11.478534   9.510530   7.119043   4.958368
    30  H    9.567502   9.185957   7.156856   4.797420   4.314725
                   26         27         28         29         30
    26  H    0.000000
    27  H    3.625119   0.000000
    28  H    2.430596   1.686932   0.000000
    29  H    4.298053   2.425462   3.626235   0.000000
    30  H    4.958227   4.679725   5.403211   2.463173   0.000000
 Stoichiometry    C13H13N3O
 Framework group  C1[X(C13H13N3O)]
 Deg. of freedom    84
 Full point group                 C1      NOp   1
 Largest Abelian subgroup         C1      NOp   1
 Largest concise Abelian subgroup C1      NOp   1
                         Standard orientation:                         
 ---------------------------------------------------------------------
 Center     Atomic      Atomic             Coordinates (Angstroms)
 Number     Number       Type             X           Y           Z
 ---------------------------------------------------------------------
      1          8           0       -0.205639    1.936597    0.252986
      2          6           0       -0.462948    0.748808    0.100165
      3          7           0        0.442551   -0.279865   -0.089790
      4          6           0        1.850051   -0.195555   -0.059838
      5          6           0        2.569198   -1.353384   -0.375775
      6          6           0        3.969004   -1.350185   -0.364683
      7          6           0        4.676132   -0.183553   -0.075997
      8          7           0        6.068786   -0.213528    0.050762
      9          6           0        3.957215    0.950451    0.302292
     10          6           0        2.556063    0.953687    0.290947
     11          6           0       -1.894794    0.334594    0.062194
     12          6           0       -2.323382   -0.890191    0.586056
     13          6           0       -3.678067   -1.236761    0.531505
     14          6           0       -4.611899   -0.387981   -0.069605
     15          7           0       -5.975874   -0.689153   -0.011180
     16          6           0       -4.186936    0.864751   -0.519163
     17          6           0       -2.835774    1.221316   -0.469898
     18          1           0        0.064924   -1.181068   -0.349482
     19          1           0        2.056902   -2.278173   -0.625570
     20          1           0        4.501538   -2.271329   -0.584913
     21          1           0        6.519523   -0.915461   -0.527113
     22          1           0        6.505657    0.698607   -0.040455
     23          1           0        4.478186    1.852802    0.611597
     24          1           0        2.049283    1.868589    0.581106
     25          1           0       -1.629279   -1.564846    1.079237
     26          1           0       -4.002188   -2.174571    0.976050
     27          1           0       -6.538664   -0.201010   -0.701100
     28          1           0       -6.184033   -1.681818    0.024976
     29          1           0       -4.905880    1.580349   -0.909996
     30          1           0       -2.522290    2.196984   -0.835971
 ---------------------------------------------------------------------
 Rotational constants (GHZ):           1.9188948           0.1693518           0.1581824
 Standard basis: 6-31G(d,p) (6D, 7F)
 There are   320 symmetry adapted cartesian basis functions of A   symmetry.
 There are   320 symmetry adapted basis functions of A   symmetry.
   320 basis functions,   567 primitive gaussians,   320 cartesian basis functions
    60 alpha electrons       60 beta electrons
       nuclear repulsion energy      1067.6170879072 Hartrees.
 NAtoms=   30 NActive=   30 NUniq=   30 SFac= 1.00D+00 NAtFMM=   60 NAOKFM=F Big=F
 Integral buffers will be    131072 words long.
 Raffenetti 2 integral format.
 Two-electron integral symmetry is turned on.
 Force inversion solution in PCM.
 ------------------------------------------------------------------------------
 Polarizable Continuum Model (PCM)
 =================================
 Model                : PCM.
 Atomic radii         : UFF (Universal Force Field).
 Polarization charges : Total charges.
 Charge compensation  : None.
 Solution method      : Matrix inversion.
 Cavity type          : Scaled VdW (van der Waals Surface) (Alpha=1.100).
 Cavity algorithm     : GePol (No added spheres)
                        Default sphere list used, NSphG=   30.
                        Lebedev-Laikov grids with approx.  5.0 points / Ang**2.
                        Smoothing algorithm: York/Karplus (Gamma=1.0000).
                        Polarization charges: spherical gaussians, with
                                              point-specific exponents (IZeta= 3).
                        Self-potential: point-specific (ISelfS= 7).
                        Self-field    : sphere-specific E.n sum rule (ISelfD= 2).
 1st derivatives      : Analytical E(r).r(x)/FMM algorithm (CHGder, D1EAlg=3).
                        Cavity 1st derivative terms included.
 2nd derivatives      : Analytical E(r).r(xy)/FMM algorithm (CHGder, D2EAlg=3).
                        Cavity 2nd derivative terms included.
 Solvent              : Water, Eps=  78.355300 Eps(inf)=   1.777849
 ------------------------------------------------------------------------------
 One-electron integrals computed using PRISM.
 NBasis=   320 RedAO= T EigKep=  4.23D-04  NBF=   320
 NBsUse=   320 1.00D-06 EigRej= -1.00D+00 NBFU=   320
 ExpMin= 1.61D-01 ExpMax= 5.48D+03 ExpMxC= 8.25D+02 IAcc=3 IRadAn=         5 AccDes= 0.00D+00
 Harris functional with IExCor=  402 and IRadAn=       5 diagonalized for initial guess.
 HarFok:  IExCor=  402 AccDes= 0.00D+00 IRadAn=         5 IDoV= 1 UseB2=F ITyADJ=14
 ICtDFT=  3500011 ScaDFX=  1.000000  1.000000  1.000000  1.000000
 FoFCou: FMM=F IPFlag=           0 FMFlag=      100000 FMFlg1=           0
         NFxFlg=           0 DoJE=T BraDBF=F KetDBF=T FulRan=T
         wScrn=  0.000000 ICntrl=       500 IOpCl=  0 I1Cent=   200000004 NGrid=           0
         NMat0=    1 NMatS0=      1 NMatT0=    0 NMatD0=    1 NMtDS0=    0 NMtDT0=    0
 Petite list used in FoFCou.
 Requested convergence on RMS density matrix=1.00D-08 within  32 cycles.
 Requested convergence on MAX density matrix=1.00D-06.
 Requested convergence on             energy=1.00D-06.
 No special actions if energy rises.
 Inv3:  Mode=1 IEnd=    16737132.
 Iteration    1 A*A^-1 deviation from unit magnitude is 2.66D-15 for    222.
 Iteration    1 A*A^-1 deviation from orthogonality  is 2.13D-15 for   1483   1381.
 Iteration    1 A^-1*A deviation from unit magnitude is 2.89D-15 for   1527.
 Iteration    1 A^-1*A deviation from orthogonality  is 7.95D-12 for   1535   1483.
 Error on total polarization charges =  0.00934
 SCF Done:  E(RB3LYP) =  -742.753587093     A.U. after   13 cycles
            NFock= 13  Conv=0.64D-08     -V/T= 2.0095
 QCSCF skips out because SCF is already converged.
 DoSCS=F DFT=T ScalE2(SS,OS)=  1.000000  1.000000
 Range of M.O.s used for correlation:     1   320
 NBasis=   320 NAE=    60 NBE=    60 NFC=     0 NFV=     0
 NROrb=    320 NOA=    60 NOB=    60 NVA=   260 NVB=   260
 Symmetrizing basis deriv contribution to polar:
 IMax=3 JMax=2 DiffMx= 0.00D+00
 G2DrvN: will do    31 centers at a time, making    1 passes.
 Calling FoFCou, ICntrl=  3107 FMM=F I1Cent=   0 AccDes= 0.00D+00.
 NEqPCM:  Using equilibrium solvation (IEInf=0, Eps=  78.3553, EpsInf=   1.7778)
 G2PCM: DoFxE=T DoFxN=T DoGrad=T DoDP/DQ/DG/TGxP=FFFF NFrqRd=   0 IEInf=0 SqF1=F DoCFld=F IF1Alg=4.
 End of G2Drv F.D. properties file   721 does not exist.
 End of G2Drv F.D. properties file   722 does not exist.
 End of G2Drv F.D. properties file   788 does not exist.
          IDoAtm=111111111111111111111111111111
 NEqPCM:  Using equilibrium solvation (IEInf=0, Eps=  78.3553, EpsInf=   1.7778)
          Differentiating once with respect to nuclear coordinates.
 Keep R1 ints in memory in canonical form, NReq=1335502880.
 CalDSu:  requested number of processors reduced to:   2 ShMem   1 Linda.
 CoulSu:  requested number of processors reduced to:   1 ShMem   1 Linda.
 CoulSu:  requested number of processors reduced to:   1 ShMem   1 Linda.
          There are    93 degrees of freedom in the 1st order CPHF.  IDoFFX=6 NUNeed=     0.
     87 vectors produced by pass  0 Test12= 1.68D-14 1.08D-09 XBig12= 1.59D-01 2.27D-01.
 AX will form    87 AO Fock derivatives at one time.
 CalDSu:  requested number of processors reduced to:   3 ShMem   1 Linda.
 CoulSu:  requested number of processors reduced to:   1 ShMem   1 Linda.
 CoulSu:  requested number of processors reduced to:   1 ShMem   1 Linda.
     87 vectors produced by pass  1 Test12= 1.68D-14 1.08D-09 XBig12= 3.86D-02 5.18D-02.
 CalDSu:  requested number of processors reduced to:   3 ShMem   1 Linda.
 CoulSu:  requested number of processors reduced to:   1 ShMem   1 Linda.
 CoulSu:  requested number of processors reduced to:   1 ShMem   1 Linda.
     87 vectors produced by pass  2 Test12= 1.68D-14 1.08D-09 XBig12= 2.44D-04 3.00D-03.
 CalDSu:  requested number of processors reduced to:   3 ShMem   1 Linda.
 CoulSu:  requested number of processors reduced to:   1 ShMem   1 Linda.
 CoulSu:  requested number of processors reduced to:   1 ShMem   1 Linda.
     87 vectors produced by pass  3 Test12= 1.68D-14 1.08D-09 XBig12= 9.60D-07 1.05D-04.
 CalDSu:  requested number of processors reduced to:   3 ShMem   1 Linda.
 CoulSu:  requested number of processors reduced to:   1 ShMem   1 Linda.
 CoulSu:  requested number of processors reduced to:   1 ShMem   1 Linda.
     87 vectors produced by pass  4 Test12= 1.68D-14 1.08D-09 XBig12= 2.01D-09 4.04D-06.
 CalDSu:  requested number of processors reduced to:   3 ShMem   1 Linda.
 CoulSu:  requested number of processors reduced to:   1 ShMem   1 Linda.
 CoulSu:  requested number of processors reduced to:   1 ShMem   1 Linda.
     72 vectors produced by pass  5 Test12= 1.68D-14 1.08D-09 XBig12= 2.16D-12 1.66D-07.
 CalDSu:  requested number of processors reduced to:   3 ShMem   1 Linda.
 CoulSu:  requested number of processors reduced to:   2 ShMem   1 Linda.
 CoulSu:  requested number of processors reduced to:   2 ShMem   1 Linda.
     18 vectors produced by pass  6 Test12= 1.68D-14 1.08D-09 XBig12= 2.04D-15 4.65D-09.
 InvSVY:  IOpt=1 It=  1 EMax= 5.55D-16
 Solved reduced A of dimension   525 with    93 vectors.
 End of Minotr F.D. properties file   721 does not exist.
 End of Minotr F.D. properties file   722 does not exist.
 End of Minotr F.D. properties file   788 does not exist.

 **********************************************************************

            Population analysis using the SCF density.

 **********************************************************************

 Orbital symmetries:
       Occupied  (A) (A) (A) (A) (A) (A) (A) (A) (A) (A) (A) (A)
                 (A) (A) (A) (A) (A) (A) (A) (A) (A) (A) (A) (A)
                 (A) (A) (A) (A) (A) (A) (A) (A) (A) (A) (A) (A)
                 (A) (A) (A) (A) (A) (A) (A) (A) (A) (A) (A) (A)
                 (A) (A) (A) (A) (A) (A) (A) (A) (A) (A) (A) (A)
       Virtual   (A) (A) (A) (A) (A) (A) (A) (A) (A) (A) (A) (A)
                 (A) (A) (A) (A) (A) (A) (A) (A) (A) (A) (A) (A)
                 (A) (A) (A) (A) (A) (A) (A) (A) (A) (A) (A) (A)
                 (A) (A) (A) (A) (A) (A) (A) (A) (A) (A) (A) (A)
                 (A) (A) (A) (A) (A) (A) (A) (A) (A) (A) (A) (A)
                 (A) (A) (A) (A) (A) (A) (A) (A) (A) (A) (A) (A)
                 (A) (A) (A) (A) (A) (A) (A) (A) (A) (A) (A) (A)
                 (A) (A) (A) (A) (A) (A) (A) (A) (A) (A) (A) (A)
                 (A) (A) (A) (A) (A) (A) (A) (A) (A) (A) (A) (A)
                 (A) (A) (A) (A) (A) (A) (A) (A) (A) (A) (A) (A)
                 (A) (A) (A) (A) (A) (A) (A) (A) (A) (A) (A) (A)
                 (A) (A) (A) (A) (A) (A) (A) (A) (A) (A) (A) (A)
                 (A) (A) (A) (A) (A) (A) (A) (A) (A) (A) (A) (A)
                 (A) (A) (A) (A) (A) (A) (A) (A) (A) (A) (A) (A)
                 (A) (A) (A) (A) (A) (A) (A) (A) (A) (A) (A) (A)
                 (A) (A) (A) (A) (A) (A) (A) (A) (A) (A) (A) (A)
                 (A) (A) (A) (A) (A) (A) (A) (A) (A) (A) (A) (A)
                 (A) (A) (A) (A) (A) (A) (A) (A) (A) (A) (A) (A)
                 (A) (A) (A) (A) (A) (A) (A) (A) (A) (A) (A) (A)
                 (A) (A) (A) (A) (A) (A) (A) (A) (A) (A) (A) (A)
                 (A) (A) (A) (A) (A) (A) (A) (A) (A) (A) (A) (A)
                 (A) (A) (A) (A) (A) (A) (A) (A)
 The electronic state is 1-A.
 Alpha  occ. eigenvalues --  -19.11971 -14.37371 -14.34202 -14.33425 -10.29240
 Alpha  occ. eigenvalues --  -10.23417 -10.22694 -10.22237 -10.19839 -10.19573
 Alpha  occ. eigenvalues --  -10.19142 -10.19137 -10.18859 -10.18828 -10.18515
 Alpha  occ. eigenvalues --  -10.18496 -10.18305  -1.03868  -0.93964  -0.91945
 Alpha  occ. eigenvalues --   -0.91208  -0.84561  -0.82888  -0.75160  -0.74720
 Alpha  occ. eigenvalues --   -0.74436  -0.71890  -0.64115  -0.62285  -0.61906
 Alpha  occ. eigenvalues --   -0.59581  -0.56955  -0.54462  -0.52208  -0.50961
 Alpha  occ. eigenvalues --   -0.50546  -0.49603  -0.48826  -0.44605  -0.43963
 Alpha  occ. eigenvalues --   -0.43591  -0.42972  -0.42564  -0.42255  -0.41402
 Alpha  occ. eigenvalues --   -0.40662  -0.39120  -0.38461  -0.37690  -0.37118
 Alpha  occ. eigenvalues --   -0.34754  -0.34534  -0.33576  -0.31182  -0.27250
 Alpha  occ. eigenvalues --   -0.25879  -0.25296  -0.24983  -0.21262  -0.19004
 Alpha virt. eigenvalues --   -0.02556  -0.00929  -0.00401   0.02397   0.06882
 Alpha virt. eigenvalues --    0.09206   0.09235   0.09400   0.11068   0.11867
 Alpha virt. eigenvalues --    0.13202   0.14035   0.16024   0.17042   0.17362
 Alpha virt. eigenvalues --    0.17689   0.18322   0.18554   0.20080   0.20911
 Alpha virt. eigenvalues --    0.23123   0.24681   0.25940   0.28783   0.29772
 Alpha virt. eigenvalues --    0.31150   0.32853   0.33000   0.34432   0.34768
 Alpha virt. eigenvalues --    0.35423   0.36961   0.38950   0.41665   0.47107
 Alpha virt. eigenvalues --    0.49891   0.51736   0.52401   0.52930   0.53192
 Alpha virt. eigenvalues --    0.54009   0.54445   0.55371   0.56103   0.56267
 Alpha virt. eigenvalues --    0.57403   0.58707   0.58984   0.59283   0.59452
 Alpha virt. eigenvalues --    0.59657   0.59922   0.60409   0.61636   0.62123
 Alpha virt. eigenvalues --    0.62449   0.63074   0.64179   0.65565   0.66545
 Alpha virt. eigenvalues --    0.68005   0.68721   0.69494   0.70207   0.72283
 Alpha virt. eigenvalues --    0.74513   0.75239   0.76690   0.78252   0.79330
 Alpha virt. eigenvalues --    0.79748   0.81126   0.81632   0.81934   0.82304
 Alpha virt. eigenvalues --    0.83519   0.83809   0.84872   0.85483   0.86108
 Alpha virt. eigenvalues --    0.87200   0.87401   0.88656   0.88923   0.89682
 Alpha virt. eigenvalues --    0.91641   0.92874   0.95010   0.96520   0.97742
 Alpha virt. eigenvalues --    0.98859   1.00097   1.00956   1.01158   1.02587
 Alpha virt. eigenvalues --    1.03711   1.04909   1.07015   1.08774   1.12480
 Alpha virt. eigenvalues --    1.15141   1.15965   1.16425   1.17560   1.19408
 Alpha virt. eigenvalues --    1.20602   1.21263   1.26214   1.26960   1.27400
 Alpha virt. eigenvalues --    1.29570   1.30591   1.32963   1.34411   1.36905
 Alpha virt. eigenvalues --    1.38939   1.39804   1.40264   1.40563   1.40987
 Alpha virt. eigenvalues --    1.41555   1.43740   1.46051   1.46548   1.48452
 Alpha virt. eigenvalues --    1.51205   1.52466   1.57142   1.60173   1.69650
 Alpha virt. eigenvalues --    1.72997   1.74977   1.75547   1.76288   1.77283
 Alpha virt. eigenvalues --    1.78978   1.79167   1.79865   1.80627   1.81590
 Alpha virt. eigenvalues --    1.81893   1.84599   1.86590   1.87372   1.88396
 Alpha virt. eigenvalues --    1.89782   1.91269   1.92916   1.93563   1.94076
 Alpha virt. eigenvalues --    1.95642   1.96113   1.96692   1.96967   1.98220
 Alpha virt. eigenvalues --    1.98812   1.99000   2.03799   2.04973   2.05956
 Alpha virt. eigenvalues --    2.08159   2.09246   2.10981   2.12551   2.16217
 Alpha virt. eigenvalues --    2.16899   2.20399   2.22615   2.23791   2.24578
 Alpha virt. eigenvalues --    2.26070   2.26619   2.29915   2.31483   2.31916
 Alpha virt. eigenvalues --    2.33070   2.33253   2.34069   2.34578   2.35463
 Alpha virt. eigenvalues --    2.36441   2.40836   2.41012   2.41562   2.42751
 Alpha virt. eigenvalues --    2.44117   2.44785   2.45840   2.46590   2.47672
 Alpha virt. eigenvalues --    2.49262   2.49660   2.50706   2.52129   2.53092
 Alpha virt. eigenvalues --    2.54811   2.55655   2.57490   2.58833   2.59319
 Alpha virt. eigenvalues --    2.60375   2.60599   2.62182   2.64920   2.66520
 Alpha virt. eigenvalues --    2.67483   2.68452   2.71612   2.74285   2.75508
 Alpha virt. eigenvalues --    2.76971   2.79032   2.80083   2.82287   2.85123
 Alpha virt. eigenvalues --    2.86143   2.88705   2.93854   2.96358   2.98558
 Alpha virt. eigenvalues --    2.98678   3.04477   3.05151   3.05683   3.11711
 Alpha virt. eigenvalues --    3.15436   3.18711   3.20377   3.24797   3.25765
 Alpha virt. eigenvalues --    3.28098   3.28478   3.30117   3.34289   3.37385
 Alpha virt. eigenvalues --    3.39632   3.48219   3.48583   3.51584   3.54174
 Alpha virt. eigenvalues --    3.60235   3.83153   3.84984   4.03568   4.04141
 Alpha virt. eigenvalues --    4.09923   4.13305   4.13501   4.15461   4.15750
 Alpha virt. eigenvalues --    4.17513   4.22646   4.27003   4.39333   4.43662
 Alpha virt. eigenvalues --    4.44028   4.46811   4.58117   4.82329   4.86920
          Condensed to atoms (all electrons):
               1          2          3          4          5          6
     1  O    8.147293   0.559639  -0.087347  -0.000879   0.000284  -0.000004
     2  C    0.559639   4.466597   0.228502  -0.023327   0.005535  -0.000116
     3  N   -0.087347   0.228502   7.180402   0.207308  -0.058440   0.005178
     4  C   -0.000879  -0.023327   0.207308   4.629665   0.505155  -0.023990
     5  C    0.000284   0.005535  -0.058440   0.505155   4.974940   0.526219
     6  C   -0.000004  -0.000116   0.005178  -0.023990   0.526219   4.916175
     7  C   -0.000003  -0.000002   0.000314  -0.033030  -0.025802   0.539775
     8  N    0.000000  -0.000000   0.000000   0.000493   0.004822  -0.070971
     9  C    0.000599   0.000200   0.005193  -0.028595  -0.044076  -0.047802
    10  C   -0.008663  -0.003346  -0.063723   0.552196  -0.059211  -0.043596
    11  C   -0.096876   0.327919  -0.097113   0.006415  -0.000458   0.000001
    12  C    0.001963  -0.047358  -0.006071   0.000416  -0.000048  -0.000000
    13  C   -0.000110   0.004350   0.000233   0.000002  -0.000001   0.000000
    14  C    0.000002   0.000602  -0.000013   0.000000  -0.000000   0.000000
    15  N    0.000000   0.000001  -0.000000   0.000000  -0.000000  -0.000000
    16  C    0.000696   0.005580  -0.000093   0.000001   0.000000   0.000000
    17  C    0.004110  -0.032658   0.005228  -0.000112   0.000003  -0.000000
    18  H    0.002705  -0.025163   0.339185  -0.023635  -0.006629   0.000027
    19  H    0.000003   0.000157  -0.009119  -0.043280   0.362495  -0.031190
    20  H   -0.000000   0.000001  -0.000104   0.003834  -0.033371   0.365015
    21  H   -0.000000  -0.000000  -0.000000   0.000002  -0.000053  -0.009469
    22  H    0.000000  -0.000000  -0.000000  -0.000000  -0.000191   0.005519
    23  H   -0.000004   0.000002  -0.000108   0.003672   0.000711   0.005338
    24  H    0.022937   0.003290  -0.012306  -0.032780   0.005619   0.000343
    25  H   -0.000024  -0.007378   0.005295  -0.000092  -0.000012  -0.000001
    26  H    0.000001  -0.000163   0.000005  -0.000000   0.000000   0.000000
    27  H    0.000000  -0.000000  -0.000000   0.000000  -0.000000  -0.000000
    28  H    0.000000  -0.000000   0.000000   0.000000  -0.000000  -0.000000
    29  H    0.000000  -0.000152   0.000001  -0.000000   0.000000  -0.000000
    30  H    0.011315  -0.007526   0.000492   0.000002   0.000000  -0.000000
               7          8          9         10         11         12
     1  O   -0.000003   0.000000   0.000599  -0.008663  -0.096876   0.001963
     2  C   -0.000002  -0.000000   0.000200  -0.003346   0.327919  -0.047358
     3  N    0.000314   0.000000   0.005193  -0.063723  -0.097113  -0.006071
     4  C   -0.033030   0.000493  -0.028595   0.552196   0.006415   0.000416
     5  C   -0.025802   0.004822  -0.044076  -0.059211  -0.000458  -0.000048
     6  C    0.539775  -0.070971  -0.047802  -0.043596   0.000001  -0.000000
     7  C    4.582739   0.295519   0.534561  -0.024336   0.000000   0.000000
     8  N    0.295519   6.836912  -0.070672   0.004474   0.000000   0.000000
     9  C    0.534561  -0.070672   4.971544   0.499672   0.000002  -0.000000
    10  C   -0.024336   0.004474   0.499672   4.931659   0.000650  -0.000034
    11  C    0.000000   0.000000   0.000002   0.000650   5.021524   0.504565
    12  C    0.000000   0.000000  -0.000000  -0.000034   0.504565   4.934786
    13  C    0.000000   0.000000   0.000000   0.000000  -0.036195   0.507206
    14  C   -0.000000  -0.000000   0.000000   0.000000  -0.028639  -0.025464
    15  N    0.000000   0.000000  -0.000000   0.000000   0.000489   0.004768
    16  C    0.000000  -0.000000  -0.000000  -0.000000  -0.038401  -0.042970
    17  C    0.000000   0.000000  -0.000000  -0.000003   0.507878  -0.043183
    18  H   -0.000016  -0.000000  -0.000039   0.004776   0.001105   0.006017
    19  H    0.003884  -0.000112   0.000603   0.005392   0.000013  -0.000025
    20  H   -0.041924  -0.007278   0.005325   0.000601  -0.000000   0.000000
    21  H   -0.025099   0.343588   0.005547  -0.000182  -0.000000   0.000000
    22  H   -0.025365   0.343834  -0.009414  -0.000050  -0.000000   0.000000
    23  H   -0.043079  -0.007254   0.364971  -0.032545  -0.000000  -0.000000
    24  H    0.004166  -0.000102  -0.037295   0.355107   0.000475  -0.000012
    25  H    0.000000  -0.000000  -0.000000  -0.000014  -0.047514   0.365421
    26  H   -0.000000  -0.000000  -0.000000  -0.000000   0.003690  -0.031832
    27  H    0.000000   0.000000  -0.000000  -0.000000   0.000007  -0.000171
    28  H    0.000000   0.000000   0.000000  -0.000000   0.000001  -0.000017
    29  H   -0.000000   0.000000  -0.000000  -0.000000   0.003943   0.000694
    30  H    0.000000   0.000000  -0.000000   0.000000  -0.047939   0.005665
              13         14         15         16         17         18
     1  O   -0.000110   0.000002   0.000000   0.000696   0.004110   0.002705
     2  C    0.004350   0.000602   0.000001   0.005580  -0.032658  -0.025163
     3  N    0.000233  -0.000013  -0.000000  -0.000093   0.005228   0.339185
     4  C    0.000002   0.000000   0.000000   0.000001  -0.000112  -0.023635
     5  C   -0.000001  -0.000000  -0.000000   0.000000   0.000003  -0.006629
     6  C    0.000000   0.000000  -0.000000   0.000000  -0.000000   0.000027
     7  C    0.000000  -0.000000   0.000000   0.000000   0.000000  -0.000016
     8  N    0.000000  -0.000000   0.000000  -0.000000   0.000000  -0.000000
     9  C    0.000000   0.000000  -0.000000  -0.000000  -0.000000  -0.000039
    10  C    0.000000   0.000000   0.000000  -0.000000  -0.000003   0.004776
    11  C   -0.036195  -0.028639   0.000489  -0.038401   0.507878   0.001105
    12  C    0.507206  -0.025464   0.004768  -0.042970  -0.043183   0.006017
    13  C    4.949567   0.535911  -0.070783  -0.047888  -0.040458  -0.000158
    14  C    0.535911   4.567902   0.305187   0.527952  -0.024718   0.000009
    15  N   -0.070783   0.305187   6.817721  -0.070324   0.004331   0.000000
    16  C   -0.047888   0.527952  -0.070324   4.964919   0.507349  -0.000048
    17  C   -0.040458  -0.024718   0.004331   0.507349   4.884611  -0.000299
    18  H   -0.000158   0.000009   0.000000  -0.000048  -0.000299   0.405810
    19  H   -0.000000   0.000000  -0.000000  -0.000000   0.000000   0.006072
    20  H   -0.000000  -0.000000  -0.000000  -0.000000   0.000000  -0.000012
    21  H    0.000000  -0.000000   0.000000   0.000000   0.000000  -0.000000
    22  H    0.000000  -0.000000   0.000000  -0.000000   0.000000   0.000000
    23  H   -0.000000   0.000000   0.000000  -0.000000  -0.000000   0.000003
    24  H    0.000000   0.000000  -0.000000  -0.000000  -0.000006  -0.000142
    25  H   -0.029410   0.003505  -0.000109   0.000618   0.005123   0.001849
    26  H    0.364674  -0.042681  -0.007239   0.005017   0.000773   0.000000
    27  H    0.005420  -0.024434   0.343906  -0.008929  -0.000073   0.000000
    28  H   -0.008920  -0.024294   0.344028   0.005425  -0.000175   0.000000
    29  H    0.005065  -0.043253  -0.007266   0.366157  -0.033058   0.000000
    30  H    0.000514   0.003882  -0.000106  -0.036209   0.368144  -0.000035
              19         20         21         22         23         24
     1  O    0.000003  -0.000000  -0.000000   0.000000  -0.000004   0.022937
     2  C    0.000157   0.000001  -0.000000  -0.000000   0.000002   0.003290
     3  N   -0.009119  -0.000104  -0.000000  -0.000000  -0.000108  -0.012306
     4  C   -0.043280   0.003834   0.000002  -0.000000   0.003672  -0.032780
     5  C    0.362495  -0.033371  -0.000053  -0.000191   0.000711   0.005619
     6  C   -0.031190   0.365015  -0.009469   0.005519   0.005338   0.000343
     7  C    0.003884  -0.041924  -0.025099  -0.025365  -0.043079   0.004166
     8  N   -0.000112  -0.007278   0.343588   0.343834  -0.007254  -0.000102
     9  C    0.000603   0.005325   0.005547  -0.009414   0.364971  -0.037295
    10  C    0.005392   0.000601  -0.000182  -0.000050  -0.032545   0.355107
    11  C    0.000013  -0.000000  -0.000000  -0.000000  -0.000000   0.000475
    12  C   -0.000025   0.000000   0.000000   0.000000  -0.000000  -0.000012
    13  C   -0.000000  -0.000000   0.000000   0.000000  -0.000000   0.000000
    14  C    0.000000  -0.000000  -0.000000  -0.000000   0.000000   0.000000
    15  N   -0.000000  -0.000000   0.000000   0.000000   0.000000  -0.000000
    16  C   -0.000000  -0.000000   0.000000  -0.000000  -0.000000  -0.000000
    17  C    0.000000   0.000000   0.000000   0.000000  -0.000000  -0.000006
    18  H    0.006072  -0.000012  -0.000000   0.000000   0.000003  -0.000142
    19  H    0.605593  -0.006375  -0.000007   0.000003   0.000014  -0.000152
    20  H   -0.006375   0.611976   0.004504  -0.000066  -0.000190   0.000011
    21  H   -0.000007   0.004504   0.433856  -0.028410  -0.000060   0.000003
    22  H    0.000003  -0.000066  -0.028410   0.433619   0.004581  -0.000008
    23  H    0.000014  -0.000190  -0.000060   0.004581   0.613882  -0.006705
    24  H   -0.000152   0.000011   0.000003  -0.000008  -0.006705   0.583729
    25  H    0.000021   0.000000   0.000000   0.000000   0.000000  -0.000002
    26  H   -0.000000   0.000000   0.000000  -0.000000   0.000000  -0.000000
    27  H   -0.000000   0.000000   0.000000   0.000000  -0.000000  -0.000000
    28  H   -0.000000   0.000000   0.000000   0.000000  -0.000000  -0.000000
    29  H    0.000000   0.000000   0.000000   0.000000   0.000000  -0.000000
    30  H   -0.000000   0.000000   0.000000   0.000000   0.000000  -0.000006
              25         26         27         28         29         30
     1  O   -0.000024   0.000001   0.000000   0.000000   0.000000   0.011315
     2  C   -0.007378  -0.000163  -0.000000  -0.000000  -0.000152  -0.007526
     3  N    0.005295   0.000005  -0.000000   0.000000   0.000001   0.000492
     4  C   -0.000092  -0.000000   0.000000   0.000000  -0.000000   0.000002
     5  C   -0.000012   0.000000  -0.000000  -0.000000   0.000000   0.000000
     6  C   -0.000001   0.000000  -0.000000  -0.000000  -0.000000  -0.000000
     7  C    0.000000  -0.000000   0.000000   0.000000  -0.000000   0.000000
     8  N   -0.000000  -0.000000   0.000000   0.000000   0.000000   0.000000
     9  C   -0.000000  -0.000000  -0.000000   0.000000  -0.000000  -0.000000
    10  C   -0.000014  -0.000000  -0.000000  -0.000000  -0.000000   0.000000
    11  C   -0.047514   0.003690   0.000007   0.000001   0.003943  -0.047939
    12  C    0.365421  -0.031832  -0.000171  -0.000017   0.000694   0.005665
    13  C   -0.029410   0.364674   0.005420  -0.008920   0.005065   0.000514
    14  C    0.003505  -0.042681  -0.024434  -0.024294  -0.043253   0.003882
    15  N   -0.000109  -0.007239   0.343906   0.344028  -0.007266  -0.000106
    16  C    0.000618   0.005017  -0.008929   0.005425   0.366157  -0.036209
    17  C    0.005123   0.000773  -0.000073  -0.000175  -0.033058   0.368144
    18  H    0.001849   0.000000   0.000000   0.000000   0.000000  -0.000035
    19  H    0.000021  -0.000000  -0.000000  -0.000000   0.000000  -0.000000
    20  H    0.000000   0.000000   0.000000   0.000000   0.000000   0.000000
    21  H    0.000000   0.000000   0.000000   0.000000   0.000000   0.000000
    22  H    0.000000  -0.000000   0.000000   0.000000   0.000000   0.000000
    23  H    0.000000   0.000000  -0.000000  -0.000000   0.000000   0.000000
    24  H   -0.000002  -0.000000  -0.000000  -0.000000  -0.000000  -0.000006
    25  H    0.597624  -0.005678   0.000003  -0.000006   0.000016  -0.000151
    26  H   -0.005678   0.607096  -0.000039   0.004456  -0.000176   0.000017
    27  H    0.000003  -0.000039   0.425685  -0.027978   0.004560  -0.000005
    28  H   -0.000006   0.004456  -0.027978   0.425461  -0.000043   0.000003
    29  H    0.000016  -0.000176   0.004560  -0.000043   0.607090  -0.005812
    30  H   -0.000151   0.000017  -0.000005   0.000003  -0.005812   0.601688
 Mulliken charges:
               1
     1  O   -0.557636
     2  C    0.544814
     3  N   -0.642896
     4  C    0.300560
     5  C   -0.157494
     6  C   -0.136452
     7  C    0.257695
     8  N   -0.673254
     9  C   -0.150325
    10  C   -0.118824
    11  C    0.014459
    12  C   -0.134316
    13  C   -0.139019
    14  C    0.268544
    15  N   -0.664605
    16  C   -0.138853
    17  C   -0.112809
    18  H    0.288616
    19  H    0.106009
    20  H    0.098052
    21  H    0.275779
    22  H    0.275947
    23  H    0.096772
    24  H    0.113834
    25  H    0.110916
    26  H    0.102078
    27  H    0.282048
    28  H    0.282057
    29  H    0.102234
    30  H    0.106068
 Sum of Mulliken charges =  -0.00000
 Mulliken charges with hydrogens summed into heavy atoms:
               1
     1  O   -0.557636
     2  C    0.544814
     3  N   -0.354280
     4  C    0.300560
     5  C   -0.051485
     6  C   -0.038400
     7  C    0.257695
     8  N   -0.121527
     9  C   -0.053553
    10  C   -0.004990
    11  C    0.014459
    12  C   -0.023401
    13  C   -0.036941
    14  C    0.268544
    15  N   -0.100500
    16  C   -0.036619
    17  C   -0.006741
 APT charges:
               1
     1  O   -0.116360
     2  C   -0.157740
     3  N   -0.645025
     4  C   -0.503193
     5  C   -0.679264
     6  C   -0.349643
     7  C    0.384009
     8  N   -1.554164
     9  C   -0.369136
    10  C   -0.564674
    11  C   -0.580057
    12  C   -0.627188
    13  C   -0.398818
    14  C    0.323476
    15  N   -1.441351
    16  C   -0.367074
    17  C   -0.556656
    18  H    0.458449
    19  H    0.321700
    20  H    0.756834
    21  H    0.958140
    22  H    0.883760
    23  H    0.689233
    24  H    0.277480
    25  H    0.213927
    26  H    0.634645
    27  H    1.004543
    28  H    0.808153
    29  H    0.815149
    30  H    0.380846
 Sum of APT charges =  -0.00000
 APT charges with hydrogens summed into heavy atoms:
               1
     1  O   -0.116360
     2  C   -0.157740
     3  N   -0.186576
     4  C   -0.503193
     5  C   -0.357564
     6  C    0.407190
     7  C    0.384009
     8  N    0.287736
     9  C    0.320097
    10  C   -0.287194
    11  C   -0.580057
    12  C   -0.413261
    13  C    0.235827
    14  C    0.323476
    15  N    0.371345
    16  C    0.448075
    17  C   -0.175810
 Electronic spatial extent (au):  <R**2>=           6476.0554
 Charge=             -0.0000 electrons
 Dipole moment (field-independent basis, Debye):
    X=             -1.3327    Y=             -5.1438    Z=             -3.0759  Tot=              6.1397
 Quadrupole moment (field-independent basis, Debye-Ang):
   XX=            -49.4551   YY=            -92.1605   ZZ=           -101.4815
   XY=              8.4798   XZ=              0.8969   YZ=             -0.4233
 Traceless Quadrupole moment (field-independent basis, Debye-Ang):
   XX=             31.5773   YY=            -11.1281   ZZ=            -20.4492
   XY=              8.4798   XZ=              0.8969   YZ=             -0.4233
 Octapole moment (field-independent basis, Debye-Ang**2):
  XXX=            -14.0482  YYY=            -25.6153  ZZZ=             -1.0104  XYY=             -4.1594
  XXY=            -27.1519  XXZ=           -109.8195  XZZ=             -7.2092  YZZ=              1.1716
  YYZ=             -4.3972  XYZ=             21.8789
 Hexadecapole moment (field-independent basis, Debye-Ang**3):
 XXXX=          -5215.0519 YYYY=           -706.0564 ZZZZ=           -182.8813 XXXY=            326.7284
 XXXZ=             38.0109 YYYX=             38.6620 YYYZ=             -3.9081 ZZZX=              2.9259
 ZZZY=              0.3466 XXYY=          -1148.2593 XXZZ=          -1381.1210 YYZZ=           -147.6919
 XXYZ=             35.3840 YYXZ=             -7.8115 ZZXY=              3.1579
 N-N= 1.067617087907D+03 E-N=-3.862545926460D+03  KE= 7.357543719534D+02
  Exact polarizability:   0.000   0.000   0.000   0.000   0.000   0.000
 Approx polarizability: 398.787   6.236 277.611  11.244  -3.784 112.771
 D2PCM: PCM CHGder 2nd derivatives, FixD1E=F FixD2E=F DoIter=F DoCFld=F I1PDM=0
 Calling FoFJK, ICntrl=    100147 FMM=F ISym2X=0 I1Cent= 0 IOpClX= 0 NMat=1 NMatS=1 NMatT=0.
 ***** Axes restored to original set *****
 -------------------------------------------------------------------
 Center     Atomic                   Forces (Hartrees/Bohr)
 Number     Number              X              Y              Z
 -------------------------------------------------------------------
      1        8          -0.021553848   -0.001474044   -0.003260444
      2        6           0.020977749    0.007043597   -0.000868217
      3        7          -0.005609952   -0.014886529    0.001895319
      4        6           0.006596669    0.003122850    0.000101452
      5        6          -0.010225903    0.008821480   -0.002334194
      6        6           0.016714398   -0.000710538   -0.002721961
      7        6          -0.011108374    0.005600438    0.012420955
      8        7          -0.001960040    0.000181779   -0.003562496
      9        6           0.009746676   -0.009866199   -0.002138922
     10        6          -0.016606674   -0.005717734    0.001075323
     11        6          -0.004215481    0.009670165    0.000302611
     12        6           0.014295484   -0.004327080    0.000460218
     13        6          -0.009311279    0.013693041    0.001647146
     14        6           0.009098153   -0.009986352    0.015060576
     15        7          -0.001604577    0.003247763   -0.005543734
     16        6          -0.014513600   -0.003534499   -0.011485211
     17        6           0.011464134   -0.005293920    0.002284097
     18        1          -0.000092723   -0.002298685    0.000699364
     19        1           0.001392630   -0.001463659    0.000373270
     20        1          -0.000415443   -0.000078861   -0.000992373
     21        1          -0.002686509   -0.002638771   -0.000304027
     22        1           0.001180149    0.004077587   -0.000882286
     23        1          -0.000216475    0.000727658   -0.001160104
     24        1           0.004705179    0.003148530   -0.000929567
     25        1          -0.000318139   -0.000136080   -0.001170417
     26        1           0.000984132   -0.000565904   -0.000967740
     27        1           0.000988190    0.002704218    0.002377910
     28        1           0.000097378   -0.002915822   -0.001498995
     29        1           0.001758170    0.001162262   -0.000477456
     30        1           0.000439925    0.002693308    0.001599905
 -------------------------------------------------------------------
 Cartesian Forces:  Max     0.021553848 RMS     0.006905454
 FormGI is forming the generalized inverse of G from B-inverse, IUseBI=4.

 GradGradGradGradGradGradGradGradGradGradGradGradGradGradGradGradGradGrad
 Berny optimization.
 Internal  Forces:  Max     0.017859542 RMS     0.003812121
 Search for a local minimum.
 Step number   1 out of a maximum of  157
 All quantities printed in internal units (Hartrees-Bohrs-Radians)
 Mixed Optimization -- RFO/linear search
 Second derivative matrix not updated -- analytic derivatives used.
 ITU=  0
     Eigenvalues ---    0.00253   0.00482   0.00577   0.00613   0.00701
     Eigenvalues ---    0.01397   0.01550   0.01615   0.01651   0.01736
     Eigenvalues ---    0.01761   0.01783   0.01830   0.01888   0.02045
     Eigenvalues ---    0.02142   0.02219   0.02320   0.02343   0.02377
     Eigenvalues ---    0.02667   0.02720   0.02753   0.02810   0.02833
     Eigenvalues ---    0.02942   0.05178   0.11118   0.11167   0.11462
     Eigenvalues ---    0.11566   0.11820   0.11909   0.12481   0.12670
     Eigenvalues ---    0.13020   0.13387   0.13597   0.15113   0.15464
     Eigenvalues ---    0.17387   0.17950   0.18644   0.19177   0.19375
     Eigenvalues ---    0.19532   0.19811   0.20385   0.21730   0.21827
     Eigenvalues ---    0.22533   0.26122   0.30079   0.31829   0.32955
     Eigenvalues ---    0.35000   0.35363   0.35590   0.35762   0.35811
     Eigenvalues ---    0.35940   0.35952   0.36196   0.36430   0.37725
     Eigenvalues ---    0.39896   0.40886   0.41164   0.41442   0.44630
     Eigenvalues ---    0.45099   0.45570   0.45586   0.46000   0.46018
     Eigenvalues ---    0.46537   0.46814   0.47169   0.47743   0.48381
     Eigenvalues ---    0.51184   0.51517   0.54240   0.81973
 RFO step:  Lambda=-9.16142754D-03 EMin= 2.53123979D-03
 Linear search not attempted -- first point.
 Iteration  1 RMS(Cart)=  0.06574067 RMS(Int)=  0.00169766
 Iteration  2 RMS(Cart)=  0.00284312 RMS(Int)=  0.00033289
 Iteration  3 RMS(Cart)=  0.00000507 RMS(Int)=  0.00033288
 Iteration  4 RMS(Cart)=  0.00000000 RMS(Int)=  0.00033288
 Variable       Old X    -DE/DX   Delta X   Delta X   Delta X     New X
                                 (Linear)    (Quad)   (Total)
    R1        2.31475   0.01547   0.00000   0.02111   0.02111   2.33585
    R2        2.61451  -0.01018   0.00000  -0.02221  -0.02221   2.59230
    R3        2.81766   0.00780   0.00000   0.00477   0.00477   2.82243
    R4        2.66516   0.00496   0.00000   0.00771   0.00771   2.67287
    R5        1.91060  -0.00151   0.00000  -0.00194  -0.00194   1.90866
    R6        2.64397   0.00450   0.00000   0.00880   0.00873   2.65270
    R7        2.63362   0.00684   0.00000   0.01735   0.01728   2.65090
    R8        2.64534  -0.00669   0.00000  -0.01844  -0.01845   2.62689
    R9        2.05284   0.00040   0.00000   0.00185   0.00185   2.05469
   R10        2.63507   0.00995   0.00000   0.02097   0.02104   2.65611
   R11        2.05329   0.00002   0.00000   0.00028   0.00028   2.05357
   R12        2.64322   0.00405   0.00000   0.00079   0.00079   2.64401
   R13        2.63609   0.00876   0.00000   0.01739   0.01747   2.65356
   R14        1.91769  -0.00231   0.00000  -0.00431  -0.00431   1.91337
   R15        1.91895  -0.00291   0.00000  -0.00558  -0.00558   1.91337
   R16        2.64789  -0.00443   0.00000  -0.01427  -0.01426   2.63363
   R17        2.05391  -0.00025   0.00000   0.00036   0.00036   2.05428
   R18        2.05108  -0.00345   0.00000  -0.00969  -0.00969   2.04139
   R19        2.64441   0.00522   0.00000   0.01041   0.01036   2.65477
   R20        2.64213   0.00372   0.00000   0.01126   0.01119   2.65332
   R21        2.64444  -0.00612   0.00000  -0.01872  -0.01869   2.62575
   R22        2.05291  -0.00054   0.00000   0.00031   0.00031   2.05322
   R23        2.64143   0.00798   0.00000   0.02053   0.02060   2.66203
   R24        2.05465  -0.00035   0.00000  -0.00154  -0.00154   2.05311
   R25        2.64193  -0.00240   0.00000  -0.02353  -0.02353   2.61841
   R26        2.64024   0.00976   0.00000   0.02413   0.02418   2.66442
   R27        1.91880  -0.00288   0.00000  -0.00743  -0.00743   1.91137
   R28        1.91788  -0.00249   0.00000  -0.00659  -0.00659   1.91130
   R29        2.64238  -0.00695   0.00000  -0.02163  -0.02165   2.62073
   R30        2.05426  -0.00021   0.00000  -0.00084  -0.00084   2.05342
   R31        2.05643  -0.00275   0.00000  -0.00600  -0.00600   2.05042
    A1        2.21508  -0.01773   0.00000  -0.06155  -0.06162   2.15346
    A2        2.06495   0.01786   0.00000   0.05430   0.05425   2.11920
    A3        2.00254  -0.00009   0.00000   0.00792   0.00786   2.01040
    A4        2.22157   0.00546   0.00000   0.03097   0.03096   2.25253
    A5        2.04154  -0.00443   0.00000  -0.01690  -0.01691   2.02463
    A6        2.01694  -0.00100   0.00000  -0.01362  -0.01362   2.00332
    A7        2.04732   0.00166   0.00000   0.00349   0.00357   2.05090
    A8        2.16544  -0.00103   0.00000   0.00026   0.00034   2.16578
    A9        2.07015  -0.00062   0.00000  -0.00350  -0.00372   2.06643
   A10        2.10633   0.00214   0.00000   0.00836   0.00822   2.11455
   A11        2.11066  -0.00313   0.00000  -0.02068  -0.02063   2.09003
   A12        2.06615   0.00099   0.00000   0.01240   0.01245   2.07860
   A13        2.10674   0.00064   0.00000   0.00187   0.00189   2.10863
   A14        2.07894   0.00020   0.00000   0.00578   0.00576   2.08470
   A15        2.09751  -0.00085   0.00000  -0.00764  -0.00765   2.08986
   A16        2.10104   0.00172   0.00000   0.01111   0.00979   2.11083
   A17        2.06568  -0.00353   0.00000  -0.00925  -0.01047   2.05521
   A18        2.10131   0.00237   0.00000   0.01342   0.01209   2.11340
   A19        1.98827   0.00183   0.00000   0.00713   0.00713   1.99540
   A20        1.98336   0.00227   0.00000   0.01039   0.01040   1.99376
   A21        1.95959  -0.00355   0.00000  -0.02797  -0.02796   1.93164
   A22        2.11184   0.00214   0.00000   0.01098   0.01103   2.12287
   A23        2.10024  -0.00202   0.00000  -0.01645  -0.01647   2.08377
   A24        2.07110  -0.00011   0.00000   0.00546   0.00544   2.07655
   A25        2.10216  -0.00061   0.00000  -0.00361  -0.00379   2.09837
   A26        2.12452  -0.00432   0.00000  -0.03724  -0.03725   2.08727
   A27        2.05633   0.00494   0.00000   0.04123   0.04122   2.09755
   A28        2.12672   0.00498   0.00000   0.03123   0.03130   2.15802
   A29        2.07123  -0.00046   0.00000  -0.00738  -0.00732   2.06391
   A30        2.08453  -0.00451   0.00000  -0.02363  -0.02378   2.06075
   A31        2.09285   0.00459   0.00000   0.02065   0.02059   2.11344
   A32        2.11509  -0.00306   0.00000  -0.01306  -0.01306   2.10203
   A33        2.07421  -0.00152   0.00000  -0.00718  -0.00717   2.06704
   A34        2.10961  -0.00133   0.00000  -0.00380  -0.00371   2.10590
   A35        2.07860   0.00197   0.00000   0.01267   0.01263   2.09123
   A36        2.09489  -0.00063   0.00000  -0.00885  -0.00889   2.08600
   A37        2.09788   0.00146   0.00000   0.01178   0.01030   2.10818
   A38        2.07103  -0.00217   0.00000  -0.00556  -0.00691   2.06413
   A39        2.09827   0.00132   0.00000   0.01034   0.00886   2.10713
   A40        1.99193   0.00204   0.00000   0.02622   0.02567   2.01760
   A41        1.99577   0.00164   0.00000   0.02411   0.02355   2.01932
   A42        1.96139  -0.00269   0.00000  -0.00591  -0.00669   1.95470
   A43        2.10740  -0.00035   0.00000  -0.00250  -0.00247   2.10492
   A44        2.09990  -0.00150   0.00000  -0.01500  -0.01501   2.08489
   A45        2.07588   0.00185   0.00000   0.01750   0.01749   2.09337
   A46        2.09673   0.00393   0.00000   0.01985   0.01971   2.11644
   A47        2.09759  -0.00355   0.00000  -0.02509  -0.02507   2.07252
   A48        2.08879  -0.00037   0.00000   0.00542   0.00544   2.09423
    D1        0.07944  -0.00115   0.00000  -0.01790  -0.01753   0.06191
    D2       -2.97278  -0.00136   0.00000  -0.02331  -0.02293  -2.99571
    D3       -3.10101   0.00064   0.00000   0.00442   0.00404  -3.09698
    D4        0.12995   0.00043   0.00000  -0.00099  -0.00136   0.12859
    D5       -2.53893  -0.00083   0.00000  -0.08371  -0.08336  -2.62229
    D6        0.56180  -0.00067   0.00000  -0.07802  -0.07760   0.48419
    D7        0.63796  -0.00165   0.00000  -0.10131  -0.10173   0.53623
    D8       -2.54450  -0.00149   0.00000  -0.09562  -0.09597  -2.64048
    D9       -3.06316   0.00021   0.00000  -0.00091  -0.00092  -3.06408
   D10        0.10385  -0.00028   0.00000  -0.01277  -0.01278   0.09107
   D11       -0.00985   0.00026   0.00000   0.00424   0.00425  -0.00561
   D12       -3.12603  -0.00024   0.00000  -0.00762  -0.00762  -3.13364
   D13       -3.13875  -0.00001   0.00000   0.00353   0.00366  -3.13509
   D14       -0.00799   0.00021   0.00000   0.01138   0.01142   0.00343
   D15       -0.02114   0.00045   0.00000   0.01477   0.01488  -0.00626
   D16        3.10962   0.00066   0.00000   0.02262   0.02264   3.13226
   D17        3.13528   0.00015   0.00000  -0.00110  -0.00127   3.13401
   D18        0.01475  -0.00057   0.00000  -0.02364  -0.02332  -0.00857
   D19        0.01942  -0.00038   0.00000  -0.01320  -0.01333   0.00609
   D20       -3.10112  -0.00110   0.00000  -0.03574  -0.03538  -3.13649
   D21       -0.03223   0.00066   0.00000   0.02197   0.02205  -0.01018
   D22        3.10970   0.00070   0.00000   0.02146   0.02155   3.13125
   D23        3.11993   0.00047   0.00000   0.01451   0.01454   3.13446
   D24       -0.02133   0.00051   0.00000   0.01400   0.01404  -0.00729
   D25        3.04175   0.00165   0.00000   0.03407   0.03394   3.07568
   D26        0.08562  -0.00205   0.00000  -0.05988  -0.05961   0.02602
   D27       -0.10018   0.00161   0.00000   0.03458   0.03444  -0.06575
   D28       -3.05631  -0.00209   0.00000  -0.05937  -0.05910  -3.11542
   D29        0.53993  -0.00099   0.00000  -0.03619  -0.03659   0.50334
   D30        2.81411  -0.00223   0.00000  -0.06005  -0.06046   2.75366
   D31       -2.79093   0.00216   0.00000   0.05726   0.05767  -2.73325
   D32       -0.51675   0.00092   0.00000   0.03341   0.03381  -0.48294
   D33       -0.08757   0.00208   0.00000   0.06128   0.06122  -0.02635
   D34        3.05545   0.00215   0.00000   0.06202   0.06197   3.11742
   D35       -3.04367  -0.00156   0.00000  -0.03243  -0.03221  -3.07588
   D36        0.09935  -0.00148   0.00000  -0.03169  -0.03146   0.06789
   D37        0.03573  -0.00078   0.00000  -0.02504  -0.02517   0.01056
   D38       -3.12611  -0.00019   0.00000  -0.00427  -0.00392  -3.13003
   D39       -3.10726  -0.00085   0.00000  -0.02579  -0.02593  -3.13320
   D40        0.01408  -0.00027   0.00000  -0.00502  -0.00468   0.00939
   D41        3.13909  -0.00051   0.00000  -0.00976  -0.00981   3.12928
   D42        0.04702  -0.00080   0.00000  -0.01941  -0.01941   0.02761
   D43        0.03867  -0.00076   0.00000  -0.01588  -0.01593   0.02274
   D44       -3.05340  -0.00105   0.00000  -0.02553  -0.02553  -3.07893
   D45       -3.14041   0.00004   0.00000   0.00163   0.00171  -3.13870
   D46       -0.01242   0.00055   0.00000   0.01675   0.01669   0.00428
   D47       -0.03867   0.00042   0.00000   0.00849   0.00844  -0.03024
   D48        3.08932   0.00093   0.00000   0.02361   0.02343   3.11274
   D49        0.02649  -0.00034   0.00000  -0.01635  -0.01633   0.01016
   D50       -3.10152  -0.00056   0.00000  -0.01843  -0.01843  -3.11995
   D51        3.11972  -0.00010   0.00000  -0.00712  -0.00711   3.11262
   D52       -0.00829  -0.00032   0.00000  -0.00920  -0.00921  -0.01750
   D53       -3.04112  -0.00193   0.00000  -0.04378  -0.04366  -3.08478
   D54       -0.09034   0.00182   0.00000   0.05496   0.05486  -0.03548
   D55        0.08677  -0.00169   0.00000  -0.04151  -0.04140   0.04537
   D56        3.03755   0.00207   0.00000   0.05723   0.05712   3.09467
   D57       -2.82186   0.00193   0.00000   0.03128   0.03137  -2.79049
   D58       -0.52940   0.00162   0.00000   0.07265   0.07324  -0.45616
   D59        0.51354  -0.00150   0.00000  -0.06728  -0.06786   0.44568
   D60        2.80600  -0.00182   0.00000  -0.02590  -0.02600   2.78000
   D61        0.09030  -0.00213   0.00000  -0.06236  -0.06222   0.02808
   D62       -3.04688  -0.00223   0.00000  -0.06429  -0.06417  -3.11104
   D63        3.04104   0.00164   0.00000   0.03657   0.03640   3.07744
   D64       -0.09614   0.00154   0.00000   0.03464   0.03446  -0.06168
   D65       -0.02656   0.00106   0.00000   0.03139   0.03138   0.00482
   D66        3.12856   0.00058   0.00000   0.01659   0.01645  -3.13818
   D67        3.11068   0.00116   0.00000   0.03322   0.03325  -3.13925
   D68       -0.01738   0.00067   0.00000   0.01841   0.01832   0.00094
         Item               Value     Threshold  Converged?
 Maximum Force            0.017860     0.000450     NO 
 RMS     Force            0.003812     0.000300     NO 
 Maximum Displacement     0.248709     0.001800     NO 
 RMS     Displacement     0.065976     0.001200     NO 
 Predicted change in Energy=-5.177786D-03
 GradGradGradGradGradGradGradGradGradGradGradGradGradGradGradGradGradGrad

                          Input orientation:                          
 ---------------------------------------------------------------------
 Center     Atomic      Atomic             Coordinates (Angstroms)
 Number     Number       Type             X           Y           Z
 ---------------------------------------------------------------------
      1          8           0       -0.852886   -1.912997   -0.035254
      2          6           0       -0.015838   -1.016194    0.116359
      3          7           0       -0.317802    0.319551    0.036380
      4          6           0       -1.575148    0.939355   -0.152057
      5          6           0       -1.594966    2.335873   -0.292935
      6          6           0       -2.789406    3.023549   -0.473969
      7          6           0       -4.014041    2.336300   -0.533387
      8          7           0       -5.224338    3.030630   -0.636853
      9          6           0       -3.989726    0.941621   -0.371949
     10          6           0       -2.794903    0.247574   -0.190365
     11          6           0        1.420567   -1.328419    0.380909
     12          6           0        2.273466   -0.496891    1.125697
     13          6           0        3.599062   -0.846728    1.351702
     14          6           0        4.125722   -2.043233    0.826914
     15          7           0        5.427265   -2.427848    1.106104
     16          6           0        3.262144   -2.893309    0.106105
     17          6           0        1.938263   -2.539144   -0.106500
     18          1           0        0.468946    0.952829    0.047552
     19          1           0       -0.663089    2.894965   -0.257832
     20          1           0       -2.773391    4.105853   -0.570317
     21          1           0       -5.153612    3.924321   -1.107489
     22          1           0       -5.985596    2.484032   -1.020123
     23          1           0       -4.923918    0.386036   -0.390523
     24          1           0       -2.802500   -0.826916   -0.079148
     25          1           0        1.897507    0.420442    1.570299
     26          1           0        4.234949   -0.197985    1.947662
     27          1           0        5.831395   -3.099049    0.466411
     28          1           0        6.069435   -1.677209    1.323165
     29          1           0        3.640875   -3.834677   -0.282659
[...]
    41    N    3  dxy    Ryd( 3d)     0.00060
    42    N    3  dxz    Ryd( 3d)     0.00069
    43    N    3  dyz    Ryd( 3d)     0.00031
    44    N    3  dx2y2  Ryd( 3d)     0.00058
    45    N    3  dz2    Ryd( 3d)     0.00048

    46    C    4  S      Cor( 1S)     1.99896
    47    C    4  S      Val( 2S)     0.84816
    48    C    4  S      Ryd( 3S)     0.00085
    49    C    4  S      Ryd( 4S)     0.00009
    50    C    4  px     Val( 2p)     0.89170
    51    C    4  px     Ryd( 3p)     0.00524
    52    C    4  py     Val( 2p)     1.08887
    53    C    4  py     Ryd( 3p)     0.00697
    54    C    4  pz     Val( 2p)     0.93539
    55    C    4  pz     Ryd( 3p)     0.00154
    56    C    4  dxy    Ryd( 3d)     0.00086
    57    C    4  dxz    Ryd( 3d)     0.00161
    58    C    4  dyz    Ryd( 3d)     0.00059
    59    C    4  dx2y2  Ryd( 3d)     0.00114
    60    C    4  dz2    Ryd( 3d)     0.00041

    61    C    5  S      Cor( 1S)     1.99908
    62    C    5  S      Val( 2S)     0.96160
    63    C    5  S      Ryd( 3S)     0.00068
    64    C    5  S      Ryd( 4S)     0.00004
    65    C    5  px     Val( 2p)     1.10041
    66    C    5  px     Ryd( 3p)     0.00434
    67    C    5  py     Val( 2p)     1.15501
    68    C    5  py     Ryd( 3p)     0.00456
    69    C    5  pz     Val( 2p)     1.01366
    70    C    5  pz     Ryd( 3p)     0.00108
    71    C    5  dxy    Ryd( 3d)     0.00074
    72    C    5  dxz    Ryd( 3d)     0.00055
    73    C    5  dyz    Ryd( 3d)     0.00039
    74    C    5  dx2y2  Ryd( 3d)     0.00053
    75    C    5  dz2    Ryd( 3d)     0.00038

    76    C    6  S      Cor( 1S)     1.99906
    77    C    6  S      Val( 2S)     0.96453
    78    C    6  S      Ryd( 3S)     0.00067
    79    C    6  S      Ryd( 4S)     0.00004
    80    C    6  px     Val( 2p)     1.10026
    81    C    6  px     Ryd( 3p)     0.00449
    82    C    6  py     Val( 2p)     1.15777
    83    C    6  py     Ryd( 3p)     0.00453
    84    C    6  pz     Val( 2p)     1.00022
    85    C    6  pz     Ryd( 3p)     0.00077
    86    C    6  dxy    Ryd( 3d)     0.00075
    87    C    6  dxz    Ryd( 3d)     0.00057
    88    C    6  dyz    Ryd( 3d)     0.00040
    89    C    6  dx2y2  Ryd( 3d)     0.00053
    90    C    6  dz2    Ryd( 3d)     0.00038

    91    C    7  S      Cor( 1S)     1.99896
    92    C    7  S      Val( 2S)     0.85409
    93    C    7  S      Ryd( 3S)     0.00101
    94    C    7  S      Ryd( 4S)     0.00009
    95    C    7  px     Val( 2p)     0.90738
    96    C    7  px     Ryd( 3p)     0.00541
    97    C    7  py     Val( 2p)     1.08715
    98    C    7  py     Ryd( 3p)     0.00406
    99    C    7  pz     Val( 2p)     0.95324
   100    C    7  pz     Ryd( 3p)     0.00168
   101    C    7  dxy    Ryd( 3d)     0.00098
   102    C    7  dxz    Ryd( 3d)     0.00152
   103    C    7  dyz    Ryd( 3d)     0.00059
   104    C    7  dx2y2  Ryd( 3d)     0.00116
   105    C    7  dz2    Ryd( 3d)     0.00043

   106    N    8  S      Cor( 1S)     1.99949
   107    N    8  S      Val( 2S)     1.37580
   108    N    8  S      Ryd( 3S)     0.00011
   109    N    8  S      Ryd( 4S)     0.00001
   110    N    8  px     Val( 2p)     1.31110
   111    N    8  px     Ryd( 3p)     0.00219
   112    N    8  py     Val( 2p)     1.44166
   113    N    8  py     Ryd( 3p)     0.00200
   114    N    8  pz     Val( 2p)     1.61001
   115    N    8  pz     Ryd( 3p)     0.00316
   116    N    8  dxy    Ryd( 3d)     0.00036
   117    N    8  dxz    Ryd( 3d)     0.00092
   118    N    8  dyz    Ryd( 3d)     0.00082
   119    N    8  dx2y2  Ryd( 3d)     0.00051
   120    N    8  dz2    Ryd( 3d)     0.00074

   121    C    9  S      Cor( 1S)     1.99906
   122    C    9  S      Val( 2S)     0.96583
   123    C    9  S      Ryd( 3S)     0.00064
   124    C    9  S      Ryd( 4S)     0.00004
   125    C    9  px     Val( 2p)     1.10311
   126    C    9  px     Ryd( 3p)     0.00440
   127    C    9  py     Val( 2p)     1.15410
   128    C    9  py     Ryd( 3p)     0.00443
   129    C    9  pz     Val( 2p)     0.99890
   130    C    9  pz     Ryd( 3p)     0.00067
   131    C    9  dxy    Ryd( 3d)     0.00076
   132    C    9  dxz    Ryd( 3d)     0.00057
   133    C    9  dyz    Ryd( 3d)     0.00039
   134    C    9  dx2y2  Ryd( 3d)     0.00053
   135    C    9  dz2    Ryd( 3d)     0.00038

   136    C   10  S      Cor( 1S)     1.99907
   137    C   10  S      Val( 2S)     0.96598
   138    C   10  S      Ryd( 3S)     0.00073
   139    C   10  S      Ryd( 4S)     0.00004
   140    C   10  px     Val( 2p)     1.09374
   141    C   10  px     Ryd( 3p)     0.00464
   142    C   10  py     Val( 2p)     1.17612
   143    C   10  py     Ryd( 3p)     0.00487
   144    C   10  pz     Val( 2p)     1.00247
   145    C   10  pz     Ryd( 3p)     0.00140
   146    C   10  dxy    Ryd( 3d)     0.00072
   147    C   10  dxz    Ryd( 3d)     0.00051
   148    C   10  dyz    Ryd( 3d)     0.00041
   149    C   10  dx2y2  Ryd( 3d)     0.00055
   150    C   10  dz2    Ryd( 3d)     0.00036

   151    C   11  S      Cor( 1S)     1.99894
   152    C   11  S      Val( 2S)     0.89242
   153    C   11  S      Ryd( 3S)     0.00107
   154    C   11  S      Ryd( 4S)     0.00005
   155    C   11  px     Val( 2p)     1.08822
   156    C   11  px     Ryd( 3p)     0.00519
   157    C   11  py     Val( 2p)     1.09259
   158    C   11  py     Ryd( 3p)     0.00543
   159    C   11  pz     Val( 2p)     1.12455
   160    C   11  pz     Ryd( 3p)     0.00248
   161    C   11  dxy    Ryd( 3d)     0.00060
   162    C   11  dxz    Ryd( 3d)     0.00081
   163    C   11  dyz    Ryd( 3d)     0.00047
   164    C   11  dx2y2  Ryd( 3d)     0.00072
   165    C   11  dz2    Ryd( 3d)     0.00036

   166    C   12  S      Cor( 1S)     1.99908
   167    C   12  S      Val( 2S)     0.94021
   168    C   12  S      Ryd( 3S)     0.00060
   169    C   12  S      Ryd( 4S)     0.00004
   170    C   12  px     Val( 2p)     1.12505
   171    C   12  px     Ryd( 3p)     0.00372
   172    C   12  py     Val( 2p)     1.12601
   173    C   12  py     Ryd( 3p)     0.00450
   174    C   12  pz     Val( 2p)     1.07985
   175    C   12  pz     Ryd( 3p)     0.00245
   176    C   12  dxy    Ryd( 3d)     0.00071
   177    C   12  dxz    Ryd( 3d)     0.00056
   178    C   12  dyz    Ryd( 3d)     0.00048
   179    C   12  dx2y2  Ryd( 3d)     0.00055
   180    C   12  dz2    Ryd( 3d)     0.00034

   181    C   13  S      Cor( 1S)     1.99906
   182    C   13  S      Val( 2S)     0.95112
   183    C   13  S      Ryd( 3S)     0.00071
   184    C   13  S      Ryd( 4S)     0.00004
   185    C   13  px     Val( 2p)     1.07982
   186    C   13  px     Ryd( 3p)     0.00423
   187    C   13  py     Val( 2p)     1.16961
   188    C   13  py     Ryd( 3p)     0.00435
   189    C   13  pz     Val( 2p)     1.07183
   190    C   13  pz     Ryd( 3p)     0.00127
   191    C   13  dxy    Ryd( 3d)     0.00070
   192    C   13  dxz    Ryd( 3d)     0.00072
   193    C   13  dyz    Ryd( 3d)     0.00036
   194    C   13  dx2y2  Ryd( 3d)     0.00055
   195    C   13  dz2    Ryd( 3d)     0.00037

   196    C   14  S      Cor( 1S)     1.99901
   197    C   14  S      Val( 2S)     0.83609
   198    C   14  S      Ryd( 3S)     0.00127
   199    C   14  S      Ryd( 4S)     0.00009
   200    C   14  px     Val( 2p)     0.91177
   201    C   14  px     Ryd( 3p)     0.00602
   202    C   14  py     Val( 2p)     1.07776
   203    C   14  py     Ryd( 3p)     0.00442
   204    C   14  pz     Val( 2p)     1.04736
   205    C   14  pz     Ryd( 3p)     0.00251
   206    C   14  dxy    Ryd( 3d)     0.00089
   207    C   14  dxz    Ryd( 3d)     0.00150
   208    C   14  dyz    Ryd( 3d)     0.00055
   209    C   14  dx2y2  Ryd( 3d)     0.00109
   210    C   14  dz2    Ryd( 3d)     0.00045

   211    N   15  S      Cor( 1S)     1.99950
   212    N   15  S      Val( 2S)     1.34447
   213    N   15  S      Ryd( 3S)     0.00016
   214    N   15  S      Ryd( 4S)     0.00001
   215    N   15  px     Val( 2p)     1.34179
   216    N   15  px     Ryd( 3p)     0.00262
   217    N   15  py     Val( 2p)     1.42138
   218    N   15  py     Ryd( 3p)     0.00207
   219    N   15  pz     Val( 2p)     1.72763
   220    N   15  pz     Ryd( 3p)     0.00445
   221    N   15  dxy    Ryd( 3d)     0.00030
   222    N   15  dxz    Ryd( 3d)     0.00092
   223    N   15  dyz    Ryd( 3d)     0.00052
   224    N   15  dx2y2  Ryd( 3d)     0.00059
   225    N   15  dz2    Ryd( 3d)     0.00071

   226    C   16  S      Cor( 1S)     1.99905
   227    C   16  S      Val( 2S)     0.95265
   228    C   16  S      Ryd( 3S)     0.00062
   229    C   16  S      Ryd( 4S)     0.00004
   230    C   16  px     Val( 2p)     1.13639
   231    C   16  px     Ryd( 3p)     0.00429
   232    C   16  py     Val( 2p)     1.11539
   233    C   16  py     Ryd( 3p)     0.00396
   234    C   16  pz     Val( 2p)     1.07686
   235    C   16  pz     Ryd( 3p)     0.00138
   236    C   16  dxy    Ryd( 3d)     0.00069
   237    C   16  dxz    Ryd( 3d)     0.00055
   238    C   16  dyz    Ryd( 3d)     0.00049
   239    C   16  dx2y2  Ryd( 3d)     0.00058
   240    C   16  dz2    Ryd( 3d)     0.00036

   241    C   17  S      Cor( 1S)     1.99908
   242    C   17  S      Val( 2S)     0.94581
   243    C   17  S      Ryd( 3S)     0.00068
   244    C   17  S      Ryd( 4S)     0.00004
   245    C   17  px     Val( 2p)     1.06947
   246    C   17  px     Ryd( 3p)     0.00472
   247    C   17  py     Val( 2p)     1.18023
   248    C   17  py     Ryd( 3p)     0.00510
   249    C   17  pz     Val( 2p)     1.02494
   250    C   17  pz     Ryd( 3p)     0.00226
   251    C   17  dxy    Ryd( 3d)     0.00066
   252    C   17  dxz    Ryd( 3d)     0.00073
   253    C   17  dyz    Ryd( 3d)     0.00034
   254    C   17  dx2y2  Ryd( 3d)     0.00061
   255    C   17  dz2    Ryd( 3d)     0.00034

   256    H   18  S      Val( 1S)     0.56030
   257    H   18  S      Ryd( 2S)     0.00227
   258    H   18  px     Ryd( 2p)     0.00018
   259    H   18  py     Ryd( 2p)     0.00050
   260    H   18  pz     Ryd( 2p)     0.00042

   261    H   19  S      Val( 1S)     0.73653
   262    H   19  S      Ryd( 2S)     0.00080
   263    H   19  px     Ryd( 2p)     0.00013
   264    H   19  py     Ryd( 2p)     0.00033
   265    H   19  pz     Ryd( 2p)     0.00012

   266    H   20  S      Val( 1S)     0.73421
   267    H   20  S      Ryd( 2S)     0.00070
   268    H   20  px     Ryd( 2p)     0.00014
   269    H   20  py     Ryd( 2p)     0.00033
   270    H   20  pz     Ryd( 2p)     0.00012

   271    H   21  S      Val( 1S)     0.56367
   272    H   21  S      Ryd( 2S)     0.00100
   273    H   21  px     Ryd( 2p)     0.00030
   274    H   21  py     Ryd( 2p)     0.00041
   275    H   21  pz     Ryd( 2p)     0.00053

   276    H   22  S      Val( 1S)     0.56361
   277    H   22  S      Ryd( 2S)     0.00099
   278    H   22  px     Ryd( 2p)     0.00030
   279    H   22  py     Ryd( 2p)     0.00052
   280    H   22  pz     Ryd( 2p)     0.00042

   281    H   23  S      Val( 1S)     0.73650
   282    H   23  S      Ryd( 2S)     0.00071
   283    H   23  px     Ryd( 2p)     0.00013
   284    H   23  py     Ryd( 2p)     0.00033
   285    H   23  pz     Ryd( 2p)     0.00012

   286    H   24  S      Val( 1S)     0.71317
   287    H   24  S      Ryd( 2S)     0.00233
   288    H   24  px     Ryd( 2p)     0.00023
   289    H   24  py     Ryd( 2p)     0.00030
   290    H   24  pz     Ryd( 2p)     0.00010

   291    H   25  S      Val( 1S)     0.77373
   292    H   25  S      Ryd( 2S)     0.00101
   293    H   25  px     Ryd( 2p)     0.00019
   294    H   25  py     Ryd( 2p)     0.00025
   295    H   25  pz     Ryd( 2p)     0.00021

   296    H   26  S      Val( 1S)     0.76455
   297    H   26  S      Ryd( 2S)     0.00098
   298    H   26  px     Ryd( 2p)     0.00009
   299    H   26  py     Ryd( 2p)     0.00037
   300    H   26  pz     Ryd( 2p)     0.00015

   301    H   27  S      Val( 1S)     0.58635
   302    H   27  S      Ryd( 2S)     0.00143
   303    H   27  px     Ryd( 2p)     0.00035
   304    H   27  py     Ryd( 2p)     0.00033
   305    H   27  pz     Ryd( 2p)     0.00056

   306    H   28  S      Val( 1S)     0.58584
   307    H   28  S      Ryd( 2S)     0.00131
   308    H   28  px     Ryd( 2p)     0.00022
   309    H   28  py     Ryd( 2p)     0.00056
   310    H   28  pz     Ryd( 2p)     0.00047

   311    H   29  S      Val( 1S)     0.76515
   312    H   29  S      Ryd( 2S)     0.00097
   313    H   29  px     Ryd( 2p)     0.00021
   314    H   29  py     Ryd( 2p)     0.00024
   315    H   29  pz     Ryd( 2p)     0.00015

   316    H   30  S      Val( 1S)     0.75772
   317    H   30  S      Ryd( 2S)     0.00196
   318    H   30  px     Ryd( 2p)     0.00012
   319    H   30  py     Ryd( 2p)     0.00036
   320    H   30  pz     Ryd( 2p)     0.00014

 WARNING:  1 low occupancy (<1.9990e) core orbital  found on  C    4
           1 low occupancy (<1.9990e) core orbital  found on  C    7
           1 low occupancy (<1.9990e) core orbital  found on  C   11


 Summary of Natural Population Analysis:                  
                                                          
                                       Natural Population 
                Natural  -----------------------------------------------
    Atom  No    Charge         Core      Valence    Rydberg      Total
 -----------------------------------------------------------------------
      O    1   -0.73775      1.99980     6.72143    0.01652     8.73775
      C    2    0.55689      1.99930     3.40327    0.04054     5.44311
      N    3   -0.58891      1.99933     5.58011    0.00947     7.58891
      C    4    0.21761      1.99896     3.76412    0.01931     5.78239
      C    5   -0.24304      1.99908     4.23068    0.01329     6.24304
      C    6   -0.23497      1.99906     4.22279    0.01312     6.23497
      C    7    0.18225      1.99896     3.80186    0.01692     5.81775
      N    8   -0.74889      1.99949     5.73857    0.01082     7.74889
      C    9   -0.23382      1.99906     4.22195    0.01281     6.23382
      C   10   -0.25162      1.99907     4.23831    0.01424     6.25162
      C   11   -0.21392      1.99894     4.19778    0.01720     6.21392
      C   12   -0.28416      1.99908     4.27112    0.01396     6.28416
      C   13   -0.28474      1.99906     4.27238    0.01331     6.28474
      C   14    0.10922      1.99901     3.87298    0.01879     5.89078
      N   15   -0.84714      1.99950     5.83528    0.01236     7.84714
      C   16   -0.29329      1.99905     4.28129    0.01295     6.29329
      C   17   -0.23501      1.99908     4.22044    0.01548     6.23501
      H   18    0.43633      0.00000     0.56030    0.00337     0.56367
      H   19    0.26209      0.00000     0.73653    0.00138     0.73791
      H   20    0.26450      0.00000     0.73421    0.00129     0.73550
      H   21    0.43409      0.00000     0.56367    0.00224     0.56591
      H   22    0.43416      0.00000     0.56361    0.00223     0.56584
      H   23    0.26221      0.00000     0.73650    0.00129     0.73779
      H   24    0.28386      0.00000     0.71317    0.00296     0.71614
      H   25    0.22461      0.00000     0.77373    0.00166     0.77539
      H   26    0.23386      0.00000     0.76455    0.00159     0.76614
      H   27    0.41098      0.00000     0.58635    0.00266     0.58902
      H   28    0.41161      0.00000     0.58584    0.00255     0.58839
      H   29    0.23327      0.00000     0.76515    0.00158     0.76673
      H   30    0.23970      0.00000     0.75772    0.00258     0.76030
 =======================================================================
   * Total *   -0.00000     33.98582    85.71569    0.29849   120.00000

                                 Natural Population      
 --------------------------------------------------------
   Core                      33.98582 ( 99.9583% of  34)
   Valence                   85.71569 ( 99.6694% of  86)
   Natural Minimal Basis    119.70151 ( 99.7513% of 120)
   Natural Rydberg Basis      0.29849 (  0.2487% of 120)
 --------------------------------------------------------

    Atom  No          Natural Electron Configuration
 ----------------------------------------------------------------------------
      O    1      [core]2S( 1.69)2p( 5.03)3d( 0.01)
      C    2      [core]2S( 0.75)2p( 2.65)3p( 0.03)3d( 0.01)
      N    3      [core]2S( 1.25)2p( 4.33)3p( 0.01)
      C    4      [core]2S( 0.85)2p( 2.92)3p( 0.01)
      C    5      [core]2S( 0.96)2p( 3.27)3p( 0.01)
      C    6      [core]2S( 0.96)2p( 3.26)3p( 0.01)
      C    7      [core]2S( 0.85)2p( 2.95)3p( 0.01)
      N    8      [core]2S( 1.38)2p( 4.36)3p( 0.01)
      C    9      [core]2S( 0.97)2p( 3.26)3p( 0.01)
      C   10      [core]2S( 0.97)2p( 3.27)3p( 0.01)
      C   11      [core]2S( 0.89)2p( 3.31)3p( 0.01)
      C   12      [core]2S( 0.94)2p( 3.33)3p( 0.01)
      C   13      [core]2S( 0.95)2p( 3.32)3p( 0.01)
      C   14      [core]2S( 0.84)2p( 3.04)3p( 0.01)
      N   15      [core]2S( 1.34)2p( 4.49)3p( 0.01)
      C   16      [core]2S( 0.95)2p( 3.33)3p( 0.01)
      C   17      [core]2S( 0.95)2p( 3.27)3p( 0.01)
      H   18            1S( 0.56)
      H   19            1S( 0.74)
      H   20            1S( 0.73)
      H   21            1S( 0.56)
      H   22            1S( 0.56)
      H   23            1S( 0.74)
      H   24            1S( 0.71)
      H   25            1S( 0.77)
      H   26            1S( 0.76)
      H   27            1S( 0.59)
      H   28            1S( 0.59)
      H   29            1S( 0.77)
      H   30            1S( 0.76)


 NBO analysis skipped by request.
 1\1\GINC-DRG2-W002\SP\RB3LYP TD-FC\6-31G(d,p)\C13H13N3O1\QDUEZ\19-Jul-
 2024\0\\# TD(NStates=10, Root=1) B3LYP/6-31G** SCRF=(Solvent=water) vo
 lume pop=NPA density=current Geom=AllCheck Guess=Read\\XPAQFJJCWGSXGJ-
 UHFFFAOYSA-N_conf_3\\0,1\O,0,-0.8198684851,-1.8936536328,-0.152487361\
 C,0,0.003430116,-0.9966997577,0.0701286151\N,0,-0.3218615395,0.3365404
 035,0.0594594944\C,0,-1.5821448608,0.9466298299,-0.1385179074\C,0,-1.6
 193367518,2.3485982529,-0.206983834\C,0,-2.8180251101,3.0289728093,-0.
 3873091914\C,0,-4.0322032133,2.3297652793,-0.5062233473\N,0,-5.2490768
 791,3.0113660953,-0.6213887567\C,0,-3.9883746158,0.9274357763,-0.43784
 03397\C,0,-2.7894499809,0.2406018885,-0.2570411736\C,0,1.4356067506,-1
 .3088189822,0.3556022328\C,0,2.3223953117,-0.4403250496,1.0158271288\C
 ,0,3.6407104577,-0.8038182859,1.256965934\C,0,4.1279299567,-2.06071237
 35,0.8433553527\N,0,5.4242939476,-2.4466489024,1.1279056393\C,0,3.2373
 818207,-2.9391545964,0.1904390279\C,0,1.9214141364,-2.5674166642,-0.03
 71338513\H,0,0.4500105229,0.9838977601,0.1270773776\H,0,-0.6960752927,
 2.9164624975,-0.1201819479\H,0,-2.8145680713,4.1146078067,-0.435670866
 6\H,0,-5.1744328278,3.9287555677,-1.0434606237\H,0,-5.9846028704,2.475
 5166374,-1.0654325383\H,0,-4.9119436259,0.3611617906,-0.5284345536\H,0
 ,-2.778470334,-0.8387545865,-0.216064172\H,0,1.9863836544,0.5254295687
 ,1.3828384479\H,0,4.3035246414,-0.1199954575,1.779609848\H,0,5.8055806
 297,-3.1919941219,0.5616447109\H,0,6.0884501143,-1.7035128682,1.296252
 6708\H,0,3.591738507,-3.9139049615,-0.1336582556\H,0,1.2415838916,-3.2
 503317234,-0.5352616398\\Version=ES64L-G16RevA.03\State=1-A\HF=-742.75
 91956\RMSD=3.138e-09\Dipole=-2.8463053,4.7284722,-1.2770228\Quadrupole
 =27.0840451,-5.405337,-21.6787081,-21.1511651,8.993136,-3.6207965\PG=C
 01 [X(C13H13N3O1)]\\@


 NEVER LISTEN TO CRITICISM
 OR YOU'LL BE DOIN' EVERYBODY ELSE'S THING BUT BUT YOUR OWN.

                                               -- ANDY CAPP
 Job cpu time:       0 days  0 hours 43 minutes 25.5 seconds.
 Elapsed time:       0 days  0 hours 14 minutes 31.3 seconds.
 File lengths (MBytes):  RWF=    869 Int=      0 D2E=      0 Chk=     53 Scr=      1
 Normal termination of Gaussian 16 at Fri Jul 19 13:15:39 2024.
