 Entering Gaussian System, Link 0=g16
 Initial command:
 /opt/sw/arch/manual/gaussian/G16_A03/g16/l1.exe "/scratch/1381515/Gau-178441.inp" -scrdir="/scratch/1381515/"
 Entering Link 1 = /opt/sw/arch/manual/gaussian/G16_A03/g16/l1.exe PID=    178444.
  
 Copyright (c) 1988,1990,1992,1993,1995,1998,2003,2009,2016,
            Gaussian, Inc.  All Rights Reserved.
  
 This is part of the Gaussian(R) 16 program.  It is based on
 the Gaussian(R) 09 system (copyright 2009, Gaussian, Inc.),
 the Gaussian(R) 03 system (copyright 2003, Gaussian, Inc.),
 the Gaussian(R) 98 system (copyright 1998, Gaussian, Inc.),
 the Gaussian(R) 94 system (copyright 1995, Gaussian, Inc.),
 the Gaussian 92(TM) system (copyright 1992, Gaussian, Inc.),
 the Gaussian 90(TM) system (copyright 1990, Gaussian, Inc.),
 the Gaussian 88(TM) system (copyright 1988, Gaussian, Inc.),
 the Gaussian 86(TM) system (copyright 1986, Carnegie Mellon
 University), and the Gaussian 82(TM) system (copyright 1983,
 Carnegie Mellon University). Gaussian is a federally registered
 trademark of Gaussian, Inc.
  
 This software contains proprietary and confidential information,
 including trade secrets, belonging to Gaussian, Inc.
  
 This software is provided under written license and may be
 used, copied, transmitted, or stored only in accord with that
 written license.
  
 The following legend is applicable only to US Government
 contracts under FAR:
  
                    RESTRICTED RIGHTS LEGEND
  
 Use, reproduction and disclosure by the US Government is
 subject to restrictions as set forth in subparagraphs (a)
 and (c) of the Commercial Computer Software - Restricted
 Rights clause in FAR 52.227-19.
  
 Gaussian, Inc.
 340 Quinnipiac St., Bldg. 40, Wallingford CT 06492
  
  
 ---------------------------------------------------------------
 Warning -- This program may not be used in any manner that
 competes with the business of Gaussian, Inc. or will provide
 assistance to any competitor of Gaussian, Inc.  The licensee
 of this program is prohibited from giving any competitor of
 Gaussian, Inc. access to this program.  By using this program,
 the user acknowledges that Gaussian, Inc. is engaged in the
 business of creating and licensing software in the field of
 computational chemistry and represents and warrants to the
 licensee that it is not a competitor of Gaussian, Inc. and that
 it will not use this program in any manner prohibited above.
 ---------------------------------------------------------------
  

 Cite this work as:
 Gaussian 16, Revision A.03,
 M. J. Frisch, G. W. Trucks, H. B. Schlegel, G. E. Scuseria, 
 M. A. Robb, J. R. Cheeseman, G. Scalmani, V. Barone, 
 G. A. Petersson, H. Nakatsuji, X. Li, M. Caricato, A. V. Marenich, 
 J. Bloino, B. G. Janesko, R. Gomperts, B. Mennucci, H. P. Hratchian, 
 J. V. Ortiz, A. F. Izmaylov, J. L. Sonnenberg, D. Williams-Young, 
 F. Ding, F. Lipparini, F. Egidi, J. Goings, B. Peng, A. Petrone, 
 T. Henderson, D. Ranasinghe, V. G. Zakrzewski, J. Gao, N. Rega, 
 G. Zheng, W. Liang, M. Hada, M. Ehara, K. Toyota, R. Fukuda, 
 J. Hasegawa, M. Ishida, T. Nakajima, Y. Honda, O. Kitao, H. Nakai, 
 T. Vreven, K. Throssell, J. A. Montgomery, Jr., J. E. Peralta, 
 F. Ogliaro, M. J. Bearpark, J. J. Heyd, E. N. Brothers, K. N. Kudin, 
 V. N. Staroverov, T. A. Keith, R. Kobayashi, J. Normand, 
 K. Raghavachari, A. P. Rendell, J. C. Burant, S. S. Iyengar, 
 J. Tomasi, M. Cossi, J. M. Millam, M. Klene, C. Adamo, R. Cammi, 
 J. W. Ochterski, R. L. Martin, K. Morokuma, O. Farkas, 
 J. B. Foresman, and D. J. Fox, Gaussian, Inc., Wallingford CT, 2016.
 
 ******************************************
 Gaussian 16:  ES64L-G16RevA.03 25-Dec-2016
                21-Jul-2024 
 ******************************************
 %nprocshared=4
 Will use up to    4 processors via shared memory.
 %mem=8GB
 %Chk=YBRVSVVVWCFQMG-UHFFFAOYSA-N_conf_0_0.chk
 -------------------------------------------------------
 # opt=CalcFc B3LYP/6-31G** SCRF=(Solvent=water) scf=xqc
 -------------------------------------------------------
 1/10=4,18=20,19=15,26=3,38=1/1,3;
 2/9=110,12=2,17=6,18=5,40=1/2;
 3/5=1,6=6,7=101,11=2,25=1,30=1,70=2201,71=2,72=1,74=-5,140=1/1,2,3;
 4//1;
 5/5=2,8=3,13=1,38=5,53=1/2,8;
 8/6=4,10=90,11=11/1;
 11/6=1,8=1,9=11,15=111,16=1/1,2,10;
 10/6=1,13=1/2;
 6/7=2,8=2,9=2,10=2,28=1/1;
 7/10=1,18=20,25=1/1,2,3,16;
 1/10=4,18=20,19=15,26=3/3(2);
 2/9=110/2;
 99//99;
 2/9=110/2;
 3/5=1,6=6,7=101,11=2,25=1,30=1,70=2205,71=1,72=1,74=-5/1,2,3;
 4/5=5,16=3,69=1/1;
 5/5=2,8=3,13=1,38=5,53=1/2,8;
 7//1,2,3,16;
 1/18=20,19=15,26=3/3(-5);
 2/9=110/2;
 6/7=2,8=2,9=2,10=2,19=2,28=1/1;
 99/9=1/99;
 ----------------------------------
 YBRVSVVVWCFQMG-UHFFFAOYSA-N_conf_0
 ----------------------------------
 Symbolic Z-matrix:
 Charge =  0 Multiplicity = 1
 N                     4.92528  -0.72234   0.88719 
 C                     3.66668  -0.33881   0.40782 
 C                     3.38533   1.00684   0.16539 
 C                     2.17499   1.39153  -0.42083 
 C                     1.23766   0.4286   -0.81409 
 C                    -0.06593   0.84115  -1.45932 
 C                    -1.29933   0.4435   -0.6804 
 C                    -2.20128  -0.49271  -1.20032 
 C                    -3.34257  -0.85608  -0.47798 
 C                    -3.62891  -0.26316   0.75303 
 N                    -4.70774  -0.71675   1.52144 
 C                    -2.69986   0.62479   1.29787 
 C                    -1.55722   0.99422   0.58131 
 C                     1.54944  -0.92438  -0.62934 
 C                     2.76131  -1.30109  -0.04207 
 H                     5.36911  -0.01998   1.47004 
 H                     4.93061  -1.64058   1.32 
 H                     4.10818   1.77263   0.43303 
 H                     1.97857   2.44943  -0.57777 
 H                    -0.09675   0.41396  -2.47029 
 H                    -0.09376   1.92928  -1.60374 
 H                    -2.01699  -0.95947  -2.16501 
 H                    -4.00849  -1.60982  -0.88916 
 H                    -5.02017  -0.0488    2.2188 
 H                    -5.47489  -1.08629   0.96933 
 H                    -2.85573   1.03959   2.2899 
 H                    -0.85851   1.69999   1.02491 
 H                     0.85279  -1.69687  -0.94716 
 H                     2.9882   -2.35835   0.06392 
 

 GradGradGradGradGradGradGradGradGradGradGradGradGradGradGradGradGradGrad
 Berny optimization.
 Initialization pass.
                           ----------------------------
                           !    Initial Parameters    !
                           ! (Angstroms and Degrees)  !
 --------------------------                            --------------------------
 ! Name  Definition              Value          Derivative Info.                !
 --------------------------------------------------------------------------------
 ! R1    R(1,2)                  1.4003         calculate D2E/DX2 analytically  !
 ! R2    R(1,16)                 1.0149         calculate D2E/DX2 analytically  !
 ! R3    R(1,17)                 1.0151         calculate D2E/DX2 analytically  !
 ! R4    R(2,3)                  1.396          calculate D2E/DX2 analytically  !
 ! R5    R(2,15)                 1.3957         calculate D2E/DX2 analytically  !
 ! R6    R(3,4)                  1.3988         calculate D2E/DX2 analytically  !
 ! R7    R(3,18)                 1.0865         calculate D2E/DX2 analytically  !
 ! R8    R(4,5)                  1.4002         calculate D2E/DX2 analytically  !
 ! R9    R(4,19)                 1.0874         calculate D2E/DX2 analytically  !
 ! R10   R(5,6)                  1.5119         calculate D2E/DX2 analytically  !
 ! R11   R(5,14)                 1.4007         calculate D2E/DX2 analytically  !
 ! R12   R(6,7)                  1.512          calculate D2E/DX2 analytically  !
 ! R13   R(6,20)                 1.098          calculate D2E/DX2 analytically  !
 ! R14   R(6,21)                 1.098          calculate D2E/DX2 analytically  !
 ! R15   R(7,8)                  1.4001         calculate D2E/DX2 analytically  !
 ! R16   R(7,13)                 1.4006         calculate D2E/DX2 analytically  !
 ! R17   R(8,9)                  1.3987         calculate D2E/DX2 analytically  !
 ! R18   R(8,22)                 1.0874         calculate D2E/DX2 analytically  !
 ! R19   R(9,10)                 1.396          calculate D2E/DX2 analytically  !
 ! R20   R(9,23)                 1.0866         calculate D2E/DX2 analytically  !
 ! R21   R(10,11)                1.4            calculate D2E/DX2 analytically  !
 ! R22   R(10,12)                1.3959         calculate D2E/DX2 analytically  !
 ! R23   R(11,24)                1.0149         calculate D2E/DX2 analytically  !
 ! R24   R(11,25)                1.0148         calculate D2E/DX2 analytically  !
 ! R25   R(12,13)                1.3984         calculate D2E/DX2 analytically  !
 ! R26   R(12,26)                1.0865         calculate D2E/DX2 analytically  !
 ! R27   R(13,27)                1.0877         calculate D2E/DX2 analytically  !
 ! R28   R(14,15)                1.3984         calculate D2E/DX2 analytically  !
 ! R29   R(14,28)                1.0877         calculate D2E/DX2 analytically  !
 ! R30   R(15,29)                1.0865         calculate D2E/DX2 analytically  !
 ! A1    A(2,1,16)             113.5849         calculate D2E/DX2 analytically  !
 ! A2    A(2,1,17)             113.4789         calculate D2E/DX2 analytically  !
 ! A3    A(16,1,17)            112.2617         calculate D2E/DX2 analytically  !
 ! A4    A(1,2,3)              120.3055         calculate D2E/DX2 analytically  !
 ! A5    A(1,2,15)             120.2999         calculate D2E/DX2 analytically  !
 ! A6    A(3,2,15)             118.5469         calculate D2E/DX2 analytically  !
 ! A7    A(2,3,4)              120.8166         calculate D2E/DX2 analytically  !
 ! A8    A(2,3,18)             120.1676         calculate D2E/DX2 analytically  !
 ! A9    A(4,3,18)             119.0158         calculate D2E/DX2 analytically  !
 ! A10   A(3,4,5)              120.5191         calculate D2E/DX2 analytically  !
 ! A11   A(3,4,19)             118.9711         calculate D2E/DX2 analytically  !
 ! A12   A(5,4,19)             120.5055         calculate D2E/DX2 analytically  !
 ! A13   A(4,5,6)              120.6242         calculate D2E/DX2 analytically  !
 ! A14   A(4,5,14)             118.571          calculate D2E/DX2 analytically  !
 ! A15   A(6,5,14)             120.7832         calculate D2E/DX2 analytically  !
 ! A16   A(5,6,7)              114.3138         calculate D2E/DX2 analytically  !
 ! A17   A(5,6,20)             108.1186         calculate D2E/DX2 analytically  !
 ! A18   A(5,6,21)             110.3889         calculate D2E/DX2 analytically  !
 ! A19   A(7,6,20)             110.4338         calculate D2E/DX2 analytically  !
 ! A20   A(7,6,21)             107.9215         calculate D2E/DX2 analytically  !
 ! A21   A(20,6,21)            105.2931         calculate D2E/DX2 analytically  !
 ! A22   A(6,7,8)              120.6683         calculate D2E/DX2 analytically  !
 ! A23   A(6,7,13)             120.7214         calculate D2E/DX2 analytically  !
 ! A24   A(8,7,13)             118.6077         calculate D2E/DX2 analytically  !
 ! A25   A(7,8,9)              120.5039         calculate D2E/DX2 analytically  !
 ! A26   A(7,8,22)             120.482          calculate D2E/DX2 analytically  !
 ! A27   A(9,8,22)             119.0076         calculate D2E/DX2 analytically  !
 ! A28   A(8,9,10)             120.8238         calculate D2E/DX2 analytically  !
 ! A29   A(8,9,23)             119.0037         calculate D2E/DX2 analytically  !
 ! A30   A(10,9,23)            120.1725         calculate D2E/DX2 analytically  !
 ! A31   A(9,10,11)            120.2925         calculate D2E/DX2 analytically  !
 ! A32   A(9,10,12)            118.545          calculate D2E/DX2 analytically  !
 ! A33   A(11,10,12)           120.3143         calculate D2E/DX2 analytically  !
 ! A34   A(10,11,24)           113.647          calculate D2E/DX2 analytically  !
 ! A35   A(10,11,25)           113.6957         calculate D2E/DX2 analytically  !
 ! A36   A(24,11,25)           112.3807         calculate D2E/DX2 analytically  !
 ! A37   A(10,12,13)           120.7892         calculate D2E/DX2 analytically  !
 ! A38   A(10,12,26)           120.2493         calculate D2E/DX2 analytically  !
 ! A39   A(13,12,26)           118.9615         calculate D2E/DX2 analytically  !
 ! A40   A(7,13,12)            120.5421         calculate D2E/DX2 analytically  !
 ! A41   A(7,13,27)            120.2805         calculate D2E/DX2 analytically  !
 ! A42   A(12,13,27)           119.165          calculate D2E/DX2 analytically  !
 ! A43   A(5,14,15)            120.5656         calculate D2E/DX2 analytically  !
 ! A44   A(5,14,28)            120.3256         calculate D2E/DX2 analytically  !
 ! A45   A(15,14,28)           119.1077         calculate D2E/DX2 analytically  !
 ! A46   A(2,15,14)            120.7833         calculate D2E/DX2 analytically  !
 ! A47   A(2,15,29)            120.2632         calculate D2E/DX2 analytically  !
 ! A48   A(14,15,29)           118.953          calculate D2E/DX2 analytically  !
 ! D1    D(16,1,2,3)            30.5879         calculate D2E/DX2 analytically  !
 ! D2    D(16,1,2,15)         -160.1057         calculate D2E/DX2 analytically  !
 ! D3    D(17,1,2,3)           160.4034         calculate D2E/DX2 analytically  !
 ! D4    D(17,1,2,15)          -30.2902         calculate D2E/DX2 analytically  !
 ! D5    D(1,2,3,4)            174.4557         calculate D2E/DX2 analytically  !
 ! D6    D(1,2,3,18)            -5.6365         calculate D2E/DX2 analytically  !
 ! D7    D(15,2,3,4)             4.9642         calculate D2E/DX2 analytically  !
 ! D8    D(15,2,3,18)         -175.128          calculate D2E/DX2 analytically  !
 ! D9    D(1,2,15,14)         -174.4271         calculate D2E/DX2 analytically  !
 ! D10   D(1,2,15,29)            5.8404         calculate D2E/DX2 analytically  !
 ! D11   D(3,2,15,14)           -4.9351         calculate D2E/DX2 analytically  !
 ! D12   D(3,2,15,29)          175.3325         calculate D2E/DX2 analytically  !
 ! D13   D(2,3,4,5)             -1.974          calculate D2E/DX2 analytically  !
 ! D14   D(2,3,4,19)           178.7812         calculate D2E/DX2 analytically  !
 ! D15   D(18,3,4,5)           178.1172         calculate D2E/DX2 analytically  !
 ! D16   D(18,3,4,19)           -1.1277         calculate D2E/DX2 analytically  !
 ! D17   D(3,4,5,6)           -179.4453         calculate D2E/DX2 analytically  !
 ! D18   D(3,4,5,14)            -1.1229         calculate D2E/DX2 analytically  !
 ! D19   D(19,4,5,6)            -0.212          calculate D2E/DX2 analytically  !
 ! D20   D(19,4,5,14)          178.1104         calculate D2E/DX2 analytically  !
 ! D21   D(4,5,6,7)           -118.3625         calculate D2E/DX2 analytically  !
 ! D22   D(4,5,6,20)           118.2068         calculate D2E/DX2 analytically  !
 ! D23   D(4,5,6,21)             3.5185         calculate D2E/DX2 analytically  !
 ! D24   D(14,5,6,7)            63.3525         calculate D2E/DX2 analytically  !
 ! D25   D(14,5,6,20)          -60.0782         calculate D2E/DX2 analytically  !
 ! D26   D(14,5,6,21)         -174.7665         calculate D2E/DX2 analytically  !
 ! D27   D(4,5,14,15)            1.1507         calculate D2E/DX2 analytically  !
 ! D28   D(4,5,14,28)         -178.479          calculate D2E/DX2 analytically  !
 ! D29   D(6,5,14,15)          179.4703         calculate D2E/DX2 analytically  !
 ! D30   D(6,5,14,28)           -0.1593         calculate D2E/DX2 analytically  !
 ! D31   D(5,6,7,8)           -114.2103         calculate D2E/DX2 analytically  !
 ! D32   D(5,6,7,13)            65.19           calculate D2E/DX2 analytically  !
 ! D33   D(20,6,7,8)             7.964          calculate D2E/DX2 analytically  !
 ! D34   D(20,6,7,13)         -172.6357         calculate D2E/DX2 analytically  !
 ! D35   D(21,6,7,8)           122.566          calculate D2E/DX2 analytically  !
 ! D36   D(21,6,7,13)          -58.0337         calculate D2E/DX2 analytically  !
 ! D37   D(6,7,8,9)           -179.8722         calculate D2E/DX2 analytically  !
 ! D38   D(6,7,8,22)             1.0672         calculate D2E/DX2 analytically  !
 ! D39   D(13,7,8,9)             0.715          calculate D2E/DX2 analytically  !
 ! D40   D(13,7,8,22)         -178.3456         calculate D2E/DX2 analytically  !
 ! D41   D(6,7,13,12)          179.9338         calculate D2E/DX2 analytically  !
 ! D42   D(6,7,13,27)           -1.3585         calculate D2E/DX2 analytically  !
 ! D43   D(8,7,13,12)           -0.6538         calculate D2E/DX2 analytically  !
 ! D44   D(8,7,13,27)          178.054          calculate D2E/DX2 analytically  !
 ! D45   D(7,8,9,10)             2.0966         calculate D2E/DX2 analytically  !
 ! D46   D(7,8,9,23)          -177.9411         calculate D2E/DX2 analytically  !
 ! D47   D(22,8,9,10)         -178.8291         calculate D2E/DX2 analytically  !
 ! D48   D(22,8,9,23)            1.1333         calculate D2E/DX2 analytically  !
 ! D49   D(8,9,10,11)         -174.3731         calculate D2E/DX2 analytically  !
 ! D50   D(8,9,10,12)           -4.8828         calculate D2E/DX2 analytically  !
 ! D51   D(23,9,10,11)           5.6649         calculate D2E/DX2 analytically  !
 ! D52   D(23,9,10,12)         175.1553         calculate D2E/DX2 analytically  !
 ! D53   D(9,10,11,24)        -160.635          calculate D2E/DX2 analytically  !
 ! D54   D(9,10,11,25)         -30.3867         calculate D2E/DX2 analytically  !
 ! D55   D(12,10,11,24)         30.0615         calculate D2E/DX2 analytically  !
 ! D56   D(12,10,11,25)        160.3098         calculate D2E/DX2 analytically  !
 ! D57   D(9,10,12,13)           4.943          calculate D2E/DX2 analytically  !
 ! D58   D(9,10,12,26)        -175.0168         calculate D2E/DX2 analytically  !
 ! D59   D(11,10,12,13)        174.431          calculate D2E/DX2 analytically  !
 ! D60   D(11,10,12,26)         -5.5288         calculate D2E/DX2 analytically  !
 ! D61   D(10,12,13,7)          -2.2207         calculate D2E/DX2 analytically  !
 ! D62   D(10,12,13,27)        179.0573         calculate D2E/DX2 analytically  !
 ! D63   D(26,12,13,7)         177.7396         calculate D2E/DX2 analytically  !
 ! D64   D(26,12,13,27)         -0.9824         calculate D2E/DX2 analytically  !
 ! D65   D(5,14,15,2)            1.9182         calculate D2E/DX2 analytically  !
 ! D66   D(5,14,15,29)        -178.346          calculate D2E/DX2 analytically  !
 ! D67   D(28,14,15,2)        -178.4477         calculate D2E/DX2 analytically  !
 ! D68   D(28,14,15,29)          1.2882         calculate D2E/DX2 analytically  !
 --------------------------------------------------------------------------------
 Trust Radius=3.00D-01 FncErr=1.00D-07 GrdErr=1.00D-06 EigMax=2.50D+02 EigMin=1.00D-04
 Number of steps in this run=    156 maximum allowed number of steps=    174.
 GradGradGradGradGradGradGradGradGradGradGradGradGradGradGradGradGradGrad

                          Input orientation:                          
 ---------------------------------------------------------------------
 Center     Atomic      Atomic             Coordinates (Angstroms)
 Number     Number       Type             X           Y           Z
 ---------------------------------------------------------------------
      1          7           0        4.925277   -0.722344    0.887188
      2          6           0        3.666681   -0.338814    0.407818
      3          6           0        3.385327    1.006836    0.165386
      4          6           0        2.174994    1.391529   -0.420831
      5          6           0        1.237663    0.428595   -0.814092
      6          6           0       -0.065931    0.841150   -1.459319
      7          6           0       -1.299328    0.443498   -0.680405
      8          6           0       -2.201282   -0.492706   -1.200315
      9          6           0       -3.342574   -0.856084   -0.477983
     10          6           0       -3.628907   -0.263157    0.753028
     11          7           0       -4.707745   -0.716753    1.521440
     12          6           0       -2.699860    0.624788    1.297871
     13          6           0       -1.557225    0.994217    0.581315
     14          6           0        1.549443   -0.924377   -0.629343
     15          6           0        2.761307   -1.301093   -0.042069
     16          1           0        5.369110   -0.019984    1.470039
     17          1           0        4.930609   -1.640585    1.320000
     18          1           0        4.108178    1.772629    0.433030
     19          1           0        1.978569    2.449426   -0.577775
     20          1           0       -0.096747    0.413960   -2.470292
     21          1           0       -0.093756    1.929281   -1.603736
     22          1           0       -2.016989   -0.959466   -2.165014
     23          1           0       -4.008493   -1.609824   -0.889162
     24          1           0       -5.020174   -0.048797    2.218804
     25          1           0       -5.474889   -1.086290    0.969326
     26          1           0       -2.855731    1.039589    2.289901
     27          1           0       -0.858513    1.699989    1.024908
     28          1           0        0.852785   -1.696867   -0.947164
     29          1           0        2.988201   -2.358347    0.063923
 ---------------------------------------------------------------------
                    Distance matrix (angstroms):
                    1          2          3          4          5
     1  N    0.000000
     2  C    1.400341   0.000000
     3  C    2.425387   1.395961   0.000000
     4  C    3.707213   2.430201   1.398766   0.000000
     5  C    4.221079   2.825262   2.430268   1.400173   0.000000
     6  C    5.732605   4.337154   3.818155   2.530438   1.511912
     7  C    6.523973   5.143683   4.793611   3.610685   2.540555
     8  C    7.429552   6.086276   5.943397   4.828014   3.581104
     9  C    8.380867   7.083916   7.010638   5.958069   4.768851
    10  C    8.567550   7.304142   7.152460   6.148267   5.159253
    11  N    9.653880   8.456595   8.384954   7.455827   6.489562
    12  C    7.754104   6.500274   6.201450   5.225516   4.472468
    13  C    6.712895   5.394095   4.960038   3.884792   3.174663
    14  C    3.706337   2.429256   2.780584   2.407948   1.400669
    15  C    2.425125   1.395737   2.399787   2.781625   2.430912
    16  H    1.014895   2.031805   2.586865   3.971163   4.742080
    17  H    1.015146   2.030812   3.275647   4.451699   4.740644
    18  H    2.664358   2.157255   1.086547   2.147444   3.406111
    19  H    4.570484   3.405202   2.147632   1.087364   2.165305
    20  H    6.146916   4.797247   4.407169   3.211968   2.126938
    21  H    6.198912   4.830268   4.010576   2.614511   2.155986
    22  H    7.587306   6.269671   6.203396   5.112931   3.787409
    23  H    9.151791   7.887073   7.913758   6.889337   5.628761
    24  H   10.056781   8.878356   8.716842   7.798246   6.970429
    25  H   10.406856   9.189250   9.139526   8.160443   7.108714
    26  H    8.100376   6.927055   6.592833   5.725393   5.173390
    27  H    6.272071   5.001489   4.385136   3.374532   3.064689
    28  H    4.571622   3.405627   3.868016   3.400508   2.164123
    29  H    2.665808   2.158034   3.390053   3.867539   3.406221
                    6          7          8          9         10
     6  C    0.000000
     7  C    1.511986   0.000000
     8  C    2.531003   1.400109   0.000000
     9  C    3.818378   2.429968   1.398698   0.000000
    10  C    4.336908   2.825072   2.430299   1.396043   0.000000
    11  N    5.732226   4.220380   3.706819   2.425035   1.400035
    12  C    3.819226   2.430623   2.781781   2.399942   1.395862
    13  C    2.532109   1.400621   2.408310   2.780863   2.429474
    14  C    2.532860   3.160566   3.818414   4.894834   5.400321
    15  C    3.819827   4.465403   5.159681   6.135586   6.522601
    16  H    6.233968   7.021914   8.041461   8.965896   9.029814
    17  H    6.232900   6.867105   7.650718   8.502573   8.688158
    18  H    4.676732   5.678683   6.899916   7.953224   8.006829
    19  H    2.746571   3.844332   5.149257   6.265055   6.369689
    20  H    1.097956   2.156565   2.619915   4.014686   4.829538
    21  H    1.098025   2.124499   3.235805   4.424974   4.781047
    22  H    2.747153   2.165043   1.087416   2.148008   3.405598
    23  H    4.677195   3.405773   2.147273   1.086573   2.157402
    24  H    6.234189   4.742621   4.453491   3.276997   2.032258
    25  H    6.234595   4.743119   3.971925   2.587367   2.032728
    26  H    4.677501   3.405941   3.867537   3.389952   2.157991
    27  H    2.745391   2.163603   3.400376   3.868171   3.406310
    28  H    2.747339   3.046951   3.292630   4.304427   5.003173
    29  H    4.678116   5.175641   5.657707   6.529102   6.975013
                   11         12         13         14         15
    11  N    0.000000
    12  C    2.425143   0.000000
    13  C    3.706350   1.398408   0.000000
    14  C    6.619771   4.916364   3.846827   0.000000
    15  C    7.653283   5.943803   4.930190   1.398364   0.000000
    16  H   10.101046   8.096520   7.056383   4.451425   3.275415
    17  H    9.684622   7.959677   7.041294   3.968019   2.583865
    18  H    9.225082   6.958079   5.720550   3.866472   3.389329
    19  H    7.690135   5.360508   3.995367   3.401376   3.868599
    20  H    6.202720   4.584724   3.432492   2.808946   4.123851
    21  H    6.169044   4.112517   2.791152   3.434080   4.585358
    22  H    4.570451   3.868817   3.401556   3.883162   5.239820
    23  H    2.664119   3.389562   3.866788   5.606068   6.829574
    24  H    1.014935   2.585670   3.970046   7.213767   8.199465
    25  H    1.014839   3.276663   4.452770   7.205775   8.300842
    26  H    2.665562   1.086499   2.146496   5.637792   6.516747
    27  H    4.572064   2.149680   1.087698   3.927097   4.821621
    28  H    6.162315   4.801203   3.922541   1.087696   2.149021
    29  H    8.002922   6.540318   5.671708   2.146372   1.086508
                   16         17         18         19         20
    16  H    0.000000
    17  H    1.685568   0.000000
    18  H    2.424624   3.621207   0.000000
    19  H    4.667686   5.389274   2.452552   0.000000
    20  H    6.752044   6.622822   5.287405   3.468672   0.000000
    21  H    6.564346   6.821761   4.672174   2.370165   1.745602
    22  H    8.285571   7.802459   7.192485   5.486744   2.380509
    23  H    9.799636   9.208089   8.892105   7.240124   4.679470
    24  H   10.416270  10.117298   9.478047   7.940048   6.814829
    25  H   10.907797  10.426150  10.014799   8.393381   6.557907
    26  H    8.333240   8.291631   7.244401   5.794969   5.537404
    27  H    6.476089   6.690325   5.002360   3.343543   3.801392
    28  H    5.389990   4.666031   4.953778   4.312260   2.770761
    29  H    3.621302   2.421954   4.295992   4.954373   4.860539
                   21         22         23         24         25
    21  H    0.000000
    22  H    3.515496   0.000000
    23  H    5.325509   2.452928   0.000000
    24  H    6.541727   5.391317   3.622120   0.000000
    25  H    6.683630   4.668753   2.424538   1.686521   0.000000
    26  H    4.855972   4.954390   4.295892   2.423726   3.622605
    27  H    2.747216   4.311655   4.953877   4.669375   5.392344
    28  H    3.804731   3.203517   4.862404   6.872491   6.639669
    29  H    5.537445   5.654817   7.100873   8.608809   8.605915
                   26         27         28         29
    26  H    0.000000
    27  H    2.454632   0.000000
    28  H    5.632040   4.284418   0.000000
    29  H    7.117056   5.673692   2.453539   0.000000
 Stoichiometry    C13H14N2
 Framework group  C1[X(C13H14N2)]
 Deg. of freedom    81
 Full point group                 C1      NOp   1
 Largest Abelian subgroup         C1      NOp   1
 Largest concise Abelian subgroup C1      NOp   1
                         Standard orientation:                         
 ---------------------------------------------------------------------
 Center     Atomic      Atomic             Coordinates (Angstroms)
 Number     Number       Type             X           Y           Z
 ---------------------------------------------------------------------
      1          7           0       -4.859584   -1.332672    0.066584
      2          6           0       -3.629430   -0.664780    0.026612
      3          6           0       -3.381290    0.296361   -0.954887
      4          6           0       -2.203980    1.051455   -0.936977
      5          6           0       -1.268572    0.885777    0.091638
      6          6           0       -0.001114    1.709560    0.120095
      7          6           0        1.271223    0.897608    0.030674
      8          6           0        2.165378    0.850355    1.107038
      9          6           0        3.342695    0.100264    1.019607
     10          6           0        3.671981   -0.579963   -0.154190
     11          7           0        4.790405   -1.421232   -0.192823
     12          6           0        2.752643   -0.581431   -1.204545
     13          6           0        1.574133    0.167161   -1.125367
     14          6           0       -1.549475   -0.032898    1.110952
     15          6           0       -2.728401   -0.784511    1.085807
     16          1           0       -5.289491   -1.446827   -0.845644
     17          1           0       -4.830908   -2.202161    0.589735
     18          1           0       -4.104582    0.466599   -1.747636
     19          1           0       -2.032186    1.778004   -1.727529
     20          1           0       -0.006855    2.313386    1.037084
     21          1           0        0.002297    2.434876   -0.704262
     22          1           0        1.947416    1.384066    2.029056
     23          1           0        4.002720    0.053351    1.881470
     24          1           0        5.121467   -1.615433   -1.132384
     25          1           0        5.539053   -1.133220    0.428848
     26          1           0        2.944261   -1.167972   -2.098822
     27          1           0        0.883551    0.159041   -1.965674
     28          1           0       -0.854402   -0.166365    1.936872
     29          1           0       -2.932842   -1.469764    1.903812
 ---------------------------------------------------------------------
 Rotational constants (GHZ):           1.5414480           0.2592417           0.2543215
 Standard basis: 6-31G(d,p) (6D, 7F)
 There are   295 symmetry adapted cartesian basis functions of A   symmetry.
 There are   295 symmetry adapted basis functions of A   symmetry.
   295 basis functions,   518 primitive gaussians,   295 cartesian basis functions
    53 alpha electrons       53 beta electrons
       nuclear repulsion energy       884.4683839045 Hartrees.
 NAtoms=   29 NActive=   29 NUniq=   29 SFac= 1.00D+00 NAtFMM=   60 NAOKFM=F Big=F
 Integral buffers will be    131072 words long.
 Raffenetti 2 integral format.
 Two-electron integral symmetry is turned on.
 Force inversion solution in PCM.
 ------------------------------------------------------------------------------
 Polarizable Continuum Model (PCM)
 =================================
 Model                : PCM.
 Atomic radii         : UFF (Universal Force Field).
 Polarization charges : Total charges.
 Charge compensation  : None.
 Solution method      : Matrix inversion.
 Cavity type          : Scaled VdW (van der Waals Surface) (Alpha=1.100).
 Cavity algorithm     : GePol (No added spheres)
                        Default sphere list used, NSphG=   29.
                        Lebedev-Laikov grids with approx.  5.0 points / Ang**2.
                        Smoothing algorithm: York/Karplus (Gamma=1.0000).
                        Polarization charges: spherical gaussians, with
                                              point-specific exponents (IZeta= 3).
                        Self-potential: point-specific (ISelfS= 7).
                        Self-field    : sphere-specific E.n sum rule (ISelfD= 2).
 1st derivatives      : Analytical E(r).r(x)/FMM algorithm (CHGder, D1EAlg=3).
                        Cavity 1st derivative terms included.
 2nd derivatives      : Analytical E(r).r(xy)/FMM algorithm (CHGder, D2EAlg=3).
                        Cavity 2nd derivative terms included.
 Solvent              : Water, Eps=  78.355300 Eps(inf)=   1.777849
 ------------------------------------------------------------------------------
 One-electron integrals computed using PRISM.
 NBasis=   295 RedAO= T EigKep=  4.38D-04  NBF=   295
 NBsUse=   295 1.00D-06 EigRej= -1.00D+00 NBFU=   295
 ExpMin= 1.61D-01 ExpMax= 4.17D+03 ExpMxC= 6.27D+02 IAcc=3 IRadAn=         5 AccDes= 0.00D+00
 Harris functional with IExCor=  402 and IRadAn=       5 diagonalized for initial guess.
 HarFok:  IExCor=  402 AccDes= 0.00D+00 IRadAn=         5 IDoV= 1 UseB2=F ITyADJ=14
 ICtDFT=  3500011 ScaDFX=  1.000000  1.000000  1.000000  1.000000
 FoFCou: FMM=F IPFlag=           0 FMFlag=      100000 FMFlg1=           0
         NFxFlg=           0 DoJE=T BraDBF=F KetDBF=T FulRan=T
         wScrn=  0.000000 ICntrl=       500 IOpCl=  0 I1Cent=   200000004 NGrid=           0
         NMat0=    1 NMatS0=      1 NMatT0=    0 NMatD0=    1 NMtDS0=    0 NMtDT0=    0
 Petite list used in FoFCou.
 Keep R1 ints in memory in canonical form, NReq=966088577.
 Requested convergence on RMS density matrix=1.00D-08 within  32 cycles.
 Requested convergence on MAX density matrix=1.00D-06.
 Requested convergence on             energy=1.00D-06.
 No special actions if energy rises.
 Inv3:  Mode=1 IEnd=    14520000.
 Iteration    1 A*A^-1 deviation from unit magnitude is 2.89D-15 for   1982.
 Iteration    1 A*A^-1 deviation from orthogonality  is 2.31D-15 for   1267    593.
 Iteration    1 A^-1*A deviation from unit magnitude is 3.11D-15 for   1081.
 Iteration    1 A^-1*A deviation from orthogonality  is 1.19D-14 for   1301   1267.
 Error on total polarization charges =  0.00987
 SCF Done:  E(RB3LYP) =  -613.358792058     A.U. after   11 cycles
            NFock= 11  Conv=0.61D-08     -V/T= 2.0097
 QCSCF skips out because SCF is already converged.
 DoSCS=F DFT=T ScalE2(SS,OS)=  1.000000  1.000000
 Range of M.O.s used for correlation:     1   295
 NBasis=   295 NAE=    53 NBE=    53 NFC=     0 NFV=     0
 NROrb=    295 NOA=    53 NOB=    53 NVA=   242 NVB=   242
 Symmetrizing basis deriv contribution to polar:
 IMax=3 JMax=2 DiffMx= 0.00D+00
 G2DrvN: will do    30 centers at a time, making    1 passes.
 Calling FoFCou, ICntrl=  3107 FMM=F I1Cent=   0 AccDes= 0.00D+00.
 NEqPCM:  Using equilibrium solvation (IEInf=0, Eps=  78.3553, EpsInf=   1.7778)
 G2PCM: DoFxE=T DoFxN=T DoGrad=T DoDP/DQ/DG/TGxP=FFFF NFrqRd=   0 IEInf=0 SqF1=F DoCFld=F IF1Alg=4.
 End of G2Drv F.D. properties file   721 does not exist.
 End of G2Drv F.D. properties file   722 does not exist.
 End of G2Drv F.D. properties file   788 does not exist.
          IDoAtm=11111111111111111111111111111
 NEqPCM:  Using equilibrium solvation (IEInf=0, Eps=  78.3553, EpsInf=   1.7778)
          Differentiating once with respect to nuclear coordinates.
 Keep R1 ints in memory in canonical form, NReq=966100590.
          There are    90 degrees of freedom in the 1st order CPHF.  IDoFFX=6 NUNeed=     0.
     84 vectors produced by pass  0 Test12= 1.43D-14 1.11D-09 XBig12= 1.35D-01 1.33D-01.
 AX will form    84 AO Fock derivatives at one time.
     84 vectors produced by pass  1 Test12= 1.43D-14 1.11D-09 XBig12= 1.32D-02 2.91D-02.
     84 vectors produced by pass  2 Test12= 1.43D-14 1.11D-09 XBig12= 1.20D-04 1.17D-03.
     84 vectors produced by pass  3 Test12= 1.43D-14 1.11D-09 XBig12= 2.44D-07 4.80D-05.
     84 vectors produced by pass  4 Test12= 1.43D-14 1.11D-09 XBig12= 2.74D-10 1.58D-06.
     58 vectors produced by pass  5 Test12= 1.43D-14 1.11D-09 XBig12= 3.49D-13 5.61D-08.
      8 vectors produced by pass  6 Test12= 1.43D-14 1.11D-09 XBig12= 3.62D-16 2.53D-09.
 InvSVY:  IOpt=1 It=  1 EMax= 4.44D-16
 Solved reduced A of dimension   486 with    90 vectors.
 End of Minotr F.D. properties file   721 does not exist.
 End of Minotr F.D. properties file   722 does not exist.
 End of Minotr F.D. properties file   788 does not exist.

 **********************************************************************

            Population analysis using the SCF density.

 **********************************************************************

 Orbital symmetries:
       Occupied  (A) (A) (A) (A) (A) (A) (A) (A) (A) (A) (A) (A)
                 (A) (A) (A) (A) (A) (A) (A) (A) (A) (A) (A) (A)
                 (A) (A) (A) (A) (A) (A) (A) (A) (A) (A) (A) (A)
                 (A) (A) (A) (A) (A) (A) (A) (A) (A) (A) (A) (A)
                 (A) (A) (A) (A) (A)
       Virtual   (A) (A) (A) (A) (A) (A) (A) (A) (A) (A) (A) (A)
                 (A) (A) (A) (A) (A) (A) (A) (A) (A) (A) (A) (A)
                 (A) (A) (A) (A) (A) (A) (A) (A) (A) (A) (A) (A)
                 (A) (A) (A) (A) (A) (A) (A) (A) (A) (A) (A) (A)
                 (A) (A) (A) (A) (A) (A) (A) (A) (A) (A) (A) (A)
                 (A) (A) (A) (A) (A) (A) (A) (A) (A) (A) (A) (A)
                 (A) (A) (A) (A) (A) (A) (A) (A) (A) (A) (A) (A)
                 (A) (A) (A) (A) (A) (A) (A) (A) (A) (A) (A) (A)
                 (A) (A) (A) (A) (A) (A) (A) (A) (A) (A) (A) (A)
                 (A) (A) (A) (A) (A) (A) (A) (A) (A) (A) (A) (A)
                 (A) (A) (A) (A) (A) (A) (A) (A) (A) (A) (A) (A)
                 (A) (A) (A) (A) (A) (A) (A) (A) (A) (A) (A) (A)
                 (A) (A) (A) (A) (A) (A) (A) (A) (A) (A) (A) (A)
                 (A) (A) (A) (A) (A) (A) (A) (A) (A) (A) (A) (A)
                 (A) (A) (A) (A) (A) (A) (A) (A) (A) (A) (A) (A)
                 (A) (A) (A) (A) (A) (A) (A) (A) (A) (A) (A) (A)
                 (A) (A) (A) (A) (A) (A) (A) (A) (A) (A) (A) (A)
                 (A) (A) (A) (A) (A) (A) (A) (A) (A) (A) (A) (A)
                 (A) (A) (A) (A) (A) (A) (A) (A) (A) (A) (A) (A)
                 (A) (A) (A) (A) (A) (A) (A) (A) (A) (A) (A) (A)
                 (A) (A)
 The electronic state is 1-A.
 Alpha  occ. eigenvalues --  -14.33356 -14.33352 -10.22177 -10.22162 -10.18390
 Alpha  occ. eigenvalues --  -10.18385 -10.18363 -10.18361 -10.18323 -10.18282
 Alpha  occ. eigenvalues --  -10.18274 -10.18001 -10.17993 -10.17879 -10.17872
 Alpha  occ. eigenvalues --   -0.91139  -0.91117  -0.84488  -0.82872  -0.76617
 Alpha  occ. eigenvalues --   -0.73903  -0.73792  -0.71681  -0.66024  -0.61205
 Alpha  occ. eigenvalues --   -0.60706  -0.58649  -0.56620  -0.51263  -0.50755
 Alpha  occ. eigenvalues --   -0.50482  -0.49879  -0.46098  -0.45338  -0.43861
 Alpha  occ. eigenvalues --   -0.42677  -0.42299  -0.41733  -0.41321  -0.40707
 Alpha  occ. eigenvalues --   -0.38160  -0.38058  -0.36838  -0.35711  -0.34234
 Alpha  occ. eigenvalues --   -0.33651  -0.32540  -0.30141  -0.29508  -0.24632
 Alpha  occ. eigenvalues --   -0.24613  -0.20377  -0.19371
 Alpha virt. eigenvalues --   -0.00147  -0.00099   0.01330   0.02666   0.09515
 Alpha virt. eigenvalues --    0.09523   0.10379   0.11704   0.12451   0.13213
 Alpha virt. eigenvalues --    0.14168   0.15386   0.16708   0.17283   0.17914
 Alpha virt. eigenvalues --    0.18038   0.19084   0.19158   0.20020   0.21258
 Alpha virt. eigenvalues --    0.24713   0.25282   0.28748   0.29826   0.32337
 Alpha virt. eigenvalues --    0.33346   0.33698   0.33837   0.34651   0.35756
 Alpha virt. eigenvalues --    0.36753   0.37132   0.47298   0.49086   0.51124
 Alpha virt. eigenvalues --    0.51844   0.52387   0.53416   0.54115   0.54284
 Alpha virt. eigenvalues --    0.54765   0.55105   0.58187   0.58635   0.59296
 Alpha virt. eigenvalues --    0.59747   0.59925   0.60293   0.60396   0.60667
 Alpha virt. eigenvalues --    0.62679   0.62857   0.63299   0.63973   0.65492
 Alpha virt. eigenvalues --    0.65958   0.66370   0.66849   0.70205   0.70255
 Alpha virt. eigenvalues --    0.71449   0.73399   0.74486   0.76138   0.77588
 Alpha virt. eigenvalues --    0.80413   0.80916   0.81560   0.82423   0.82971
 Alpha virt. eigenvalues --    0.83363   0.83631   0.85329   0.85986   0.86382
 Alpha virt. eigenvalues --    0.86869   0.88244   0.88871   0.88991   0.89703
 Alpha virt. eigenvalues --    0.92245   0.92382   0.93051   0.93849   0.98159
 Alpha virt. eigenvalues --    0.99520   0.99740   1.00399   1.00949   1.03474
 Alpha virt. eigenvalues --    1.06229   1.06847   1.11584   1.12706   1.15831
 Alpha virt. eigenvalues --    1.15993   1.16312   1.17995   1.19347   1.20800
 Alpha virt. eigenvalues --    1.26327   1.27666   1.28353   1.29866   1.31952
 Alpha virt. eigenvalues --    1.33882   1.36664   1.39553   1.40255   1.40739
 Alpha virt. eigenvalues --    1.41189   1.41443   1.42230   1.44849   1.47321
 Alpha virt. eigenvalues --    1.49500   1.50952   1.53407   1.59068   1.60681
 Alpha virt. eigenvalues --    1.75299   1.76295   1.76668   1.76766   1.78434
 Alpha virt. eigenvalues --    1.79611   1.81205   1.81674   1.82635   1.85175
 Alpha virt. eigenvalues --    1.86250   1.87029   1.87796   1.88333   1.90819
 Alpha virt. eigenvalues --    1.92008   1.93070   1.93585   1.96788   1.97159
 Alpha virt. eigenvalues --    1.97594   1.97684   1.98847   2.00594   2.01053
 Alpha virt. eigenvalues --    2.02443   2.07183   2.08654   2.09537   2.12139
 Alpha virt. eigenvalues --    2.13018   2.15666   2.16941   2.17149   2.21745
 Alpha virt. eigenvalues --    2.24840   2.25097   2.26401   2.26733   2.28423
 Alpha virt. eigenvalues --    2.30090   2.30552   2.33193   2.33846   2.34749
 Alpha virt. eigenvalues --    2.34998   2.36186   2.36345   2.40774   2.41663
 Alpha virt. eigenvalues --    2.42149   2.44022   2.44575   2.46523   2.46660
 Alpha virt. eigenvalues --    2.47520   2.47748   2.48230   2.49692   2.50242
 Alpha virt. eigenvalues --    2.54282   2.55100   2.56186   2.57987   2.59858
 Alpha virt. eigenvalues --    2.60114   2.60962   2.64073   2.64895   2.65982
 Alpha virt. eigenvalues --    2.67432   2.68475   2.72689   2.73373   2.77941
 Alpha virt. eigenvalues --    2.78438   2.80349   2.81962   2.84474   2.85659
 Alpha virt. eigenvalues --    2.87965   2.88682   2.89130   2.98632   2.98816
 Alpha virt. eigenvalues --    3.02950   3.06427   3.07012   3.09409   3.19270
 Alpha virt. eigenvalues --    3.19978   3.25503   3.25759   3.27499   3.28692
 Alpha virt. eigenvalues --    3.29357   3.29636   3.34249   3.38149   3.39639
 Alpha virt. eigenvalues --    3.48020   3.49002   3.50543   3.54001   3.54157
 Alpha virt. eigenvalues --    3.83493   3.84149   4.04293   4.04363   4.13651
 Alpha virt. eigenvalues --    4.14434   4.16172   4.16790   4.18946   4.22988
 Alpha virt. eigenvalues --    4.41839   4.44057   4.44283   4.48141   4.59479
 Alpha virt. eigenvalues --    4.82551   4.86353
          Condensed to atoms (all electrons):
               1          2          3          4          5          6
     1  N    6.836404   0.295596  -0.071113   0.004515   0.000547   0.000000
     2  C    0.295596   4.582718   0.542370  -0.023724  -0.030829   0.000317
     3  C   -0.071113   0.542370   4.962593   0.501302  -0.035479   0.006843
     4  C    0.004515  -0.023724   0.501302   4.927063   0.545854  -0.046461
     5  C    0.000547  -0.030829  -0.035479   0.545854   4.746362   0.351351
     6  C    0.000000   0.000317   0.006843  -0.046461   0.351351   5.131104
     7  C   -0.000000  -0.000014  -0.000017  -0.003012  -0.056649   0.350996
     8  C   -0.000000   0.000000   0.000004  -0.000180  -0.003405  -0.045979
     9  C    0.000000   0.000000  -0.000000   0.000005  -0.000082   0.006541
    10  C    0.000000   0.000000  -0.000000   0.000000   0.000050   0.000531
    11  N   -0.000000  -0.000000   0.000000  -0.000000   0.000000   0.000002
    12  C   -0.000000   0.000000   0.000000   0.000025   0.000146   0.005920
    13  C    0.000000  -0.000001  -0.000085   0.001611  -0.000085  -0.064843
    14  C    0.004554  -0.024058  -0.046393  -0.041566   0.532898  -0.066012
    15  C   -0.070594   0.537023  -0.048029  -0.046730  -0.031730   0.006164
    16  H    0.343394  -0.025348  -0.009374  -0.000020  -0.000006  -0.000000
    17  H    0.343328  -0.025566   0.005522  -0.000165  -0.000008  -0.000000
    18  H   -0.007503  -0.044086   0.362541  -0.033444   0.004020  -0.000168
    19  H   -0.000114   0.003988  -0.040869   0.366323  -0.041283  -0.010323
    20  H    0.000000   0.000063  -0.000341   0.002536  -0.029788   0.358225
    21  H   -0.000000  -0.000007   0.000308  -0.008789  -0.032857   0.359054
    22  H    0.000000   0.000000  -0.000000  -0.000004   0.000187  -0.010039
    23  H    0.000000  -0.000000   0.000000  -0.000000  -0.000000  -0.000176
    24  H    0.000000  -0.000000  -0.000000   0.000000   0.000000  -0.000000
    25  H    0.000000   0.000000  -0.000000   0.000000   0.000000  -0.000000
    26  H    0.000000  -0.000000  -0.000000  -0.000000  -0.000001  -0.000181
    27  H    0.000000  -0.000003   0.000042   0.001651   0.003057  -0.008572
    28  H   -0.000115   0.003969   0.000544   0.005722  -0.044222  -0.008589
    29  H   -0.007420  -0.043472   0.005263   0.000730   0.003762  -0.000176
               7          8          9         10         11         12
     1  N   -0.000000  -0.000000   0.000000   0.000000  -0.000000  -0.000000
     2  C   -0.000014   0.000000   0.000000   0.000000  -0.000000   0.000000
     3  C   -0.000017   0.000004  -0.000000  -0.000000   0.000000   0.000000
     4  C   -0.003012  -0.000180   0.000005   0.000000  -0.000000   0.000025
     5  C   -0.056649  -0.003405  -0.000082   0.000050   0.000000   0.000146
     6  C    0.350996  -0.045979   0.006541   0.000531   0.000002   0.005920
     7  C    4.749303   0.547180  -0.036164  -0.030116   0.000611  -0.032649
     8  C    0.547180   4.923170   0.502358  -0.024538   0.004435  -0.046161
     9  C   -0.036164   0.502358   4.962304   0.542778  -0.071039  -0.048382
    10  C   -0.030116  -0.024538   0.542778   4.580719   0.295699   0.538120
    11  N    0.000611   0.004435  -0.071039   0.295699   6.836643  -0.070473
    12  C   -0.032649  -0.046161  -0.048382   0.538120  -0.070473   4.948317
    13  C    0.532981  -0.041917  -0.046148  -0.025036   0.004461   0.514154
    14  C   -0.000801   0.001649  -0.000110  -0.000001   0.000000  -0.000071
    15  C    0.000339   0.000031   0.000000   0.000000   0.000000  -0.000003
    16  H   -0.000000  -0.000000   0.000000   0.000000   0.000000   0.000000
    17  H   -0.000000  -0.000000   0.000000   0.000000  -0.000000  -0.000000
    18  H    0.000001  -0.000000   0.000000  -0.000000   0.000000   0.000000
    19  H    0.000192  -0.000003   0.000000   0.000000  -0.000000   0.000000
    20  H   -0.032668  -0.008605   0.000288  -0.000002  -0.000000  -0.000188
    21  H   -0.029420   0.002634  -0.000263   0.000001  -0.000000   0.000074
    22  H   -0.041427   0.366247  -0.040588   0.003958  -0.000115   0.000543
    23  H    0.003987  -0.033256   0.362309  -0.044018  -0.007509   0.005286
    24  H    0.000006  -0.000179   0.005538  -0.025305   0.343255  -0.009293
    25  H    0.000003  -0.000045  -0.009289  -0.025161   0.343420   0.005501
    26  H    0.003746   0.000741   0.005253  -0.043484  -0.007435   0.363008
    27  H   -0.044578   0.005678   0.000547   0.003949  -0.000115  -0.038631
    28  H    0.002863   0.001921   0.000081  -0.000015   0.000000  -0.000026
    29  H    0.000003  -0.000000  -0.000000  -0.000000   0.000000   0.000000
              13         14         15         16         17         18
     1  N    0.000000   0.004554  -0.070594   0.343394   0.343328  -0.007503
     2  C   -0.000001  -0.024058   0.537023  -0.025348  -0.025566  -0.044086
     3  C   -0.000085  -0.046393  -0.048029  -0.009374   0.005522   0.362541
     4  C    0.001611  -0.041566  -0.046730  -0.000020  -0.000165  -0.033444
     5  C   -0.000085   0.532898  -0.031730  -0.000006  -0.000008   0.004020
     6  C   -0.064843  -0.066012   0.006164  -0.000000  -0.000000  -0.000168
     7  C    0.532981  -0.000801   0.000339  -0.000000  -0.000000   0.000001
     8  C   -0.041917   0.001649   0.000031  -0.000000  -0.000000  -0.000000
     9  C   -0.046148  -0.000110   0.000000   0.000000   0.000000   0.000000
    10  C   -0.025036  -0.000001   0.000000   0.000000   0.000000  -0.000000
    11  N    0.004461   0.000000   0.000000   0.000000  -0.000000   0.000000
    12  C    0.514154  -0.000071  -0.000003   0.000000  -0.000000   0.000000
    13  C    4.927473  -0.000678  -0.000070   0.000000   0.000000   0.000001
    14  C   -0.000678   4.930064   0.512533  -0.000171  -0.000008   0.000665
    15  C   -0.000070   0.512533   4.949965   0.005514  -0.009378   0.005303
    16  H    0.000000  -0.000171   0.005514   0.434672  -0.028464   0.004698
    17  H    0.000000  -0.000008  -0.009378  -0.028464   0.435109  -0.000055
    18  H    0.000001   0.000665   0.005303   0.004698  -0.000055   0.624576
    19  H   -0.000020   0.005906   0.000533  -0.000006   0.000004  -0.006186
    20  H    0.005903  -0.006921  -0.000079   0.000000   0.000000   0.000003
    21  H   -0.007443   0.005909  -0.000180   0.000000   0.000000  -0.000010
    22  H    0.005873  -0.000029  -0.000000   0.000000   0.000000  -0.000000
    23  H    0.000685   0.000001   0.000000   0.000000   0.000000  -0.000000
    24  H   -0.000058   0.000000   0.000000   0.000000   0.000000  -0.000000
    25  H   -0.000182   0.000000  -0.000000   0.000000  -0.000000  -0.000000
    26  H   -0.034023   0.000001   0.000000   0.000000   0.000000  -0.000000
    27  H    0.365176   0.000327  -0.000033   0.000000   0.000000  -0.000002
    28  H    0.000316   0.364800  -0.038664   0.000004  -0.000005   0.000017
    29  H    0.000001  -0.034186   0.363207  -0.000056   0.004718  -0.000189
              19         20         21         22         23         24
     1  N   -0.000114   0.000000  -0.000000   0.000000   0.000000   0.000000
     2  C    0.003988   0.000063  -0.000007   0.000000  -0.000000  -0.000000
     3  C   -0.040869  -0.000341   0.000308  -0.000000   0.000000  -0.000000
     4  C    0.366323   0.002536  -0.008789  -0.000004  -0.000000   0.000000
     5  C   -0.041283  -0.029788  -0.032857   0.000187  -0.000000   0.000000
     6  C   -0.010323   0.358225   0.359054  -0.010039  -0.000176  -0.000000
     7  C    0.000192  -0.032668  -0.029420  -0.041427   0.003987   0.000006
     8  C   -0.000003  -0.008605   0.002634   0.366247  -0.033256  -0.000179
     9  C    0.000000   0.000288  -0.000263  -0.040588   0.362309   0.005538
    10  C    0.000000  -0.000002   0.000001   0.003958  -0.044018  -0.025305
    11  N   -0.000000  -0.000000  -0.000000  -0.000115  -0.007509   0.343255
    12  C    0.000000  -0.000188   0.000074   0.000543   0.005286  -0.009293
    13  C   -0.000020   0.005903  -0.007443   0.005873   0.000685  -0.000058
    14  C    0.005906  -0.006921   0.005909  -0.000029   0.000001   0.000000
    15  C    0.000533  -0.000079  -0.000180  -0.000000   0.000000   0.000000
    16  H   -0.000006   0.000000   0.000000   0.000000   0.000000   0.000000
    17  H    0.000004   0.000000   0.000000   0.000000   0.000000   0.000000
    18  H   -0.006186   0.000003  -0.000010  -0.000000  -0.000000  -0.000000
    19  H    0.623901   0.000175   0.006519   0.000000  -0.000000  -0.000000
    20  H    0.000175   0.628807  -0.035836   0.006426  -0.000009   0.000000
    21  H    0.006519  -0.035836   0.629033   0.000121   0.000004  -0.000000
    22  H    0.000000   0.006426   0.000121   0.623353  -0.006163   0.000004
    23  H   -0.000000  -0.000009   0.000004  -0.006163   0.624490  -0.000054
    24  H   -0.000000   0.000000  -0.000000   0.000004  -0.000054   0.434774
    25  H   -0.000000   0.000000  -0.000000  -0.000006   0.004717  -0.028443
    26  H   -0.000000   0.000003   0.000001   0.000017  -0.000189   0.004742
    27  H    0.000261   0.000131   0.002113  -0.000173   0.000017  -0.000006
    28  H   -0.000172   0.002123   0.000120   0.000392  -0.000002  -0.000000
    29  H    0.000017  -0.000003   0.000003  -0.000000  -0.000000  -0.000000
              25         26         27         28         29
     1  N    0.000000   0.000000   0.000000  -0.000115  -0.007420
     2  C    0.000000  -0.000000  -0.000003   0.003969  -0.043472
     3  C   -0.000000  -0.000000   0.000042   0.000544   0.005263
     4  C    0.000000  -0.000000   0.001651   0.005722   0.000730
     5  C    0.000000  -0.000001   0.003057  -0.044222   0.003762
     6  C   -0.000000  -0.000181  -0.008572  -0.008589  -0.000176
     7  C    0.000003   0.003746  -0.044578   0.002863   0.000003
     8  C   -0.000045   0.000741   0.005678   0.001921  -0.000000
     9  C   -0.009289   0.005253   0.000547   0.000081  -0.000000
    10  C   -0.025161  -0.043484   0.003949  -0.000015  -0.000000
    11  N    0.343420  -0.007435  -0.000115   0.000000   0.000000
    12  C    0.005501   0.363008  -0.038631  -0.000026   0.000000
    13  C   -0.000182  -0.034023   0.365176   0.000316   0.000001
    14  C    0.000000   0.000001   0.000327   0.364800  -0.034186
    15  C   -0.000000   0.000000  -0.000033  -0.038664   0.363207
    16  H    0.000000   0.000000   0.000000   0.000004  -0.000056
    17  H   -0.000000   0.000000   0.000000  -0.000005   0.004718
    18  H   -0.000000  -0.000000  -0.000002   0.000017  -0.000189
    19  H   -0.000000  -0.000000   0.000261  -0.000172   0.000017
    20  H    0.000000   0.000003   0.000131   0.002123  -0.000003
    21  H   -0.000000   0.000001   0.002113   0.000120   0.000003
    22  H   -0.000006   0.000017  -0.000173   0.000392  -0.000000
    23  H    0.004717  -0.000189   0.000017  -0.000002  -0.000000
    24  H   -0.028443   0.004742  -0.000006  -0.000000  -0.000000
    25  H    0.434198  -0.000055   0.000004  -0.000000  -0.000000
    26  H   -0.000055   0.622657  -0.005969   0.000000  -0.000000
    27  H    0.000004  -0.005969   0.624259  -0.000015  -0.000000
    28  H   -0.000000   0.000000  -0.000015   0.624000  -0.005985
    29  H   -0.000000  -0.000000  -0.000000  -0.005985   0.622525
 Mulliken charges:
               1
     1  N   -0.671478
     2  C    0.251066
     3  C   -0.135634
     4  C   -0.153240
     5  C    0.118191
     6  C   -0.315529
     7  C    0.115304
     8  C   -0.151782
     9  C   -0.135937
    10  C    0.251870
    11  N   -0.671839
    12  C   -0.135218
    13  C   -0.138045
    14  C   -0.138303
    15  C   -0.135121
    16  H    0.275164
    17  H    0.274970
    18  H    0.089818
    19  H    0.091155
    20  H    0.109759
    21  H    0.108911
    22  H    0.091422
    23  H    0.089881
    24  H    0.275019
    25  H    0.275340
    26  H    0.091170
    27  H    0.090887
    28  H    0.090937
    29  H    0.091261
 Sum of Mulliken charges =  -0.00000
 Mulliken charges with hydrogens summed into heavy atoms:
               1
     1  N   -0.121345
     2  C    0.251066
     3  C   -0.045816
     4  C   -0.062085
     5  C    0.118191
     6  C   -0.096858
     7  C    0.115304
     8  C   -0.060360
     9  C   -0.046056
    10  C    0.251870
    11  N   -0.121479
    12  C   -0.044048
    13  C   -0.047158
    14  C   -0.047366
    15  C   -0.043860
 APT charges:
               1
     1  N   -1.223479
     2  C    0.197997
     3  C   -0.452546
     4  C   -0.503070
     5  C   -0.454186
     6  C   -0.897288
     7  C   -0.405996
     8  C   -0.532150
     9  C   -0.428197
    10  C    0.269422
    11  N   -1.601384
    12  C   -0.423159
    13  C   -0.564542
    14  C   -0.539338
    15  C   -0.448355
    16  H    0.833587
    17  H    0.632152
    18  H    0.719623
    19  H    0.450459
    20  H    0.432270
    21  H    0.429883
    22  H    0.428937
    23  H    0.688907
    24  H    0.806204
    25  H    0.988123
    26  H    0.527933
    27  H    0.263551
    28  H    0.265288
    29  H    0.539352
 Sum of APT charges =  -0.00000
 APT charges with hydrogens summed into heavy atoms:
               1
     1  N    0.242260
     2  C    0.197997
     3  C    0.267078
     4  C   -0.052611
     5  C   -0.454186
     6  C   -0.035135
     7  C   -0.405996
     8  C   -0.103213
     9  C    0.260710
    10  C    0.269422
    11  N    0.192943
    12  C    0.104774
    13  C   -0.300992
    14  C   -0.274050
    15  C    0.090997
 Electronic spatial extent (au):  <R**2>=           4388.5536
 Charge=             -0.0000 electrons
 Dipole moment (field-independent basis, Debye):
    X=              1.1813    Y=             -1.3949    Z=             -1.2058  Tot=              2.1898
 Quadrupole moment (field-independent basis, Debye-Ang):
   XX=            -63.8009   YY=            -85.3665   ZZ=            -79.7967
   XY=              7.4935   XZ=              4.1627   YZ=              1.0240
 Traceless Quadrupole moment (field-independent basis, Debye-Ang):
   XX=             12.5204   YY=             -9.0451   ZZ=             -3.4753
   XY=              7.4935   XZ=              4.1627   YZ=              1.0240
 Octapole moment (field-independent basis, Debye-Ang**2):
  XXX=             99.3172  YYY=            -11.7294  ZZZ=             -2.4352  XYY=            -32.9953
  XXY=            -74.3076  XXZ=            -39.5872  XZZ=              5.8771  YZZ=             -6.8105
  YYZ=             -2.2128  XYZ=             17.1578
 Hexadecapole moment (field-independent basis, Debye-Ang**3):
 XXXX=          -3801.4937 YYYY=           -583.3522 ZZZZ=           -490.3628 XXXY=            103.8675
 XXXZ=            150.3160 YYYX=             87.7223 YYYZ=             -2.9740 ZZZX=              4.6374
 ZZZY=              6.0740 XXYY=           -807.5636 XXZZ=           -766.6292 YYZZ=           -164.8931
 XXYZ=             44.4189 YYXZ=            -24.4462 ZZXY=             -5.6008
 N-N= 8.844683839045D+02 E-N=-3.192062147250D+03  KE= 6.074755077554D+02
  Exact polarizability:   0.000   0.000   0.000   0.000   0.000   0.000
 Approx polarizability: 278.311  -4.286 182.031  37.248  -6.070 232.763
 D2PCM: PCM CHGder 2nd derivatives, FixD1E=F FixD2E=F DoIter=F DoCFld=F I1PDM=0
 Calling FoFJK, ICntrl=    100147 FMM=F ISym2X=0 I1Cent= 0 IOpClX= 0 NMat=1 NMatS=1 NMatT=0.
 ***** Axes restored to original set *****
 -------------------------------------------------------------------
 Center     Atomic                   Forces (Hartrees/Bohr)
 Number     Number              X              Y              Z
 -------------------------------------------------------------------
      1        7          -0.001095983   -0.000543585    0.003448148
      2        6           0.014438359   -0.001106716   -0.009083085
      3        6          -0.007244624    0.010917847    0.000796331
      4        6           0.005693645   -0.006798024    0.003209791
      5        6          -0.001516259    0.006062276   -0.001336936
      6        6          -0.000843871    0.003678630   -0.005248598
      7        6           0.001799136   -0.002419889   -0.005893821
      8        6          -0.004941579    0.000279711    0.008054758
      9        6           0.002692730    0.000102714   -0.012936337
     10        6          -0.000494058   -0.014237463    0.009545928
     11        7          -0.002148389    0.002531548   -0.000851007
     12        6           0.010396561    0.012387725   -0.000709471
     13        6          -0.007374878   -0.004866044    0.002429114
     14        6           0.008005872    0.000641309    0.004013811
     15        6          -0.014878140   -0.006055887   -0.002135895
     16        1           0.000001669   -0.003843849    0.000619826
     17        1           0.002040662    0.003349118    0.001279046
     18        1           0.001020469   -0.000618598    0.001690567
     19        1          -0.001068279   -0.000825158   -0.000526874
     20        1          -0.003982366   -0.000892400    0.000725615
     21        1           0.004267906   -0.000197058    0.000540556
     22        1           0.000847980    0.001127349    0.000251539
     23        1          -0.001946924    0.000483916    0.000607031
     24        1          -0.002403734   -0.002308256   -0.002383099
     25        1          -0.000268770    0.002305377    0.003170588
     26        1          -0.002153251    0.000414215    0.000241192
     27        1           0.000024804   -0.000450724   -0.000956063
     28        1          -0.000119663    0.001127675   -0.000099116
     29        1           0.001250973   -0.000245760    0.001536459
 -------------------------------------------------------------------
 Cartesian Forces:  Max     0.014878140 RMS     0.004885529
 FormGI is forming the generalized inverse of G from B-inverse, IUseBI=4.

 GradGradGradGradGradGradGradGradGradGradGradGradGradGradGradGradGradGrad
 Berny optimization.
 Internal  Forces:  Max     0.009085645 RMS     0.002491394
 Search for a local minimum.
 Step number   1 out of a maximum of  156
 All quantities printed in internal units (Hartrees-Bohrs-Radians)
 Mixed Optimization -- RFO/linear search
 Second derivative matrix not updated -- analytic derivatives used.
 ITU=  0
     Eigenvalues ---    0.00065   0.00112   0.00523   0.00531   0.01561
     Eigenvalues ---    0.01610   0.01659   0.01670   0.01723   0.01726
     Eigenvalues ---    0.01879   0.01928   0.01996   0.02005   0.02208
     Eigenvalues ---    0.02216   0.02334   0.02339   0.02725   0.02726
     Eigenvalues ---    0.02756   0.02765   0.02858   0.02861   0.05101
     Eigenvalues ---    0.05154   0.08751   0.11301   0.11345   0.11540
     Eigenvalues ---    0.11549   0.11876   0.11893   0.12338   0.12734
     Eigenvalues ---    0.12746   0.13570   0.13606   0.15449   0.15493
     Eigenvalues ---    0.17817   0.18054   0.18657   0.18801   0.19011
     Eigenvalues ---    0.19330   0.19501   0.19673   0.19756   0.21804
     Eigenvalues ---    0.22010   0.29743   0.31516   0.31541   0.31907
     Eigenvalues ---    0.32680   0.33683   0.35436   0.35453   0.35806
     Eigenvalues ---    0.35816   0.35831   0.35842   0.35876   0.35953
     Eigenvalues ---    0.38595   0.38925   0.41178   0.41229   0.44459
     Eigenvalues ---    0.44631   0.45541   0.45571   0.46011   0.46043
     Eigenvalues ---    0.47077   0.47168   0.47670   0.47688   0.51473
     Eigenvalues ---    0.51555
 RFO step:  Lambda=-5.83705235D-03 EMin= 6.54767066D-04
 Linear search not attempted -- first point.
 Iteration  1 RMS(Cart)=  0.02697163 RMS(Int)=  0.00060464
 Iteration  2 RMS(Cart)=  0.00084482 RMS(Int)=  0.00035071
 Iteration  3 RMS(Cart)=  0.00000043 RMS(Int)=  0.00035071
 Variable       Old X    -DE/DX   Delta X   Delta X   Delta X     New X
                                 (Linear)    (Quad)   (Total)
    R1        2.64626   0.00296   0.00000  -0.00327  -0.00327   2.64299
    R2        1.91787  -0.00230   0.00000  -0.00460  -0.00460   1.91328
    R3        1.91835  -0.00247   0.00000  -0.00507  -0.00507   1.91327
    R4        2.63798   0.00705   0.00000   0.01523   0.01530   2.65328
    R5        2.63756   0.00909   0.00000   0.02177   0.02183   2.65939
    R6        2.64329  -0.00162   0.00000  -0.00637  -0.00637   2.63691
    R7        2.05328   0.00066   0.00000   0.00126   0.00126   2.05453
    R8        2.64594   0.00068   0.00000  -0.00091  -0.00097   2.64497
    R9        2.05482  -0.00053   0.00000   0.00041   0.00041   2.05523
   R10        2.85710   0.00652   0.00000   0.01613   0.01613   2.87323
   R11        2.64688   0.00125   0.00000   0.00466   0.00459   2.65147
   R12        2.85724   0.00639   0.00000   0.01503   0.01503   2.87227
   R13        2.07484  -0.00021   0.00000  -0.00128  -0.00128   2.07356
   R14        2.07497  -0.00037   0.00000  -0.00178  -0.00178   2.07319
   R15        2.64582   0.00074   0.00000  -0.00072  -0.00078   2.64504
   R16        2.64679   0.00134   0.00000   0.00489   0.00482   2.65161
   R17        2.64316  -0.00159   0.00000  -0.00628  -0.00627   2.63689
   R18        2.05492  -0.00056   0.00000   0.00031   0.00031   2.05523
   R19        2.63814   0.00704   0.00000   0.01513   0.01521   2.65334
   R20        2.05333   0.00063   0.00000   0.00117   0.00117   2.05449
   R21        2.64568   0.00286   0.00000  -0.00298  -0.00298   2.64271
   R22        2.63780   0.00908   0.00000   0.02178   0.02183   2.65963
   R23        1.91795  -0.00242   0.00000  -0.00473  -0.00473   1.91322
   R24        1.91777  -0.00236   0.00000  -0.00454  -0.00454   1.91323
   R25        2.64261  -0.00357   0.00000  -0.01310  -0.01312   2.62948
   R26        2.05318   0.00069   0.00000   0.00155   0.00155   2.05474
   R27        2.05545  -0.00067   0.00000  -0.00034  -0.00034   2.05511
   R28        2.64252  -0.00355   0.00000  -0.01301  -0.01301   2.62951
   R29        2.05545  -0.00070   0.00000  -0.00045  -0.00045   2.05500
   R30        2.05320   0.00065   0.00000   0.00149   0.00149   2.05469
    A1        1.98243   0.00216   0.00000   0.01327   0.01326   1.99569
    A2        1.98058   0.00248   0.00000   0.01500   0.01499   1.99557
    A3        1.95934  -0.00373   0.00000  -0.02701  -0.02702   1.93232
    A4        2.09973   0.00223   0.00000   0.01394   0.01237   2.11209
    A5        2.09963   0.00180   0.00000   0.00975   0.00815   2.10778
    A6        2.06903  -0.00348   0.00000  -0.00700  -0.00856   2.06048
    A7        2.10865  -0.00099   0.00000  -0.00403  -0.00405   2.10460
    A8        2.09732  -0.00120   0.00000  -0.01080  -0.01079   2.08653
    A9        2.07722   0.00219   0.00000   0.01483   0.01484   2.09206
   A10        2.10346   0.00470   0.00000   0.02070   0.02055   2.12400
   A11        2.07644  -0.00097   0.00000  -0.00145  -0.00140   2.07504
   A12        2.10322  -0.00372   0.00000  -0.01914  -0.01908   2.08414
   A13        2.10529   0.00365   0.00000   0.01500   0.01505   2.12034
   A14        2.06945  -0.00403   0.00000  -0.02101  -0.02128   2.04817
   A15        2.10806   0.00039   0.00000   0.00652   0.00657   2.11463
   A16        1.99515   0.00176   0.00000   0.00422   0.00422   1.99937
   A17        1.88703   0.00322   0.00000   0.02406   0.02413   1.91115
   A18        1.92665  -0.00471   0.00000  -0.03348  -0.03342   1.89322
   A19        1.92743  -0.00464   0.00000  -0.03381  -0.03373   1.89370
   A20        1.88359   0.00346   0.00000   0.02749   0.02760   1.91119
   A21        1.83771   0.00073   0.00000   0.01131   0.01166   1.84937
   A22        2.10606   0.00365   0.00000   0.01466   0.01473   2.12079
   A23        2.10699   0.00051   0.00000   0.00715   0.00722   2.11420
   A24        2.07009  -0.00416   0.00000  -0.02170  -0.02190   2.04820
   A25        2.10319   0.00474   0.00000   0.02087   0.02074   2.12393
   A26        2.10281  -0.00368   0.00000  -0.01876  -0.01877   2.08403
   A27        2.07707  -0.00105   0.00000  -0.00185  -0.00186   2.07522
   A28        2.10877  -0.00100   0.00000  -0.00413  -0.00408   2.10469
   A29        2.07701   0.00223   0.00000   0.01512   0.01510   2.09210
   A30        2.09741  -0.00123   0.00000  -0.01099  -0.01101   2.08639
   A31        2.09950   0.00219   0.00000   0.01380   0.01216   2.11166
   A32        2.06900  -0.00345   0.00000  -0.00698  -0.00855   2.06045
   A33        2.09988   0.00184   0.00000   0.01014   0.00847   2.10835
   A34        1.98351   0.00231   0.00000   0.01303   0.01304   1.99655
   A35        1.98436   0.00208   0.00000   0.01150   0.01150   1.99587
   A36        1.96141  -0.00370   0.00000  -0.02866  -0.02865   1.93276
   A37        2.10817  -0.00032   0.00000  -0.00195  -0.00195   2.10622
   A38        2.09875  -0.00153   0.00000  -0.01384  -0.01384   2.08491
   A39        2.07627   0.00185   0.00000   0.01579   0.01579   2.09206
   A40        2.10386   0.00434   0.00000   0.01907   0.01888   2.12274
   A41        2.09929  -0.00300   0.00000  -0.01527  -0.01525   2.08404
   A42        2.07982  -0.00134   0.00000  -0.00343  -0.00342   2.07641
   A43        2.10427   0.00425   0.00000   0.01859   0.01843   2.12269
   A44        2.10008  -0.00305   0.00000  -0.01603  -0.01597   2.08411
   A45        2.07882  -0.00120   0.00000  -0.00251  -0.00244   2.07638
   A46        2.10807  -0.00028   0.00000  -0.00177  -0.00179   2.10628
   A47        2.09899  -0.00160   0.00000  -0.01445  -0.01444   2.08455
   A48        2.07612   0.00188   0.00000   0.01623   0.01624   2.09236
    D1        0.53386  -0.00108   0.00000  -0.04927  -0.04966   0.48420
    D2       -2.79437   0.00206   0.00000   0.05424   0.05463  -2.73975
    D3        2.79957  -0.00211   0.00000  -0.06169  -0.06207   2.73750
    D4       -0.52866   0.00103   0.00000   0.04182   0.04221  -0.48645
    D5        3.04483   0.00146   0.00000   0.03379   0.03381   3.07863
    D6       -0.09838   0.00149   0.00000   0.03525   0.03520  -0.06318
    D7        0.08664  -0.00217   0.00000  -0.06964  -0.06942   0.01722
    D8       -3.05656  -0.00214   0.00000  -0.06819  -0.06803  -3.12459
    D9       -3.04433  -0.00159   0.00000  -0.03636  -0.03602  -3.08035
   D10        0.10193  -0.00164   0.00000  -0.04011  -0.03979   0.06214
   D11       -0.08613   0.00209   0.00000   0.06753   0.06740  -0.01873
   D12        3.06013   0.00204   0.00000   0.06378   0.06363   3.12376
   D13       -0.03445   0.00077   0.00000   0.02775   0.02781  -0.00664
   D14        3.12032   0.00054   0.00000   0.01786   0.01781   3.13813
   D15        3.10873   0.00074   0.00000   0.02633   0.02643   3.13517
   D16       -0.01968   0.00051   0.00000   0.01644   0.01644  -0.00324
   D17       -3.13191  -0.00005   0.00000  -0.00299  -0.00296  -3.13487
   D18       -0.01960   0.00048   0.00000   0.01682   0.01675  -0.00285
   D19       -0.00370   0.00021   0.00000   0.00719   0.00722   0.00352
   D20        3.10861   0.00074   0.00000   0.02700   0.02693   3.13554
   D21       -2.06582  -0.00124   0.00000   0.00065   0.00077  -2.06505
   D22        2.06310   0.00113   0.00000   0.02336   0.02339   2.08648
   D23        0.06141   0.00097   0.00000   0.01420   0.01435   0.07576
   D24        1.10571  -0.00171   0.00000  -0.01914  -0.01922   1.08648
   D25       -1.04856   0.00066   0.00000   0.00356   0.00339  -1.04517
   D26       -3.05025   0.00049   0.00000  -0.00560  -0.00565  -3.05590
   D27        0.02008  -0.00053   0.00000  -0.01880  -0.01876   0.00133
   D28       -3.11505  -0.00075   0.00000  -0.02754  -0.02740   3.14074
   D29        3.13235   0.00006   0.00000   0.00119   0.00103   3.13338
   D30       -0.00278  -0.00016   0.00000  -0.00754  -0.00762  -0.01040
   D31       -1.99335  -0.00163   0.00000  -0.01804  -0.01809  -2.01144
   D32        1.13778  -0.00126   0.00000  -0.00609  -0.00600   1.13178
   D33        0.13900   0.00030   0.00000  -0.00933  -0.00932   0.12968
   D34       -3.01306   0.00067   0.00000   0.00263   0.00278  -3.01028
   D35        2.13918   0.00066   0.00000   0.00167   0.00151   2.14069
   D36       -1.01288   0.00103   0.00000   0.01363   0.01360  -0.99928
   D37       -3.13936   0.00018   0.00000   0.00259   0.00252  -3.13684
   D38        0.01863  -0.00038   0.00000  -0.01628  -0.01629   0.00233
   D39        0.01248  -0.00021   0.00000  -0.00928  -0.00929   0.00318
   D40       -3.11272  -0.00077   0.00000  -0.02815  -0.02811  -3.14082
   D41        3.14044  -0.00027   0.00000  -0.00543  -0.00532   3.13511
   D42       -0.02371   0.00032   0.00000   0.01333   0.01336  -0.01035
   D43       -0.01141   0.00014   0.00000   0.00649   0.00649  -0.00492
   D44        3.10763   0.00073   0.00000   0.02525   0.02517   3.13280
   D45        0.03659  -0.00079   0.00000  -0.02764  -0.02774   0.00885
   D46       -3.10566  -0.00089   0.00000  -0.02910  -0.02923  -3.13489
   D47       -3.12116  -0.00027   0.00000  -0.00921  -0.00918  -3.13034
   D48        0.01978  -0.00037   0.00000  -0.01067  -0.01067   0.00911
   D49       -3.04339  -0.00162   0.00000  -0.03836  -0.03830  -3.08169
   D50       -0.08522   0.00208   0.00000   0.06669   0.06649  -0.01873
   D51        0.09887  -0.00152   0.00000  -0.03689  -0.03683   0.06204
   D52        3.05704   0.00219   0.00000   0.06816   0.06796   3.12500
   D53       -2.80361   0.00226   0.00000   0.06683   0.06722  -2.73639
   D54       -0.53035   0.00106   0.00000   0.04862   0.04900  -0.48134
   D55        0.52467  -0.00096   0.00000  -0.03829  -0.03867   0.48600
   D56        2.79793  -0.00216   0.00000  -0.05650  -0.05689   2.74104
   D57        0.08627  -0.00214   0.00000  -0.06940  -0.06923   0.01704
   D58       -3.05462  -0.00224   0.00000  -0.07063  -0.07041  -3.12503
   D59        3.04439   0.00161   0.00000   0.03606   0.03576   3.08015
   D60       -0.09650   0.00151   0.00000   0.03483   0.03458  -0.06192
   D61       -0.03876   0.00097   0.00000   0.03337   0.03341  -0.00535
   D62        3.12514   0.00041   0.00000   0.01497   0.01496   3.14010
   D63        3.10214   0.00107   0.00000   0.03457   0.03458   3.13672
   D64       -0.01715   0.00051   0.00000   0.01617   0.01613  -0.00101
   D65        0.03348  -0.00069   0.00000  -0.02380  -0.02379   0.00969
   D66       -3.11272  -0.00065   0.00000  -0.02017  -0.02008  -3.13281
   D67       -3.11450  -0.00049   0.00000  -0.01522  -0.01523  -3.12973
   D68        0.02248  -0.00044   0.00000  -0.01160  -0.01153   0.01096
         Item               Value     Threshold  Converged?
 Maximum Force            0.009086     0.000450     NO 
 RMS     Force            0.002491     0.000300     NO 
 Maximum Displacement     0.091751     0.001800     NO 
 RMS     Displacement     0.026795     0.001200     NO 
 Predicted change in Energy=-3.207936D-03
 GradGradGradGradGradGradGradGradGradGradGradGradGradGradGradGradGradGrad

                          Input orientation:                          
 ---------------------------------------------------------------------
 Center     Atomic      Atomic             Coordinates (Angstroms)
 Number     Number       Type             X           Y           Z
 ---------------------------------------------------------------------
      1          7           0        4.957652   -0.721713    0.883260
      2          6           0        3.715233   -0.337213    0.368809
      3          6           0        3.407877    1.016128    0.155804
      4          6           0        2.195176    1.385535   -0.427311
      5          6           0        1.250508    0.432833   -0.826063
      6          6           0       -0.065731    0.840335   -1.468889
      7          6           0       -1.303544    0.433779   -0.686109
      8          6           0       -2.223971   -0.487338   -1.199441
      9          6           0       -3.364419   -0.859028   -0.486479
     10          6           0       -3.629685   -0.305367    0.776280
     11          7           0       -4.731478   -0.723937    1.528970
     12          6           0       -2.702490    0.612128    1.304797
     13          6           0       -1.568650    0.971326    0.582610
     14          6           0        1.570439   -0.917689   -0.620102
     15          6           0        2.776252   -1.301769   -0.041563
     16          1           0        5.399148   -0.026038    1.471646
     17          1           0        4.959572   -1.627201    1.336212
     18          1           0        4.122853    1.780918    0.448951
     19          1           0        1.984103    2.441953   -0.576529
     20          1           0       -0.131854    0.406790   -2.474716
     21          1           0       -0.061989    1.928424   -1.609030
     22          1           0       -2.050910   -0.925410   -2.179733
     23          1           0       -4.056568   -1.582062   -0.910900
     24          1           0       -5.050809   -0.049676    2.213380
     25          1           0       -5.506903   -1.069619    0.977384
     26          1           0       -2.877459    1.043007    2.287648
     27          1           0       -0.871282    1.683841    1.017002
     28          1           0        0.860290   -1.685964   -0.916760
     29          1           0        2.998640   -2.356973    0.097350
 ---------------------------------------------------------------------
                    Distance matrix (angstroms):
                    1          2          3          4          5
     1  N    0.000000
     2  C    1.398609   0.000000
     3  C    2.439485   1.404054   0.000000
     4  C    3.713404   2.431510   1.395395   0.000000
     5  C    4.242367   2.845269   2.441011   1.399657   0.000000
     6  C    5.762550   4.365712   3.838812   2.548299   1.520450
     7  C    6.557489   5.186078   4.821352   3.635087   2.557884
     8  C    7.481196   6.144599   5.984547   4.861347   3.613604
     9  C    8.435160   7.150195   7.056396   5.995887   4.804350
    10  C    8.598091   7.356282   7.187393   6.183590   5.189290
    11  N    9.710622   8.534779   8.435787   7.500362   6.532109
    12  C    7.786822   6.554731   6.230568   5.252189   4.494319
    13  C    6.749029   5.447698   4.994996   3.918915   3.197184
    14  C    3.711027   2.432085   2.778102   2.394223   1.403098
    15  C    2.439318   1.407288   2.410508   2.776337   2.439708
    16  H    1.012463   2.036823   2.604364   3.982965   4.764582
    17  H    1.012461   2.036742   3.284556   4.452918   4.761967
    18  H    2.673701   2.158484   1.087212   2.154089   3.419555
    19  H    4.580585   3.407967   2.143926   1.087583   2.153368
    20  H    6.201016   4.841411   4.452036   3.250366   2.151665
    21  H    6.199317   4.828287   3.998361   2.604991   2.138335
    22  H    7.651364   6.331623   6.246812   5.142052   3.817933
    23  H    9.231218   7.974221   7.975361   6.937203   5.677328
    24  H   10.118802   8.962623   8.770343   7.844576   7.012676
    25  H   10.470760   9.271170   9.192314   8.205058   7.153488
    26  H    8.153251   7.003609   6.637087   5.763675   5.206498
    27  H    6.307223   5.053805   4.415734   3.402675   3.076347
    28  H    4.578016   3.409182   3.865474   3.384610   2.156338
    29  H    2.670105   2.160238   3.398337   3.863571   3.419308
                    6          7          8          9         10
     6  C    0.000000
     7  C    1.519939   0.000000
     8  C    2.548199   1.399697   0.000000
     9  C    3.838529   2.440985   1.395382   0.000000
    10  C    4.365225   2.845321   2.431588   1.404089   0.000000
    11  N    5.762230   4.242359   3.713192   2.439085   1.398460
    12  C    3.833786   2.439788   2.776512   2.410627   1.407416
    13  C    2.546483   1.403170   2.394338   2.778117   2.432143
    14  C    2.547182   3.176571   3.862432   4.937016   5.419051
    15  C    3.834414   4.480212   5.196750   6.172666   6.534349
    16  H    6.265959   7.056445   8.090701   9.018217   9.059878
    17  H    6.261868   6.896669   7.702734   8.555766   8.708393
    18  H    4.701812   5.705167   6.938613   7.993971   8.035022
    19  H    2.750146   3.854010   5.164945   6.285799   6.394723
    20  H    1.097279   2.138387   2.608207   4.000607   4.828143
    21  H    1.097083   2.151094   3.267696   4.464981   4.838180
    22  H    2.750290   2.153338   1.087579   2.144020   3.408078
    23  H    4.701717   3.419545   2.154087   1.087190   2.158415
    24  H    6.261168   4.762642   4.453079   3.284539   2.037210
    25  H    6.264067   4.763994   3.981867   2.603360   2.036780
    26  H    4.696644   3.419298   3.863780   3.398625   2.160600
    27  H    2.745920   2.156408   3.384732   3.865536   3.409352
    28  H    2.746733   3.037875   3.321035   4.326330   4.993226
    29  H    4.697473   5.187571   5.696741   6.563019   6.971709
                   11         12         13         14         15
    11  N    0.000000
    12  C    2.439695   0.000000
    13  C    3.711198   1.391463   0.000000
    14  C    6.661096   4.929858   3.856005   0.000000
[...]
     9    N    1  pz     Val( 2p)     1.48754
    10    N    1  pz     Ryd( 3p)     0.00241
    11    N    1  dxy    Ryd( 3d)     0.00066
    12    N    1  dxz    Ryd( 3d)     0.00063
    13    N    1  dyz    Ryd( 3d)     0.00048
    14    N    1  dx2y2  Ryd( 3d)     0.00086
    15    N    1  dz2    Ryd( 3d)     0.00070

    16    C    2  S      Cor( 1S)     1.99898
    17    C    2  S      Val( 2S)     0.85125
    18    C    2  S      Ryd( 3S)     0.00120
    19    C    2  S      Ryd( 4S)     0.00009
    20    C    2  px     Val( 2p)     0.91987
    21    C    2  px     Ryd( 3p)     0.00505
    22    C    2  py     Val( 2p)     0.97408
    23    C    2  py     Ryd( 3p)     0.00274
    24    C    2  pz     Val( 2p)     1.05981
    25    C    2  pz     Ryd( 3p)     0.00362
    26    C    2  dxy    Ryd( 3d)     0.00099
    27    C    2  dxz    Ryd( 3d)     0.00091
    28    C    2  dyz    Ryd( 3d)     0.00067
    29    C    2  dx2y2  Ryd( 3d)     0.00132
    30    C    2  dz2    Ryd( 3d)     0.00104

    31    C    3  S      Cor( 1S)     1.99905
    32    C    3  S      Val( 2S)     0.95329
    33    C    3  S      Ryd( 3S)     0.00064
    34    C    3  S      Ryd( 4S)     0.00004
    35    C    3  px     Val( 2p)     1.13393
    36    C    3  px     Ryd( 3p)     0.00414
    37    C    3  py     Val( 2p)     1.06721
    38    C    3  py     Ryd( 3p)     0.00409
    39    C    3  pz     Val( 2p)     1.13167
    40    C    3  pz     Ryd( 3p)     0.00421
    41    C    3  dxy    Ryd( 3d)     0.00041
    42    C    3  dxz    Ryd( 3d)     0.00064
    43    C    3  dyz    Ryd( 3d)     0.00046
    44    C    3  dx2y2  Ryd( 3d)     0.00060
    45    C    3  dz2    Ryd( 3d)     0.00043

    46    C    4  S      Cor( 1S)     1.99905
    47    C    4  S      Val( 2S)     0.94678
    48    C    4  S      Ryd( 3S)     0.00060
    49    C    4  S      Ryd( 4S)     0.00004
    50    C    4  px     Val( 2p)     1.06773
    51    C    4  px     Ryd( 3p)     0.00423
    52    C    4  py     Val( 2p)     1.12629
    53    C    4  py     Ryd( 3p)     0.00401
    54    C    4  pz     Val( 2p)     1.13665
    55    C    4  pz     Ryd( 3p)     0.00481
    56    C    4  dxy    Ryd( 3d)     0.00050
    57    C    4  dxz    Ryd( 3d)     0.00052
    58    C    4  dyz    Ryd( 3d)     0.00058
    59    C    4  dx2y2  Ryd( 3d)     0.00052
    60    C    4  dz2    Ryd( 3d)     0.00046

    61    C    5  S      Cor( 1S)     1.99900
    62    C    5  S      Val( 2S)     0.88556
    63    C    5  S      Ryd( 3S)     0.00094
    64    C    5  S      Ryd( 4S)     0.00005
    65    C    5  px     Val( 2p)     1.01988
    66    C    5  px     Ryd( 3p)     0.00494
    67    C    5  py     Val( 2p)     1.03037
    68    C    5  py     Ryd( 3p)     0.00350
    69    C    5  pz     Val( 2p)     1.05418
    70    C    5  pz     Ryd( 3p)     0.00403
    71    C    5  dxy    Ryd( 3d)     0.00063
    72    C    5  dxz    Ryd( 3d)     0.00064
    73    C    5  dyz    Ryd( 3d)     0.00061
    74    C    5  dx2y2  Ryd( 3d)     0.00058
    75    C    5  dz2    Ryd( 3d)     0.00078

    76    C    6  S      Cor( 1S)     1.99921
    77    C    6  S      Val( 2S)     1.02300
    78    C    6  S      Ryd( 3S)     0.00063
    79    C    6  S      Ryd( 4S)     0.00002
    80    C    6  px     Val( 2p)     1.03667
    81    C    6  px     Ryd( 3p)     0.00167
    82    C    6  py     Val( 2p)     1.15670
    83    C    6  py     Ryd( 3p)     0.00231
    84    C    6  pz     Val( 2p)     1.26343
    85    C    6  pz     Ryd( 3p)     0.00661
    86    C    6  dxy    Ryd( 3d)     0.00074
    87    C    6  dxz    Ryd( 3d)     0.00031
    88    C    6  dyz    Ryd( 3d)     0.00095
    89    C    6  dx2y2  Ryd( 3d)     0.00075
    90    C    6  dz2    Ryd( 3d)     0.00060

    91    C    7  S      Cor( 1S)     1.99900
    92    C    7  S      Val( 2S)     0.88573
    93    C    7  S      Ryd( 3S)     0.00092
    94    C    7  S      Ryd( 4S)     0.00005
    95    C    7  px     Val( 2p)     1.01628
    96    C    7  px     Ryd( 3p)     0.00490
    97    C    7  py     Val( 2p)     1.01467
    98    C    7  py     Ryd( 3p)     0.00328
    99    C    7  pz     Val( 2p)     1.06593
   100    C    7  pz     Ryd( 3p)     0.00431
   101    C    7  dxy    Ryd( 3d)     0.00059
   102    C    7  dxz    Ryd( 3d)     0.00069
   103    C    7  dyz    Ryd( 3d)     0.00072
   104    C    7  dx2y2  Ryd( 3d)     0.00055
   105    C    7  dz2    Ryd( 3d)     0.00076

   106    C    8  S      Cor( 1S)     1.99905
   107    C    8  S      Val( 2S)     0.94538
   108    C    8  S      Ryd( 3S)     0.00061
   109    C    8  S      Ryd( 4S)     0.00004
   110    C    8  px     Val( 2p)     1.07088
   111    C    8  px     Ryd( 3p)     0.00456
   112    C    8  py     Val( 2p)     1.12104
   113    C    8  py     Ryd( 3p)     0.00426
   114    C    8  pz     Val( 2p)     1.15282
   115    C    8  pz     Ryd( 3p)     0.00500
   116    C    8  dxy    Ryd( 3d)     0.00048
   117    C    8  dxz    Ryd( 3d)     0.00053
   118    C    8  dyz    Ryd( 3d)     0.00055
   119    C    8  dx2y2  Ryd( 3d)     0.00052
   120    C    8  dz2    Ryd( 3d)     0.00051

   121    C    9  S      Cor( 1S)     1.99905
   122    C    9  S      Val( 2S)     0.95171
   123    C    9  S      Ryd( 3S)     0.00064
   124    C    9  S      Ryd( 4S)     0.00004
   125    C    9  px     Val( 2p)     1.13326
   126    C    9  px     Ryd( 3p)     0.00445
   127    C    9  py     Val( 2p)     1.07668
   128    C    9  py     Ryd( 3p)     0.00444
   129    C    9  pz     Val( 2p)     1.13489
   130    C    9  pz     Ryd( 3p)     0.00435
   131    C    9  dxy    Ryd( 3d)     0.00039
   132    C    9  dxz    Ryd( 3d)     0.00066
   133    C    9  dyz    Ryd( 3d)     0.00045
   134    C    9  dx2y2  Ryd( 3d)     0.00058
   135    C    9  dz2    Ryd( 3d)     0.00047

   136    C   10  S      Cor( 1S)     1.99898
   137    C   10  S      Val( 2S)     0.85171
   138    C   10  S      Ryd( 3S)     0.00121
   139    C   10  S      Ryd( 4S)     0.00009
   140    C   10  px     Val( 2p)     0.93194
   141    C   10  px     Ryd( 3p)     0.00416
   142    C   10  py     Val( 2p)     0.94325
   143    C   10  py     Ryd( 3p)     0.00338
   144    C   10  pz     Val( 2p)     1.07660
   145    C   10  pz     Ryd( 3p)     0.00395
   146    C   10  dxy    Ryd( 3d)     0.00108
   147    C   10  dxz    Ryd( 3d)     0.00089
   148    C   10  dyz    Ryd( 3d)     0.00077
   149    C   10  dx2y2  Ryd( 3d)     0.00119
   150    C   10  dz2    Ryd( 3d)     0.00104

   151    N   11  S      Cor( 1S)     1.99949
   152    N   11  S      Val( 2S)     1.37147
   153    N   11  S      Ryd( 3S)     0.00011
   154    N   11  S      Ryd( 4S)     0.00001
   155    N   11  px     Val( 2p)     1.35014
   156    N   11  px     Ryd( 3p)     0.00205
   157    N   11  py     Val( 2p)     1.58360
   158    N   11  py     Ryd( 3p)     0.00333
   159    N   11  pz     Val( 2p)     1.45399
   160    N   11  pz     Ryd( 3p)     0.00214
   161    N   11  dxy    Ryd( 3d)     0.00083
   162    N   11  dxz    Ryd( 3d)     0.00052
   163    N   11  dyz    Ryd( 3d)     0.00053
   164    N   11  dx2y2  Ryd( 3d)     0.00079
   165    N   11  dz2    Ryd( 3d)     0.00065

   166    C   12  S      Cor( 1S)     1.99905
   167    C   12  S      Val( 2S)     0.94920
   168    C   12  S      Ryd( 3S)     0.00068
   169    C   12  S      Ryd( 4S)     0.00004
   170    C   12  px     Val( 2p)     1.08367
   171    C   12  px     Ryd( 3p)     0.00487
   172    C   12  py     Val( 2p)     1.14069
   173    C   12  py     Ryd( 3p)     0.00444
   174    C   12  pz     Val( 2p)     1.15061
   175    C   12  pz     Ryd( 3p)     0.00446
   176    C   12  dxy    Ryd( 3d)     0.00043
   177    C   12  dxz    Ryd( 3d)     0.00058
   178    C   12  dyz    Ryd( 3d)     0.00050
   179    C   12  dx2y2  Ryd( 3d)     0.00049
   180    C   12  dz2    Ryd( 3d)     0.00046

   181    C   13  S      Cor( 1S)     1.99904
   182    C   13  S      Val( 2S)     0.94769
   183    C   13  S      Ryd( 3S)     0.00069
   184    C   13  S      Ryd( 4S)     0.00005
   185    C   13  px     Val( 2p)     1.11704
   186    C   13  px     Ryd( 3p)     0.00382
   187    C   13  py     Val( 2p)     1.05357
   188    C   13  py     Ryd( 3p)     0.00412
   189    C   13  pz     Val( 2p)     1.13965
   190    C   13  pz     Ryd( 3p)     0.00473
   191    C   13  dxy    Ryd( 3d)     0.00043
   192    C   13  dxz    Ryd( 3d)     0.00068
   193    C   13  dyz    Ryd( 3d)     0.00041
   194    C   13  dx2y2  Ryd( 3d)     0.00063
   195    C   13  dz2    Ryd( 3d)     0.00053

   196    C   14  S      Cor( 1S)     1.99904
   197    C   14  S      Val( 2S)     0.94950
   198    C   14  S      Ryd( 3S)     0.00069
   199    C   14  S      Ryd( 4S)     0.00005
   200    C   14  px     Val( 2p)     1.11959
   201    C   14  px     Ryd( 3p)     0.00367
   202    C   14  py     Val( 2p)     1.04540
   203    C   14  py     Ryd( 3p)     0.00387
   204    C   14  pz     Val( 2p)     1.12848
   205    C   14  pz     Ryd( 3p)     0.00442
   206    C   14  dxy    Ryd( 3d)     0.00045
   207    C   14  dxz    Ryd( 3d)     0.00069
   208    C   14  dyz    Ryd( 3d)     0.00044
   209    C   14  dx2y2  Ryd( 3d)     0.00065
   210    C   14  dz2    Ryd( 3d)     0.00048

   211    C   15  S      Cor( 1S)     1.99905
   212    C   15  S      Val( 2S)     0.95078
   213    C   15  S      Ryd( 3S)     0.00067
   214    C   15  S      Ryd( 4S)     0.00004
   215    C   15  px     Val( 2p)     1.07715
   216    C   15  px     Ryd( 3p)     0.00451
   217    C   15  py     Val( 2p)     1.14431
   218    C   15  py     Ryd( 3p)     0.00431
   219    C   15  pz     Val( 2p)     1.14171
   220    C   15  pz     Ryd( 3p)     0.00425
   221    C   15  dxy    Ryd( 3d)     0.00046
   222    C   15  dxz    Ryd( 3d)     0.00057
   223    C   15  dyz    Ryd( 3d)     0.00053
   224    C   15  dx2y2  Ryd( 3d)     0.00049
   225    C   15  dz2    Ryd( 3d)     0.00042

   226    H   16  S      Val( 1S)     0.57553
   227    H   16  S      Ryd( 2S)     0.00135
   228    H   16  px     Ryd( 2p)     0.00037
   229    H   16  py     Ryd( 2p)     0.00029
   230    H   16  pz     Ryd( 2p)     0.00058

   231    H   17  S      Val( 1S)     0.57588
   232    H   17  S      Ryd( 2S)     0.00160
   233    H   17  px     Ryd( 2p)     0.00029
   234    H   17  py     Ryd( 2p)     0.00059
   235    H   17  pz     Ryd( 2p)     0.00036

   236    H   18  S      Val( 1S)     0.75894
   237    H   18  S      Ryd( 2S)     0.00104
   238    H   18  px     Ryd( 2p)     0.00023
   239    H   18  py     Ryd( 2p)     0.00012
   240    H   18  pz     Ryd( 2p)     0.00028

   241    H   19  S      Val( 1S)     0.76156
   242    H   19  S      Ryd( 2S)     0.00101
   243    H   19  px     Ryd( 2p)     0.00009
   244    H   19  py     Ryd( 2p)     0.00026
   245    H   19  pz     Ryd( 2p)     0.00028

   246    H   20  S      Val( 1S)     0.73901
   247    H   20  S      Ryd( 2S)     0.00159
   248    H   20  px     Ryd( 2p)     0.00010
   249    H   20  py     Ryd( 2p)     0.00019
   250    H   20  pz     Ryd( 2p)     0.00026

   251    H   21  S      Val( 1S)     0.73885
   252    H   21  S      Ryd( 2S)     0.00175
   253    H   21  px     Ryd( 2p)     0.00010
   254    H   21  py     Ryd( 2p)     0.00022
   255    H   21  pz     Ryd( 2p)     0.00023

   256    H   22  S      Val( 1S)     0.76404
   257    H   22  S      Ryd( 2S)     0.00104
   258    H   22  px     Ryd( 2p)     0.00010
   259    H   22  py     Ryd( 2p)     0.00023
   260    H   22  pz     Ryd( 2p)     0.00031

   261    H   23  S      Val( 1S)     0.76161
   262    H   23  S      Ryd( 2S)     0.00108
   263    H   23  px     Ryd( 2p)     0.00022
   264    H   23  py     Ryd( 2p)     0.00012
   265    H   23  pz     Ryd( 2p)     0.00029

   266    H   24  S      Val( 1S)     0.57540
   267    H   24  S      Ryd( 2S)     0.00166
   268    H   24  px     Ryd( 2p)     0.00027
   269    H   24  py     Ryd( 2p)     0.00040
   270    H   24  pz     Ryd( 2p)     0.00057

   271    H   25  S      Val( 1S)     0.57505
   272    H   25  S      Ryd( 2S)     0.00141
   273    H   25  px     Ryd( 2p)     0.00046
   274    H   25  py     Ryd( 2p)     0.00042
   275    H   25  pz     Ryd( 2p)     0.00036

   276    H   26  S      Val( 1S)     0.76254
   277    H   26  S      Ryd( 2S)     0.00102
   278    H   26  px     Ryd( 2p)     0.00010
   279    H   26  py     Ryd( 2p)     0.00023
   280    H   26  pz     Ryd( 2p)     0.00031

   281    H   27  S      Val( 1S)     0.76156
   282    H   27  S      Ryd( 2S)     0.00154
   283    H   27  px     Ryd( 2p)     0.00023
   284    H   27  py     Ryd( 2p)     0.00012
   285    H   27  pz     Ryd( 2p)     0.00028

   286    H   28  S      Val( 1S)     0.75874
   287    H   28  S      Ryd( 2S)     0.00182
   288    H   28  px     Ryd( 2p)     0.00024
   289    H   28  py     Ryd( 2p)     0.00011
   290    H   28  pz     Ryd( 2p)     0.00027

   291    H   29  S      Val( 1S)     0.75975
   292    H   29  S      Ryd( 2S)     0.00102
   293    H   29  px     Ryd( 2p)     0.00009
   294    H   29  py     Ryd( 2p)     0.00026
   295    H   29  pz     Ryd( 2p)     0.00028

 WARNING:  1 low occupancy (<1.9990e) core orbital  found on  C    2
           1 low occupancy (<1.9990e) core orbital  found on  C   10


 Summary of Natural Population Analysis:                  
                                                          
                                       Natural Population 
                Natural  -----------------------------------------------
    Atom  No    Charge         Core      Valence    Rydberg      Total
 -----------------------------------------------------------------------
      N    1   -0.78055      1.99950     5.76997    0.01108     7.78055
      C    2    0.17839      1.99898     3.80500    0.01762     5.82161
      C    3   -0.30081      1.99905     4.28610    0.01567     6.30081
      C    4   -0.29278      1.99905     4.27746    0.01628     6.29278
      C    5   -0.00568      1.99900     3.98999    0.01669     6.00568
      C    6   -0.49360      1.99921     4.47980    0.01459     6.49360
      C    7    0.00161      1.99900     3.98262    0.01676     5.99839
      C    8   -0.30622      1.99905     4.29012    0.01706     6.30622
      C    9   -0.31206      1.99905     4.29654    0.01647     6.31206
      C   10    0.17976      1.99898     3.80351    0.01776     5.82024
      N   11   -0.76966      1.99949     5.75920    0.01097     7.76966
      C   12   -0.34016      1.99905     4.32416    0.01694     6.34016
      C   13   -0.27309      1.99904     4.25794    0.01610     6.27309
      C   14   -0.25741      1.99904     4.24297    0.01540     6.25741
      C   15   -0.32923      1.99905     4.31394    0.01623     6.32923
      H   16    0.42187      0.00000     0.57553    0.00259     0.57813
      H   17    0.42128      0.00000     0.57588    0.00284     0.57872
      H   18    0.23939      0.00000     0.75894    0.00166     0.76061
      H   19    0.23680      0.00000     0.76156    0.00164     0.76320
      H   20    0.25884      0.00000     0.73901    0.00215     0.74116
      H   21    0.25885      0.00000     0.73885    0.00230     0.74115
      H   22    0.23429      0.00000     0.76404    0.00167     0.76571
      H   23    0.23667      0.00000     0.76161    0.00171     0.76333
      H   24    0.42170      0.00000     0.57540    0.00290     0.57830
      H   25    0.42229      0.00000     0.57505    0.00265     0.57771
      H   26    0.23580      0.00000     0.76254    0.00166     0.76420
      H   27    0.23627      0.00000     0.76156    0.00217     0.76373
      H   28    0.23882      0.00000     0.75874    0.00244     0.76118
      H   29    0.23861      0.00000     0.75975    0.00165     0.76139
 =======================================================================
   * Total *    0.00000     29.98653    75.74780    0.26567   106.00000

                                 Natural Population      
 --------------------------------------------------------
   Core                      29.98653 ( 99.9551% of  30)
   Valence                   75.74780 ( 99.6682% of  76)
   Natural Minimal Basis    105.73433 ( 99.7494% of 106)
   Natural Rydberg Basis      0.26567 (  0.2506% of 106)
 --------------------------------------------------------

    Atom  No          Natural Electron Configuration
 ----------------------------------------------------------------------------
      N    1      [core]2S( 1.37)2p( 4.40)3p( 0.01)
      C    2      [core]2S( 0.85)2p( 2.95)3p( 0.01)
      C    3      [core]2S( 0.95)2p( 3.33)3p( 0.01)
      C    4      [core]2S( 0.95)2p( 3.33)3p( 0.01)
      C    5      [core]2S( 0.89)2p( 3.10)3p( 0.01)
      C    6      [core]2S( 1.02)2p( 3.46)3p( 0.01)
      C    7      [core]2S( 0.89)2p( 3.10)3p( 0.01)
      C    8      [core]2S( 0.95)2p( 3.34)3p( 0.01)
      C    9      [core]2S( 0.95)2p( 3.34)3p( 0.01)
      C   10      [core]2S( 0.85)2p( 2.95)3p( 0.01)
      N   11      [core]2S( 1.37)2p( 4.39)3p( 0.01)
      C   12      [core]2S( 0.95)2p( 3.37)3p( 0.01)
      C   13      [core]2S( 0.95)2p( 3.31)3p( 0.01)
      C   14      [core]2S( 0.95)2p( 3.29)3p( 0.01)
      C   15      [core]2S( 0.95)2p( 3.36)3p( 0.01)
      H   16            1S( 0.58)
      H   17            1S( 0.58)
      H   18            1S( 0.76)
      H   19            1S( 0.76)
      H   20            1S( 0.74)
      H   21            1S( 0.74)
      H   22            1S( 0.76)
      H   23            1S( 0.76)
      H   24            1S( 0.58)
      H   25            1S( 0.58)
      H   26            1S( 0.76)
      H   27            1S( 0.76)
      H   28            1S( 0.76)
      H   29            1S( 0.76)


 NBO analysis skipped by request.
 1\1\GINC-DRG2-W012\SP\RB3LYP TD-FC\6-31G(d,p)\C13H14N2\QDUEZ\21-Jul-20
 24\0\\# TD(NStates=10, Root=1) B3LYP/6-31G** SCRF=(Solvent=water) volu
 me pop=NPA density=current Geom=AllCheck Guess=Read\\YBRVSVVVWCFQMG-UH
 FFFAOYSA-N_conf_0\\0,1\N,0,4.9596843211,-0.7212728387,0.882338868\C,0,
 3.7204010584,-0.3370145891,0.3603387314\C,0,3.4095528627,1.0168093774,
 0.1526207035\C,0,2.1971336376,1.3851798644,-0.4316643559\C,0,1.2515729
 033,0.432401576,-0.8282532285\C,0,-0.0651956834,0.8394133043,-1.471470
 9988\C,0,-1.3027318146,0.4323458743,-0.6876732138\C,0,-2.2281263323,-0
 .481959219,-1.204374646\C,0,-3.3682227219,-0.85441988,-0.4913752292\C,
 0,-3.6232410173,-0.3158438924,0.7804736329\N,0,-4.7285434618,-0.729751
 5126,1.5307478012\C,0,-2.6978749517,0.6058372604,1.3069022096\C,0,-1.5
 646764937,0.9652296299,0.5838978878\C,0,1.5682363472,-0.9177333994,-0.
 6134292865\C,0,2.7738249855,-1.301752435,-0.0345928825\H,0,5.403265680
 9,-0.0217344741,1.4645180545\H,0,4.9580776965,-1.6222480334,1.34413881
 44\H,0,4.1224692902,1.7817654635,0.4503676652\H,0,1.9851985457,2.44151
 94332,-0.5806849986\H,0,-0.1331528898,0.4041020639,-2.4764006488\H,0,-
 0.0598344888,1.9274406253,-1.6121606057\H,0,-2.0616988102,-0.910069498
 8,-2.190271172\H,0,-4.0678791709,-1.5669459502,-0.9212793992\H,0,-5.04
 70925719,-0.0544797702,2.2145352646\H,0,-5.504535823,-1.0718460675,0.9
 776902139\H,0,-2.8748164835,1.0386063693,2.288587506\H,0,-0.8674040206
 ,1.6782855088,1.0176347785\H,0,0.853596552,-1.6855681638,-0.9003644916
 \H,0,2.9920128545,-2.3562966264,0.1156795614\\Version=ES64L-G16RevA.03
 \State=1-A\HF=-613.3620971\RMSD=3.997e-09\Dipole=-0.264635,-0.1466966,
 1.1762294\Quadrupole=18.6278579,-9.8158063,-8.8120516,-0.4017316,4.745
 0995,0.8166929\PG=C01 [X(C13H14N2)]\\@


 We make a living by what we get,
 we make a life by what we give.
                   -- Sir Winston Churchill
 Job cpu time:       0 days  0 hours 47 minutes 35.9 seconds.
 Elapsed time:       0 days  0 hours 16 minutes 56.2 seconds.
 File lengths (MBytes):  RWF=    730 Int=      0 D2E=      0 Chk=     46 Scr=      1
 Normal termination of Gaussian 16 at Sun Jul 21 12:51:01 2024.
