 Entering Gaussian System, Link 0=g16
 Initial command:
 /opt/sw/arch/manual/gaussian/G16_A03/g16/l1.exe "/scratch/1381517/Gau-178446.inp" -scrdir="/scratch/1381517/"
 Entering Link 1 = /opt/sw/arch/manual/gaussian/G16_A03/g16/l1.exe PID=    178448.
  
 Copyright (c) 1988,1990,1992,1993,1995,1998,2003,2009,2016,
            Gaussian, Inc.  All Rights Reserved.
  
 This is part of the Gaussian(R) 16 program.  It is based on
 the Gaussian(R) 09 system (copyright 2009, Gaussian, Inc.),
 the Gaussian(R) 03 system (copyright 2003, Gaussian, Inc.),
 the Gaussian(R) 98 system (copyright 1998, Gaussian, Inc.),
 the Gaussian(R) 94 system (copyright 1995, Gaussian, Inc.),
 the Gaussian 92(TM) system (copyright 1992, Gaussian, Inc.),
 the Gaussian 90(TM) system (copyright 1990, Gaussian, Inc.),
 the Gaussian 88(TM) system (copyright 1988, Gaussian, Inc.),
 the Gaussian 86(TM) system (copyright 1986, Carnegie Mellon
 University), and the Gaussian 82(TM) system (copyright 1983,
 Carnegie Mellon University). Gaussian is a federally registered
 trademark of Gaussian, Inc.
  
 This software contains proprietary and confidential information,
 including trade secrets, belonging to Gaussian, Inc.
  
 This software is provided under written license and may be
 used, copied, transmitted, or stored only in accord with that
 written license.
  
 The following legend is applicable only to US Government
 contracts under FAR:
  
                    RESTRICTED RIGHTS LEGEND
  
 Use, reproduction and disclosure by the US Government is
 subject to restrictions as set forth in subparagraphs (a)
 and (c) of the Commercial Computer Software - Restricted
 Rights clause in FAR 52.227-19.
  
 Gaussian, Inc.
 340 Quinnipiac St., Bldg. 40, Wallingford CT 06492
  
  
 ---------------------------------------------------------------
 Warning -- This program may not be used in any manner that
 competes with the business of Gaussian, Inc. or will provide
 assistance to any competitor of Gaussian, Inc.  The licensee
 of this program is prohibited from giving any competitor of
 Gaussian, Inc. access to this program.  By using this program,
 the user acknowledges that Gaussian, Inc. is engaged in the
 business of creating and licensing software in the field of
 computational chemistry and represents and warrants to the
 licensee that it is not a competitor of Gaussian, Inc. and that
 it will not use this program in any manner prohibited above.
 ---------------------------------------------------------------
  

 Cite this work as:
 Gaussian 16, Revision A.03,
 M. J. Frisch, G. W. Trucks, H. B. Schlegel, G. E. Scuseria, 
 M. A. Robb, J. R. Cheeseman, G. Scalmani, V. Barone, 
 G. A. Petersson, H. Nakatsuji, X. Li, M. Caricato, A. V. Marenich, 
 J. Bloino, B. G. Janesko, R. Gomperts, B. Mennucci, H. P. Hratchian, 
 J. V. Ortiz, A. F. Izmaylov, J. L. Sonnenberg, D. Williams-Young, 
 F. Ding, F. Lipparini, F. Egidi, J. Goings, B. Peng, A. Petrone, 
 T. Henderson, D. Ranasinghe, V. G. Zakrzewski, J. Gao, N. Rega, 
 G. Zheng, W. Liang, M. Hada, M. Ehara, K. Toyota, R. Fukuda, 
 J. Hasegawa, M. Ishida, T. Nakajima, Y. Honda, O. Kitao, H. Nakai, 
 T. Vreven, K. Throssell, J. A. Montgomery, Jr., J. E. Peralta, 
 F. Ogliaro, M. J. Bearpark, J. J. Heyd, E. N. Brothers, K. N. Kudin, 
 V. N. Staroverov, T. A. Keith, R. Kobayashi, J. Normand, 
 K. Raghavachari, A. P. Rendell, J. C. Burant, S. S. Iyengar, 
 J. Tomasi, M. Cossi, J. M. Millam, M. Klene, C. Adamo, R. Cammi, 
 J. W. Ochterski, R. L. Martin, K. Morokuma, O. Farkas, 
 J. B. Foresman, and D. J. Fox, Gaussian, Inc., Wallingford CT, 2016.
 
 ******************************************
 Gaussian 16:  ES64L-G16RevA.03 25-Dec-2016
                21-Jul-2024 
 ******************************************
 %nprocshared=4
 Will use up to    4 processors via shared memory.
 %mem=8GB
 %Chk=YBRVSVVVWCFQMG-UHFFFAOYSA-N_conf_2_0.chk
 -------------------------------------------------------
 # opt=CalcFc B3LYP/6-31G** SCRF=(Solvent=water) scf=xqc
 -------------------------------------------------------
 1/10=4,18=20,19=15,26=3,38=1/1,3;
 2/9=110,12=2,17=6,18=5,40=1/2;
 3/5=1,6=6,7=101,11=2,25=1,30=1,70=2201,71=2,72=1,74=-5,140=1/1,2,3;
 4//1;
 5/5=2,8=3,13=1,38=5,53=1/2,8;
 8/6=4,10=90,11=11/1;
 11/6=1,8=1,9=11,15=111,16=1/1,2,10;
 10/6=1,13=1/2;
 6/7=2,8=2,9=2,10=2,28=1/1;
 7/10=1,18=20,25=1/1,2,3,16;
 1/10=4,18=20,19=15,26=3/3(2);
 2/9=110/2;
 99//99;
 2/9=110/2;
 3/5=1,6=6,7=101,11=2,25=1,30=1,70=2205,71=1,72=1,74=-5/1,2,3;
 4/5=5,16=3,69=1/1;
 5/5=2,8=3,13=1,38=5,53=1/2,8;
 7//1,2,3,16;
 1/18=20,19=15,26=3/3(-5);
 2/9=110/2;
 6/7=2,8=2,9=2,10=2,19=2,28=1/1;
 99/9=1/99;
 ----------------------------------
 YBRVSVVVWCFQMG-UHFFFAOYSA-N_conf_2
 ----------------------------------
 Symbolic Z-matrix:
 Charge =  0 Multiplicity = 1
 N                     4.918     1.06606  -0.0766 
 C                     3.65471   0.46211  -0.07904 
 C                     2.81035   0.59108   1.02492 
 C                     1.59706  -0.1017    1.08264 
 C                     1.22418  -0.97175   0.05026 
 C                    -0.08247  -1.72964   0.11331 
 C                    -1.31105  -0.85029   0.05845 
 C                    -1.60695  -0.10544  -1.09023 
 C                    -2.7488    0.70017  -1.14042 
 C                    -3.59402   0.81088  -0.03513 
 N                    -4.79446   1.5251   -0.1325 
 C                    -3.33355   0.02065   1.08584 
 C                    -2.19318  -0.78719   1.14383 
 C                     2.10092  -1.14827  -1.02694 
 C                     3.31299  -0.45204  -1.07726 
 H                     5.31253   1.1873   -1.00379 
 H                     4.95928   1.91783   0.47394 
 H                     3.08732   1.23719   1.85333 
 H                     0.94796   0.03736   1.94421 
 H                    -0.08283  -2.33232   1.03111 
 H                    -0.1454   -2.45464  -0.70889 
 H                    -0.95351  -0.15306  -1.9584 
 H                    -2.96903   1.24449  -2.05456 
 H                    -5.16941   1.81445   0.76513 
 H                    -4.75869   2.28945  -0.79943 
 H                    -4.01817   0.02702   1.92957 
 H                    -2.00878  -1.37528   2.0397 
 H                     1.8556   -1.83829  -1.83076 
 H                     3.98939  -0.63119  -1.90854 
 

 GradGradGradGradGradGradGradGradGradGradGradGradGradGradGradGradGradGrad
 Berny optimization.
 Initialization pass.
                           ----------------------------
                           !    Initial Parameters    !
                           ! (Angstroms and Degrees)  !
 --------------------------                            --------------------------
 ! Name  Definition              Value          Derivative Info.                !
 --------------------------------------------------------------------------------
 ! R1    R(1,2)                  1.4002         calculate D2E/DX2 analytically  !
 ! R2    R(1,16)                 1.0149         calculate D2E/DX2 analytically  !
 ! R3    R(1,17)                 1.015          calculate D2E/DX2 analytically  !
 ! R4    R(2,3)                  1.3958         calculate D2E/DX2 analytically  !
 ! R5    R(2,15)                 1.396          calculate D2E/DX2 analytically  !
 ! R6    R(3,4)                  1.3983         calculate D2E/DX2 analytically  !
 ! R7    R(3,18)                 1.0865         calculate D2E/DX2 analytically  !
 ! R8    R(4,5)                  1.4007         calculate D2E/DX2 analytically  !
 ! R9    R(4,19)                 1.0876         calculate D2E/DX2 analytically  !
 ! R10   R(5,6)                  1.5118         calculate D2E/DX2 analytically  !
 ! R11   R(5,14)                 1.4001         calculate D2E/DX2 analytically  !
 ! R12   R(6,7)                  1.5118         calculate D2E/DX2 analytically  !
 ! R13   R(6,20)                 1.098          calculate D2E/DX2 analytically  !
 ! R14   R(6,21)                 1.098          calculate D2E/DX2 analytically  !
 ! R15   R(7,8)                  1.4007         calculate D2E/DX2 analytically  !
 ! R16   R(7,13)                 1.4001         calculate D2E/DX2 analytically  !
 ! R17   R(8,9)                  1.3983         calculate D2E/DX2 analytically  !
 ! R18   R(8,22)                 1.0876         calculate D2E/DX2 analytically  !
 ! R19   R(9,10)                 1.3958         calculate D2E/DX2 analytically  !
 ! R20   R(9,23)                 1.0865         calculate D2E/DX2 analytically  !
 ! R21   R(10,11)                1.4002         calculate D2E/DX2 analytically  !
 ! R22   R(10,12)                1.396          calculate D2E/DX2 analytically  !
 ! R23   R(11,24)                1.0149         calculate D2E/DX2 analytically  !
 ! R24   R(11,25)                1.015          calculate D2E/DX2 analytically  !
 ! R25   R(12,13)                1.3987         calculate D2E/DX2 analytically  !
 ! R26   R(12,26)                1.0866         calculate D2E/DX2 analytically  !
 ! R27   R(13,27)                1.0874         calculate D2E/DX2 analytically  !
 ! R28   R(14,15)                1.3987         calculate D2E/DX2 analytically  !
 ! R29   R(14,28)                1.0874         calculate D2E/DX2 analytically  !
 ! R30   R(15,29)                1.0866         calculate D2E/DX2 analytically  !
 ! A1    A(2,1,16)             113.619          calculate D2E/DX2 analytically  !
 ! A2    A(2,1,17)             113.5517         calculate D2E/DX2 analytically  !
 ! A3    A(16,1,17)            112.2999         calculate D2E/DX2 analytically  !
 ! A4    A(1,2,3)              120.3            calculate D2E/DX2 analytically  !
 ! A5    A(1,2,15)             120.2998         calculate D2E/DX2 analytically  !
 ! A6    A(3,2,15)             118.5524         calculate D2E/DX2 analytically  !
 ! A7    A(2,3,4)              120.7799         calculate D2E/DX2 analytically  !
 ! A8    A(2,3,18)             120.2505         calculate D2E/DX2 analytically  !
 ! A9    A(4,3,18)             118.9693         calculate D2E/DX2 analytically  !
 ! A10   A(3,4,5)              120.5517         calculate D2E/DX2 analytically  !
 ! A11   A(3,4,19)             119.1547         calculate D2E/DX2 analytically  !
 ! A12   A(5,4,19)             120.2919         calculate D2E/DX2 analytically  !
 ! A13   A(4,5,6)              120.7134         calculate D2E/DX2 analytically  !
 ! A14   A(4,5,14)             118.6004         calculate D2E/DX2 analytically  !
 ! A15   A(6,5,14)             120.6704         calculate D2E/DX2 analytically  !
 ! A16   A(5,6,7)              114.1575         calculate D2E/DX2 analytically  !
 ! A17   A(5,6,20)             108.0775         calculate D2E/DX2 analytically  !
 ! A18   A(5,6,21)             110.4455         calculate D2E/DX2 analytically  !
 ! A19   A(7,6,20)             110.4455         calculate D2E/DX2 analytically  !
 ! A20   A(7,6,21)             108.0774         calculate D2E/DX2 analytically  !
 ! A21   A(20,6,21)            105.2772         calculate D2E/DX2 analytically  !
 ! A22   A(6,7,8)              120.7133         calculate D2E/DX2 analytically  !
 ! A23   A(6,7,13)             120.6705         calculate D2E/DX2 analytically  !
 ! A24   A(8,7,13)             118.6003         calculate D2E/DX2 analytically  !
 ! A25   A(7,8,9)              120.5517         calculate D2E/DX2 analytically  !
 ! A26   A(7,8,22)             120.2918         calculate D2E/DX2 analytically  !
 ! A27   A(9,8,22)             119.1548         calculate D2E/DX2 analytically  !
 ! A28   A(8,9,10)             120.7799         calculate D2E/DX2 analytically  !
 ! A29   A(8,9,23)             118.9694         calculate D2E/DX2 analytically  !
 ! A30   A(10,9,23)            120.2504         calculate D2E/DX2 analytically  !
 ! A31   A(9,10,11)            120.3001         calculate D2E/DX2 analytically  !
 ! A32   A(9,10,12)            118.5524         calculate D2E/DX2 analytically  !
 ! A33   A(11,10,12)           120.2998         calculate D2E/DX2 analytically  !
 ! A34   A(10,11,24)           113.619          calculate D2E/DX2 analytically  !
 ! A35   A(10,11,25)           113.5518         calculate D2E/DX2 analytically  !
 ! A36   A(24,11,25)           112.2998         calculate D2E/DX2 analytically  !
 ! A37   A(10,12,13)           120.8197         calculate D2E/DX2 analytically  !
 ! A38   A(10,12,26)           120.1744         calculate D2E/DX2 analytically  !
 ! A39   A(13,12,26)           119.0058         calculate D2E/DX2 analytically  !
 ! A40   A(7,13,12)            120.5029         calculate D2E/DX2 analytically  !
 ! A41   A(7,13,27)            120.4955         calculate D2E/DX2 analytically  !
 ! A42   A(12,13,27)           118.997          calculate D2E/DX2 analytically  !
 ! A43   A(5,14,15)            120.5029         calculate D2E/DX2 analytically  !
 ! A44   A(5,14,28)            120.4955         calculate D2E/DX2 analytically  !
 ! A45   A(15,14,28)           118.997          calculate D2E/DX2 analytically  !
 ! A46   A(2,15,14)            120.8197         calculate D2E/DX2 analytically  !
 ! A47   A(2,15,29)            120.1745         calculate D2E/DX2 analytically  !
 ! A48   A(14,15,29)           119.0058         calculate D2E/DX2 analytically  !
 ! D1    D(16,1,2,3)          -160.2489         calculate D2E/DX2 analytically  !
 ! D2    D(16,1,2,15)           30.4436         calculate D2E/DX2 analytically  !
 ! D3    D(17,1,2,3)           -30.2788         calculate D2E/DX2 analytically  !
 ! D4    D(17,1,2,15)          160.4136         calculate D2E/DX2 analytically  !
 ! D5    D(1,2,3,4)           -174.3988         calculate D2E/DX2 analytically  !
 ! D6    D(1,2,3,18)             5.8137         calculate D2E/DX2 analytically  !
 ! D7    D(15,2,3,4)            -4.9068         calculate D2E/DX2 analytically  !
 ! D8    D(15,2,3,18)          175.3057         calculate D2E/DX2 analytically  !
 ! D9    D(1,2,15,14)          174.4206         calculate D2E/DX2 analytically  !
 ! D10   D(1,2,15,29)           -5.6608         calculate D2E/DX2 analytically  !
 ! D11   D(3,2,15,14)            4.9286         calculate D2E/DX2 analytically  !
 ! D12   D(3,2,15,29)         -175.1528         calculate D2E/DX2 analytically  !
 ! D13   D(2,3,4,5)              1.9712         calculate D2E/DX2 analytically  !
 ! D14   D(2,3,4,19)          -178.4905         calculate D2E/DX2 analytically  !
 ! D15   D(18,3,4,5)          -178.2386         calculate D2E/DX2 analytically  !
 ! D16   D(18,3,4,19)            1.2997         calculate D2E/DX2 analytically  !
 ! D17   D(3,4,5,6)            179.5883         calculate D2E/DX2 analytically  !
 ! D18   D(3,4,5,14)             1.0261         calculate D2E/DX2 analytically  !
 ! D19   D(19,4,5,6)             0.0553         calculate D2E/DX2 analytically  !
 ! D20   D(19,4,5,14)         -178.5069         calculate D2E/DX2 analytically  !
 ! D21   D(4,5,6,7)             65.3448         calculate D2E/DX2 analytically  !
 ! D22   D(4,5,6,20)           -57.9626         calculate D2E/DX2 analytically  !
 ! D23   D(4,5,6,21)          -172.639          calculate D2E/DX2 analytically  !
 ! D24   D(14,5,6,7)          -116.1229         calculate D2E/DX2 analytically  !
 ! D25   D(14,5,6,20)          120.5697         calculate D2E/DX2 analytically  !
 ! D26   D(14,5,6,21)            5.8933         calculate D2E/DX2 analytically  !
 ! D27   D(4,5,14,15)           -1.006          calculate D2E/DX2 analytically  !
 ! D28   D(4,5,14,28)          178.2084         calculate D2E/DX2 analytically  !
 ! D29   D(6,5,14,15)         -179.5689         calculate D2E/DX2 analytically  !
 ! D30   D(6,5,14,28)           -0.3545         calculate D2E/DX2 analytically  !
 ! D31   D(5,6,7,8)             65.346          calculate D2E/DX2 analytically  !
 ! D32   D(5,6,7,13)          -116.1214         calculate D2E/DX2 analytically  !
 ! D33   D(20,6,7,8)          -172.6376         calculate D2E/DX2 analytically  !
 ! D34   D(20,6,7,13)            5.895          calculate D2E/DX2 analytically  !
 ! D35   D(21,6,7,8)           -57.9612         calculate D2E/DX2 analytically  !
 ! D36   D(21,6,7,13)          120.5714         calculate D2E/DX2 analytically  !
 ! D37   D(6,7,8,9)            179.5885         calculate D2E/DX2 analytically  !
 ! D38   D(6,7,8,22)             0.0556         calculate D2E/DX2 analytically  !
 ! D39   D(13,7,8,9)             1.0261         calculate D2E/DX2 analytically  !
 ! D40   D(13,7,8,22)         -178.5069         calculate D2E/DX2 analytically  !
 ! D41   D(6,7,13,12)         -179.569          calculate D2E/DX2 analytically  !
 ! D42   D(6,7,13,27)           -0.3545         calculate D2E/DX2 analytically  !
 ! D43   D(8,7,13,12)           -1.0059         calculate D2E/DX2 analytically  !
 ! D44   D(8,7,13,27)          178.2086         calculate D2E/DX2 analytically  !
 ! D45   D(7,8,9,10)             1.9712         calculate D2E/DX2 analytically  !
 ! D46   D(7,8,9,23)          -178.2388         calculate D2E/DX2 analytically  !
 ! D47   D(22,8,9,10)         -178.4906         calculate D2E/DX2 analytically  !
 ! D48   D(22,8,9,23)            1.2995         calculate D2E/DX2 analytically  !
 ! D49   D(8,9,10,11)         -174.3988         calculate D2E/DX2 analytically  !
 ! D50   D(8,9,10,12)           -4.9067         calculate D2E/DX2 analytically  !
 ! D51   D(23,9,10,11)           5.8139         calculate D2E/DX2 analytically  !
 ! D52   D(23,9,10,12)         175.3059         calculate D2E/DX2 analytically  !
 ! D53   D(9,10,11,24)        -160.249          calculate D2E/DX2 analytically  !
 ! D54   D(9,10,11,25)         -30.279          calculate D2E/DX2 analytically  !
 ! D55   D(12,10,11,24)         30.4434         calculate D2E/DX2 analytically  !
 ! D56   D(12,10,11,25)        160.4135         calculate D2E/DX2 analytically  !
 ! D57   D(9,10,12,13)           4.9286         calculate D2E/DX2 analytically  !
 ! D58   D(9,10,12,26)        -175.153          calculate D2E/DX2 analytically  !
 ! D59   D(11,10,12,13)        174.4206         calculate D2E/DX2 analytically  !
 ! D60   D(11,10,12,26)         -5.6609         calculate D2E/DX2 analytically  !
 ! D61   D(10,12,13,7)          -2.0118         calculate D2E/DX2 analytically  !
 ! D62   D(10,12,13,27)        178.7621         calculate D2E/DX2 analytically  !
 ! D63   D(26,12,13,7)         178.0688         calculate D2E/DX2 analytically  !
 ! D64   D(26,12,13,27)         -1.1573         calculate D2E/DX2 analytically  !
 ! D65   D(5,14,15,2)           -2.0117         calculate D2E/DX2 analytically  !
 ! D66   D(5,14,15,29)         178.0688         calculate D2E/DX2 analytically  !
 ! D67   D(28,14,15,2)         178.7623         calculate D2E/DX2 analytically  !
 ! D68   D(28,14,15,29)         -1.1572         calculate D2E/DX2 analytically  !
 --------------------------------------------------------------------------------
 Trust Radius=3.00D-01 FncErr=1.00D-07 GrdErr=1.00D-06 EigMax=2.50D+02 EigMin=1.00D-04
 Number of steps in this run=    156 maximum allowed number of steps=    174.
 GradGradGradGradGradGradGradGradGradGradGradGradGradGradGradGradGradGrad

                          Input orientation:                          
 ---------------------------------------------------------------------
 Center     Atomic      Atomic             Coordinates (Angstroms)
 Number     Number       Type             X           Y           Z
 ---------------------------------------------------------------------
      1          7           0        4.917996    1.066059   -0.076598
      2          6           0        3.654712    0.462113   -0.079041
      3          6           0        2.810353    0.591077    1.024918
      4          6           0        1.597061   -0.101703    1.082637
      5          6           0        1.224177   -0.971753    0.050259
      6          6           0       -0.082465   -1.729643    0.113305
      7          6           0       -1.311049   -0.850292    0.058450
      8          6           0       -1.606952   -0.105442   -1.090233
      9          6           0       -2.748804    0.700170   -1.140417
     10          6           0       -3.594019    0.810876   -0.035132
     11          7           0       -4.794457    1.525097   -0.132497
     12          6           0       -3.333546    0.020646    1.085840
     13          6           0       -2.193179   -0.787191    1.143825
     14          6           0        2.100915   -1.148267   -1.026936
     15          6           0        3.312993   -0.452037   -1.077263
     16          1           0        5.312535    1.187295   -1.003789
     17          1           0        4.959276    1.917828    0.473943
     18          1           0        3.087322    1.237191    1.853332
     19          1           0        0.947962    0.037360    1.944207
     20          1           0       -0.082829   -2.332319    1.031109
     21          1           0       -0.145401   -2.454635   -0.708892
     22          1           0       -0.953505   -0.153064   -1.958396
     23          1           0       -2.969027    1.244488   -2.054564
     24          1           0       -5.169409    1.814447    0.765126
     25          1           0       -4.758692    2.289446   -0.799434
     26          1           0       -4.018171    0.027018    1.929570
     27          1           0       -2.008783   -1.375282    2.039696
     28          1           0        1.855595   -1.838288   -1.830757
     29          1           0        3.989392   -0.631195   -1.908539
 ---------------------------------------------------------------------
                    Distance matrix (angstroms):
                    1          2          3          4          5
     1  N    0.000000
     2  C    1.400229   0.000000
     3  C    2.425099   1.395815   0.000000
     4  C    3.706225   2.429262   1.398340   0.000000
     5  C    4.220553   2.824923   2.430710   1.400654   0.000000
     6  C    5.732070   4.336737   3.819055   2.531916   1.511849
     7  C    6.518562   5.138103   4.471864   3.172767   2.538148
     8  C    6.706327   5.387925   4.946876   3.871314   3.172776
     9  C    7.748897   6.495245   5.966976   4.946868   4.471869
    10  C    8.515940   7.257250   6.495229   5.387905   5.138100
    11  N    9.723455   8.515941   7.748880   6.706305   6.518560
    12  C    8.398339   7.098422   6.170624   4.932126   4.778088
    13  C    7.449347   6.103605   5.191252   3.852214   3.592809
    14  C    3.707064   2.430250   2.781857   2.408208   1.400063
    15  C    2.425280   1.396026   2.399979   2.780706   2.429930
    16  H    1.014909   2.032098   3.275979   4.451902   4.742064
    17  H    1.015042   2.031449   2.584901   3.969068   4.741323
    18  H    2.665574   2.157949   1.086483   2.146506   3.406144
    19  H    4.571985   3.405943   2.149464   1.087645   2.163710
    20  H    6.146888   4.796926   4.113002   2.792907   2.126375
    21  H    6.199441   4.831666   4.584642   3.432497   2.156616
    22  H    6.285058   5.014587   4.860097   3.969371   3.073638
    23  H    8.133223   6.956200   6.581138   5.701176   5.188927
    24  H   10.150090   8.966970   8.077174   7.039713   7.010842
    25  H    9.780464   8.639646   7.968887   7.046657   6.866741
    26  H    9.217343   7.943360   6.911245   5.680202   5.657877
    27  H    7.643240   6.319829   5.302868   3.942090   3.817424
    28  H    4.570624   3.405462   3.868883   3.401533   2.165131
    29  H    2.664392   2.157405   3.389580   3.866619   3.405772
                    6          7          8          9         10
     6  C    0.000000
     7  C    1.511849   0.000000
     8  C    2.531915   1.400654   0.000000
     9  C    3.819054   2.430710   1.398340   0.000000
    10  C    4.336736   2.824923   2.429261   1.395815   0.000000
    11  N    5.732069   4.220552   3.706225   2.425099   1.400229
    12  C    3.818228   2.429929   2.780704   2.399979   1.396026
    13  C    2.530869   1.400062   2.408206   2.781856   2.430249
    14  C    2.530869   3.592820   3.852242   5.191278   6.103621
    15  C    3.818228   4.778098   4.932155   6.170652   7.098436
    16  H    6.233976   7.010847   7.039740   8.077198   8.966978
    17  H    6.233238   6.866739   7.046674   7.968898   8.639639
    18  H    4.677323   5.188917   5.701179   6.581131   6.956174
    19  H    2.745229   3.073620   3.969358   4.860072   5.014550
    20  H    1.097990   2.156617   3.432495   4.584641   4.831666
    21  H    1.097990   2.126374   2.792895   4.112994   4.796925
    22  H    2.745225   2.163708   1.087644   2.149464   3.405942
    23  H    4.677323   3.406144   2.146507   1.086483   2.157948
    24  H    6.233975   4.742064   4.451902   3.275980   2.032098
    25  H    6.233239   4.741325   3.969070   2.584902   2.031450
    26  H    4.677014   3.405771   3.866617   3.389579   2.157404
    27  H    2.747226   2.165129   3.401531   3.868883   3.405462
    28  H    2.747228   3.817444   3.942127   5.302907   6.319860
    29  H    4.677014   5.657891   5.680238   6.911282   7.943384
                   11         12         13         14         15
    11  N    0.000000
    12  C    2.425279   0.000000
    13  C    3.707064   1.398714   0.000000
    14  C    7.449366   5.946726   4.825124   0.000000
    15  C    8.398356   7.005635   5.946721   1.398714   0.000000
    16  H   10.150100   8.971195   8.052737   3.971132   2.586692
    17  H    9.780456   8.529046   7.676163   4.452393   3.276088
    18  H    8.133194   6.580013   5.699580   3.867732   3.390104
    19  H    6.285017   4.366737   3.344737   3.400398   3.868095
    20  H    6.199441   4.013303   2.617957   3.225875   4.417273
    21  H    6.146888   4.417279   3.225884   2.617955   4.013301
    22  H    4.571985   3.868093   3.400395   3.344777   4.366782
    23  H    2.665573   3.390104   3.867732   5.699614   6.580052
    24  H    1.014909   2.586692   3.971131   8.052750   8.971204
    25  H    1.015043   3.276088   4.452394   7.676187   8.529069
    26  H    2.664391   1.086569   2.147308   6.896771   7.938294
    27  H    4.570624   2.147895   1.087400   5.132776   6.236114
    28  H    7.643274   6.236133   5.132788   1.087400   2.147895
    29  H    9.217370   7.938301   6.896770   2.147308   1.086569
                   16         17         18         19         20
    16  H    0.000000
    17  H    1.685872   0.000000
    18  H    3.621767   2.422847   0.000000
    19  H    5.390967   4.667812   2.454529   0.000000
    20  H    6.755623   6.617930   4.844307   2.740740   0.000000
    21  H    6.568081   6.824607   5.535799   3.800581   1.745417
    22  H    6.478510   6.720554   5.726287   4.345360   3.800576
    23  H    8.348153   8.348935   7.207708   5.726267   5.535798
    24  H   10.648640  10.133397   8.348115   6.478465   6.568083
    25  H   10.133416   9.808083   8.348913   6.720518   6.824609
    26  H    9.849513   9.289164   7.208215   4.966166   4.675534
    27  H    8.332544   7.864477   5.729750   3.278264   2.375387
    28  H    4.667811   5.390073   4.954617   4.311868   3.491681
    29  H    2.424085   3.621383   4.296076   4.953879   5.302673
                   21         22         23         24         25
    21  H    0.000000
    22  H    2.740716   0.000000
    23  H    4.844297   2.454532   0.000000
    24  H    6.755624   5.390967   3.621767   0.000000
    25  H    6.617927   4.667815   2.422848   1.685871   0.000000
    26  H    5.302682   4.953876   4.296075   2.424083   3.621382
    27  H    3.491695   4.311864   4.954617   4.667811   5.390073
    28  H    2.375384   3.278310   5.729797   8.332573   7.864516
    29  H    4.675532   4.966218   7.208266   9.849532   9.289200
                   26         27         28         29
    26  H    0.000000
    27  H    2.452798   0.000000
    28  H    7.219457   5.488916   0.000000
    29  H    8.904235   7.219441   2.452797   0.000000
 Stoichiometry    C13H14N2
 Framework group  C1[X(C13H14N2)]
 Deg. of freedom    81
 Full point group                 C1      NOp   1
 Largest Abelian subgroup         C1      NOp   1
 Largest concise Abelian subgroup C1      NOp   1
                         Standard orientation:                         
 ---------------------------------------------------------------------
 Center     Atomic      Atomic             Coordinates (Angstroms)
 Number     Number       Type             X           Y           Z
 ---------------------------------------------------------------------
      1          7           0       -4.859146   -1.321813    0.158349
      2          6           0       -3.627843   -0.660272    0.075289
      3          6           0       -2.748903   -0.669491    1.159576
      4          6           0       -1.570303    0.082495    1.131764
      5          6           0       -1.268721    0.893008    0.029970
      6          6           0       -0.000001    1.714679    0.000072
      7          6           0        1.268721    0.893014   -0.029896
      8          6           0        1.570317    0.082615   -1.131769
      9          6           0        2.748917   -0.669369   -1.159645
     10          6           0        3.627843   -0.660262   -0.075345
     11          7           0        4.859147   -1.321794   -0.158459
     12          6           0        3.358632    0.195045    0.994638
     13          6           0        2.181612    0.949876    1.030090
     14          6           0       -2.181627    0.949982   -1.029998
     15          6           0       -3.358646    0.195147   -0.994609
     16          1           0       -5.271858   -1.527825   -0.745680
     17          1           0       -4.843445   -2.132911    0.768419
     18          1           0       -2.971270   -1.266967    2.039360
     19          1           0       -0.892298    0.036559    1.980981
     20          1           0       -0.004935    2.380948    0.872794
     21          1           0        0.004932    2.381020   -0.872596
     22          1           0        0.892323    0.036770   -1.980999
     23          1           0        2.971295   -1.266756   -2.039486
     24          1           0        5.271849   -1.527898    0.745554
     25          1           0        4.843455   -2.132831   -0.768611
     26          1           0        4.065058    0.281715    1.815664
     27          1           0        1.992347    1.591265    1.887549
     28          1           0       -1.992376    1.591462   -1.887392
     29          1           0       -4.065084    0.281905   -1.815616
 ---------------------------------------------------------------------
 Rotational constants (GHZ):           1.5402408           0.2588609           0.2544193
 Standard basis: 6-31G(d,p) (6D, 7F)
 There are   295 symmetry adapted cartesian basis functions of A   symmetry.
 There are   295 symmetry adapted basis functions of A   symmetry.
   295 basis functions,   518 primitive gaussians,   295 cartesian basis functions
    53 alpha electrons       53 beta electrons
       nuclear repulsion energy       884.3667574323 Hartrees.
 NAtoms=   29 NActive=   29 NUniq=   29 SFac= 1.00D+00 NAtFMM=   60 NAOKFM=F Big=F
 Integral buffers will be    131072 words long.
 Raffenetti 2 integral format.
 Two-electron integral symmetry is turned on.
 Force inversion solution in PCM.
 ------------------------------------------------------------------------------
 Polarizable Continuum Model (PCM)
 =================================
 Model                : PCM.
 Atomic radii         : UFF (Universal Force Field).
 Polarization charges : Total charges.
 Charge compensation  : None.
 Solution method      : Matrix inversion.
 Cavity type          : Scaled VdW (van der Waals Surface) (Alpha=1.100).
 Cavity algorithm     : GePol (No added spheres)
                        Default sphere list used, NSphG=   29.
                        Lebedev-Laikov grids with approx.  5.0 points / Ang**2.
                        Smoothing algorithm: York/Karplus (Gamma=1.0000).
                        Polarization charges: spherical gaussians, with
                                              point-specific exponents (IZeta= 3).
                        Self-potential: point-specific (ISelfS= 7).
                        Self-field    : sphere-specific E.n sum rule (ISelfD= 2).
 1st derivatives      : Analytical E(r).r(x)/FMM algorithm (CHGder, D1EAlg=3).
                        Cavity 1st derivative terms included.
 2nd derivatives      : Analytical E(r).r(xy)/FMM algorithm (CHGder, D2EAlg=3).
                        Cavity 2nd derivative terms included.
 Solvent              : Water, Eps=  78.355300 Eps(inf)=   1.777849
 ------------------------------------------------------------------------------
 One-electron integrals computed using PRISM.
 NBasis=   295 RedAO= T EigKep=  4.37D-04  NBF=   295
 NBsUse=   295 1.00D-06 EigRej= -1.00D+00 NBFU=   295
 ExpMin= 1.61D-01 ExpMax= 4.17D+03 ExpMxC= 6.27D+02 IAcc=3 IRadAn=         5 AccDes= 0.00D+00
 Harris functional with IExCor=  402 and IRadAn=       5 diagonalized for initial guess.
 HarFok:  IExCor=  402 AccDes= 0.00D+00 IRadAn=         5 IDoV= 1 UseB2=F ITyADJ=14
 ICtDFT=  3500011 ScaDFX=  1.000000  1.000000  1.000000  1.000000
 FoFCou: FMM=F IPFlag=           0 FMFlag=      100000 FMFlg1=           0
         NFxFlg=           0 DoJE=T BraDBF=F KetDBF=T FulRan=T
         wScrn=  0.000000 ICntrl=       500 IOpCl=  0 I1Cent=   200000004 NGrid=           0
         NMat0=    1 NMatS0=      1 NMatT0=    0 NMatD0=    1 NMtDS0=    0 NMtDT0=    0
 Petite list used in FoFCou.
 Keep R1 ints in memory in canonical form, NReq=966088577.
 Requested convergence on RMS density matrix=1.00D-08 within  32 cycles.
 Requested convergence on MAX density matrix=1.00D-06.
 Requested convergence on             energy=1.00D-06.
 No special actions if energy rises.
 Inv3:  Mode=1 IEnd=    14427747.
 Iteration    1 A*A^-1 deviation from unit magnitude is 3.11D-15 for    478.
 Iteration    1 A*A^-1 deviation from orthogonality  is 1.61D-15 for   1977    373.
 Iteration    1 A^-1*A deviation from unit magnitude is 3.11D-15 for   2002.
 Iteration    1 A^-1*A deviation from orthogonality  is 1.33D-15 for   1703    919.
 Error on total polarization charges =  0.00978
 SCF Done:  E(RB3LYP) =  -613.358841543     A.U. after   11 cycles
            NFock= 11  Conv=0.62D-08     -V/T= 2.0097
 QCSCF skips out because SCF is already converged.
 DoSCS=F DFT=T ScalE2(SS,OS)=  1.000000  1.000000
 Range of M.O.s used for correlation:     1   295
 NBasis=   295 NAE=    53 NBE=    53 NFC=     0 NFV=     0
 NROrb=    295 NOA=    53 NOB=    53 NVA=   242 NVB=   242
 Symmetrizing basis deriv contribution to polar:
 IMax=3 JMax=2 DiffMx= 0.00D+00
 G2DrvN: will do    30 centers at a time, making    1 passes.
 Calling FoFCou, ICntrl=  3107 FMM=F I1Cent=   0 AccDes= 0.00D+00.
 NEqPCM:  Using equilibrium solvation (IEInf=0, Eps=  78.3553, EpsInf=   1.7778)
 G2PCM: DoFxE=T DoFxN=T DoGrad=T DoDP/DQ/DG/TGxP=FFFF NFrqRd=   0 IEInf=0 SqF1=F DoCFld=F IF1Alg=4.
 End of G2Drv F.D. properties file   721 does not exist.
 End of G2Drv F.D. properties file   722 does not exist.
 End of G2Drv F.D. properties file   788 does not exist.
          IDoAtm=11111111111111111111111111111
 NEqPCM:  Using equilibrium solvation (IEInf=0, Eps=  78.3553, EpsInf=   1.7778)
          Differentiating once with respect to nuclear coordinates.
 Keep R1 ints in memory in canonical form, NReq=966100590.
          There are    90 degrees of freedom in the 1st order CPHF.  IDoFFX=6 NUNeed=     0.
     84 vectors produced by pass  0 Test12= 1.43D-14 1.11D-09 XBig12= 1.27D-01 9.43D-02.
 AX will form    84 AO Fock derivatives at one time.
     84 vectors produced by pass  1 Test12= 1.43D-14 1.11D-09 XBig12= 1.07D-02 2.35D-02.
     84 vectors produced by pass  2 Test12= 1.43D-14 1.11D-09 XBig12= 1.06D-04 1.28D-03.
     84 vectors produced by pass  3 Test12= 1.43D-14 1.11D-09 XBig12= 2.42D-07 5.43D-05.
     84 vectors produced by pass  4 Test12= 1.43D-14 1.11D-09 XBig12= 3.01D-10 1.65D-06.
     58 vectors produced by pass  5 Test12= 1.43D-14 1.11D-09 XBig12= 3.58D-13 4.81D-08.
      5 vectors produced by pass  6 Test12= 1.43D-14 1.11D-09 XBig12= 3.69D-16 1.41D-09.
 InvSVY:  IOpt=1 It=  1 EMax= 3.89D-16
 Solved reduced A of dimension   483 with    90 vectors.
 End of Minotr F.D. properties file   721 does not exist.
 End of Minotr F.D. properties file   722 does not exist.
 End of Minotr F.D. properties file   788 does not exist.

 **********************************************************************

            Population analysis using the SCF density.

 **********************************************************************

 Orbital symmetries:
       Occupied  (A) (A) (A) (A) (A) (A) (A) (A) (A) (A) (A) (A)
                 (A) (A) (A) (A) (A) (A) (A) (A) (A) (A) (A) (A)
                 (A) (A) (A) (A) (A) (A) (A) (A) (A) (A) (A) (A)
                 (A) (A) (A) (A) (A) (A) (A) (A) (A) (A) (A) (A)
                 (A) (A) (A) (A) (A)
       Virtual   (A) (A) (A) (A) (A) (A) (A) (A) (A) (A) (A) (A)
                 (A) (A) (A) (A) (A) (A) (A) (A) (A) (A) (A) (A)
                 (A) (A) (A) (A) (A) (A) (A) (A) (A) (A) (A) (A)
                 (A) (A) (A) (A) (A) (A) (A) (A) (A) (A) (A) (A)
                 (A) (A) (A) (A) (A) (A) (A) (A) (A) (A) (A) (A)
                 (A) (A) (A) (A) (A) (A) (A) (A) (A) (A) (A) (A)
                 (A) (A) (A) (A) (A) (A) (A) (A) (A) (A) (A) (A)
                 (A) (A) (A) (A) (A) (A) (A) (A) (A) (A) (A) (A)
                 (A) (A) (A) (A) (A) (A) (A) (A) (A) (A) (A) (A)
                 (A) (A) (A) (A) (A) (A) (A) (A) (A) (A) (A) (A)
                 (A) (A) (A) (A) (A) (A) (A) (A) (A) (A) (A) (A)
                 (A) (A) (A) (A) (A) (A) (A) (A) (A) (A) (A) (A)
                 (A) (A) (A) (A) (A) (A) (A) (A) (A) (A) (A) (A)
                 (A) (A) (A) (A) (A) (A) (A) (A) (A) (A) (A) (A)
                 (A) (A) (A) (A) (A) (A) (A) (A) (A) (A) (A) (A)
                 (A) (A) (A) (A) (A) (A) (A) (A) (A) (A) (A) (A)
                 (A) (A) (A) (A) (A) (A) (A) (A) (A) (A) (A) (A)
                 (A) (A) (A) (A) (A) (A) (A) (A) (A) (A) (A) (A)
                 (A) (A) (A) (A) (A) (A) (A) (A) (A) (A) (A) (A)
                 (A) (A) (A) (A) (A) (A) (A) (A) (A) (A) (A) (A)
                 (A) (A)
 The electronic state is 1-A.
 Alpha  occ. eigenvalues --  -14.33357 -14.33357 -10.22172 -10.22172 -10.18391
 Alpha  occ. eigenvalues --  -10.18391 -10.18364 -10.18363 -10.18322 -10.18282
 Alpha  occ. eigenvalues --  -10.18275 -10.18002 -10.18002 -10.17879 -10.17879
 Alpha  occ. eigenvalues --   -0.91144  -0.91122  -0.84492  -0.82878  -0.76621
 Alpha  occ. eigenvalues --   -0.73909  -0.73796  -0.71687  -0.66020  -0.61216
 Alpha  occ. eigenvalues --   -0.60704  -0.58647  -0.56628  -0.51275  -0.50729
 Alpha  occ. eigenvalues --   -0.50493  -0.49880  -0.46073  -0.45377  -0.43866
 Alpha  occ. eigenvalues --   -0.42745  -0.42220  -0.41799  -0.41325  -0.40733
 Alpha  occ. eigenvalues --   -0.38335  -0.37517  -0.36769  -0.36283  -0.34045
 Alpha  occ. eigenvalues --   -0.33668  -0.32544  -0.30051  -0.29590  -0.24630
 Alpha  occ. eigenvalues --   -0.24627  -0.20404  -0.19355
 Alpha virt. eigenvalues --   -0.00171  -0.00083   0.01332   0.02664   0.09410
 Alpha virt. eigenvalues --    0.09645   0.10439   0.11616   0.12447   0.13141
 Alpha virt. eigenvalues --    0.14082   0.15385   0.17074   0.17270   0.17887
 Alpha virt. eigenvalues --    0.17948   0.19001   0.19152   0.19999   0.21272
 Alpha virt. eigenvalues --    0.24679   0.25269   0.28590   0.30070   0.32209
 Alpha virt. eigenvalues --    0.33302   0.33754   0.33895   0.34647   0.35766
 Alpha virt. eigenvalues --    0.36949   0.36959   0.47262   0.49067   0.51050
 Alpha virt. eigenvalues --    0.51449   0.52475   0.53571   0.54184   0.54515
 Alpha virt. eigenvalues --    0.54930   0.55014   0.58286   0.58518   0.59276
 Alpha virt. eigenvalues --    0.59782   0.59847   0.60263   0.60460   0.60471
 Alpha virt. eigenvalues --    0.62627   0.62800   0.63426   0.64023   0.65403
 Alpha virt. eigenvalues --    0.66053   0.66398   0.66435   0.70125   0.70253
 Alpha virt. eigenvalues --    0.71433   0.73695   0.74140   0.75909   0.78552
 Alpha virt. eigenvalues --    0.80142   0.81010   0.81878   0.82417   0.82546
 Alpha virt. eigenvalues --    0.83381   0.83817   0.85623   0.85690   0.86275
 Alpha virt. eigenvalues --    0.86949   0.87781   0.88823   0.88996   0.89566
 Alpha virt. eigenvalues --    0.92117   0.92571   0.93687   0.93729   0.98176
 Alpha virt. eigenvalues --    0.99476   0.99527   1.00308   1.00821   1.03237
 Alpha virt. eigenvalues --    1.05935   1.07015   1.11979   1.12640   1.15740
 Alpha virt. eigenvalues --    1.16117   1.16178   1.18314   1.19633   1.20858
 Alpha virt. eigenvalues --    1.24992   1.27100   1.28170   1.31531   1.31965
 Alpha virt. eigenvalues --    1.34325   1.35520   1.39768   1.40130   1.40614
 Alpha virt. eigenvalues --    1.41388   1.41543   1.42846   1.45473   1.46234
 Alpha virt. eigenvalues --    1.49507   1.50729   1.53549   1.59124   1.60661
 Alpha virt. eigenvalues --    1.75433   1.76144   1.76696   1.76763   1.78248
 Alpha virt. eigenvalues --    1.79715   1.80983   1.81571   1.82626   1.85987
 Alpha virt. eigenvalues --    1.86090   1.87451   1.87917   1.88454   1.91087
 Alpha virt. eigenvalues --    1.91124   1.93149   1.93719   1.96880   1.97064
 Alpha virt. eigenvalues --    1.97677   1.97701   1.98745   1.99974   2.01165
 Alpha virt. eigenvalues --    2.02574   2.06931   2.09082   2.09335   2.12178
 Alpha virt. eigenvalues --    2.13081   2.15666   2.16904   2.17254   2.21849
 Alpha virt. eigenvalues --    2.24862   2.25247   2.25972   2.26565   2.29496
 Alpha virt. eigenvalues --    2.30057   2.30102   2.32489   2.34394   2.34815
 Alpha virt. eigenvalues --    2.34941   2.36046   2.36336   2.40569   2.41622
 Alpha virt. eigenvalues --    2.42075   2.43886   2.45048   2.46463   2.46650
 Alpha virt. eigenvalues --    2.47452   2.48351   2.48404   2.49939   2.50206
 Alpha virt. eigenvalues --    2.54191   2.54531   2.56571   2.57303   2.60097
 Alpha virt. eigenvalues --    2.60160   2.60829   2.64390   2.65375   2.66833
 Alpha virt. eigenvalues --    2.66882   2.67355   2.71284   2.74342   2.78337
 Alpha virt. eigenvalues --    2.78522   2.80216   2.81910   2.84370   2.85882
 Alpha virt. eigenvalues --    2.87620   2.88852   2.88863   2.98692   2.98832
 Alpha virt. eigenvalues --    3.02945   3.06413   3.07034   3.09435   3.19207
 Alpha virt. eigenvalues --    3.20113   3.25521   3.25747   3.27573   3.28670
 Alpha virt. eigenvalues --    3.29346   3.29602   3.34154   3.38125   3.39637
 Alpha virt. eigenvalues --    3.48111   3.49011   3.50600   3.54010   3.54065
 Alpha virt. eigenvalues --    3.83480   3.84184   4.04308   4.04384   4.13617
 Alpha virt. eigenvalues --    4.14430   4.16195   4.16743   4.18841   4.23066
 Alpha virt. eigenvalues --    4.41958   4.44127   4.44214   4.48170   4.59461
 Alpha virt. eigenvalues --    4.82633   4.86366
          Condensed to atoms (all electrons):
               1          2          3          4          5          6
     1  N    6.836409   0.295636  -0.070613   0.004555   0.000546   0.000000
     2  C    0.295636   4.582424   0.537102  -0.024090  -0.030888   0.000317
     3  C   -0.070613   0.537102   4.950123   0.512648  -0.031960   0.006167
     4  C    0.004555  -0.024090   0.512648   4.928812   0.532805  -0.065484
     5  C    0.000546  -0.030888  -0.031960   0.532805   4.747086   0.352000
     6  C    0.000000   0.000317   0.006167  -0.065484   0.352000   5.131248
     7  C   -0.000000  -0.000013   0.000330  -0.000412  -0.057080   0.352000
     8  C    0.000000  -0.000001  -0.000071  -0.000660  -0.000412  -0.065484
     9  C    0.000000   0.000000  -0.000003  -0.000071   0.000330   0.006167
    10  C   -0.000000   0.000000   0.000000  -0.000001  -0.000013   0.000317
    11  N   -0.000000  -0.000000   0.000000   0.000000  -0.000000   0.000000
    12  C    0.000000   0.000000   0.000000  -0.000094  -0.000006   0.006849
    13  C   -0.000000   0.000000   0.000029   0.001731  -0.003577  -0.046609
    14  C    0.004519  -0.023746  -0.046750  -0.041458   0.546782  -0.046609
    15  C   -0.071112   0.542302  -0.048046  -0.046384  -0.035572   0.006849
    16  H    0.343451  -0.025339   0.005514  -0.000170  -0.000006  -0.000000
    17  H    0.343371  -0.025515  -0.009362  -0.000010  -0.000008  -0.000000
    18  H   -0.007423  -0.043493   0.363167  -0.034154   0.003778  -0.000176
    19  H   -0.000115   0.003972  -0.038687   0.365040  -0.044338  -0.008547
    20  H    0.000000   0.000060  -0.000068  -0.007053  -0.029649   0.358466
    21  H   -0.000000  -0.000006  -0.000182   0.005891  -0.032872   0.358466
    22  H    0.000000  -0.000003  -0.000028   0.000309   0.002602  -0.008547
    23  H    0.000000  -0.000000   0.000000   0.000001   0.000003  -0.000176
    24  H   -0.000000  -0.000000   0.000000   0.000000  -0.000000  -0.000000
    25  H   -0.000000  -0.000000  -0.000000   0.000000  -0.000000  -0.000000
    26  H    0.000000   0.000000   0.000000   0.000001   0.000001  -0.000168
    27  H    0.000000   0.000000  -0.000000  -0.000024   0.000190  -0.010275
    28  H   -0.000114   0.003982   0.000533   0.005889  -0.041254  -0.010275
    29  H   -0.007509  -0.044056   0.005296   0.000667   0.004019  -0.000168
               7          8          9         10         11         12
     1  N   -0.000000   0.000000   0.000000  -0.000000  -0.000000   0.000000
     2  C   -0.000013  -0.000001   0.000000   0.000000  -0.000000   0.000000
     3  C    0.000330  -0.000071  -0.000003   0.000000   0.000000   0.000000
     4  C   -0.000412  -0.000660  -0.000071  -0.000001   0.000000  -0.000094
     5  C   -0.057080  -0.000412   0.000330  -0.000013  -0.000000  -0.000006
     6  C    0.352000  -0.065484   0.006167   0.000317   0.000000   0.006849
     7  C    4.747085   0.532806  -0.031960  -0.030888   0.000546  -0.035572
     8  C    0.532806   4.928811   0.512648  -0.024089   0.004555  -0.046384
     9  C   -0.031960   0.512648   4.950124   0.537102  -0.070613  -0.048046
    10  C   -0.030888  -0.024089   0.537102   4.582423   0.295636   0.542302
    11  N    0.000546   0.004555  -0.070613   0.295636   6.836410  -0.071112
    12  C   -0.035572  -0.046384  -0.048046   0.542302  -0.071112   4.963266
    13  C    0.546783  -0.041458  -0.046750  -0.023746   0.004519   0.501117
    14  C   -0.003577   0.001731   0.000029   0.000000  -0.000000   0.000005
    15  C   -0.000006  -0.000094   0.000000   0.000000   0.000000  -0.000000
    16  H   -0.000000   0.000000   0.000000  -0.000000  -0.000000   0.000000
    17  H   -0.000000   0.000000  -0.000000  -0.000000  -0.000000   0.000000
    18  H    0.000003   0.000001   0.000000  -0.000000   0.000000  -0.000000
    19  H    0.002602   0.000309  -0.000028  -0.000003   0.000000   0.000047
    20  H   -0.032872   0.005891  -0.000182  -0.000006  -0.000000   0.000301
    21  H   -0.029649  -0.007053  -0.000068   0.000060   0.000000  -0.000341
    22  H   -0.044338   0.365040  -0.038687   0.003972  -0.000115   0.000545
    23  H    0.003778  -0.034154   0.363167  -0.043493  -0.007423   0.005262
    24  H   -0.000006  -0.000170   0.005514  -0.025339   0.343451  -0.009365
    25  H   -0.000008  -0.000010  -0.009362  -0.025515   0.343371   0.005521
    26  H    0.004019   0.000667   0.005296  -0.044056  -0.007509   0.362492
    27  H   -0.041254   0.005889   0.000533   0.003982  -0.000114  -0.040802
    28  H    0.000190  -0.000024  -0.000000   0.000000   0.000000  -0.000000
    29  H    0.000001   0.000001   0.000000   0.000000   0.000000   0.000000
              13         14         15         16         17         18
     1  N   -0.000000   0.004519  -0.071112   0.343451   0.343371  -0.007423
     2  C    0.000000  -0.023746   0.542302  -0.025339  -0.025515  -0.043493
     3  C    0.000029  -0.046750  -0.048046   0.005514  -0.009362   0.363167
     4  C    0.001731  -0.041458  -0.046384  -0.000170  -0.000010  -0.034154
     5  C   -0.003577   0.546782  -0.035572  -0.000006  -0.000008   0.003778
     6  C   -0.046609  -0.046609   0.006849  -0.000000  -0.000000  -0.000176
     7  C    0.546783  -0.003577  -0.000006  -0.000000  -0.000000   0.000003
     8  C   -0.041458   0.001731  -0.000094   0.000000   0.000000   0.000001
     9  C   -0.046750   0.000029   0.000000   0.000000  -0.000000   0.000000
    10  C   -0.023746   0.000000   0.000000  -0.000000  -0.000000  -0.000000
    11  N    0.004519  -0.000000   0.000000  -0.000000  -0.000000   0.000000
    12  C    0.501117   0.000005  -0.000000   0.000000   0.000000  -0.000000
    13  C    4.925689  -0.000183   0.000005   0.000000  -0.000000  -0.000000
    14  C   -0.000183   4.925689   0.501118  -0.000020  -0.000166   0.000729
    15  C    0.000005   0.501118   4.963265  -0.009365   0.005521   0.005262
    16  H    0.000000  -0.000020  -0.009365   0.434555  -0.028465  -0.000056
    17  H   -0.000000  -0.000166   0.005521  -0.028465   0.434998   0.004714
    18  H   -0.000000   0.000729   0.005262  -0.000056   0.004714   0.622572
    19  H    0.001728   0.005710   0.000545   0.000004  -0.000005  -0.005986
    20  H   -0.008710   0.002764  -0.000341   0.000000   0.000000  -0.000003
    21  H    0.002764  -0.008710   0.000301   0.000000   0.000000   0.000003
    22  H    0.005710   0.001728   0.000047   0.000000   0.000000  -0.000000
    23  H    0.000729  -0.000000  -0.000000   0.000000   0.000000  -0.000000
    24  H   -0.000020   0.000000   0.000000  -0.000000   0.000000   0.000000
    25  H   -0.000166  -0.000000   0.000000   0.000000  -0.000000   0.000000
    26  H   -0.033396  -0.000000   0.000000   0.000000   0.000000  -0.000000
    27  H    0.366352  -0.000003  -0.000000   0.000000   0.000000  -0.000000
    28  H   -0.000003   0.366352  -0.040802  -0.000006   0.000004   0.000017
    29  H   -0.000000  -0.033396   0.362492   0.004707  -0.000055  -0.000189
              19         20         21         22         23         24
     1  N   -0.000115   0.000000  -0.000000   0.000000   0.000000  -0.000000
     2  C    0.003972   0.000060  -0.000006  -0.000003  -0.000000  -0.000000
     3  C   -0.038687  -0.000068  -0.000182  -0.000028   0.000000   0.000000
     4  C    0.365040  -0.007053   0.005891   0.000309   0.000001   0.000000
     5  C   -0.044338  -0.029649  -0.032872   0.002602   0.000003  -0.000000
     6  C   -0.008547   0.358466   0.358466  -0.008547  -0.000176  -0.000000
     7  C    0.002602  -0.032872  -0.029649  -0.044338   0.003778  -0.000006
     8  C    0.000309   0.005891  -0.007053   0.365040  -0.034154  -0.000170
     9  C   -0.000028  -0.000182  -0.000068  -0.038687   0.363167   0.005514
    10  C   -0.000003  -0.000006   0.000060   0.003972  -0.043493  -0.025339
    11  N    0.000000  -0.000000   0.000000  -0.000115  -0.007423   0.343451
    12  C    0.000047   0.000301  -0.000341   0.000545   0.005262  -0.009365
    13  C    0.001728  -0.008710   0.002764   0.005710   0.000729  -0.000020
    14  C    0.005710   0.002764  -0.008710   0.001728  -0.000000   0.000000
    15  C    0.000545  -0.000341   0.000301   0.000047  -0.000000   0.000000
    16  H    0.000004   0.000000   0.000000   0.000000   0.000000  -0.000000
    17  H   -0.000005   0.000000   0.000000   0.000000   0.000000   0.000000
    18  H   -0.005986  -0.000003   0.000003  -0.000000  -0.000000   0.000000
    19  H    0.624207   0.002321   0.000120  -0.000011  -0.000000   0.000000
    20  H    0.002321   0.628886  -0.035789   0.000120   0.000003   0.000000
    21  H    0.000120  -0.035789   0.628887   0.002321  -0.000003   0.000000
    22  H   -0.000011   0.000120   0.002321   0.624207  -0.005986   0.000004
    23  H   -0.000000   0.000003  -0.000003  -0.005986   0.622572  -0.000056
    24  H    0.000000   0.000000   0.000000   0.000004  -0.000056   0.434555
    25  H    0.000000   0.000000   0.000000  -0.000005   0.004714  -0.028465
    26  H   -0.000002  -0.000010   0.000003   0.000017  -0.000189   0.004707
    27  H    0.000336   0.006450   0.000159  -0.000172   0.000017  -0.000006
    28  H   -0.000172   0.000159   0.006450   0.000336  -0.000000   0.000000
    29  H    0.000017   0.000003  -0.000010  -0.000002  -0.000000   0.000000
              25         26         27         28         29
     1  N   -0.000000   0.000000   0.000000  -0.000114  -0.007509
     2  C   -0.000000   0.000000   0.000000   0.003982  -0.044056
     3  C   -0.000000   0.000000  -0.000000   0.000533   0.005296
     4  C    0.000000   0.000001  -0.000024   0.005889   0.000667
     5  C   -0.000000   0.000001   0.000190  -0.041254   0.004019
     6  C   -0.000000  -0.000168  -0.010275  -0.010275  -0.000168
     7  C   -0.000008   0.004019  -0.041254   0.000190   0.000001
     8  C   -0.000010   0.000667   0.005889  -0.000024   0.000001
     9  C   -0.009362   0.005296   0.000533  -0.000000   0.000000
    10  C   -0.025515  -0.044056   0.003982   0.000000   0.000000
    11  N    0.343371  -0.007509  -0.000114   0.000000   0.000000
    12  C    0.005521   0.362492  -0.040802  -0.000000   0.000000
    13  C   -0.000166  -0.033396   0.366352  -0.000003  -0.000000
    14  C   -0.000000  -0.000000  -0.000003   0.366352  -0.033396
    15  C    0.000000   0.000000  -0.000000  -0.040802   0.362492
    16  H    0.000000   0.000000   0.000000  -0.000006   0.004707
    17  H   -0.000000   0.000000   0.000000   0.000004  -0.000055
    18  H    0.000000  -0.000000  -0.000000   0.000017  -0.000189
    19  H    0.000000  -0.000002   0.000336  -0.000172   0.000017
    20  H    0.000000  -0.000010   0.006450   0.000159   0.000003
    21  H    0.000000   0.000003   0.000159   0.006450  -0.000010
    22  H   -0.000005   0.000017  -0.000172   0.000336  -0.000002
    23  H    0.004714  -0.000189   0.000017  -0.000000  -0.000000
    24  H   -0.028465   0.004707  -0.000006   0.000000   0.000000
    25  H    0.434998  -0.000055   0.000004   0.000000   0.000000
    26  H   -0.000055   0.624437  -0.006179  -0.000000  -0.000000
    27  H    0.000004  -0.006179   0.623587   0.000000  -0.000000
    28  H    0.000000  -0.000000   0.000000   0.623587  -0.006180
    29  H    0.000000  -0.000000  -0.000000  -0.006180   0.624437
 Mulliken charges:
               1
     1  N   -0.671603
     2  C    0.251356
     3  C   -0.135141
     4  C   -0.138283
     5  C    0.117493
     6  C   -0.316328
     7  C    0.117492
     8  C   -0.138283
     9  C   -0.135140
    10  C    0.251356
    11  N   -0.671603
    12  C   -0.135986
    13  C   -0.152538
    14  C   -0.152538
    15  C   -0.135986
    16  H    0.275198
    17  H    0.274978
    18  H    0.091236
    19  H    0.090939
    20  H    0.109258
    21  H    0.109258
    22  H    0.090939
    23  H    0.091237
    24  H    0.275198
    25  H    0.274978
    26  H    0.089924
    27  H    0.091332
    28  H    0.091332
    29  H    0.089924
 Sum of Mulliken charges =  -0.00000
 Mulliken charges with hydrogens summed into heavy atoms:
               1
     1  N   -0.121427
     2  C    0.251356
     3  C   -0.043904
     4  C   -0.047345
     5  C    0.117493
     6  C   -0.097811
     7  C    0.117492
     8  C   -0.047345
     9  C   -0.043904
    10  C    0.251356
    11  N   -0.121427
    12  C   -0.046061
    13  C   -0.061205
    14  C   -0.061206
    15  C   -0.046061
 APT charges:
               1
     1  N   -1.222026
     2  C    0.197063
     3  C   -0.448697
     4  C   -0.537943
     5  C   -0.454412
     6  C   -0.898182
     7  C   -0.454413
     8  C   -0.537941
     9  C   -0.448696
    10  C    0.197064
    11  N   -1.222027
    12  C   -0.453922
    13  C   -0.503032
    14  C   -0.503034
    15  C   -0.453921
    16  H    0.825775
    17  H    0.639572
    18  H    0.546322
    19  H    0.272217
    20  H    0.431358
    21  H    0.431357
    22  H    0.272221
    23  H    0.546326
    24  H    0.825770
    25  H    0.639577
    26  H    0.712904
    27  H    0.443901
    28  H    0.443907
    29  H    0.712909
 Sum of APT charges =  -0.00000
 APT charges with hydrogens summed into heavy atoms:
               1
     1  N    0.243321
     2  C    0.197063
     3  C    0.097625
     4  C   -0.265726
     5  C   -0.454412
     6  C   -0.035466
     7  C   -0.454413
     8  C   -0.265720
     9  C    0.097630
    10  C    0.197064
    11  N    0.243321
    12  C    0.258983
    13  C   -0.059131
    14  C   -0.059127
    15  C    0.258989
 Electronic spatial extent (au):  <R**2>=           4391.5361
 Charge=             -0.0000 electrons
 Dipole moment (field-independent basis, Debye):
    X=             -0.0000    Y=             -3.3617    Z=             -0.0002  Tot=              3.3617
 Quadrupole moment (field-independent basis, Debye-Ang):
   XX=            -76.6185   YY=            -78.8048   ZZ=            -80.0662
   XY=             -0.0005   XZ=              9.2128   YZ=             -0.0000
 Traceless Quadrupole moment (field-independent basis, Debye-Ang):
   XX=              1.8780   YY=             -0.3083   ZZ=             -1.5697
   XY=             -0.0005   XZ=              9.2128   YZ=             -0.0000
 Octapole moment (field-independent basis, Debye-Ang**2):
  XXX=             -0.0009  YYY=            -29.1415  ZZZ=             -0.0009  XYY=             -0.0012
  XXY=           -110.2267  XXZ=             -0.0058  XZZ=              0.0015  YZZ=             -6.7457
  YYZ=             -0.0007  XYZ=             11.4520
 Hexadecapole moment (field-independent basis, Debye-Ang**3):
 XXXX=          -4517.3870 YYYY=           -541.2315 ZZZZ=           -496.4955 XXXY=             -0.0165
 XXXZ=            307.0897 YYYX=              0.0028 YYYZ=             -0.0009 ZZZX=             12.8759
 ZZZY=              0.0020 XXYY=           -663.0532 XXZZ=           -782.7095 YYZZ=           -163.0681
 XXYZ=              0.0058 YYXZ=            -18.7083 ZZXY=             -0.0029
 N-N= 8.843667574323D+02 E-N=-3.191803732055D+03  KE= 6.074765689592D+02
  Exact polarizability:   0.000   0.000   0.000   0.000   0.000   0.000
 Approx polarizability: 277.491  -0.002 180.500  37.028  -0.003 235.050
 D2PCM: PCM CHGder 2nd derivatives, FixD1E=F FixD2E=F DoIter=F DoCFld=F I1PDM=0
 Calling FoFJK, ICntrl=    100147 FMM=F ISym2X=0 I1Cent= 0 IOpClX= 0 NMat=1 NMatS=1 NMatT=0.
 ***** Axes restored to original set *****
 -------------------------------------------------------------------
 Center     Atomic                   Forces (Hartrees/Bohr)
 Number     Number              X              Y              Z
 -------------------------------------------------------------------
      1        7          -0.001059845    0.003119683   -0.001357217
      2        6           0.014675881   -0.007155331    0.004856745
      3        6          -0.014478885    0.001486341    0.007090971
      4        6           0.007982182    0.002892679   -0.003164390
      5        6          -0.001885080   -0.004498307   -0.004281210
      6        6          -0.000288760   -0.006053539    0.000435602
      7        6           0.001480494   -0.003998127    0.004893085
      8        6          -0.007651024    0.004058031    0.002663583
      9        6           0.014505847   -0.000919788   -0.007132083
     10        6          -0.015320275   -0.006354429   -0.003883634
     11        7           0.001359602    0.003167615    0.000903848
     12        6           0.007334585   -0.004341004    0.009980915
     13        6          -0.005348921    0.006138340   -0.004679430
     14        6           0.005937377    0.006210345    0.003790481
     15        6          -0.007780136   -0.005009471   -0.009307169
     16        1           0.000144981    0.002564128    0.002940962
     17        1           0.001787188   -0.000642481   -0.003602744
     18        1           0.001179096    0.001444980   -0.000658207
     19        1          -0.000154258   -0.000637485   -0.000801659
     20        1          -0.003999047    0.001175643    0.000404902
     21        1           0.004089612    0.000721903   -0.000541310
     22        1           0.000098955   -0.000527922    0.000885118
     23        1          -0.001032409    0.001628974    0.000436849
     24        1           0.000078231    0.002119415   -0.003277923
     25        1          -0.001815216    0.000050871    0.003645516
     26        1          -0.000849358    0.001902230    0.000105481
     27        1           0.000922874   -0.000282605   -0.001059565
     28        1          -0.000938435   -0.000039417    0.001082932
     29        1           0.001024745    0.001778730   -0.000370447
 -------------------------------------------------------------------
 Cartesian Forces:  Max     0.015320275 RMS     0.004863364
 FormGI is forming the generalized inverse of G from B-inverse, IUseBI=4.

 GradGradGradGradGradGradGradGradGradGradGradGradGradGradGradGradGradGrad
 Berny optimization.
 Internal  Forces:  Max     0.009090579 RMS     0.002484242
 Search for a local minimum.
 Step number   1 out of a maximum of  156
 All quantities printed in internal units (Hartrees-Bohrs-Radians)
 Mixed Optimization -- RFO/linear search
 Second derivative matrix not updated -- analytic derivatives used.
 ITU=  0
     Eigenvalues ---    0.00018   0.00064   0.00506   0.00507   0.01541
     Eigenvalues ---    0.01553   0.01649   0.01669   0.01721   0.01725
     Eigenvalues ---    0.01892   0.01904   0.01990   0.02001   0.02211
     Eigenvalues ---    0.02217   0.02333   0.02337   0.02687   0.02716
     Eigenvalues ---    0.02731   0.02754   0.02854   0.02857   0.05105
     Eigenvalues ---    0.05146   0.08740   0.11303   0.11334   0.11543
     Eigenvalues ---    0.11545   0.11877   0.11884   0.12267   0.12737
     Eigenvalues ---    0.12745   0.13604   0.13608   0.15474   0.15486
     Eigenvalues ---    0.17832   0.18067   0.18358   0.18653   0.19001
     Eigenvalues ---    0.19317   0.19510   0.19630   0.19724   0.21810
     Eigenvalues ---    0.22014   0.29750   0.31492   0.31507   0.31889
     Eigenvalues ---    0.32685   0.33676   0.35440   0.35454   0.35811
     Eigenvalues ---    0.35816   0.35828   0.35838   0.35870   0.35949
     Eigenvalues ---    0.38589   0.38922   0.41131   0.41141   0.44498
     Eigenvalues ---    0.44669   0.45530   0.45542   0.46003   0.46004
     Eigenvalues ---    0.47093   0.47184   0.47665   0.47692   0.51485
     Eigenvalues ---    0.51571
 RFO step:  Lambda=-5.72955716D-03 EMin= 1.79957046D-04
 Linear search not attempted -- first point.
 Iteration  1 RMS(Cart)=  0.02519933 RMS(Int)=  0.00062300
 Iteration  2 RMS(Cart)=  0.00092300 RMS(Int)=  0.00034600
 Iteration  3 RMS(Cart)=  0.00000069 RMS(Int)=  0.00034600
 Variable       Old X    -DE/DX   Delta X   Delta X   Delta X     New X
                                 (Linear)    (Quad)   (Total)
    R1        2.64605   0.00296   0.00000  -0.00308  -0.00308   2.64297
    R2        1.91790  -0.00232   0.00000  -0.00458  -0.00458   1.91332
    R3        1.91815  -0.00242   0.00000  -0.00490  -0.00490   1.91326
    R4        2.63771   0.00909   0.00000   0.02168   0.02175   2.65946
    R5        2.63811   0.00697   0.00000   0.01507   0.01514   2.65324
    R6        2.64248  -0.00353   0.00000  -0.01290  -0.01290   2.62958
    R7        2.05315   0.00066   0.00000   0.00152   0.00152   2.05467
    R8        2.64685   0.00129   0.00000   0.00468   0.00462   2.65147
    R9        2.05535  -0.00062   0.00000  -0.00026  -0.00026   2.05510
   R10        2.85698   0.00648   0.00000   0.01575   0.01575   2.87273
   R11        2.64574   0.00073   0.00000  -0.00072  -0.00078   2.64495
   R12        2.85698   0.00648   0.00000   0.01575   0.01575   2.87273
   R13        2.07490  -0.00031   0.00000  -0.00159  -0.00159   2.07331
   R14        2.07490  -0.00031   0.00000  -0.00159  -0.00159   2.07331
   R15        2.64685   0.00129   0.00000   0.00469   0.00462   2.65147
   R16        2.64573   0.00073   0.00000  -0.00072  -0.00078   2.64495
   R17        2.64248  -0.00353   0.00000  -0.01290  -0.01290   2.62958
   R18        2.05535  -0.00062   0.00000  -0.00025  -0.00025   2.05510
   R19        2.63771   0.00909   0.00000   0.02168   0.02175   2.65946
   R20        2.05316   0.00066   0.00000   0.00152   0.00152   2.05467
   R21        2.64605   0.00296   0.00000  -0.00308  -0.00308   2.64297
   R22        2.63811   0.00697   0.00000   0.01507   0.01514   2.65324
   R23        1.91790  -0.00232   0.00000  -0.00458  -0.00458   1.91332
   R24        1.91815  -0.00242   0.00000  -0.00490  -0.00490   1.91326
   R25        2.64319  -0.00158   0.00000  -0.00634  -0.00633   2.63685
   R26        2.05332   0.00063   0.00000   0.00117   0.00117   2.05449
   R27        2.05489  -0.00056   0.00000   0.00033   0.00033   2.05522
   R28        2.64319  -0.00158   0.00000  -0.00634  -0.00633   2.63685
   R29        2.05489  -0.00056   0.00000   0.00033   0.00033   2.05522
   R30        2.05332   0.00063   0.00000   0.00117   0.00117   2.05449
    A1        1.98303   0.00214   0.00000   0.01266   0.01266   1.99569
    A2        1.98185   0.00239   0.00000   0.01413   0.01413   1.99598
    A3        1.96000  -0.00370   0.00000  -0.02752  -0.02753   1.93248
    A4        2.09963   0.00185   0.00000   0.00998   0.00838   2.10801
    A5        2.09963   0.00221   0.00000   0.01381   0.01224   2.11186
    A6        2.06913  -0.00349   0.00000  -0.00712  -0.00865   2.06048
    A7        2.10801  -0.00028   0.00000  -0.00184  -0.00184   2.10617
    A8        2.09877  -0.00156   0.00000  -0.01405  -0.01405   2.08472
    A9        2.07641   0.00184   0.00000   0.01589   0.01589   2.09230
   A10        2.10402   0.00429   0.00000   0.01885   0.01870   2.12273
   A11        2.07964  -0.00130   0.00000  -0.00339  -0.00333   2.07631
   A12        2.09949  -0.00299   0.00000  -0.01540  -0.01535   2.08415
   A13        2.10685   0.00052   0.00000   0.00749   0.00754   2.11438
   A14        2.06997  -0.00412   0.00000  -0.02148  -0.02174   2.04823
   A15        2.10610   0.00362   0.00000   0.01441   0.01446   2.12056
   A16        1.99242   0.00209   0.00000   0.00593   0.00594   1.99836
   A17        1.88631   0.00314   0.00000   0.02489   0.02499   1.91129
   A18        1.92764  -0.00472   0.00000  -0.03406  -0.03399   1.89365
   A19        1.92764  -0.00472   0.00000  -0.03406  -0.03399   1.89365
   A20        1.88631   0.00314   0.00000   0.02489   0.02499   1.91129
   A21        1.83743   0.00087   0.00000   0.01211   0.01244   1.84988
   A22        2.10685   0.00052   0.00000   0.00749   0.00754   2.11438
   A23        2.10610   0.00362   0.00000   0.01441   0.01446   2.12056
   A24        2.06997  -0.00412   0.00000  -0.02148  -0.02174   2.04823
   A25        2.10402   0.00429   0.00000   0.01885   0.01870   2.12273
   A26        2.09949  -0.00299   0.00000  -0.01540  -0.01534   2.08415
   A27        2.07964  -0.00130   0.00000  -0.00339  -0.00333   2.07631
   A28        2.10801  -0.00028   0.00000  -0.00184  -0.00184   2.10617
   A29        2.07641   0.00184   0.00000   0.01589   0.01589   2.09230
   A30        2.09877  -0.00156   0.00000  -0.01405  -0.01405   2.08472
   A31        2.09963   0.00185   0.00000   0.00998   0.00838   2.10801
   A32        2.06913  -0.00349   0.00000  -0.00712  -0.00865   2.06048
   A33        2.09963   0.00221   0.00000   0.01381   0.01224   2.11187
   A34        1.98303   0.00214   0.00000   0.01266   0.01266   1.99569
   A35        1.98185   0.00239   0.00000   0.01413   0.01413   1.99598
   A36        1.96000  -0.00370   0.00000  -0.02752  -0.02752   1.93248
   A37        2.10870  -0.00097   0.00000  -0.00398  -0.00398   2.10472
   A38        2.09744  -0.00125   0.00000  -0.01117  -0.01117   2.08627
   A39        2.07704   0.00223   0.00000   0.01515   0.01515   2.09219
   A40        2.10317   0.00473   0.00000   0.02086   0.02072   2.12389
   A41        2.10304  -0.00370   0.00000  -0.01895  -0.01890   2.08414
   A42        2.07689  -0.00102   0.00000  -0.00179  -0.00174   2.07515
   A43        2.10317   0.00473   0.00000   0.02086   0.02072   2.12389
   A44        2.10304  -0.00370   0.00000  -0.01895  -0.01890   2.08414
   A45        2.07689  -0.00102   0.00000  -0.00179  -0.00174   2.07515
   A46        2.10870  -0.00097   0.00000  -0.00398  -0.00398   2.10472
   A47        2.09744  -0.00125   0.00000  -0.01117  -0.01117   2.08627
   A48        2.07704   0.00223   0.00000   0.01515   0.01515   2.09219
    D1       -2.79687   0.00208   0.00000   0.05526   0.05565  -2.74122
    D2        0.53134  -0.00105   0.00000  -0.04813  -0.04852   0.48282
    D3       -0.52847   0.00100   0.00000   0.04077   0.04116  -0.48731
    D4        2.79975  -0.00213   0.00000  -0.06263  -0.06301   2.73673
    D5       -3.04383  -0.00159   0.00000  -0.03717  -0.03685  -3.08068
    D6        0.10147  -0.00163   0.00000  -0.04013  -0.03983   0.06164
    D7       -0.08564   0.00207   0.00000   0.06662   0.06648  -0.01916
    D8        3.05966   0.00203   0.00000   0.06366   0.06349   3.12316
    D9        3.04421   0.00149   0.00000   0.03475   0.03475   3.07896
   D10       -0.09880   0.00152   0.00000   0.03641   0.03635  -0.06245
   D11        0.08602  -0.00214   0.00000  -0.06862  -0.06839   0.01763
   D12       -3.05699  -0.00211   0.00000  -0.06696  -0.06679  -3.12378
   D13        0.03440  -0.00073   0.00000  -0.02465  -0.02465   0.00975
   D14       -3.11525  -0.00047   0.00000  -0.01467  -0.01468  -3.12993
   D15       -3.11085  -0.00070   0.00000  -0.02179  -0.02172  -3.13257
   D16        0.02268  -0.00044   0.00000  -0.01182  -0.01175   0.01093
   D17        3.13441   0.00014   0.00000   0.00313   0.00298   3.13739
   D18        0.01791  -0.00044   0.00000  -0.01629  -0.01625   0.00166
   D19        0.00097  -0.00014   0.00000  -0.00702  -0.00709  -0.00612
   D20       -3.11553  -0.00071   0.00000  -0.02644  -0.02632   3.14133
   D21        1.14048  -0.00167   0.00000  -0.02161  -0.02168   1.11881
   D22       -1.01164   0.00064   0.00000  -0.00035  -0.00053  -1.01217
   D23       -3.01312   0.00035   0.00000  -0.01065  -0.01070  -3.02382
   D24       -2.02673  -0.00119   0.00000  -0.00230  -0.00216  -2.02889
   D25        2.10434   0.00112   0.00000   0.01897   0.01898   2.12332
   D26        0.10286   0.00083   0.00000   0.00866   0.00882   0.11168
   D27       -0.01756   0.00041   0.00000   0.01442   0.01436  -0.00320
   D28        3.11032   0.00067   0.00000   0.02460   0.02454   3.13486
   D29       -3.13407  -0.00012   0.00000  -0.00489  -0.00484  -3.13891
   D30       -0.00619   0.00014   0.00000   0.00529   0.00533  -0.00085
   D31        1.14050  -0.00167   0.00000  -0.02160  -0.02167   1.11883
   D32       -2.02670  -0.00119   0.00000  -0.00229  -0.00216  -2.02886
   D33       -3.01309   0.00035   0.00000  -0.01065  -0.01070  -3.02379
   D34        0.10289   0.00083   0.00000   0.00866   0.00882   0.11170
   D35       -1.01161   0.00064   0.00000  -0.00034  -0.00053  -1.01215
   D36        2.10437   0.00112   0.00000   0.01897   0.01898   2.12335
   D37        3.13441   0.00014   0.00000   0.00313   0.00298   3.13739
   D38        0.00097  -0.00014   0.00000  -0.00702  -0.00709  -0.00612
   D39        0.01791  -0.00044   0.00000  -0.01629  -0.01625   0.00166
   D40       -3.11553  -0.00071   0.00000  -0.02644  -0.02632   3.14133
   D41       -3.13407  -0.00012   0.00000  -0.00489  -0.00485  -3.13892
   D42       -0.00619   0.00014   0.00000   0.00528   0.00533  -0.00086
   D43       -0.01756   0.00041   0.00000   0.01442   0.01436  -0.00320
   D44        3.11033   0.00067   0.00000   0.02460   0.02453   3.13486
   D45        0.03440  -0.00073   0.00000  -0.02465  -0.02465   0.00975
   D46       -3.11085  -0.00070   0.00000  -0.02179  -0.02172  -3.13257
   D47       -3.11525  -0.00047   0.00000  -0.01467  -0.01468  -3.12993
   D48        0.02268  -0.00044   0.00000  -0.01181  -0.01175   0.01093
   D49       -3.04383  -0.00159   0.00000  -0.03717  -0.03685  -3.08068
   D50       -0.08564   0.00207   0.00000   0.06661   0.06647  -0.01916
   D51        0.10147  -0.00163   0.00000  -0.04013  -0.03983   0.06164
   D52        3.05967   0.00203   0.00000   0.06366   0.06349   3.12316
   D53       -2.79687   0.00208   0.00000   0.05526   0.05565  -2.74122
   D54       -0.52847   0.00100   0.00000   0.04077   0.04116  -0.48731
   D55        0.53134  -0.00105   0.00000  -0.04813  -0.04852   0.48282
   D56        2.79974  -0.00213   0.00000  -0.06262  -0.06301   2.73673
   D57        0.08602  -0.00214   0.00000  -0.06862  -0.06839   0.01763
   D58       -3.05700  -0.00211   0.00000  -0.06696  -0.06678  -3.12378
   D59        3.04421   0.00149   0.00000   0.03475   0.03475   3.07896
   D60       -0.09880   0.00152   0.00000   0.03641   0.03635  -0.06245
   D61       -0.03511   0.00078   0.00000   0.02838   0.02845  -0.00666
   D62        3.11999   0.00054   0.00000   0.01849   0.01846   3.13845
   D63        3.10789   0.00076   0.00000   0.02676   0.02686   3.13475
   D64       -0.02020   0.00051   0.00000   0.01687   0.01687  -0.00332
   D65       -0.03511   0.00078   0.00000   0.02838   0.02845  -0.00666
   D66        3.10789   0.00076   0.00000   0.02676   0.02686   3.13475
   D67        3.11999   0.00054   0.00000   0.01849   0.01846   3.13845
   D68       -0.02020   0.00051   0.00000   0.01687   0.01687  -0.00332
         Item               Value     Threshold  Converged?
 Maximum Force            0.009091     0.000450     NO 
 RMS     Force            0.002484     0.000300     NO 
 Maximum Displacement     0.078624     0.001800     NO 
 RMS     Displacement     0.025032     0.001200     NO 
 Predicted change in Energy=-3.140571D-03
 GradGradGradGradGradGradGradGradGradGradGradGradGradGradGradGradGradGrad

                          Input orientation:                          
 ---------------------------------------------------------------------
 Center     Atomic      Atomic             Coordinates (Angstroms)
 Number     Number       Type             X           Y           Z
 ---------------------------------------------------------------------
      1          7           0        4.936231    1.072569   -0.076672
      2          6           0        3.693453    0.431183   -0.062502
      3          6           0        2.810775    0.595010    1.021288
      4          6           0        1.606324   -0.100324    1.067262
      5          6           0        1.232637   -0.992504    0.050867
      6          6           0       -0.083465   -1.750618    0.114814
      7          6           0       -1.321439   -0.870022    0.060755
      8          6           0       -1.615941   -0.101010   -1.075280
      9          6           0       -2.748830    0.704601   -1.137391
     10          6           0       -3.635625    0.781707   -0.047340
     11          7           0       -4.811992    1.533250   -0.133475
     12          6           0       -3.354572    0.006077    1.088761
     13          6           0       -2.215427   -0.798421    1.135314
     14          6           0        2.122060   -1.160219   -1.016756
     15          6           0        3.332527   -0.468799   -1.077925
     16          1           0        5.329351    1.200529   -1.000905
     17          1           0        4.965603    1.937914    0.448090
     18          1           0        3.075847    1.273229    1.828720
     19          1           0        0.940135    0.055626    1.912571
     20          1           0       -0.119317   -2.345380    1.036066
     21          1           0       -0.110346   -2.471667   -0.711684
     22          1           0       -0.943774   -0.131288   -1.929651
     23          1           0       -2.954030    1.282418   -2.035283
     24          1           0       -5.184912    1.828671    0.760270
     25          1           0       -4.762912    2.313528   -0.776760
     26          1           0       -4.032531    0.034504    1.938200
     27          1           0       -2.022950   -1.385654    2.030258
     28          1           0        1.868783   -1.848497   -1.819837
     29          1           0        4.004340   -0.626413   -1.918049
 ---------------------------------------------------------------------
                    Distance matrix (angstroms):
                    1          2          3          4          5
     1  N    0.000000
     2  C    1.398598   0.000000
     3  C    2.439497   1.407324   0.000000
     4  C    3.711138   2.432071   1.391511   0.000000
     5  C    4.242335   2.845233   2.439762   1.403098   0.000000
     6  C    5.762326   4.365410   3.834096   2.546766   1.520181
     7  C    6.553700   5.182419   4.488222   3.190186   2.557030
     8  C    6.730934   5.431263   4.947308   3.869558   3.190198
     9  C    7.766639   6.537059   5.964990   4.947298   4.488229
    10  C    8.576840   7.337471   6.537040   5.431238   5.182417
    11  N    9.759267   8.576839   7.766617   6.730907   6.553697
    12  C    8.439968   7.154074   6.193779   4.962084   4.808001
    13  C    7.491043   6.153174   5.217026   3.885583   3.619784
    14  C    3.713309   2.431550   2.776469   2.394262   1.399650
    15  C    2.439301   1.404036   2.410521   2.778016   2.440897
    16  H    1.012484   2.036825   3.286205   4.453141   4.764314
    17  H    1.012452   2.036985   2.602928   3.977756   4.762370
    18  H    2.670546   2.160370   1.087285   2.150805   3.419317
    19  H    4.578215   3.409211   2.141171   1.087510   2.156403
    20  H    6.203155   4.842868   4.151090   2.831799   2.151435
    21  H    6.199419   4.828754   4.576095   3.425620   2.138460
    22  H    6.281501   5.030555   4.830340   3.935155   3.066090
    23  H    8.132430   6.986093   6.561107   5.686351   5.201487
    24  H   10.183796   9.025258   8.094507   7.066552   7.046078
    25  H    9.803238   8.692727   7.971638   7.056506   6.896479
    26  H    9.250729   7.990681   6.927173   5.707311   5.686718
    27  H    7.675430   6.352779   5.320333   3.968762   3.830327
    28  H    4.580447   3.408018   3.863945   3.385311   2.153355
    29  H    2.673131   2.158290   3.399438   3.865143   3.419501
                    6          7          8          9         10
     6  C    0.000000
     7  C    1.520181   0.000000
     8  C    2.546765   1.403099   0.000000
     9  C    3.834095   2.439762   1.391511   0.000000
    10  C    4.365410   2.845233   2.432072   1.407324   0.000000
    11  N    5.762326   4.242335   3.711138   2.439497   1.398598
    12  C    3.838579   2.440897   2.778017   2.410521   1.404036
    13  C    2.548207   1.399650   2.394262   2.776469   2.431550
    14  C    2.548207   3.619796   3.885614   5.217056   6.153192
    15  C    3.838579   4.808011   4.962118   6.193812   7.154091
    16  H    6.265196   7.046085   7.066585   8.094540   9.025270
    17  H    6.261743   6.896480   7.056528   7.971655   8.692721
    18  H    4.697060   5.201475   5.686354   6.561098   6.986061
    19  H    2.746307   3.066066   3.935138   4.830310   5.030509
    20  H    1.097148   2.138460   3.425619   4.576094   4.828754
    21  H    1.097147   2.151435   2.831789   4.151084   4.842869
    22  H    2.746307   2.156403   1.087510   2.141171   3.409211
    23  H    4.697060   3.419317   2.150805   1.087285   2.160370
    24  H    6.265196   4.764314   4.453141   3.286205   2.036825
    25  H    6.261742   4.762370   3.977755   2.602927   2.036985
    26  H    4.701757   3.419501   3.865143   3.399438   2.158290
    27  H    2.750223   2.153355   3.385311   3.863945   3.408018
    28  H    2.750223   3.830346   3.968800   5.320375   6.352812
    29  H    4.701757   5.686733   5.707352   6.927217   7.990709
                   11         12         13         14         15
    11  N    0.000000
    12  C    2.439301   0.000000
    13  C    3.713309   1.395362   0.000000
    14  C    7.491063   5.982219   4.855522   0.000000
[...]
     9    N    1  pz     Val( 2p)     1.48433
    10    N    1  pz     Ryd( 3p)     0.00240
    11    N    1  dxy    Ryd( 3d)     0.00067
    12    N    1  dxz    Ryd( 3d)     0.00064
    13    N    1  dyz    Ryd( 3d)     0.00053
    14    N    1  dx2y2  Ryd( 3d)     0.00084
    15    N    1  dz2    Ryd( 3d)     0.00066

    16    C    2  S      Cor( 1S)     1.99897
    17    C    2  S      Val( 2S)     0.85160
    18    C    2  S      Ryd( 3S)     0.00121
    19    C    2  S      Ryd( 4S)     0.00009
    20    C    2  px     Val( 2p)     0.91955
    21    C    2  px     Ryd( 3p)     0.00507
    22    C    2  py     Val( 2p)     0.96962
    23    C    2  py     Ryd( 3p)     0.00266
    24    C    2  pz     Val( 2p)     1.06157
    25    C    2  pz     Ryd( 3p)     0.00370
    26    C    2  dxy    Ryd( 3d)     0.00100
    27    C    2  dxz    Ryd( 3d)     0.00092
    28    C    2  dyz    Ryd( 3d)     0.00068
    29    C    2  dx2y2  Ryd( 3d)     0.00129
    30    C    2  dz2    Ryd( 3d)     0.00106

    31    C    3  S      Cor( 1S)     1.99905
    32    C    3  S      Val( 2S)     0.94978
    33    C    3  S      Ryd( 3S)     0.00067
    34    C    3  S      Ryd( 4S)     0.00004
    35    C    3  px     Val( 2p)     1.07721
    36    C    3  px     Ryd( 3p)     0.00462
    37    C    3  py     Val( 2p)     1.14604
    38    C    3  py     Ryd( 3p)     0.00449
    39    C    3  pz     Val( 2p)     1.14722
    40    C    3  pz     Ryd( 3p)     0.00432
    41    C    3  dxy    Ryd( 3d)     0.00045
    42    C    3  dxz    Ryd( 3d)     0.00057
    43    C    3  dyz    Ryd( 3d)     0.00052
    44    C    3  dx2y2  Ryd( 3d)     0.00049
    45    C    3  dz2    Ryd( 3d)     0.00042

    46    C    4  S      Cor( 1S)     1.99904
    47    C    4  S      Val( 2S)     0.94834
    48    C    4  S      Ryd( 3S)     0.00069
    49    C    4  S      Ryd( 4S)     0.00005
    50    C    4  px     Val( 2p)     1.12391
    51    C    4  px     Ryd( 3p)     0.00377
    52    C    4  py     Val( 2p)     1.05050
    53    C    4  py     Ryd( 3p)     0.00417
    54    C    4  pz     Val( 2p)     1.12989
    55    C    4  pz     Ryd( 3p)     0.00457
    56    C    4  dxy    Ryd( 3d)     0.00045
    57    C    4  dxz    Ryd( 3d)     0.00069
    58    C    4  dyz    Ryd( 3d)     0.00043
    59    C    4  dx2y2  Ryd( 3d)     0.00064
    60    C    4  dz2    Ryd( 3d)     0.00048

    61    C    5  S      Cor( 1S)     1.99900
    62    C    5  S      Val( 2S)     0.88568
    63    C    5  S      Ryd( 3S)     0.00094
    64    C    5  S      Ryd( 4S)     0.00005
    65    C    5  px     Val( 2p)     1.01993
    66    C    5  px     Ryd( 3p)     0.00498
    67    C    5  py     Val( 2p)     1.02495
    68    C    5  py     Ryd( 3p)     0.00343
    69    C    5  pz     Val( 2p)     1.05433
    70    C    5  pz     Ryd( 3p)     0.00404
    71    C    5  dxy    Ryd( 3d)     0.00062
    72    C    5  dxz    Ryd( 3d)     0.00064
    73    C    5  dyz    Ryd( 3d)     0.00063
    74    C    5  dx2y2  Ryd( 3d)     0.00057
    75    C    5  dz2    Ryd( 3d)     0.00080

    76    C    6  S      Cor( 1S)     1.99921
    77    C    6  S      Val( 2S)     1.02307
    78    C    6  S      Ryd( 3S)     0.00065
    79    C    6  S      Ryd( 4S)     0.00002
    80    C    6  px     Val( 2p)     1.03676
    81    C    6  px     Ryd( 3p)     0.00176
    82    C    6  py     Val( 2p)     1.15791
    83    C    6  py     Ryd( 3p)     0.00250
    84    C    6  pz     Val( 2p)     1.26260
    85    C    6  pz     Ryd( 3p)     0.00636
    86    C    6  dxy    Ryd( 3d)     0.00073
    87    C    6  dxz    Ryd( 3d)     0.00032
    88    C    6  dyz    Ryd( 3d)     0.00096
    89    C    6  dx2y2  Ryd( 3d)     0.00074
    90    C    6  dz2    Ryd( 3d)     0.00059

    91    C    7  S      Cor( 1S)     1.99900
    92    C    7  S      Val( 2S)     0.88568
    93    C    7  S      Ryd( 3S)     0.00094
    94    C    7  S      Ryd( 4S)     0.00005
    95    C    7  px     Val( 2p)     1.01993
    96    C    7  px     Ryd( 3p)     0.00498
    97    C    7  py     Val( 2p)     1.02495
    98    C    7  py     Ryd( 3p)     0.00343
    99    C    7  pz     Val( 2p)     1.05433
   100    C    7  pz     Ryd( 3p)     0.00404
   101    C    7  dxy    Ryd( 3d)     0.00062
   102    C    7  dxz    Ryd( 3d)     0.00064
   103    C    7  dyz    Ryd( 3d)     0.00063
   104    C    7  dx2y2  Ryd( 3d)     0.00057
   105    C    7  dz2    Ryd( 3d)     0.00080

   106    C    8  S      Cor( 1S)     1.99904
   107    C    8  S      Val( 2S)     0.94834
   108    C    8  S      Ryd( 3S)     0.00069
   109    C    8  S      Ryd( 4S)     0.00005
   110    C    8  px     Val( 2p)     1.12391
   111    C    8  px     Ryd( 3p)     0.00377
   112    C    8  py     Val( 2p)     1.05050
   113    C    8  py     Ryd( 3p)     0.00417
   114    C    8  pz     Val( 2p)     1.12989
   115    C    8  pz     Ryd( 3p)     0.00457
   116    C    8  dxy    Ryd( 3d)     0.00045
   117    C    8  dxz    Ryd( 3d)     0.00069
   118    C    8  dyz    Ryd( 3d)     0.00043
   119    C    8  dx2y2  Ryd( 3d)     0.00064
   120    C    8  dz2    Ryd( 3d)     0.00048

   121    C    9  S      Cor( 1S)     1.99905
   122    C    9  S      Val( 2S)     0.94978
   123    C    9  S      Ryd( 3S)     0.00067
   124    C    9  S      Ryd( 4S)     0.00004
   125    C    9  px     Val( 2p)     1.07721
   126    C    9  px     Ryd( 3p)     0.00462
   127    C    9  py     Val( 2p)     1.14604
   128    C    9  py     Ryd( 3p)     0.00449
   129    C    9  pz     Val( 2p)     1.14722
   130    C    9  pz     Ryd( 3p)     0.00432
   131    C    9  dxy    Ryd( 3d)     0.00045
   132    C    9  dxz    Ryd( 3d)     0.00057
   133    C    9  dyz    Ryd( 3d)     0.00052
   134    C    9  dx2y2  Ryd( 3d)     0.00049
   135    C    9  dz2    Ryd( 3d)     0.00042

   136    C   10  S      Cor( 1S)     1.99897
   137    C   10  S      Val( 2S)     0.85160
   138    C   10  S      Ryd( 3S)     0.00121
   139    C   10  S      Ryd( 4S)     0.00009
   140    C   10  px     Val( 2p)     0.91955
   141    C   10  px     Ryd( 3p)     0.00507
   142    C   10  py     Val( 2p)     0.96962
   143    C   10  py     Ryd( 3p)     0.00266
   144    C   10  pz     Val( 2p)     1.06158
   145    C   10  pz     Ryd( 3p)     0.00370
   146    C   10  dxy    Ryd( 3d)     0.00100
   147    C   10  dxz    Ryd( 3d)     0.00092
   148    C   10  dyz    Ryd( 3d)     0.00068
   149    C   10  dx2y2  Ryd( 3d)     0.00129
   150    C   10  dz2    Ryd( 3d)     0.00106

   151    N   11  S      Cor( 1S)     1.99949
   152    N   11  S      Val( 2S)     1.37150
   153    N   11  S      Ryd( 3S)     0.00011
   154    N   11  S      Ryd( 4S)     0.00001
   155    N   11  px     Val( 2p)     1.44388
   156    N   11  px     Ryd( 3p)     0.00280
   157    N   11  py     Val( 2p)     1.46522
   158    N   11  py     Ryd( 3p)     0.00236
   159    N   11  pz     Val( 2p)     1.48433
   160    N   11  pz     Ryd( 3p)     0.00240
   161    N   11  dxy    Ryd( 3d)     0.00067
   162    N   11  dxz    Ryd( 3d)     0.00064
   163    N   11  dyz    Ryd( 3d)     0.00053
   164    N   11  dx2y2  Ryd( 3d)     0.00084
   165    N   11  dz2    Ryd( 3d)     0.00066

   166    C   12  S      Cor( 1S)     1.99905
   167    C   12  S      Val( 2S)     0.95233
   168    C   12  S      Ryd( 3S)     0.00064
   169    C   12  S      Ryd( 4S)     0.00004
   170    C   12  px     Val( 2p)     1.13722
   171    C   12  px     Ryd( 3p)     0.00423
   172    C   12  py     Val( 2p)     1.07244
   173    C   12  py     Ryd( 3p)     0.00433
   174    C   12  pz     Val( 2p)     1.13111
   175    C   12  pz     Ryd( 3p)     0.00434
   176    C   12  dxy    Ryd( 3d)     0.00040
   177    C   12  dxz    Ryd( 3d)     0.00064
   178    C   12  dyz    Ryd( 3d)     0.00046
   179    C   12  dx2y2  Ryd( 3d)     0.00059
   180    C   12  dz2    Ryd( 3d)     0.00044

   181    C   13  S      Cor( 1S)     1.99905
   182    C   13  S      Val( 2S)     0.94617
   183    C   13  S      Ryd( 3S)     0.00061
   184    C   13  S      Ryd( 4S)     0.00004
   185    C   13  px     Val( 2p)     1.06854
   186    C   13  px     Ryd( 3p)     0.00439
   187    C   13  py     Val( 2p)     1.12579
   188    C   13  py     Ryd( 3p)     0.00412
   189    C   13  pz     Val( 2p)     1.14227
   190    C   13  pz     Ryd( 3p)     0.00494
   191    C   13  dxy    Ryd( 3d)     0.00050
   192    C   13  dxz    Ryd( 3d)     0.00053
   193    C   13  dyz    Ryd( 3d)     0.00057
   194    C   13  dx2y2  Ryd( 3d)     0.00052
   195    C   13  dz2    Ryd( 3d)     0.00047

   196    C   14  S      Cor( 1S)     1.99905
   197    C   14  S      Val( 2S)     0.94617
   198    C   14  S      Ryd( 3S)     0.00061
   199    C   14  S      Ryd( 4S)     0.00004
   200    C   14  px     Val( 2p)     1.06854
   201    C   14  px     Ryd( 3p)     0.00439
   202    C   14  py     Val( 2p)     1.12579
   203    C   14  py     Ryd( 3p)     0.00412
   204    C   14  pz     Val( 2p)     1.14226
   205    C   14  pz     Ryd( 3p)     0.00494
   206    C   14  dxy    Ryd( 3d)     0.00050
   207    C   14  dxz    Ryd( 3d)     0.00053
   208    C   14  dyz    Ryd( 3d)     0.00057
   209    C   14  dx2y2  Ryd( 3d)     0.00052
   210    C   14  dz2    Ryd( 3d)     0.00047

   211    C   15  S      Cor( 1S)     1.99905
   212    C   15  S      Val( 2S)     0.95233
   213    C   15  S      Ryd( 3S)     0.00064
   214    C   15  S      Ryd( 4S)     0.00004
   215    C   15  px     Val( 2p)     1.13722
   216    C   15  px     Ryd( 3p)     0.00423
   217    C   15  py     Val( 2p)     1.07244
   218    C   15  py     Ryd( 3p)     0.00433
   219    C   15  pz     Val( 2p)     1.13111
   220    C   15  pz     Ryd( 3p)     0.00434
   221    C   15  dxy    Ryd( 3d)     0.00040
   222    C   15  dxz    Ryd( 3d)     0.00064
   223    C   15  dyz    Ryd( 3d)     0.00046
   224    C   15  dx2y2  Ryd( 3d)     0.00059
   225    C   15  dz2    Ryd( 3d)     0.00044

   226    H   16  S      Val( 1S)     0.57536
   227    H   16  S      Ryd( 2S)     0.00139
   228    H   16  px     Ryd( 2p)     0.00037
   229    H   16  py     Ryd( 2p)     0.00030
   230    H   16  pz     Ryd( 2p)     0.00057

   231    H   17  S      Val( 1S)     0.57559
   232    H   17  S      Ryd( 2S)     0.00162
   233    H   17  px     Ryd( 2p)     0.00029
   234    H   17  py     Ryd( 2p)     0.00059
   235    H   17  pz     Ryd( 2p)     0.00037

   236    H   18  S      Val( 1S)     0.76114
   237    H   18  S      Ryd( 2S)     0.00102
   238    H   18  px     Ryd( 2p)     0.00008
   239    H   18  py     Ryd( 2p)     0.00025
   240    H   18  pz     Ryd( 2p)     0.00029

   241    H   19  S      Val( 1S)     0.75998
   242    H   19  S      Ryd( 2S)     0.00165
   243    H   19  px     Ryd( 2p)     0.00024
   244    H   19  py     Ryd( 2p)     0.00012
   245    H   19  pz     Ryd( 2p)     0.00027

   246    H   20  S      Val( 1S)     0.73775
   247    H   20  S      Ryd( 2S)     0.00171
   248    H   20  px     Ryd( 2p)     0.00010
   249    H   20  py     Ryd( 2p)     0.00020
   250    H   20  pz     Ryd( 2p)     0.00025

   251    H   21  S      Val( 1S)     0.73775
   252    H   21  S      Ryd( 2S)     0.00171
   253    H   21  px     Ryd( 2p)     0.00010
   254    H   21  py     Ryd( 2p)     0.00020
   255    H   21  pz     Ryd( 2p)     0.00025

   256    H   22  S      Val( 1S)     0.75998
   257    H   22  S      Ryd( 2S)     0.00165
   258    H   22  px     Ryd( 2p)     0.00024
   259    H   22  py     Ryd( 2p)     0.00012
   260    H   22  pz     Ryd( 2p)     0.00027

   261    H   23  S      Val( 1S)     0.76114
   262    H   23  S      Ryd( 2S)     0.00102
   263    H   23  px     Ryd( 2p)     0.00008
   264    H   23  py     Ryd( 2p)     0.00025
   265    H   23  pz     Ryd( 2p)     0.00029

   266    H   24  S      Val( 1S)     0.57536
   267    H   24  S      Ryd( 2S)     0.00139
   268    H   24  px     Ryd( 2p)     0.00037
   269    H   24  py     Ryd( 2p)     0.00030
   270    H   24  pz     Ryd( 2p)     0.00057

   271    H   25  S      Val( 1S)     0.57559
   272    H   25  S      Ryd( 2S)     0.00162
   273    H   25  px     Ryd( 2p)     0.00029
   274    H   25  py     Ryd( 2p)     0.00059
   275    H   25  pz     Ryd( 2p)     0.00037

   276    H   26  S      Val( 1S)     0.76021
   277    H   26  S      Ryd( 2S)     0.00106
   278    H   26  px     Ryd( 2p)     0.00023
   279    H   26  py     Ryd( 2p)     0.00012
   280    H   26  pz     Ryd( 2p)     0.00027

   281    H   27  S      Val( 1S)     0.76257
   282    H   27  S      Ryd( 2S)     0.00102
   283    H   27  px     Ryd( 2p)     0.00009
   284    H   27  py     Ryd( 2p)     0.00025
   285    H   27  pz     Ryd( 2p)     0.00029

   286    H   28  S      Val( 1S)     0.76257
   287    H   28  S      Ryd( 2S)     0.00102
   288    H   28  px     Ryd( 2p)     0.00009
   289    H   28  py     Ryd( 2p)     0.00025
   290    H   28  pz     Ryd( 2p)     0.00029

   291    H   29  S      Val( 1S)     0.76021
   292    H   29  S      Ryd( 2S)     0.00106
   293    H   29  px     Ryd( 2p)     0.00023
   294    H   29  py     Ryd( 2p)     0.00012
   295    H   29  pz     Ryd( 2p)     0.00027

 WARNING:  1 low occupancy (<1.9990e) core orbital  found on  C    2
           1 low occupancy (<1.9990e) core orbital  found on  C   10


 Summary of Natural Population Analysis:                  
                                                          
                                       Natural Population 
                Natural  -----------------------------------------------
    Atom  No    Charge         Core      Valence    Rydberg      Total
 -----------------------------------------------------------------------
      N    1   -0.77544      1.99949     5.76494    0.01101     7.77544
      C    2    0.18101      1.99897     3.80234    0.01768     5.81899
      C    3   -0.33589      1.99905     4.32024    0.01659     6.33589
      C    4   -0.26762      1.99904     4.25263    0.01595     6.26762
      C    5   -0.00058      1.99900     3.98489    0.01669     6.00058
      C    6   -0.49416      1.99921     4.48034    0.01461     6.49416
      C    7   -0.00058      1.99900     3.98489    0.01669     6.00058
      C    8   -0.26762      1.99904     4.25263    0.01595     6.26762
      C    9   -0.33589      1.99905     4.32024    0.01659     6.33589
      C   10    0.18101      1.99897     3.80234    0.01768     5.81899
      N   11   -0.77544      1.99949     5.76494    0.01101     7.77544
      C   12   -0.30826      1.99905     4.29310    0.01611     6.30826
      C   13   -0.29851      1.99905     4.28277    0.01670     6.29851
      C   14   -0.29851      1.99905     4.28277    0.01670     6.29851
      C   15   -0.30826      1.99905     4.29310    0.01611     6.30826
      H   16    0.42200      0.00000     0.57536    0.00264     0.57800
      H   17    0.42154      0.00000     0.57559    0.00287     0.57846
      H   18    0.23721      0.00000     0.76114    0.00165     0.76279
      H   19    0.23775      0.00000     0.75998    0.00227     0.76225
      H   20    0.25999      0.00000     0.73775    0.00226     0.74001
      H   21    0.25999      0.00000     0.73775    0.00226     0.74001
      H   22    0.23775      0.00000     0.75998    0.00227     0.76225
      H   23    0.23721      0.00000     0.76114    0.00165     0.76279
      H   24    0.42200      0.00000     0.57536    0.00264     0.57800
      H   25    0.42154      0.00000     0.57559    0.00287     0.57846
      H   26    0.23811      0.00000     0.76021    0.00168     0.76189
      H   27    0.23579      0.00000     0.76257    0.00164     0.76421
      H   28    0.23579      0.00000     0.76257    0.00164     0.76421
      H   29    0.23811      0.00000     0.76021    0.00168     0.76189
 =======================================================================
   * Total *   -0.00000     29.98654    75.74736    0.26610   106.00000

                                 Natural Population      
 --------------------------------------------------------
   Core                      29.98654 ( 99.9551% of  30)
   Valence                   75.74736 ( 99.6676% of  76)
   Natural Minimal Basis    105.73390 ( 99.7490% of 106)
   Natural Rydberg Basis      0.26610 (  0.2510% of 106)
 --------------------------------------------------------

    Atom  No          Natural Electron Configuration
 ----------------------------------------------------------------------------
      N    1      [core]2S( 1.37)2p( 4.39)3p( 0.01)
      C    2      [core]2S( 0.85)2p( 2.95)3p( 0.01)
      C    3      [core]2S( 0.95)2p( 3.37)3p( 0.01)
      C    4      [core]2S( 0.95)2p( 3.30)3p( 0.01)
      C    5      [core]2S( 0.89)2p( 3.10)3p( 0.01)
      C    6      [core]2S( 1.02)2p( 3.46)3p( 0.01)
      C    7      [core]2S( 0.89)2p( 3.10)3p( 0.01)
      C    8      [core]2S( 0.95)2p( 3.30)3p( 0.01)
      C    9      [core]2S( 0.95)2p( 3.37)3p( 0.01)
      C   10      [core]2S( 0.85)2p( 2.95)3p( 0.01)
      N   11      [core]2S( 1.37)2p( 4.39)3p( 0.01)
      C   12      [core]2S( 0.95)2p( 3.34)3p( 0.01)
      C   13      [core]2S( 0.95)2p( 3.34)3p( 0.01)
      C   14      [core]2S( 0.95)2p( 3.34)3p( 0.01)
      C   15      [core]2S( 0.95)2p( 3.34)3p( 0.01)
      H   16            1S( 0.58)
      H   17            1S( 0.58)
      H   18            1S( 0.76)
      H   19            1S( 0.76)
      H   20            1S( 0.74)
      H   21            1S( 0.74)
      H   22            1S( 0.76)
      H   23            1S( 0.76)
      H   24            1S( 0.58)
      H   25            1S( 0.58)
      H   26            1S( 0.76)
      H   27            1S( 0.76)
      H   28            1S( 0.76)
      H   29            1S( 0.76)


 NBO analysis skipped by request.
 1\1\GINC-DRG2-W012\SP\RB3LYP TD-FC\6-31G(d,p)\C13H14N2\QDUEZ\21-Jul-20
 24\0\\# TD(NStates=10, Root=1) B3LYP/6-31G** SCRF=(Solvent=water) volu
 me pop=NPA density=current Geom=AllCheck Guess=Read\\YBRVSVVVWCFQMG-UH
 FFFAOYSA-N_conf_2\\0,1\N,0,4.9516554141,1.0579710223,-0.087675095\C,0,
 3.7090250263,0.4165039501,-0.0704619166\C,0,2.7914733594,0.6488777342,
 0.972098854\C,0,1.5829637455,-0.0389918382,1.0203805778\C,0,1.23450525
 04,-0.9849226282,0.0440233983\C,0,-0.0829909182,-1.7406816356,0.114108
 8306\C,0,-1.322532896,-0.8613960369,0.0664422197\C,0,-1.5865461997,-0.
 0360850129,-1.0374782568\C,0,-2.7241672987,0.7628845406,-1.0962748453\
 C,0,-3.6524626934,0.7698548008,-0.0374780287\N,0,-4.8286543587,1.52189
 66184,-0.1206214259\C,0,-3.3938612924,-0.0504568713,1.0728029181\C,0,-
 2.2494131095,-0.8475320887,1.1152080306\C,0,2.1513688986,-1.2089366145
 ,-0.9896049676\C,0,3.3663838129,-0.5259230556,-1.0537919815\H,0,5.3711
 050048,1.1319940089,-1.0061943035\H,0,4.9676433506,1.9526427954,0.3859
 393952\H,0,3.0344221704,1.3737384125,1.7452843859\H,0,0.8910401295,0.1
 681212547,1.833355056\H,0,-0.1172282752,-2.3361600028,1.0352488304\H,0
 ,-0.1115476281,-2.4622763803,-0.7121786907\H,0,-0.883685987,-0.0137619
 416,-1.8669786077\H,0,-2.9026855587,1.3894608821,-1.9667898108\H,0,-5.
 2329414657,1.7658465154,0.7749986235\H,0,-4.7631205431,2.3371183482,-0
 .7173816252\H,0,-4.0936675331,-0.0617089591,1.9047727944\H,0,-2.076502
 0815,-1.4726363798,1.9883176336\H,0,1.9141234796,-1.9332484519,-1.7655
 308324\H,0,4.0562981969,-0.7221929864,-1.8708143274\\Version=ES64L-G16
 RevA.03\State=1-A\HF=-613.362093\RMSD=4.740e-09\Dipole=0.0852696,1.788
 3622,-0.1287952\Quadrupole=10.2773948,-2.7411059,-7.5362889,-1.1797679
 ,-7.7242511,0.0271361\PG=C01 [X(C13H14N2)]\\@


 THERE'S SMALL CHOICE IN A BOWL OF ROTTEN APPLES.
                     SHAKESPEARE
 Job cpu time:       0 days  0 hours 45 minutes 39.1 seconds.
 Elapsed time:       0 days  0 hours 15 minutes 55.7 seconds.
 File lengths (MBytes):  RWF=    730 Int=      0 D2E=      0 Chk=     46 Scr=      1
 Normal termination of Gaussian 16 at Sun Jul 21 12:54:22 2024.
