 Entering Gaussian System, Link 0=g16
 Initial command:
 /opt/sw/arch/manual/gaussian/G16_A03/g16/l1.exe "/scratch/1381516/Gau-178445.inp" -scrdir="/scratch/1381516/"
 Entering Link 1 = /opt/sw/arch/manual/gaussian/G16_A03/g16/l1.exe PID=    178447.
  
 Copyright (c) 1988,1990,1992,1993,1995,1998,2003,2009,2016,
            Gaussian, Inc.  All Rights Reserved.
  
 This is part of the Gaussian(R) 16 program.  It is based on
 the Gaussian(R) 09 system (copyright 2009, Gaussian, Inc.),
 the Gaussian(R) 03 system (copyright 2003, Gaussian, Inc.),
 the Gaussian(R) 98 system (copyright 1998, Gaussian, Inc.),
 the Gaussian(R) 94 system (copyright 1995, Gaussian, Inc.),
 the Gaussian 92(TM) system (copyright 1992, Gaussian, Inc.),
 the Gaussian 90(TM) system (copyright 1990, Gaussian, Inc.),
 the Gaussian 88(TM) system (copyright 1988, Gaussian, Inc.),
 the Gaussian 86(TM) system (copyright 1986, Carnegie Mellon
 University), and the Gaussian 82(TM) system (copyright 1983,
 Carnegie Mellon University). Gaussian is a federally registered
 trademark of Gaussian, Inc.
  
 This software contains proprietary and confidential information,
 including trade secrets, belonging to Gaussian, Inc.
  
 This software is provided under written license and may be
 used, copied, transmitted, or stored only in accord with that
 written license.
  
 The following legend is applicable only to US Government
 contracts under FAR:
  
                    RESTRICTED RIGHTS LEGEND
  
 Use, reproduction and disclosure by the US Government is
 subject to restrictions as set forth in subparagraphs (a)
 and (c) of the Commercial Computer Software - Restricted
 Rights clause in FAR 52.227-19.
  
 Gaussian, Inc.
 340 Quinnipiac St., Bldg. 40, Wallingford CT 06492
  
  
 ---------------------------------------------------------------
 Warning -- This program may not be used in any manner that
 competes with the business of Gaussian, Inc. or will provide
 assistance to any competitor of Gaussian, Inc.  The licensee
 of this program is prohibited from giving any competitor of
 Gaussian, Inc. access to this program.  By using this program,
 the user acknowledges that Gaussian, Inc. is engaged in the
 business of creating and licensing software in the field of
 computational chemistry and represents and warrants to the
 licensee that it is not a competitor of Gaussian, Inc. and that
 it will not use this program in any manner prohibited above.
 ---------------------------------------------------------------
  

 Cite this work as:
 Gaussian 16, Revision A.03,
 M. J. Frisch, G. W. Trucks, H. B. Schlegel, G. E. Scuseria, 
 M. A. Robb, J. R. Cheeseman, G. Scalmani, V. Barone, 
 G. A. Petersson, H. Nakatsuji, X. Li, M. Caricato, A. V. Marenich, 
 J. Bloino, B. G. Janesko, R. Gomperts, B. Mennucci, H. P. Hratchian, 
 J. V. Ortiz, A. F. Izmaylov, J. L. Sonnenberg, D. Williams-Young, 
 F. Ding, F. Lipparini, F. Egidi, J. Goings, B. Peng, A. Petrone, 
 T. Henderson, D. Ranasinghe, V. G. Zakrzewski, J. Gao, N. Rega, 
 G. Zheng, W. Liang, M. Hada, M. Ehara, K. Toyota, R. Fukuda, 
 J. Hasegawa, M. Ishida, T. Nakajima, Y. Honda, O. Kitao, H. Nakai, 
 T. Vreven, K. Throssell, J. A. Montgomery, Jr., J. E. Peralta, 
 F. Ogliaro, M. J. Bearpark, J. J. Heyd, E. N. Brothers, K. N. Kudin, 
 V. N. Staroverov, T. A. Keith, R. Kobayashi, J. Normand, 
 K. Raghavachari, A. P. Rendell, J. C. Burant, S. S. Iyengar, 
 J. Tomasi, M. Cossi, J. M. Millam, M. Klene, C. Adamo, R. Cammi, 
 J. W. Ochterski, R. L. Martin, K. Morokuma, O. Farkas, 
 J. B. Foresman, and D. J. Fox, Gaussian, Inc., Wallingford CT, 2016.
 
 ******************************************
 Gaussian 16:  ES64L-G16RevA.03 25-Dec-2016
                21-Jul-2024 
 ******************************************
 %nprocshared=4
 Will use up to    4 processors via shared memory.
 %mem=8GB
 %Chk=YBRVSVVVWCFQMG-UHFFFAOYSA-N_conf_1_0.chk
 -------------------------------------------------------
 # opt=CalcFc B3LYP/6-31G** SCRF=(Solvent=water) scf=xqc
 -------------------------------------------------------
 1/10=4,18=20,19=15,26=3,38=1/1,3;
 2/9=110,12=2,17=6,18=5,40=1/2;
 3/5=1,6=6,7=101,11=2,25=1,30=1,70=2201,71=2,72=1,74=-5,140=1/1,2,3;
 4//1;
 5/5=2,8=3,13=1,38=5,53=1/2,8;
 8/6=4,10=90,11=11/1;
 11/6=1,8=1,9=11,15=111,16=1/1,2,10;
 10/6=1,13=1/2;
 6/7=2,8=2,9=2,10=2,28=1/1;
 7/10=1,18=20,25=1/1,2,3,16;
 1/10=4,18=20,19=15,26=3/3(2);
 2/9=110/2;
 99//99;
 2/9=110/2;
 3/5=1,6=6,7=101,11=2,25=1,30=1,70=2205,71=1,72=1,74=-5/1,2,3;
 4/5=5,16=3,69=1/1;
 5/5=2,8=3,13=1,38=5,53=1/2,8;
 7//1,2,3,16;
 1/18=20,19=15,26=3/3(-5);
 2/9=110/2;
 6/7=2,8=2,9=2,10=2,19=2,28=1/1;
 99/9=1/99;
 ----------------------------------
 YBRVSVVVWCFQMG-UHFFFAOYSA-N_conf_1
 ----------------------------------
 Symbolic Z-matrix:
 Charge =  0 Multiplicity = 1
 N                    -4.88714   0.73884  -0.6813 
 C                    -3.71116   0.2734   -0.08105 
 C                    -2.78767   1.17421   0.4518 
 C                    -1.55876   0.72943   0.94943 
 C                    -1.21     -0.62526   0.8784 
 C                     0.11452  -1.11373   1.42031 
 C                     1.3284   -0.52613   0.73629 
 C                     1.56045  -0.74616  -0.62738 
 C                     2.68797  -0.20495  -1.25306 
 C                     3.62921   0.52358  -0.52399 
 N                     4.69204   1.15859  -1.17746 
 C                     3.36964   0.79017   0.82148 
 C                     2.24317   0.25403   1.45405 
 C                    -2.11302  -1.51945   0.29049 
 C                    -3.34113  -1.0671   -0.20311 
 H                    -5.61774   0.03761  -0.74625 
 H                    -5.22393   1.61388  -0.29274 
 H                    -3.01502   2.23617   0.48494 
 H                    -0.86595   1.45324   1.37303 
 H                     0.13931  -0.89663   2.49631 
 H                     0.17984  -2.20699   1.34248 
 H                     0.85246  -1.32265  -1.21876 
 H                     2.82197  -0.35928  -2.3202 
 H                     5.47183   1.38146  -0.56757 
 H                     4.98719   0.68816  -2.02698 
 H                     4.04519   1.42037   1.3934 
 H                     2.08075   0.46494   2.50835 
 H                    -1.86384  -2.57376   0.19702 
 H                    -4.00856  -1.77598  -0.68543 
 

 GradGradGradGradGradGradGradGradGradGradGradGradGradGradGradGradGradGrad
 Berny optimization.
 Initialization pass.
                           ----------------------------
                           !    Initial Parameters    !
                           ! (Angstroms and Degrees)  !
 --------------------------                            --------------------------
 ! Name  Definition              Value          Derivative Info.                !
 --------------------------------------------------------------------------------
 ! R1    R(1,2)                  1.4            calculate D2E/DX2 analytically  !
 ! R2    R(1,16)                 1.0147         calculate D2E/DX2 analytically  !
 ! R3    R(1,17)                 1.0149         calculate D2E/DX2 analytically  !
 ! R4    R(2,3)                  1.3958         calculate D2E/DX2 analytically  !
 ! R5    R(2,15)                 1.396          calculate D2E/DX2 analytically  !
 ! R6    R(3,4)                  1.3985         calculate D2E/DX2 analytically  !
 ! R7    R(3,18)                 1.0865         calculate D2E/DX2 analytically  !
 ! R8    R(4,5)                  1.4007         calculate D2E/DX2 analytically  !
 ! R9    R(4,19)                 1.0878         calculate D2E/DX2 analytically  !
 ! R10   R(5,6)                  1.5122         calculate D2E/DX2 analytically  !
 ! R11   R(5,14)                 1.4002         calculate D2E/DX2 analytically  !
 ! R12   R(6,7)                  1.5122         calculate D2E/DX2 analytically  !
 ! R13   R(6,20)                 1.098          calculate D2E/DX2 analytically  !
 ! R14   R(6,21)                 1.098          calculate D2E/DX2 analytically  !
 ! R15   R(7,8)                  1.4007         calculate D2E/DX2 analytically  !
 ! R16   R(7,13)                 1.4002         calculate D2E/DX2 analytically  !
 ! R17   R(8,9)                  1.3985         calculate D2E/DX2 analytically  !
 ! R18   R(8,22)                 1.0878         calculate D2E/DX2 analytically  !
 ! R19   R(9,10)                 1.3958         calculate D2E/DX2 analytically  !
 ! R20   R(9,23)                 1.0865         calculate D2E/DX2 analytically  !
 ! R21   R(10,11)                1.4            calculate D2E/DX2 analytically  !
 ! R22   R(10,12)                1.396          calculate D2E/DX2 analytically  !
 ! R23   R(11,24)                1.0147         calculate D2E/DX2 analytically  !
 ! R24   R(11,25)                1.0149         calculate D2E/DX2 analytically  !
 ! R25   R(12,13)                1.3988         calculate D2E/DX2 analytically  !
 ! R26   R(12,26)                1.0866         calculate D2E/DX2 analytically  !
 ! R27   R(13,27)                1.0874         calculate D2E/DX2 analytically  !
 ! R28   R(14,15)                1.3988         calculate D2E/DX2 analytically  !
 ! R29   R(14,28)                1.0874         calculate D2E/DX2 analytically  !
 ! R30   R(15,29)                1.0866         calculate D2E/DX2 analytically  !
 ! A1    A(2,1,16)             113.7336         calculate D2E/DX2 analytically  !
 ! A2    A(2,1,17)             113.6555         calculate D2E/DX2 analytically  !
 ! A3    A(16,1,17)            112.4194         calculate D2E/DX2 analytically  !
 ! A4    A(1,2,3)              120.3238         calculate D2E/DX2 analytically  !
 ! A5    A(1,2,15)             120.2939         calculate D2E/DX2 analytically  !
 ! A6    A(3,2,15)             118.5372         calculate D2E/DX2 analytically  !
 ! A7    A(2,3,4)              120.7965         calculate D2E/DX2 analytically  !
 ! A8    A(2,3,18)             120.2643         calculate D2E/DX2 analytically  !
 ! A9    A(4,3,18)             118.9391         calculate D2E/DX2 analytically  !
 ! A10   A(3,4,5)              120.5554         calculate D2E/DX2 analytically  !
 ! A11   A(3,4,19)             119.1181         calculate D2E/DX2 analytically  !
 ! A12   A(5,4,19)             120.3123         calculate D2E/DX2 analytically  !
 ! A13   A(4,5,6)              120.8201         calculate D2E/DX2 analytically  !
 ! A14   A(4,5,14)             118.578          calculate D2E/DX2 analytically  !
 ! A15   A(6,5,14)             120.6016         calculate D2E/DX2 analytically  !
 ! A16   A(5,6,7)              114.5509         calculate D2E/DX2 analytically  !
 ! A17   A(5,6,20)             107.8845         calculate D2E/DX2 analytically  !
 ! A18   A(5,6,21)             110.3859         calculate D2E/DX2 analytically  !
 ! A19   A(7,6,20)             110.3859         calculate D2E/DX2 analytically  !
 ! A20   A(7,6,21)             107.8846         calculate D2E/DX2 analytically  !
 ! A21   A(20,6,21)            105.3673         calculate D2E/DX2 analytically  !
 ! A22   A(6,7,8)              120.8203         calculate D2E/DX2 analytically  !
 ! A23   A(6,7,13)             120.6015         calculate D2E/DX2 analytically  !
 ! A24   A(8,7,13)             118.5779         calculate D2E/DX2 analytically  !
 ! A25   A(7,8,9)              120.5554         calculate D2E/DX2 analytically  !
 ! A26   A(7,8,22)             120.3123         calculate D2E/DX2 analytically  !
 ! A27   A(9,8,22)             119.1181         calculate D2E/DX2 analytically  !
 ! A28   A(8,9,10)             120.7965         calculate D2E/DX2 analytically  !
 ! A29   A(8,9,23)             118.9392         calculate D2E/DX2 analytically  !
 ! A30   A(10,9,23)            120.2643         calculate D2E/DX2 analytically  !
 ! A31   A(9,10,11)            120.3237         calculate D2E/DX2 analytically  !
 ! A32   A(9,10,12)            118.5372         calculate D2E/DX2 analytically  !
 ! A33   A(11,10,12)           120.294          calculate D2E/DX2 analytically  !
 ! A34   A(10,11,24)           113.7336         calculate D2E/DX2 analytically  !
 ! A35   A(10,11,25)           113.6554         calculate D2E/DX2 analytically  !
 ! A36   A(24,11,25)           112.4195         calculate D2E/DX2 analytically  !
 ! A37   A(10,12,13)           120.8253         calculate D2E/DX2 analytically  !
 ! A38   A(10,12,26)           120.1636         calculate D2E/DX2 analytically  !
 ! A39   A(13,12,26)           119.0111         calculate D2E/DX2 analytically  !
 ! A40   A(7,13,12)            120.5223         calculate D2E/DX2 analytically  !
 ! A41   A(7,13,27)            120.4967         calculate D2E/DX2 analytically  !
 ! A42   A(12,13,27)           118.9746         calculate D2E/DX2 analytically  !
 ! A43   A(5,14,15)            120.5222         calculate D2E/DX2 analytically  !
 ! A44   A(5,14,28)            120.4967         calculate D2E/DX2 analytically  !
 ! A45   A(15,14,28)           118.9746         calculate D2E/DX2 analytically  !
 ! A46   A(2,15,14)            120.8253         calculate D2E/DX2 analytically  !
 ! A47   A(2,15,29)            120.1636         calculate D2E/DX2 analytically  !
 ! A48   A(14,15,29)           119.0111         calculate D2E/DX2 analytically  !
 ! D1    D(16,1,2,3)          -160.2208         calculate D2E/DX2 analytically  !
 ! D2    D(16,1,2,15)           30.4572         calculate D2E/DX2 analytically  !
 ! D3    D(17,1,2,3)           -29.8727         calculate D2E/DX2 analytically  !
 ! D4    D(17,1,2,15)          160.8054         calculate D2E/DX2 analytically  !
 ! D5    D(1,2,3,4)           -174.4474         calculate D2E/DX2 analytically  !
 ! D6    D(1,2,3,18)             5.5069         calculate D2E/DX2 analytically  !
 ! D7    D(15,2,3,4)            -4.9403         calculate D2E/DX2 analytically  !
 ! D8    D(15,2,3,18)          175.014          calculate D2E/DX2 analytically  !
 ! D9    D(1,2,15,14)          174.3529         calculate D2E/DX2 analytically  !
 ! D10   D(1,2,15,29)           -5.6801         calculate D2E/DX2 analytically  !
 ! D11   D(3,2,15,14)            4.8426         calculate D2E/DX2 analytically  !
 ! D12   D(3,2,15,29)         -175.1904         calculate D2E/DX2 analytically  !
 ! D13   D(2,3,4,5)              2.3322         calculate D2E/DX2 analytically  !
 ! D14   D(2,3,4,19)          -179.0357         calculate D2E/DX2 analytically  !
 ! D15   D(18,3,4,5)          -177.6227         calculate D2E/DX2 analytically  !
 ! D16   D(18,3,4,19)            1.0094         calculate D2E/DX2 analytically  !
 ! D17   D(3,4,5,6)           -179.7186         calculate D2E/DX2 analytically  !
 ! D18   D(3,4,5,14)             0.4694         calculate D2E/DX2 analytically  !
 ! D19   D(19,4,5,6)             1.6657         calculate D2E/DX2 analytically  !
 ! D20   D(19,4,5,14)         -178.1463         calculate D2E/DX2 analytically  !
 ! D21   D(4,5,6,7)            -62.0693         calculate D2E/DX2 analytically  !
 ! D22   D(4,5,6,20)            61.2851         calculate D2E/DX2 analytically  !
 ! D23   D(4,5,6,21)           175.9295         calculate D2E/DX2 analytically  !
 ! D24   D(14,5,6,7)           117.7389         calculate D2E/DX2 analytically  !
 ! D25   D(14,5,6,20)         -118.9068         calculate D2E/DX2 analytically  !
 ! D26   D(14,5,6,21)           -4.2623         calculate D2E/DX2 analytically  !
 ! D27   D(4,5,14,15)           -0.5678         calculate D2E/DX2 analytically  !
 ! D28   D(4,5,14,28)          178.4972         calculate D2E/DX2 analytically  !
 ! D29   D(6,5,14,15)          179.6198         calculate D2E/DX2 analytically  !
 ! D30   D(6,5,14,28)           -1.3152         calculate D2E/DX2 analytically  !
 ! D31   D(5,6,7,8)            -62.0661         calculate D2E/DX2 analytically  !
 ! D32   D(5,6,7,13)           117.7427         calculate D2E/DX2 analytically  !
 ! D33   D(20,6,7,8)           175.9327         calculate D2E/DX2 analytically  !
 ! D34   D(20,6,7,13)           -4.2584         calculate D2E/DX2 analytically  !
 ! D35   D(21,6,7,8)            61.2883         calculate D2E/DX2 analytically  !
 ! D36   D(21,6,7,13)         -118.9029         calculate D2E/DX2 analytically  !
 ! D37   D(6,7,8,9)           -179.7181         calculate D2E/DX2 analytically  !
 ! D38   D(6,7,8,22)             1.6662         calculate D2E/DX2 analytically  !
 ! D39   D(13,7,8,9)             0.4693         calculate D2E/DX2 analytically  !
 ! D40   D(13,7,8,22)         -178.1465         calculate D2E/DX2 analytically  !
 ! D41   D(6,7,13,12)          179.6193         calculate D2E/DX2 analytically  !
 ! D42   D(6,7,13,27)           -1.3155         calculate D2E/DX2 analytically  !
 ! D43   D(8,7,13,12)           -0.5677         calculate D2E/DX2 analytically  !
 ! D44   D(8,7,13,27)          178.4976         calculate D2E/DX2 analytically  !
 ! D45   D(7,8,9,10)             2.3324         calculate D2E/DX2 analytically  !
 ! D46   D(7,8,9,23)          -177.6228         calculate D2E/DX2 analytically  !
 ! D47   D(22,8,9,10)         -179.0355         calculate D2E/DX2 analytically  !
 ! D48   D(22,8,9,23)            1.0093         calculate D2E/DX2 analytically  !
 ! D49   D(8,9,10,11)         -174.4477         calculate D2E/DX2 analytically  !
 ! D50   D(8,9,10,12)           -4.9404         calculate D2E/DX2 analytically  !
 ! D51   D(23,9,10,11)           5.5069         calculate D2E/DX2 analytically  !
 ! D52   D(23,9,10,12)         175.0141         calculate D2E/DX2 analytically  !
 ! D53   D(9,10,11,24)        -160.2215         calculate D2E/DX2 analytically  !
 ! D54   D(9,10,11,25)         -29.8733         calculate D2E/DX2 analytically  !
 ! D55   D(12,10,11,24)         30.4564         calculate D2E/DX2 analytically  !
 ! D56   D(12,10,11,25)        160.8046         calculate D2E/DX2 analytically  !
 ! D57   D(9,10,12,13)           4.8426         calculate D2E/DX2 analytically  !
 ! D58   D(9,10,12,26)        -175.1906         calculate D2E/DX2 analytically  !
 ! D59   D(11,10,12,13)        174.3531         calculate D2E/DX2 analytically  !
 ! D60   D(11,10,12,26)         -5.6802         calculate D2E/DX2 analytically  !
 ! D61   D(10,12,13,7)          -2.1329         calculate D2E/DX2 analytically  !
 ! D62   D(10,12,13,27)        178.7878         calculate D2E/DX2 analytically  !
 ! D63   D(26,12,13,7)         177.8999         calculate D2E/DX2 analytically  !
 ! D64   D(26,12,13,27)         -1.1794         calculate D2E/DX2 analytically  !
 ! D65   D(5,14,15,2)           -2.1329         calculate D2E/DX2 analytically  !
 ! D66   D(5,14,15,29)         177.8998         calculate D2E/DX2 analytically  !
 ! D67   D(28,14,15,2)         178.7881         calculate D2E/DX2 analytically  !
 ! D68   D(28,14,15,29)         -1.1793         calculate D2E/DX2 analytically  !
 --------------------------------------------------------------------------------
 Trust Radius=3.00D-01 FncErr=1.00D-07 GrdErr=1.00D-06 EigMax=2.50D+02 EigMin=1.00D-04
 Number of steps in this run=    156 maximum allowed number of steps=    174.
 GradGradGradGradGradGradGradGradGradGradGradGradGradGradGradGradGradGrad

                          Input orientation:                          
 ---------------------------------------------------------------------
 Center     Atomic      Atomic             Coordinates (Angstroms)
 Number     Number       Type             X           Y           Z
 ---------------------------------------------------------------------
      1          7           0       -4.887141    0.738841   -0.681299
      2          6           0       -3.711164    0.273395   -0.081052
      3          6           0       -2.787673    1.174210    0.451798
      4          6           0       -1.558761    0.729426    0.949434
      5          6           0       -1.210003   -0.625262    0.878396
      6          6           0        0.114524   -1.113728    1.420309
      7          6           0        1.328395   -0.526127    0.736290
      8          6           0        1.560446   -0.746157   -0.627380
      9          6           0        2.687971   -0.204945   -1.253063
     10          6           0        3.629211    0.523577   -0.523988
     11          7           0        4.692035    1.158589   -1.177460
     12          6           0        3.369638    0.790170    0.821483
     13          6           0        2.243172    0.254025    1.454050
     14          6           0       -2.113019   -1.519448    0.290493
     15          6           0       -3.341129   -1.067098   -0.203108
     16          1           0       -5.617736    0.037610   -0.746254
     17          1           0       -5.223927    1.613881   -0.292738
     18          1           0       -3.015025    2.236174    0.484943
     19          1           0       -0.865947    1.453239    1.373029
     20          1           0        0.139307   -0.896626    2.496314
     21          1           0        0.179837   -2.206986    1.342481
     22          1           0        0.852459   -1.322654   -1.218762
     23          1           0        2.821968   -0.359282   -2.320200
     24          1           0        5.471833    1.381456   -0.567575
     25          1           0        4.987189    0.688156   -2.026976
     26          1           0        4.045186    1.420371    1.393400
     27          1           0        2.080747    0.464939    2.508348
     28          1           0       -1.863839   -2.573765    0.197017
     29          1           0       -4.008557   -1.775982   -0.685428
 ---------------------------------------------------------------------
                    Distance matrix (angstroms):
                    1          2          3          4          5
     1  N    0.000000
     2  C    1.399950   0.000000
     3  C    2.425123   1.395790   0.000000
     4  C    3.706413   2.429548   1.398463   0.000000
     5  C    4.220755   2.825585   2.430870   1.400663   0.000000
     6  C    5.732837   4.337520   3.820395   2.533539   1.512164
     7  C    6.499430   5.167633   4.462521   3.155553   2.544304
     8  C    6.616608   5.397021   4.874277   3.793829   3.155529
     9  C    7.655061   6.523139   5.898414   4.874297   4.462508
    10  C    8.520524   7.357981   6.523180   5.397073   5.167640
    11  N    9.601197   8.520530   7.655113   6.616669   6.499440
    12  C    8.392580   7.156772   6.180343   4.930434   4.793725
    13  C    7.458963   6.149067   5.211588   3.864626   3.609562
    14  C    3.706751   2.430308   2.781541   2.408079   1.400228
    15  C    2.424920   1.395975   2.399724   2.780772   2.430344
    16  H    1.014748   2.033005   3.276652   4.453005   4.744155
    17  H    1.014938   2.032281   2.585145   3.969722   4.743090
    18  H    2.665885   2.158115   1.086533   2.146333   3.405983
    19  H    4.571721   3.406118   2.149315   1.087809   2.164070
    20  H    6.167427   4.778900   4.127423   2.814306   2.124131
    21  H    6.200633   4.828935   4.586057   3.435073   2.156126
    22  H    6.122225   4.966731   4.719710   3.837459   3.022942
    23  H    7.957527   6.935119   6.442332   5.573740   5.153499
    24  H   10.379510   9.262394   8.324753   7.221891   7.124934
    25  H    9.965731   8.923003   8.174903   7.190979   6.969321
    26  H    9.195397   7.978128   6.901824   5.663809   5.662760
    27  H    7.668138   6.347276   5.332352   3.968146   3.830707
    28  H    4.570027   3.405326   3.868552   3.401511   2.165282
    29  H    2.663881   2.157234   3.389317   3.866697   3.406114
                    6          7          8          9         10
     6  C    0.000000
     7  C    1.512164   0.000000
     8  C    2.533541   1.400663   0.000000
     9  C    3.820397   2.430870   1.398463   0.000000
    10  C    4.337521   2.825586   2.429548   1.395790   0.000000
    11  N    5.732839   4.220757   3.706413   2.425122   1.399950
    12  C    3.818271   2.430344   2.780770   2.399723   1.395974
    13  C    2.530422   1.400227   2.408077   2.781540   2.430309
    14  C    2.530423   3.609536   3.864560   5.211524   6.149028
    15  C    3.818271   4.793702   4.930360   6.180272   7.156735
    16  H    6.235253   7.124920   7.221823   8.324690   9.262376
    17  H    6.234856   6.969322   7.190930   8.174868   8.923020
    18  H    4.678763   5.153521   5.573733   6.442351   6.935186
    19  H    2.748250   3.022989   3.837494   4.719774   4.966829
    20  H    1.097969   2.156127   3.435076   4.586059   4.828937
    21  H    1.097969   2.124133   2.814331   4.127439   4.778898
    22  H    2.748253   2.164070   1.087809   2.149314   3.406117
    23  H    4.678766   3.405984   2.146333   1.086534   2.158114
    24  H    6.235254   4.744156   4.453006   3.276653   2.033006
    25  H    6.234856   4.743090   3.969721   2.585145   2.032280
    26  H    4.676804   3.406113   3.866695   3.389315   2.157233
    27  H    2.746281   2.165280   3.401509   3.868550   3.405326
    28  H    2.746283   3.830665   3.968062   5.332261   6.347203
    29  H    4.676805   5.662727   5.663719   6.901728   7.978066
                   11         12         13         14         15
    11  N    0.000000
    12  C    2.424921   0.000000
    13  C    3.706753   1.398756   0.000000
    14  C    7.458923   5.972924   4.845150   0.000000
    15  C    8.392543   7.038013   5.972936   1.398755   0.000000
    16  H   10.379496   9.154073   8.165908   3.972697   2.588113
    17  H    9.965758   8.704559   7.788327   4.453724   3.277287
    18  H    7.957610   6.555006   5.702343   3.867315   3.389891
    19  H    6.122334   4.322504   3.333361   3.400580   3.868182
    20  H    6.200634   4.010658   2.614681   3.213492   4.407877
    21  H    6.167425   4.407859   3.213468   2.614684   4.010660
    22  H    4.571719   3.868180   3.400578   3.333263   4.322389
    23  H    2.665884   3.389890   3.867314   5.702263   6.554910
    24  H    1.014749   2.588112   3.972697   8.165875   9.154046
    25  H    1.014938   3.277285   4.453723   7.788269   8.704499
    26  H    2.663882   1.086557   2.147393   6.912484   7.955752
    27  H    4.570028   2.147680   1.087387   5.142407   6.252670
    28  H    7.668060   6.252624   5.142380   1.087388   2.147680
    29  H    9.195331   7.955733   6.912483   2.147393   1.086558
                   16         17         18         19         20
    16  H    0.000000
    17  H    1.686830   0.000000
    18  H    3.622656   2.423073   0.000000
    19  H    5.392112   4.668251   2.453614   0.000000
    20  H    6.673125   6.545665   4.879535   2.791804   0.000000
    21  H    6.558421   6.817156   5.539330   3.806815   1.746430
    22  H    6.628500   6.811991   5.524971   4.168439   3.806820
    23  H    8.594384   8.528798   6.976797   5.525023   5.539333
    24  H   11.172126  10.701815   8.594481   6.628616   6.558422
    25  H   10.701771  10.398626   8.528864   6.812091   6.817158
    26  H    9.993109   9.423214   7.165013   4.911285   4.673412
    27  H    8.369092   7.907238   5.761800   3.308881   2.371327
    28  H    4.669131   5.391328   4.954154   4.312256   3.480253
    29  H    2.425340   3.622499   4.295843   4.953899   5.301088
                   21         22         23         24         25
    21  H    0.000000
    22  H    2.791851   0.000000
    23  H    4.879559   2.453613   0.000000
    24  H    6.673115   5.392112   3.622657   0.000000
    25  H    6.545665   4.668250   2.423074   1.686831   0.000000
    26  H    5.301060   4.953896   4.295841   2.425337   3.622497
    27  H    3.480215   4.312254   4.954152   4.669130   5.391326
    28  H    2.371334   3.308774   5.761693   8.369018   7.907140
    29  H    4.673417   4.911154   7.164886   9.993053   9.423119
                   26         27         28         29
    26  H    0.000000
    27  H    2.452545   0.000000
    28  H    7.231946   5.489603   0.000000
    29  H    8.910723   7.231982   2.452546   0.000000
 Stoichiometry    C13H14N2
 Framework group  C1[X(C13H14N2)]
 Deg. of freedom    81
 Full point group                 C1      NOp   1
 Largest Abelian subgroup         C1      NOp   1
 Largest concise Abelian subgroup C1      NOp   1
                         Standard orientation:                         
 ---------------------------------------------------------------------
 Center     Atomic      Atomic             Coordinates (Angstroms)
 Number     Number       Type             X           Y           Z
 ---------------------------------------------------------------------
      1          7           0       -4.799745   -1.425757   -0.090599
      2          6           0       -3.677134   -0.589746   -0.116921
      3          6           0       -2.724675   -0.720499   -1.128828
      4          6           0       -1.544038    0.028550   -1.101966
      5          6           0       -1.271750    0.890401   -0.031952
      6          6           0        0.000002    1.707870    0.000144
      7          6           0        1.271748    0.890386    0.032099
      8          6           0        1.544001    0.028297    1.101931
      9          6           0        2.724638   -0.720757    1.128667
     10          6           0        3.677133   -0.589777    0.116824
     11          7           0        4.799747   -1.425779    0.090359
     12          6           0        3.380835    0.226158   -0.976428
     13          6           0        2.201277    0.977112   -1.011496
     14          6           0       -2.201242    0.976894    1.011697
     15          6           0       -3.380799    0.225946    0.976503
     16          1           0       -5.566588   -1.062429    0.465871
     17          1           0       -5.100308   -1.733036   -1.010023
     18          1           0       -2.891309   -1.409908   -1.951934
     19          1           0       -0.827648   -0.083258   -1.912899
     20          1           0       -0.004927    2.373551   -0.873000
     21          1           0        0.004936    2.373401    0.873403
     22          1           0        0.827585   -0.083691    1.912815
     23          1           0        2.891244   -1.410349    1.951626
     24          1           0        5.566606   -1.062331   -0.466011
     25          1           0        5.100282   -1.733251    1.009728
     26          1           0        4.068763    0.286012   -1.815343
     27          1           0        2.010091    1.617918   -1.868949
     28          1           0       -2.010024    1.617506    1.869289
     29          1           0       -4.068697    0.285610    1.815458
 ---------------------------------------------------------------------
 Rotational constants (GHZ):           1.5522309           0.2592129           0.2534207
 Standard basis: 6-31G(d,p) (6D, 7F)
 There are   295 symmetry adapted cartesian basis functions of A   symmetry.
 There are   295 symmetry adapted basis functions of A   symmetry.
   295 basis functions,   518 primitive gaussians,   295 cartesian basis functions
    53 alpha electrons       53 beta electrons
       nuclear repulsion energy       884.4316039724 Hartrees.
 NAtoms=   29 NActive=   29 NUniq=   29 SFac= 1.00D+00 NAtFMM=   60 NAOKFM=F Big=F
 Integral buffers will be    131072 words long.
 Raffenetti 2 integral format.
 Two-electron integral symmetry is turned on.
 Force inversion solution in PCM.
 ------------------------------------------------------------------------------
 Polarizable Continuum Model (PCM)
 =================================
 Model                : PCM.
 Atomic radii         : UFF (Universal Force Field).
 Polarization charges : Total charges.
 Charge compensation  : None.
 Solution method      : Matrix inversion.
 Cavity type          : Scaled VdW (van der Waals Surface) (Alpha=1.100).
 Cavity algorithm     : GePol (No added spheres)
                        Default sphere list used, NSphG=   29.
                        Lebedev-Laikov grids with approx.  5.0 points / Ang**2.
                        Smoothing algorithm: York/Karplus (Gamma=1.0000).
                        Polarization charges: spherical gaussians, with
                                              point-specific exponents (IZeta= 3).
                        Self-potential: point-specific (ISelfS= 7).
                        Self-field    : sphere-specific E.n sum rule (ISelfD= 2).
 1st derivatives      : Analytical E(r).r(x)/FMM algorithm (CHGder, D1EAlg=3).
                        Cavity 1st derivative terms included.
 2nd derivatives      : Analytical E(r).r(xy)/FMM algorithm (CHGder, D2EAlg=3).
                        Cavity 2nd derivative terms included.
 Solvent              : Water, Eps=  78.355300 Eps(inf)=   1.777849
 ------------------------------------------------------------------------------
 One-electron integrals computed using PRISM.
 NBasis=   295 RedAO= T EigKep=  4.41D-04  NBF=   295
 NBsUse=   295 1.00D-06 EigRej= -1.00D+00 NBFU=   295
 ExpMin= 1.61D-01 ExpMax= 4.17D+03 ExpMxC= 6.27D+02 IAcc=3 IRadAn=         5 AccDes= 0.00D+00
 Harris functional with IExCor=  402 and IRadAn=       5 diagonalized for initial guess.
 HarFok:  IExCor=  402 AccDes= 0.00D+00 IRadAn=         5 IDoV= 1 UseB2=F ITyADJ=14
 ICtDFT=  3500011 ScaDFX=  1.000000  1.000000  1.000000  1.000000
 FoFCou: FMM=F IPFlag=           0 FMFlag=      100000 FMFlg1=           0
         NFxFlg=           0 DoJE=T BraDBF=F KetDBF=T FulRan=T
         wScrn=  0.000000 ICntrl=       500 IOpCl=  0 I1Cent=   200000004 NGrid=           0
         NMat0=    1 NMatS0=      1 NMatT0=    0 NMatD0=    1 NMtDS0=    0 NMtDT0=    0
 Petite list used in FoFCou.
 Keep R1 ints in memory in canonical form, NReq=966088577.
 Requested convergence on RMS density matrix=1.00D-08 within  32 cycles.
 Requested convergence on MAX density matrix=1.00D-06.
 Requested convergence on             energy=1.00D-06.
 No special actions if energy rises.
 Inv3:  Mode=1 IEnd=    14401443.
 Iteration    1 A*A^-1 deviation from unit magnitude is 3.77D-15 for   1809.
 Iteration    1 A*A^-1 deviation from orthogonality  is 1.99D-15 for   1353    547.
 Iteration    1 A^-1*A deviation from unit magnitude is 3.55D-15 for   1809.
 Iteration    1 A^-1*A deviation from orthogonality  is 3.44D-14 for   1919   1888.
 Error on total polarization charges =  0.00983
 SCF Done:  E(RB3LYP) =  -613.358741676     A.U. after   11 cycles
            NFock= 11  Conv=0.60D-08     -V/T= 2.0097
 QCSCF skips out because SCF is already converged.
 DoSCS=F DFT=T ScalE2(SS,OS)=  1.000000  1.000000
 Range of M.O.s used for correlation:     1   295
 NBasis=   295 NAE=    53 NBE=    53 NFC=     0 NFV=     0
 NROrb=    295 NOA=    53 NOB=    53 NVA=   242 NVB=   242
 Symmetrizing basis deriv contribution to polar:
 IMax=3 JMax=2 DiffMx= 0.00D+00
 G2DrvN: will do    30 centers at a time, making    1 passes.
 Calling FoFCou, ICntrl=  3107 FMM=F I1Cent=   0 AccDes= 0.00D+00.
 NEqPCM:  Using equilibrium solvation (IEInf=0, Eps=  78.3553, EpsInf=   1.7778)
 G2PCM: DoFxE=T DoFxN=T DoGrad=T DoDP/DQ/DG/TGxP=FFFF NFrqRd=   0 IEInf=0 SqF1=F DoCFld=F IF1Alg=4.
 End of G2Drv F.D. properties file   721 does not exist.
 End of G2Drv F.D. properties file   722 does not exist.
 End of G2Drv F.D. properties file   788 does not exist.
          IDoAtm=11111111111111111111111111111
 NEqPCM:  Using equilibrium solvation (IEInf=0, Eps=  78.3553, EpsInf=   1.7778)
          Differentiating once with respect to nuclear coordinates.
 Keep R1 ints in memory in canonical form, NReq=966100590.
          There are    90 degrees of freedom in the 1st order CPHF.  IDoFFX=6 NUNeed=     0.
     84 vectors produced by pass  0 Test12= 1.43D-14 1.11D-09 XBig12= 1.22D-01 8.84D-02.
 AX will form    84 AO Fock derivatives at one time.
     84 vectors produced by pass  1 Test12= 1.43D-14 1.11D-09 XBig12= 1.22D-02 2.34D-02.
     84 vectors produced by pass  2 Test12= 1.43D-14 1.11D-09 XBig12= 1.33D-04 1.20D-03.
     84 vectors produced by pass  3 Test12= 1.43D-14 1.11D-09 XBig12= 3.51D-07 5.13D-05.
     84 vectors produced by pass  4 Test12= 1.43D-14 1.11D-09 XBig12= 3.48D-10 1.69D-06.
     57 vectors produced by pass  5 Test12= 1.43D-14 1.11D-09 XBig12= 4.16D-13 5.36D-08.
      7 vectors produced by pass  6 Test12= 1.43D-14 1.11D-09 XBig12= 4.29D-16 1.55D-09.
 InvSVY:  IOpt=1 It=  1 EMax= 3.89D-16
 Solved reduced A of dimension   484 with    90 vectors.
 End of Minotr F.D. properties file   721 does not exist.
 End of Minotr F.D. properties file   722 does not exist.
 End of Minotr F.D. properties file   788 does not exist.

 **********************************************************************

            Population analysis using the SCF density.

 **********************************************************************

 Orbital symmetries:
       Occupied  (A) (A) (A) (A) (A) (A) (A) (A) (A) (A) (A) (A)
                 (A) (A) (A) (A) (A) (A) (A) (A) (A) (A) (A) (A)
                 (A) (A) (A) (A) (A) (A) (A) (A) (A) (A) (A) (A)
                 (A) (A) (A) (A) (A) (A) (A) (A) (A) (A) (A) (A)
                 (A) (A) (A) (A) (A)
       Virtual   (A) (A) (A) (A) (A) (A) (A) (A) (A) (A) (A) (A)
                 (A) (A) (A) (A) (A) (A) (A) (A) (A) (A) (A) (A)
                 (A) (A) (A) (A) (A) (A) (A) (A) (A) (A) (A) (A)
                 (A) (A) (A) (A) (A) (A) (A) (A) (A) (A) (A) (A)
                 (A) (A) (A) (A) (A) (A) (A) (A) (A) (A) (A) (A)
                 (A) (A) (A) (A) (A) (A) (A) (A) (A) (A) (A) (A)
                 (A) (A) (A) (A) (A) (A) (A) (A) (A) (A) (A) (A)
                 (A) (A) (A) (A) (A) (A) (A) (A) (A) (A) (A) (A)
                 (A) (A) (A) (A) (A) (A) (A) (A) (A) (A) (A) (A)
                 (A) (A) (A) (A) (A) (A) (A) (A) (A) (A) (A) (A)
                 (A) (A) (A) (A) (A) (A) (A) (A) (A) (A) (A) (A)
                 (A) (A) (A) (A) (A) (A) (A) (A) (A) (A) (A) (A)
                 (A) (A) (A) (A) (A) (A) (A) (A) (A) (A) (A) (A)
                 (A) (A) (A) (A) (A) (A) (A) (A) (A) (A) (A) (A)
                 (A) (A) (A) (A) (A) (A) (A) (A) (A) (A) (A) (A)
                 (A) (A) (A) (A) (A) (A) (A) (A) (A) (A) (A) (A)
                 (A) (A) (A) (A) (A) (A) (A) (A) (A) (A) (A) (A)
                 (A) (A) (A) (A) (A) (A) (A) (A) (A) (A) (A) (A)
                 (A) (A) (A) (A) (A) (A) (A) (A) (A) (A) (A) (A)
                 (A) (A) (A) (A) (A) (A) (A) (A) (A) (A) (A) (A)
                 (A) (A)
 The electronic state is 1-A.
 Alpha  occ. eigenvalues --  -14.33352 -14.33352 -10.22170 -10.22170 -10.18381
 Alpha  occ. eigenvalues --  -10.18380 -10.18358 -10.18357 -10.18324 -10.18277
 Alpha  occ. eigenvalues --  -10.18271 -10.17990 -10.17990 -10.17868 -10.17868
 Alpha  occ. eigenvalues --   -0.91136  -0.91114  -0.84478  -0.82862  -0.76608
 Alpha  occ. eigenvalues --   -0.73888  -0.73789  -0.71675  -0.66029  -0.61176
 Alpha  occ. eigenvalues --   -0.60724  -0.58654  -0.56606  -0.51259  -0.50787
 Alpha  occ. eigenvalues --   -0.50467  -0.49901  -0.46127  -0.45282  -0.43853
 Alpha  occ. eigenvalues --   -0.42631  -0.42381  -0.41638  -0.41309  -0.40666
 Alpha  occ. eigenvalues --   -0.38494  -0.37908  -0.36960  -0.35319  -0.34396
 Alpha  occ. eigenvalues --   -0.33628  -0.32508  -0.30267  -0.29411  -0.24644
 Alpha  occ. eigenvalues --   -0.24582  -0.20338  -0.19379
 Alpha virt. eigenvalues --   -0.00167  -0.00055   0.01354   0.02650   0.09501
 Alpha virt. eigenvalues --    0.09540   0.10360   0.11768   0.12493   0.13241
 Alpha virt. eigenvalues --    0.14269   0.15367   0.16452   0.17140   0.18043
 Alpha virt. eigenvalues --    0.18179   0.19110   0.19139   0.20055   0.21148
 Alpha virt. eigenvalues --    0.24836   0.25277   0.28734   0.29602   0.32595
 Alpha virt. eigenvalues --    0.33345   0.33724   0.33738   0.34612   0.35777
 Alpha virt. eigenvalues --    0.36595   0.37304   0.47402   0.49047   0.51298
 Alpha virt. eigenvalues --    0.52082   0.52365   0.53150   0.54133   0.54219
 Alpha virt. eigenvalues --    0.54376   0.55143   0.58131   0.58754   0.59321
 Alpha virt. eigenvalues --    0.59775   0.59965   0.60306   0.60418   0.60857
 Alpha virt. eigenvalues --    0.62644   0.62902   0.63262   0.63981   0.65261
 Alpha virt. eigenvalues --    0.66036   0.66336   0.67428   0.69985   0.70464
 Alpha virt. eigenvalues --    0.71500   0.73095   0.74475   0.76239   0.77120
 Alpha virt. eigenvalues --    0.80388   0.81206   0.81538   0.82292   0.82764
 Alpha virt. eigenvalues --    0.83351   0.83675   0.85133   0.86013   0.86522
 Alpha virt. eigenvalues --    0.86782   0.88879   0.88892   0.88982   0.89868
 Alpha virt. eigenvalues --    0.92187   0.92823   0.93029   0.93282   0.98182
 Alpha virt. eigenvalues --    0.99567   0.99802   1.00531   1.00989   1.03564
 Alpha virt. eigenvalues --    1.06625   1.06957   1.11412   1.12746   1.15867
 Alpha virt. eigenvalues --    1.16252   1.16436   1.17343   1.19825   1.20499
 Alpha virt. eigenvalues --    1.27330   1.27528   1.28726   1.29890   1.30345
 Alpha virt. eigenvalues --    1.34257   1.36907   1.39199   1.40551   1.40600
 Alpha virt. eigenvalues --    1.40938   1.41548   1.42137   1.44360   1.48130
 Alpha virt. eigenvalues --    1.49603   1.50886   1.53241   1.59097   1.60655
 Alpha virt. eigenvalues --    1.75479   1.76152   1.76607   1.76804   1.78432
 Alpha virt. eigenvalues --    1.79420   1.81134   1.81913   1.82608   1.85033
 Alpha virt. eigenvalues --    1.86612   1.86615   1.87235   1.88206   1.89952
 Alpha virt. eigenvalues --    1.92800   1.93061   1.93523   1.96832   1.97039
 Alpha virt. eigenvalues --    1.97453   1.97859   1.98856   2.00759   2.01374
 Alpha virt. eigenvalues --    2.02423   2.07473   2.08202   2.09651   2.12117
 Alpha virt. eigenvalues --    2.12831   2.15692   2.16868   2.16959   2.21648
 Alpha virt. eigenvalues --    2.25051   2.25281   2.26280   2.27320   2.27904
 Alpha virt. eigenvalues --    2.29540   2.31212   2.33393   2.33415   2.34504
 Alpha virt. eigenvalues --    2.35179   2.36081   2.36422   2.41027   2.41937
 Alpha virt. eigenvalues --    2.42265   2.43892   2.44236   2.46558   2.46724
 Alpha virt. eigenvalues --    2.47565   2.48035   2.48407   2.48682   2.50502
 Alpha virt. eigenvalues --    2.54744   2.54792   2.56735   2.58479   2.59476
 Alpha virt. eigenvalues --    2.60115   2.60760   2.64008   2.64022   2.66277
 Alpha virt. eigenvalues --    2.66711   2.70637   2.71996   2.73709   2.77571
 Alpha virt. eigenvalues --    2.78408   2.80594   2.82075   2.84676   2.85398
 Alpha virt. eigenvalues --    2.88106   2.88510   2.89147   2.98586   2.98848
 Alpha virt. eigenvalues --    3.02921   3.06454   3.06932   3.09321   3.19443
 Alpha virt. eigenvalues --    3.19686   3.25546   3.25704   3.27385   3.28760
 Alpha virt. eigenvalues --    3.29324   3.29595   3.34392   3.38182   3.39661
 Alpha virt. eigenvalues --    3.47952   3.48993   3.50504   3.54121   3.54194
 Alpha virt. eigenvalues --    3.83551   3.84066   4.04262   4.04330   4.13717
 Alpha virt. eigenvalues --    4.14441   4.16118   4.16892   4.19138   4.22843
 Alpha virt. eigenvalues --    4.41761   4.43888   4.44401   4.47946   4.59453
 Alpha virt. eigenvalues --    4.82416   4.86337
          Condensed to atoms (all electrons):
               1          2          3          4          5          6
     1  N    6.836712   0.295670  -0.070462   0.004462   0.000611   0.000002
     2  C    0.295670   4.580590   0.538003  -0.024971  -0.030183   0.000528
     3  C   -0.070462   0.538003   4.948685   0.513832  -0.032206   0.005936
     4  C    0.004462  -0.024971   0.513832   4.929810   0.532681  -0.065836
     5  C    0.000611  -0.030183  -0.032206   0.532681   4.748911   0.350022
     6  C    0.000002   0.000528   0.005936  -0.065836   0.350022   5.130894
     7  C    0.000000   0.000046   0.000156  -0.000551  -0.055687   0.350022
     8  C    0.000000  -0.000000  -0.000074  -0.000717  -0.000552  -0.065837
     9  C    0.000000   0.000000  -0.000004  -0.000074   0.000156   0.005937
    10  C   -0.000000  -0.000000   0.000000  -0.000000   0.000046   0.000528
    11  N    0.000000  -0.000000   0.000000   0.000000   0.000000   0.000002
    12  C    0.000000   0.000000   0.000000  -0.000097  -0.000095   0.006533
    13  C   -0.000000   0.000000   0.000027   0.001512  -0.002604  -0.045385
    14  C    0.004431  -0.024434  -0.046076  -0.042188   0.545380  -0.045385
    15  C   -0.071085   0.542748  -0.048461  -0.046177  -0.035861   0.006533
    16  H    0.343461  -0.025120   0.005498  -0.000182   0.000003  -0.000000
    17  H    0.343283  -0.025312  -0.009292  -0.000061   0.000006  -0.000000
    18  H   -0.007448  -0.043455   0.363033  -0.034033   0.003719  -0.000181
    19  H   -0.000115   0.003949  -0.038615   0.364870  -0.044494  -0.008663
    20  H   -0.000000   0.000002   0.000058  -0.007261  -0.029683   0.358680
    21  H   -0.000000  -0.000000  -0.000188   0.005963  -0.032588   0.358680
    22  H    0.000000  -0.000018  -0.000035   0.000376   0.003600  -0.008663
    23  H    0.000000  -0.000000   0.000000   0.000001  -0.000001  -0.000181
    24  H    0.000000  -0.000000  -0.000000   0.000000   0.000000  -0.000000
    25  H    0.000000  -0.000000   0.000000   0.000000   0.000000  -0.000000
    26  H    0.000000  -0.000000   0.000000   0.000001   0.000000  -0.000176
    27  H   -0.000000  -0.000000   0.000001  -0.000020   0.000191  -0.010136
    28  H   -0.000115   0.003968   0.000541   0.005912  -0.041402  -0.010136
    29  H   -0.007512  -0.044040   0.005296   0.000681   0.003986  -0.000176
               7          8          9         10         11         12
     1  N    0.000000   0.000000   0.000000  -0.000000   0.000000   0.000000
     2  C    0.000046  -0.000000   0.000000  -0.000000  -0.000000   0.000000
     3  C    0.000156  -0.000074  -0.000004   0.000000   0.000000   0.000000
     4  C   -0.000551  -0.000717  -0.000074  -0.000000   0.000000  -0.000097
     5  C   -0.055687  -0.000552   0.000156   0.000046   0.000000  -0.000095
     6  C    0.350022  -0.065837   0.005937   0.000528   0.000002   0.006533
     7  C    4.748911   0.532680  -0.032206  -0.030183   0.000611  -0.035861
     8  C    0.532680   4.929813   0.513832  -0.024970   0.004462  -0.046177
     9  C   -0.032206   0.513832   4.948685   0.538003  -0.070462  -0.048461
    10  C   -0.030183  -0.024970   0.538003   4.580589   0.295669   0.542749
    11  N    0.000611   0.004462  -0.070462   0.295669   6.836713  -0.071085
    12  C   -0.035861  -0.046177  -0.048461   0.542749  -0.071085   4.961737
    13  C    0.545380  -0.042188  -0.046076  -0.024433   0.004431   0.502473
    14  C   -0.002605   0.001512   0.000027   0.000000  -0.000000   0.000004
    15  C   -0.000095  -0.000097   0.000000   0.000000   0.000000  -0.000000
    16  H    0.000000   0.000000  -0.000000  -0.000000   0.000000  -0.000000
    17  H    0.000000   0.000000   0.000000  -0.000000   0.000000  -0.000000
    18  H   -0.000001   0.000001   0.000000  -0.000000   0.000000  -0.000000
    19  H    0.003600   0.000376  -0.000035  -0.000018   0.000000   0.000079
    20  H   -0.032588   0.005964  -0.000188  -0.000000  -0.000000   0.000284
    21  H   -0.029683  -0.007261   0.000058   0.000002  -0.000000  -0.000259
    22  H   -0.044493   0.364870  -0.038615   0.003949  -0.000115   0.000545
    23  H    0.003719  -0.034033   0.363033  -0.043455  -0.007448   0.005260
    24  H    0.000003  -0.000182   0.005498  -0.025120   0.343461  -0.009288
    25  H    0.000006  -0.000061  -0.009292  -0.025312   0.343282   0.005546
    26  H    0.003986   0.000681   0.005296  -0.044040  -0.007512   0.362364
    27  H   -0.041402   0.005912   0.000541   0.003968  -0.000115  -0.040692
    28  H    0.000191  -0.000020   0.000001  -0.000000  -0.000000   0.000000
    29  H    0.000000   0.000001   0.000000  -0.000000   0.000000   0.000000
              13         14         15         16         17         18
     1  N   -0.000000   0.004431  -0.071085   0.343461   0.343283  -0.007448
     2  C    0.000000  -0.024434   0.542748  -0.025120  -0.025312  -0.043455
     3  C    0.000027  -0.046076  -0.048461   0.005498  -0.009292   0.363033
     4  C    0.001512  -0.042188  -0.046177  -0.000182  -0.000061  -0.034033
     5  C   -0.002604   0.545380  -0.035861   0.000003   0.000006   0.003719
     6  C   -0.045385  -0.045385   0.006533  -0.000000  -0.000000  -0.000181
     7  C    0.545380  -0.002605  -0.000095   0.000000   0.000000  -0.000001
     8  C   -0.042188   0.001512  -0.000097   0.000000   0.000000   0.000001
     9  C   -0.046076   0.000027   0.000000  -0.000000   0.000000   0.000000
    10  C   -0.024433   0.000000   0.000000  -0.000000  -0.000000  -0.000000
    11  N    0.004431  -0.000000   0.000000   0.000000   0.000000   0.000000
    12  C    0.502473   0.000004  -0.000000  -0.000000  -0.000000  -0.000000
    13  C    4.925639  -0.000178   0.000004   0.000000   0.000000  -0.000000
    14  C   -0.000178   4.925637   0.502473  -0.000045  -0.000179   0.000741
    15  C    0.000004   0.502473   4.961737  -0.009288   0.005546   0.005260
    16  H    0.000000  -0.000045  -0.009288   0.434108  -0.028443  -0.000055
    17  H    0.000000  -0.000179   0.005546  -0.028443   0.434767   0.004759
    18  H   -0.000000   0.000741   0.005260  -0.000055   0.004759   0.622663
    19  H    0.001792   0.005702   0.000545   0.000004  -0.000006  -0.005966
    20  H   -0.008712   0.002291  -0.000259  -0.000000  -0.000000   0.000001
    21  H    0.002291  -0.008712   0.000284   0.000000   0.000000   0.000003
    22  H    0.005702   0.001793   0.000079  -0.000000  -0.000000   0.000000
    23  H    0.000741  -0.000000  -0.000000  -0.000000  -0.000000   0.000000
    24  H   -0.000045   0.000000  -0.000000  -0.000000  -0.000000  -0.000000
    25  H   -0.000179   0.000000  -0.000000  -0.000000  -0.000000  -0.000000
    26  H   -0.033311  -0.000000   0.000000  -0.000000  -0.000000  -0.000000
    27  H    0.366156  -0.000004   0.000000  -0.000000  -0.000000  -0.000000
    28  H   -0.000004   0.366156  -0.040692  -0.000006   0.000004   0.000017
    29  H   -0.000000  -0.033311   0.362364   0.004711  -0.000055  -0.000189
              19         20         21         22         23         24
     1  N   -0.000115  -0.000000  -0.000000   0.000000   0.000000   0.000000
     2  C    0.003949   0.000002  -0.000000  -0.000018  -0.000000  -0.000000
     3  C   -0.038615   0.000058  -0.000188  -0.000035   0.000000  -0.000000
     4  C    0.364870  -0.007261   0.005963   0.000376   0.000001   0.000000
     5  C   -0.044494  -0.029683  -0.032588   0.003600  -0.000001   0.000000
     6  C   -0.008663   0.358680   0.358680  -0.008663  -0.000181  -0.000000
     7  C    0.003600  -0.032588  -0.029683  -0.044493   0.003719   0.000003
     8  C    0.000376   0.005964  -0.007261   0.364870  -0.034033  -0.000182
     9  C   -0.000035  -0.000188   0.000058  -0.038615   0.363033   0.005498
    10  C   -0.000018  -0.000000   0.000002   0.003949  -0.043455  -0.025120
    11  N    0.000000  -0.000000  -0.000000  -0.000115  -0.007448   0.343461
    12  C    0.000079   0.000284  -0.000259   0.000545   0.005260  -0.009288
    13  C    0.001792  -0.008712   0.002291   0.005702   0.000741  -0.000045
    14  C    0.005702   0.002291  -0.008712   0.001793  -0.000000   0.000000
    15  C    0.000545  -0.000259   0.000284   0.000079  -0.000000  -0.000000
    16  H    0.000004  -0.000000   0.000000  -0.000000  -0.000000  -0.000000
    17  H   -0.000006  -0.000000   0.000000  -0.000000  -0.000000  -0.000000
    18  H   -0.005966   0.000001   0.000003   0.000000   0.000000  -0.000000
    19  H    0.624179   0.001831   0.000136  -0.000021   0.000000  -0.000000
    20  H    0.001831   0.628906  -0.035815   0.000136   0.000003   0.000000
    21  H    0.000136  -0.035815   0.628906   0.001831   0.000001  -0.000000
    22  H   -0.000021   0.000136   0.001831   0.624179  -0.005966   0.000004
    23  H    0.000000   0.000003   0.000001  -0.005966   0.622663  -0.000055
    24  H   -0.000000   0.000000  -0.000000   0.000004  -0.000055   0.434109
    25  H   -0.000000   0.000000  -0.000000  -0.000006   0.004759  -0.028443
    26  H   -0.000002  -0.000010   0.000004   0.000017  -0.000189   0.004711
    27  H    0.000262   0.006594   0.000139  -0.000172   0.000017  -0.000006
    28  H   -0.000172   0.000139   0.006594   0.000262  -0.000000  -0.000000
    29  H    0.000017   0.000004  -0.000010  -0.000002  -0.000000  -0.000000
              25         26         27         28         29
     1  N    0.000000   0.000000  -0.000000  -0.000115  -0.007512
     2  C   -0.000000  -0.000000  -0.000000   0.003968  -0.044040
     3  C    0.000000   0.000000   0.000001   0.000541   0.005296
     4  C    0.000000   0.000001  -0.000020   0.005912   0.000681
     5  C    0.000000   0.000000   0.000191  -0.041402   0.003986
     6  C   -0.000000  -0.000176  -0.010136  -0.010136  -0.000176
     7  C    0.000006   0.003986  -0.041402   0.000191   0.000000
     8  C   -0.000061   0.000681   0.005912  -0.000020   0.000001
     9  C   -0.009292   0.005296   0.000541   0.000001   0.000000
    10  C   -0.025312  -0.044040   0.003968  -0.000000  -0.000000
    11  N    0.343282  -0.007512  -0.000115  -0.000000   0.000000
    12  C    0.005546   0.362364  -0.040692   0.000000   0.000000
    13  C   -0.000179  -0.033311   0.366156  -0.000004  -0.000000
    14  C    0.000000  -0.000000  -0.000004   0.366156  -0.033311
    15  C   -0.000000   0.000000   0.000000  -0.040692   0.362364
    16  H   -0.000000  -0.000000  -0.000000  -0.000006   0.004711
    17  H   -0.000000  -0.000000  -0.000000   0.000004  -0.000055
    18  H   -0.000000  -0.000000  -0.000000   0.000017  -0.000189
    19  H   -0.000000  -0.000002   0.000262  -0.000172   0.000017
    20  H    0.000000  -0.000010   0.006594   0.000139   0.000004
    21  H   -0.000000   0.000004   0.000139   0.006594  -0.000010
    22  H   -0.000006   0.000017  -0.000172   0.000262  -0.000002
    23  H    0.004759  -0.000189   0.000017  -0.000000  -0.000000
    24  H   -0.028443   0.004711  -0.000006  -0.000000  -0.000000
    25  H    0.434767  -0.000054   0.000004  -0.000000  -0.000000
    26  H   -0.000054   0.624670  -0.006172  -0.000000  -0.000000
    27  H    0.000004  -0.006172   0.623757   0.000000  -0.000000
    28  H   -0.000000  -0.000000   0.000000   0.623756  -0.006172
    29  H   -0.000000  -0.000000  -0.000000  -0.006172   0.624669
 Mulliken charges:
               1
     1  N   -0.671894
     2  C    0.252029
     3  C   -0.135654
     4  C   -0.137933
     5  C    0.116042
     6  C   -0.313544
     7  C    0.116045
     8  C   -0.137933
     9  C   -0.135653
    10  C    0.252029
    11  N   -0.671895
    12  C   -0.135559
    13  C   -0.153033
    14  C   -0.153031
    15  C   -0.135559
    16  H    0.275354
    17  H    0.274983
    18  H    0.091132
    19  H    0.090764
    20  H    0.109623
    21  H    0.109624
    22  H    0.090764
    23  H    0.091132
    24  H    0.275353
    25  H    0.274983
    26  H    0.089737
    27  H    0.091179
    28  H    0.091179
    29  H    0.089737
 Sum of Mulliken charges =  -0.00000
 Mulliken charges with hydrogens summed into heavy atoms:
               1
     1  N   -0.121558
     2  C    0.252029
     3  C   -0.044521
     4  C   -0.047169
     5  C    0.116042
     6  C   -0.094296
     7  C    0.116045
     8  C   -0.047170
     9  C   -0.044521
    10  C    0.252029
    11  N   -0.121559
    12  C   -0.045822
    13  C   -0.061854
    14  C   -0.061852
    15  C   -0.045822
 APT charges:
               1
     1  N   -1.595436
     2  C    0.268107
     3  C   -0.424186
     4  C   -0.565426
     5  C   -0.409133
     6  C   -0.893118
     7  C   -0.409134
     8  C   -0.565429
     9  C   -0.424188
    10  C    0.268108
    11  N   -1.595428
    12  C   -0.426842
    13  C   -0.531514
    14  C   -0.531516
    15  C   -0.426840
    16  H    0.998329
    17  H    0.792055
    18  H    0.518394
    19  H    0.253089
    20  H    0.429960
    21  H    0.429961
    22  H    0.253077
    23  H    0.518384
    24  H    0.998336
    25  H    0.792040
    26  H    0.700175
    27  H    0.439010
    28  H    0.438999
    29  H    0.700163
 Sum of APT charges =  -0.00000
 APT charges with hydrogens summed into heavy atoms:
               1
     1  N    0.194948
     2  C    0.268107
     3  C    0.094208
     4  C   -0.312337
     5  C   -0.409133
     6  C   -0.033197
     7  C   -0.409134
     8  C   -0.312351
     9  C    0.094197
    10  C    0.268108
    11  N    0.194949
    12  C    0.273333
    13  C   -0.092504
    14  C   -0.092517
    15  C    0.273323
 Electronic spatial extent (au):  <R**2>=           4392.7056
 Charge=             -0.0000 electrons
 Dipole moment (field-independent basis, Debye):
    X=             -0.0000    Y=              0.3321    Z=              0.0001  Tot=              0.3321
 Quadrupole moment (field-independent basis, Debye-Ang):
   XX=            -51.4175   YY=            -91.0795   ZZ=            -80.1413
   XY=             -0.0001   XZ=              3.0454   YZ=             -0.0013
 Traceless Quadrupole moment (field-independent basis, Debye-Ang):
   XX=             22.7953   YY=            -16.8668   ZZ=             -5.9285
   XY=             -0.0001   XZ=              3.0454   YZ=             -0.0013
 Octapole moment (field-independent basis, Debye-Ang**2):
  XXX=             -0.0005  YYY=              3.7074  ZZZ=             -0.0016  XYY=              0.0065
  XXY=            -43.8109  XXZ=             -0.0029  XZZ=             -0.0066  YZZ=             -6.4922
  YYZ=              0.0018  XYZ=            -30.7175
 Hexadecapole moment (field-independent basis, Debye-Ang**3):
 XXXX=          -3117.9416 YYYY=           -626.2059 ZZZZ=           -481.1513 XXXY=              0.0019
 XXXZ=             50.9452 YYYX=             -0.0142 YYYZ=             -0.0095 ZZZX=              3.3358
 ZZZY=              0.0037 XXYY=           -935.2233 XXZZ=           -767.5338 YYZZ=           -162.7391
 XXYZ=             -0.0181 YYXZ=             47.6158 ZZXY=              0.0092
 N-N= 8.844316039724D+02 E-N=-3.192040827401D+03  KE= 6.074732057856D+02
  Exact polarizability:   0.000   0.000   0.000   0.000   0.000   0.000
 Approx polarizability: 280.505   0.005 184.043 -38.865  -0.007 228.644
 D2PCM: PCM CHGder 2nd derivatives, FixD1E=F FixD2E=F DoIter=F DoCFld=F I1PDM=0
 Calling FoFJK, ICntrl=    100147 FMM=F ISym2X=0 I1Cent= 0 IOpClX= 0 NMat=1 NMatS=1 NMatT=0.
 ***** Axes restored to original set *****
 -------------------------------------------------------------------
 Center     Atomic                   Forces (Hartrees/Bohr)
 Number     Number              X              Y              Z
 -------------------------------------------------------------------
      1        7          -0.001785561    0.000122799    0.002789085
      2        6          -0.002426887    0.003424093   -0.016582835
      3        6           0.011235156    0.004694246    0.010843795
      4        6          -0.007683884    0.000054725   -0.004787807
      5        6           0.002224830   -0.006223503   -0.000529555
      6        6           0.000429297   -0.004177422    0.004759430
      7        6          -0.001703598    0.001155390    0.006302204
      8        6           0.007122463    0.005402770   -0.001430005
      9        6          -0.010450398   -0.012331383   -0.002143815
     10        6           0.000417396    0.016126578   -0.005689398
     11        7           0.002041028   -0.002610279    0.000044521
     12        6          -0.002437601   -0.003430672    0.012602825
     13        6           0.004764376    0.001800787   -0.008046002
     14        6          -0.005696934    0.007276556   -0.002294816
     15        6           0.003999513   -0.011763672    0.004706575
     16        1          -0.000463112    0.003717298    0.000988140
     17        1          -0.002328863   -0.003269096   -0.001025085
     18        1          -0.002173558    0.000204339    0.000514791
     19        1           0.000095481   -0.001176614   -0.000161738
     20        1           0.004282647    0.000743840   -0.000466936
     21        1          -0.004356902   -0.000020170   -0.000357705
     22        1          -0.000006381    0.000308281    0.001150805
     23        1           0.002187550   -0.000341796   -0.000358156
     24        1           0.000227829   -0.001430869   -0.003593192
     25        1           0.002494849    0.001656216    0.002862880
     26        1           0.001914675   -0.000296588   -0.000749384
     27        1          -0.000968270   -0.000951225   -0.000519112
     28        1           0.000991294    0.000726198    0.000776352
     29        1          -0.001946439    0.000609172    0.000394137
 -------------------------------------------------------------------
 Cartesian Forces:  Max     0.016582835 RMS     0.004905762
 FormGI is forming the generalized inverse of G from B-inverse, IUseBI=4.

 GradGradGradGradGradGradGradGradGradGradGradGradGradGradGradGradGradGrad
 Berny optimization.
 Internal  Forces:  Max     0.009147918 RMS     0.002495024
 Search for a local minimum.
 Step number   1 out of a maximum of  156
 All quantities printed in internal units (Hartrees-Bohrs-Radians)
 Mixed Optimization -- RFO/linear search
 Second derivative matrix not updated -- analytic derivatives used.
 ITU=  0
     Eigenvalues ---    0.00038   0.00054   0.00503   0.00504   0.01551
     Eigenvalues ---    0.01577   0.01643   0.01664   0.01724   0.01726
     Eigenvalues ---    0.01843   0.01858   0.01995   0.02002   0.02211
     Eigenvalues ---    0.02217   0.02330   0.02335   0.02713   0.02722
     Eigenvalues ---    0.02747   0.02747   0.02850   0.02852   0.05045
     Eigenvalues ---    0.05150   0.08782   0.11314   0.11343   0.11531
     Eigenvalues ---    0.11536   0.11879   0.11885   0.12343   0.12733
     Eigenvalues ---    0.12742   0.13548   0.13552   0.15453   0.15463
     Eigenvalues ---    0.17804   0.18070   0.18642   0.19005   0.19007
     Eigenvalues ---    0.19339   0.19482   0.19731   0.19773   0.21809
     Eigenvalues ---    0.22020   0.29741   0.31542   0.31549   0.31921
     Eigenvalues ---    0.32668   0.33690   0.35431   0.35445   0.35800
     Eigenvalues ---    0.35807   0.35827   0.35836   0.35871   0.35951
     Eigenvalues ---    0.38608   0.38935   0.41184   0.41211   0.44455
     Eigenvalues ---    0.44639   0.45573   0.45582   0.46057   0.46058
     Eigenvalues ---    0.47074   0.47166   0.47666   0.47686   0.51473
     Eigenvalues ---    0.51557
 RFO step:  Lambda=-5.87867843D-03 EMin= 3.75316852D-04
 Linear search not attempted -- first point.
 Iteration  1 RMS(Cart)=  0.03097378 RMS(Int)=  0.00059451
 Iteration  2 RMS(Cart)=  0.00108115 RMS(Int)=  0.00034572
 Iteration  3 RMS(Cart)=  0.00000066 RMS(Int)=  0.00034572
 Variable       Old X    -DE/DX   Delta X   Delta X   Delta X     New X
                                 (Linear)    (Quad)   (Total)
    R1        2.64552   0.00285   0.00000  -0.00281  -0.00281   2.64272
    R2        1.91760  -0.00230   0.00000  -0.00433  -0.00433   1.91327
    R3        1.91796  -0.00244   0.00000  -0.00470  -0.00470   1.91326
    R4        2.63766   0.00915   0.00000   0.02189   0.02195   2.65961
    R5        2.63801   0.00706   0.00000   0.01511   0.01518   2.65319
    R6        2.64271  -0.00361   0.00000  -0.01319  -0.01321   2.62950
    R7        2.05325   0.00067   0.00000   0.00151   0.00151   2.05477
    R8        2.64687   0.00125   0.00000   0.00477   0.00470   2.65157
    R9        2.05566  -0.00078   0.00000  -0.00066  -0.00066   2.05500
   R10        2.85758   0.00627   0.00000   0.01492   0.01492   2.87249
   R11        2.64605   0.00062   0.00000  -0.00105  -0.00110   2.64495
   R12        2.85758   0.00627   0.00000   0.01492   0.01492   2.87249
   R13        2.07486  -0.00021   0.00000  -0.00121  -0.00121   2.07365
   R14        2.07486  -0.00021   0.00000  -0.00121  -0.00121   2.07365
   R15        2.64687   0.00125   0.00000   0.00477   0.00470   2.65157
   R16        2.64605   0.00062   0.00000  -0.00105  -0.00110   2.64495
   R17        2.64271  -0.00361   0.00000  -0.01319  -0.01321   2.62950
   R18        2.05566  -0.00078   0.00000  -0.00066  -0.00066   2.05500
   R19        2.63766   0.00915   0.00000   0.02189   0.02195   2.65961
   R20        2.05325   0.00067   0.00000   0.00151   0.00151   2.05477
   R21        2.64552   0.00285   0.00000  -0.00281  -0.00281   2.64272
   R22        2.63801   0.00706   0.00000   0.01511   0.01519   2.65319
   R23        1.91760  -0.00230   0.00000  -0.00433  -0.00433   1.91327
   R24        1.91796  -0.00244   0.00000  -0.00470  -0.00470   1.91326
   R25        2.64327  -0.00168   0.00000  -0.00649  -0.00647   2.63680
   R26        2.05330   0.00062   0.00000   0.00115   0.00115   2.05445
   R27        2.05486  -0.00054   0.00000   0.00036   0.00036   2.05523
   R28        2.64326  -0.00168   0.00000  -0.00649  -0.00647   2.63680
   R29        2.05487  -0.00054   0.00000   0.00036   0.00036   2.05523
   R30        2.05330   0.00062   0.00000   0.00115   0.00115   2.05445
    A1        1.98503   0.00202   0.00000   0.01077   0.01078   1.99580
    A2        1.98366   0.00235   0.00000   0.01294   0.01295   1.99661
    A3        1.96209  -0.00371   0.00000  -0.02923  -0.02922   1.93287
    A4        2.10005   0.00187   0.00000   0.01016   0.00853   2.10858
    A5        2.09952   0.00216   0.00000   0.01354   0.01193   2.11146
    A6        2.06886  -0.00346   0.00000  -0.00698  -0.00851   2.06035
    A7        2.10830  -0.00034   0.00000  -0.00200  -0.00201   2.10629
    A8        2.09901  -0.00155   0.00000  -0.01418  -0.01418   2.08483
    A9        2.07588   0.00189   0.00000   0.01618   0.01618   2.09206
   A10        2.10409   0.00429   0.00000   0.01879   0.01860   2.12269
   A11        2.07900  -0.00123   0.00000  -0.00252  -0.00250   2.07650
   A12        2.09985  -0.00305   0.00000  -0.01587  -0.01586   2.08399
   A13        2.10871   0.00036   0.00000   0.00633   0.00639   2.11510
   A14        2.06958  -0.00404   0.00000  -0.02125  -0.02143   2.04814
   A15        2.10489   0.00368   0.00000   0.01495   0.01502   2.11991
   A16        1.99929   0.00122   0.00000   0.00212   0.00211   2.00140
   A17        1.88294   0.00375   0.00000   0.02826   0.02834   1.91128
   A18        1.92660  -0.00469   0.00000  -0.03385  -0.03377   1.89283
   A19        1.92660  -0.00469   0.00000  -0.03385  -0.03377   1.89283
   A20        1.88294   0.00375   0.00000   0.02825   0.02834   1.91128
   A21        1.83901   0.00047   0.00000   0.00875   0.00913   1.84813
   A22        2.10871   0.00036   0.00000   0.00633   0.00639   2.11510
   A23        2.10489   0.00368   0.00000   0.01495   0.01502   2.11991
   A24        2.06958  -0.00404   0.00000  -0.02125  -0.02143   2.04814
   A25        2.10409   0.00429   0.00000   0.01879   0.01860   2.12269
   A26        2.09985  -0.00305   0.00000  -0.01587  -0.01586   2.08399
   A27        2.07900  -0.00123   0.00000  -0.00251  -0.00250   2.07650
   A28        2.10830  -0.00034   0.00000  -0.00200  -0.00201   2.10629
   A29        2.07588   0.00189   0.00000   0.01618   0.01618   2.09206
   A30        2.09901  -0.00155   0.00000  -0.01418  -0.01418   2.08483
   A31        2.10005   0.00187   0.00000   0.01016   0.00853   2.10858
   A32        2.06886  -0.00346   0.00000  -0.00698  -0.00851   2.06035
   A33        2.09953   0.00216   0.00000   0.01354   0.01193   2.11146
   A34        1.98503   0.00202   0.00000   0.01077   0.01078   1.99580
   A35        1.98366   0.00235   0.00000   0.01294   0.01295   1.99661
   A36        1.96209  -0.00371   0.00000  -0.02924  -0.02922   1.93287
   A37        2.10880  -0.00100   0.00000  -0.00411  -0.00406   2.10474
   A38        2.09725  -0.00122   0.00000  -0.01100  -0.01102   2.08623
   A39        2.07714   0.00222   0.00000   0.01511   0.01508   2.09222
   A40        2.10351   0.00471   0.00000   0.02061   0.02049   2.12400
   A41        2.10306  -0.00372   0.00000  -0.01902  -0.01903   2.08403
   A42        2.07650  -0.00098   0.00000  -0.00134  -0.00134   2.07515
   A43        2.10351   0.00471   0.00000   0.02061   0.02049   2.12400
   A44        2.10306  -0.00372   0.00000  -0.01902  -0.01903   2.08403
   A45        2.07650  -0.00098   0.00000  -0.00134  -0.00134   2.07515
   A46        2.10880  -0.00100   0.00000  -0.00411  -0.00406   2.10474
   A47        2.09725  -0.00122   0.00000  -0.01100  -0.01102   2.08623
   A48        2.07714   0.00222   0.00000   0.01511   0.01508   2.09222
    D1       -2.79638   0.00213   0.00000   0.05564   0.05602  -2.74036
    D2        0.53158  -0.00104   0.00000  -0.04813  -0.04850   0.48307
    D3       -0.52138   0.00091   0.00000   0.03584   0.03621  -0.48517
    D4        2.80658  -0.00226   0.00000  -0.06793  -0.06831   2.73827
    D5       -3.04468  -0.00156   0.00000  -0.03537  -0.03508  -3.07976
    D6        0.09611  -0.00147   0.00000  -0.03428  -0.03404   0.06207
    D7       -0.08623   0.00214   0.00000   0.06873   0.06855  -0.01767
    D8        3.05457   0.00223   0.00000   0.06982   0.06959   3.12416
    D9        3.04303   0.00160   0.00000   0.03803   0.03796   3.08100
   D10       -0.09914   0.00152   0.00000   0.03747   0.03740  -0.06173
   D11        0.08452  -0.00206   0.00000  -0.06568  -0.06548   0.01904
   D12       -3.05765  -0.00215   0.00000  -0.06624  -0.06604  -3.12369
   D13        0.04070  -0.00103   0.00000  -0.03474  -0.03480   0.00591
   D14       -3.12476  -0.00044   0.00000  -0.01556  -0.01555  -3.14031
   D15       -3.10010  -0.00111   0.00000  -0.03580  -0.03582  -3.13593
   D16        0.01762  -0.00052   0.00000  -0.01662  -0.01657   0.00104
   D17       -3.13668   0.00034   0.00000   0.00750   0.00739  -3.12929
   D18        0.00819  -0.00004   0.00000  -0.00341  -0.00342   0.00478
   D19        0.02907  -0.00029   0.00000  -0.01210  -0.01212   0.01695
   D20       -3.10924  -0.00066   0.00000  -0.02301  -0.02293  -3.13217
   D21       -1.08331   0.00136   0.00000   0.00570   0.00563  -1.07768
   D22        1.06963  -0.00104   0.00000  -0.01528  -0.01526   1.05436
   D23        3.07055  -0.00085   0.00000  -0.00693  -0.00707   3.06348
   D24        2.05493   0.00172   0.00000   0.01675   0.01682   2.07175
   D25       -2.07531  -0.00067   0.00000  -0.00422  -0.00408  -2.07939
   D26       -0.07439  -0.00048   0.00000   0.00413   0.00412  -0.07028
   D27       -0.00991   0.00013   0.00000   0.00651   0.00654  -0.00337
   D28        3.11536   0.00067   0.00000   0.02453   0.02451   3.13987
   D29        3.13496  -0.00023   0.00000  -0.00435  -0.00428   3.13067
   D30       -0.02295   0.00031   0.00000   0.01367   0.01368  -0.00927
   D31       -1.08326   0.00136   0.00000   0.00569   0.00563  -1.07763
   D32        2.05500   0.00172   0.00000   0.01674   0.01681   2.07181
   D33        3.07061  -0.00085   0.00000  -0.00693  -0.00708   3.06353
   D34       -0.07432  -0.00048   0.00000   0.00412   0.00410  -0.07022
   D35        1.06968  -0.00104   0.00000  -0.01528  -0.01527   1.05441
   D36       -2.07525  -0.00067   0.00000  -0.00423  -0.00409  -2.07933
   D37       -3.13667   0.00034   0.00000   0.00749   0.00739  -3.12928
   D38        0.02908  -0.00029   0.00000  -0.01211  -0.01213   0.01695
   D39        0.00819  -0.00004   0.00000  -0.00341  -0.00341   0.00478
   D40       -3.10924  -0.00066   0.00000  -0.02300  -0.02293  -3.13217
   D41        3.13495  -0.00023   0.00000  -0.00435  -0.00428   3.13067
   D42       -0.02296   0.00031   0.00000   0.01367   0.01368  -0.00928
   D43       -0.00991   0.00013   0.00000   0.00651   0.00654  -0.00337
   D44        3.11537   0.00067   0.00000   0.02453   0.02450   3.13987
   D45        0.04071  -0.00103   0.00000  -0.03474  -0.03480   0.00591
   D46       -3.10010  -0.00111   0.00000  -0.03579  -0.03582  -3.13592
   D47       -3.12476  -0.00044   0.00000  -0.01556  -0.01555  -3.14031
   D48        0.01762  -0.00052   0.00000  -0.01662  -0.01657   0.00104
   D49       -3.04469  -0.00156   0.00000  -0.03536  -0.03507  -3.07976
   D50       -0.08623   0.00214   0.00000   0.06873   0.06856  -0.01767
   D51        0.09611  -0.00147   0.00000  -0.03428  -0.03404   0.06207
   D52        3.05457   0.00223   0.00000   0.06982   0.06959   3.12416
   D53       -2.79639   0.00213   0.00000   0.05564   0.05603  -2.74037
   D54       -0.52139   0.00091   0.00000   0.03584   0.03621  -0.48517
   D55        0.53156  -0.00104   0.00000  -0.04813  -0.04850   0.48307
   D56        2.80657  -0.00226   0.00000  -0.06793  -0.06831   2.73826
   D57        0.08452  -0.00206   0.00000  -0.06568  -0.06548   0.01904
   D58       -3.05765  -0.00215   0.00000  -0.06623  -0.06604  -3.12369
   D59        3.04303   0.00160   0.00000   0.03802   0.03796   3.08099
   D60       -0.09914   0.00152   0.00000   0.03747   0.03740  -0.06174
   D61       -0.03723   0.00080   0.00000   0.02835   0.02847  -0.00875
   D62        3.12044   0.00030   0.00000   0.01078   0.01077   3.13120
   D63        3.10494   0.00089   0.00000   0.02891   0.02904   3.13398
   D64       -0.02058   0.00038   0.00000   0.01133   0.01133  -0.00925
   D65       -0.03723   0.00080   0.00000   0.02835   0.02847  -0.00875
   D66        3.10494   0.00089   0.00000   0.02891   0.02904   3.13398
   D67        3.12044   0.00030   0.00000   0.01077   0.01076   3.13120
   D68       -0.02058   0.00038   0.00000   0.01133   0.01133  -0.00925
         Item               Value     Threshold  Converged?
 Maximum Force            0.009148     0.000450     NO 
 RMS     Force            0.002495     0.000300     NO 
 Maximum Displacement     0.092477     0.001800     NO 
 RMS     Displacement     0.030448     0.001200     NO 
 Predicted change in Energy=-3.230891D-03
 GradGradGradGradGradGradGradGradGradGradGradGradGradGradGradGradGradGrad

                          Input orientation:                          
 ---------------------------------------------------------------------
 Center     Atomic      Atomic             Coordinates (Angstroms)
 Number     Number       Type             X           Y           Z
 ---------------------------------------------------------------------
      1          7           0       -4.923975    0.735642   -0.682891
      2          6           0       -3.725866    0.277178   -0.126071
      3          6           0       -2.803777    1.176593    0.441020
      4          6           0       -1.580571    0.726435    0.928173
      5          6           0       -1.217994   -0.627714    0.867777
      6          6           0        0.114255   -1.111118    1.417328
      7          6           0        1.335457   -0.514614    0.736577
      8          6           0        1.580172   -0.722838   -0.629287
      9          6           0        2.702628   -0.193198   -1.258389
     10          6           0        3.638874    0.568818   -0.534814
     11          7           0        4.728652    1.163877   -1.178236
     12          6           0        3.393790    0.794160    0.829151
     13          6           0        2.264436    0.255019    1.446273
     14          6           0       -2.134969   -1.513799    0.290702
     15          6           0       -3.364640   -1.077349   -0.203638
     16          1           0       -5.657639    0.039267   -0.726099
     17          1           0       -5.270360    1.596904   -0.278781
     18          1           0       -3.053336    2.233390    0.497568
     19          1           0       -0.889436    1.445368    1.361809
     20          1           0        0.170879   -0.887687    2.490175
     21          1           0        0.147133   -2.204940    1.336092
     22          1           0        0.875305   -1.308448   -1.214774
     23          1           0        2.861467   -0.367966   -2.319768
     24          1           0        5.513264    1.364906   -0.570748
     25          1           0        5.036126    0.680798   -2.013193
     26          1           0        4.092591    1.393636    1.407285
     27          1           0        2.106717    0.438821    2.506541
     28          1           0       -1.887437   -2.570807    0.225212
     29          1           0       -4.051746   -1.790337   -0.652491
 ---------------------------------------------------------------------
                    Distance matrix (angstroms):
                    1          2          3          4          5
     1  N    0.000000
     2  C    1.398465   0.000000
     3  C    2.439847   1.407404   0.000000
     4  C    3.711330   2.432191   1.391472   0.000000
     5  C    4.242359   2.845345   2.439745   1.403149   0.000000
     6  C    5.762396   4.365315   3.834281   2.547215   1.520057
     7  C    6.539000   5.195006   4.481160   3.174922   2.559320
     8  C    6.665881   5.422850   4.896162   3.810035   3.174899
     9  C    7.704481   6.544382   5.923244   4.896179   4.481145
    10  C    8.565755   7.381837   6.544418   5.422894   5.195009
    11  N    9.674811   8.565756   7.704521   6.665929   6.539004
    12  C    8.454284   7.202029   6.221474   4.975807   4.826155
    13  C    7.512496   6.193261   5.248488   3.908291   3.638845
    14  C    3.713007   2.431512   2.776348   2.394237   1.399645
    15  C    2.438882   1.404010   2.410478   2.778045   2.440941
    16  H    1.012457   2.036758   3.286367   4.453235   4.764006
    17  H    1.012452   2.037267   2.603614   3.978568   4.762897
    18  H    2.671333   2.160553   1.087335   2.150668   3.419277
    19  H    4.578430   3.409368   2.141214   1.087461   2.156313
    20  H    6.217804   4.835936   4.160393   2.848301   2.151449
    21  H    6.199956   4.826899   4.576439   3.426998   2.137880
    22  H    6.171941   4.987009   4.738431   3.842433   3.030234
    23  H    8.031838   6.972910   6.488652   5.610573   5.183619
    24  H   10.456793   9.313561   8.380472   7.278523   7.165872
    25  H   10.048698   8.971992   8.230010   7.241159   7.009009
    26  H    9.279023   8.045243   6.967114   5.732318   5.707823
    27  H    7.726009   6.401235   5.378071   4.021201   3.857039
    28  H    4.580155   3.407967   3.863840   3.385280   2.153289
    29  H    2.672504   2.158225   3.399392   3.865145   3.419512
                    6          7          8          9         10
     6  C    0.000000
     7  C    1.520057   0.000000
     8  C    2.547216   1.403149   0.000000
     9  C    3.834282   2.439745   1.391472   0.000000
    10  C    4.365316   2.845345   2.432192   1.407404   0.000000
    11  N    5.762397   4.242359   3.711330   2.439847   1.398465
    12  C    3.838149   2.440941   2.778045   2.410478   1.404010
    13  C    2.547636   1.399645   2.394237   2.776348   2.431512
    14  C    2.547636   3.638823   3.908231   5.248430   6.193225
    15  C    3.838149   4.826136   4.975743   6.221412   7.201997
    16  H    6.263580   7.165864   7.278467   8.380420   9.313548
    17  H    6.261329   7.009014   7.241122   8.229984   8.972010
    18  H    4.697374   5.183644   5.610569   6.488670   6.972969
    19  H    2.747015   3.030279   3.842465   4.738486   4.987094
    20  H    1.097327   2.137880   3.427000   4.576440   4.826899
    21  H    1.097328   2.151449   2.848322   4.160408   4.835936
    22  H    2.747017   2.156313   1.087461   2.141214   3.409368
    23  H    4.697375   3.419277   2.150668   1.087335   2.160552
    24  H    6.263580   4.764007   4.453236   3.286368   2.036758
    25  H    6.261330   4.762898   3.978569   2.603615   2.037267
    26  H    4.701176   3.419511   3.865145   3.399391   2.158224
    27  H    2.749291   2.153289   3.385280   3.863840   3.407967
    28  H    2.749292   3.857003   4.021128   5.377992   6.401172
    29  H    4.701176   5.707796   5.732242   6.967032   8.045191
                   11         12         13         14         15
    11  N    0.000000
    12  C    2.438882   0.000000
    13  C    3.713008   1.395332   0.000000
    14  C    7.512458   6.015295   4.880454   0.000000
[...]
     8    N    1  py     Ryd( 3p)     0.00326
     9    N    1  pz     Val( 2p)     1.47210
    10    N    1  pz     Ryd( 3p)     0.00223
    11    N    1  dxy    Ryd( 3d)     0.00086
    12    N    1  dxz    Ryd( 3d)     0.00047
    13    N    1  dyz    Ryd( 3d)     0.00061
    14    N    1  dx2y2  Ryd( 3d)     0.00071
    15    N    1  dz2    Ryd( 3d)     0.00069

    16    C    2  S      Cor( 1S)     1.99898
    17    C    2  S      Val( 2S)     0.85151
    18    C    2  S      Ryd( 3S)     0.00120
    19    C    2  S      Ryd( 4S)     0.00009
    20    C    2  px     Val( 2p)     0.93359
    21    C    2  px     Ryd( 3p)     0.00421
    22    C    2  py     Val( 2p)     0.95256
    23    C    2  py     Ryd( 3p)     0.00351
    24    C    2  pz     Val( 2p)     1.06568
    25    C    2  pz     Ryd( 3p)     0.00371
    26    C    2  dxy    Ryd( 3d)     0.00111
    27    C    2  dxz    Ryd( 3d)     0.00088
    28    C    2  dyz    Ryd( 3d)     0.00070
    29    C    2  dx2y2  Ryd( 3d)     0.00119
    30    C    2  dz2    Ryd( 3d)     0.00106

    31    C    3  S      Cor( 1S)     1.99905
    32    C    3  S      Val( 2S)     0.94987
    33    C    3  S      Ryd( 3S)     0.00068
    34    C    3  S      Ryd( 4S)     0.00004
    35    C    3  px     Val( 2p)     1.07985
    36    C    3  px     Ryd( 3p)     0.00477
    37    C    3  py     Val( 2p)     1.14460
    38    C    3  py     Ryd( 3p)     0.00423
    39    C    3  pz     Val( 2p)     1.14519
    40    C    3  pz     Ryd( 3p)     0.00443
    41    C    3  dxy    Ryd( 3d)     0.00045
    42    C    3  dxz    Ryd( 3d)     0.00057
    43    C    3  dyz    Ryd( 3d)     0.00051
    44    C    3  dx2y2  Ryd( 3d)     0.00050
    45    C    3  dz2    Ryd( 3d)     0.00043

    46    C    4  S      Cor( 1S)     1.99904
    47    C    4  S      Val( 2S)     0.94848
    48    C    4  S      Ryd( 3S)     0.00069
    49    C    4  S      Ryd( 4S)     0.00005
    50    C    4  px     Val( 2p)     1.11936
    51    C    4  px     Ryd( 3p)     0.00375
    52    C    4  py     Val( 2p)     1.05055
    53    C    4  py     Ryd( 3p)     0.00405
    54    C    4  pz     Val( 2p)     1.13318
    55    C    4  pz     Ryd( 3p)     0.00461
    56    C    4  dxy    Ryd( 3d)     0.00044
    57    C    4  dxz    Ryd( 3d)     0.00069
    58    C    4  dyz    Ryd( 3d)     0.00042
    59    C    4  dx2y2  Ryd( 3d)     0.00064
    60    C    4  dz2    Ryd( 3d)     0.00050

    61    C    5  S      Cor( 1S)     1.99900
    62    C    5  S      Val( 2S)     0.88564
    63    C    5  S      Ryd( 3S)     0.00094
    64    C    5  S      Ryd( 4S)     0.00005
    65    C    5  px     Val( 2p)     1.01938
    66    C    5  px     Ryd( 3p)     0.00495
    67    C    5  py     Val( 2p)     1.02326
    68    C    5  py     Ryd( 3p)     0.00342
    69    C    5  pz     Val( 2p)     1.05732
    70    C    5  pz     Ryd( 3p)     0.00411
    71    C    5  dxy    Ryd( 3d)     0.00062
    72    C    5  dxz    Ryd( 3d)     0.00065
    73    C    5  dyz    Ryd( 3d)     0.00064
    74    C    5  dx2y2  Ryd( 3d)     0.00057
    75    C    5  dz2    Ryd( 3d)     0.00079

    76    C    6  S      Cor( 1S)     1.99921
    77    C    6  S      Val( 2S)     1.02299
    78    C    6  S      Ryd( 3S)     0.00065
    79    C    6  S      Ryd( 4S)     0.00002
    80    C    6  px     Val( 2p)     1.03691
    81    C    6  px     Ryd( 3p)     0.00169
    82    C    6  py     Val( 2p)     1.15709
    83    C    6  py     Ryd( 3p)     0.00238
    84    C    6  pz     Val( 2p)     1.26298
    85    C    6  pz     Ryd( 3p)     0.00650
    86    C    6  dxy    Ryd( 3d)     0.00074
    87    C    6  dxz    Ryd( 3d)     0.00031
    88    C    6  dyz    Ryd( 3d)     0.00096
    89    C    6  dx2y2  Ryd( 3d)     0.00074
    90    C    6  dz2    Ryd( 3d)     0.00059

    91    C    7  S      Cor( 1S)     1.99900
    92    C    7  S      Val( 2S)     0.88564
    93    C    7  S      Ryd( 3S)     0.00094
    94    C    7  S      Ryd( 4S)     0.00005
    95    C    7  px     Val( 2p)     1.01938
    96    C    7  px     Ryd( 3p)     0.00495
    97    C    7  py     Val( 2p)     1.02328
    98    C    7  py     Ryd( 3p)     0.00342
    99    C    7  pz     Val( 2p)     1.05730
   100    C    7  pz     Ryd( 3p)     0.00411
   101    C    7  dxy    Ryd( 3d)     0.00062
   102    C    7  dxz    Ryd( 3d)     0.00065
   103    C    7  dyz    Ryd( 3d)     0.00064
   104    C    7  dx2y2  Ryd( 3d)     0.00057
   105    C    7  dz2    Ryd( 3d)     0.00079

   106    C    8  S      Cor( 1S)     1.99904
   107    C    8  S      Val( 2S)     0.94848
   108    C    8  S      Ryd( 3S)     0.00069
   109    C    8  S      Ryd( 4S)     0.00005
   110    C    8  px     Val( 2p)     1.11936
   111    C    8  px     Ryd( 3p)     0.00375
   112    C    8  py     Val( 2p)     1.05055
   113    C    8  py     Ryd( 3p)     0.00405
   114    C    8  pz     Val( 2p)     1.13316
   115    C    8  pz     Ryd( 3p)     0.00461
   116    C    8  dxy    Ryd( 3d)     0.00044
   117    C    8  dxz    Ryd( 3d)     0.00069
   118    C    8  dyz    Ryd( 3d)     0.00042
   119    C    8  dx2y2  Ryd( 3d)     0.00064
   120    C    8  dz2    Ryd( 3d)     0.00050

   121    C    9  S      Cor( 1S)     1.99905
   122    C    9  S      Val( 2S)     0.94987
   123    C    9  S      Ryd( 3S)     0.00068
   124    C    9  S      Ryd( 4S)     0.00004
   125    C    9  px     Val( 2p)     1.07985
   126    C    9  px     Ryd( 3p)     0.00477
   127    C    9  py     Val( 2p)     1.14461
   128    C    9  py     Ryd( 3p)     0.00423
   129    C    9  pz     Val( 2p)     1.14518
   130    C    9  pz     Ryd( 3p)     0.00443
   131    C    9  dxy    Ryd( 3d)     0.00045
   132    C    9  dxz    Ryd( 3d)     0.00057
   133    C    9  dyz    Ryd( 3d)     0.00051
   134    C    9  dx2y2  Ryd( 3d)     0.00050
   135    C    9  dz2    Ryd( 3d)     0.00043

   136    C   10  S      Cor( 1S)     1.99898
   137    C   10  S      Val( 2S)     0.85151
   138    C   10  S      Ryd( 3S)     0.00120
   139    C   10  S      Ryd( 4S)     0.00009
   140    C   10  px     Val( 2p)     0.93359
   141    C   10  px     Ryd( 3p)     0.00421
   142    C   10  py     Val( 2p)     0.95258
   143    C   10  py     Ryd( 3p)     0.00351
   144    C   10  pz     Val( 2p)     1.06566
   145    C   10  pz     Ryd( 3p)     0.00371
   146    C   10  dxy    Ryd( 3d)     0.00111
   147    C   10  dxz    Ryd( 3d)     0.00088
   148    C   10  dyz    Ryd( 3d)     0.00070
   149    C   10  dx2y2  Ryd( 3d)     0.00119
   150    C   10  dz2    Ryd( 3d)     0.00106

   151    N   11  S      Cor( 1S)     1.99949
   152    N   11  S      Val( 2S)     1.37125
   153    N   11  S      Ryd( 3S)     0.00011
   154    N   11  S      Ryd( 4S)     0.00001
   155    N   11  px     Val( 2p)     1.34784
   156    N   11  px     Ryd( 3p)     0.00206
   157    N   11  py     Val( 2p)     1.57355
   158    N   11  py     Ryd( 3p)     0.00326
   159    N   11  pz     Val( 2p)     1.47214
   160    N   11  pz     Ryd( 3p)     0.00223
   161    N   11  dxy    Ryd( 3d)     0.00086
   162    N   11  dxz    Ryd( 3d)     0.00047
   163    N   11  dyz    Ryd( 3d)     0.00061
   164    N   11  dx2y2  Ryd( 3d)     0.00071
   165    N   11  dz2    Ryd( 3d)     0.00069

   166    C   12  S      Cor( 1S)     1.99905
   167    C   12  S      Val( 2S)     0.95235
   168    C   12  S      Ryd( 3S)     0.00064
   169    C   12  S      Ryd( 4S)     0.00004
   170    C   12  px     Val( 2p)     1.13523
   171    C   12  px     Ryd( 3p)     0.00438
   172    C   12  py     Val( 2p)     1.07087
   173    C   12  py     Ryd( 3p)     0.00423
   174    C   12  pz     Val( 2p)     1.13376
   175    C   12  pz     Ryd( 3p)     0.00426
   176    C   12  dxy    Ryd( 3d)     0.00039
   177    C   12  dxz    Ryd( 3d)     0.00065
   178    C   12  dyz    Ryd( 3d)     0.00046
   179    C   12  dx2y2  Ryd( 3d)     0.00059
   180    C   12  dz2    Ryd( 3d)     0.00044

   181    C   13  S      Cor( 1S)     1.99905
   182    C   13  S      Val( 2S)     0.94609
   183    C   13  S      Ryd( 3S)     0.00061
   184    C   13  S      Ryd( 4S)     0.00004
   185    C   13  px     Val( 2p)     1.06786
   186    C   13  px     Ryd( 3p)     0.00440
   187    C   13  py     Val( 2p)     1.12602
   188    C   13  py     Ryd( 3p)     0.00412
   189    C   13  pz     Val( 2p)     1.14323
   190    C   13  pz     Ryd( 3p)     0.00491
   191    C   13  dxy    Ryd( 3d)     0.00050
   192    C   13  dxz    Ryd( 3d)     0.00053
   193    C   13  dyz    Ryd( 3d)     0.00057
   194    C   13  dx2y2  Ryd( 3d)     0.00052
   195    C   13  dz2    Ryd( 3d)     0.00047

   196    C   14  S      Cor( 1S)     1.99905
   197    C   14  S      Val( 2S)     0.94609
   198    C   14  S      Ryd( 3S)     0.00061
   199    C   14  S      Ryd( 4S)     0.00004
   200    C   14  px     Val( 2p)     1.06786
   201    C   14  px     Ryd( 3p)     0.00440
   202    C   14  py     Val( 2p)     1.12600
   203    C   14  py     Ryd( 3p)     0.00412
   204    C   14  pz     Val( 2p)     1.14325
   205    C   14  pz     Ryd( 3p)     0.00491
   206    C   14  dxy    Ryd( 3d)     0.00050
   207    C   14  dxz    Ryd( 3d)     0.00053
   208    C   14  dyz    Ryd( 3d)     0.00057
   209    C   14  dx2y2  Ryd( 3d)     0.00052
   210    C   14  dz2    Ryd( 3d)     0.00047

   211    C   15  S      Cor( 1S)     1.99905
   212    C   15  S      Val( 2S)     0.95235
   213    C   15  S      Ryd( 3S)     0.00064
   214    C   15  S      Ryd( 4S)     0.00004
   215    C   15  px     Val( 2p)     1.13523
   216    C   15  px     Ryd( 3p)     0.00438
   217    C   15  py     Val( 2p)     1.07088
   218    C   15  py     Ryd( 3p)     0.00423
   219    C   15  pz     Val( 2p)     1.13376
   220    C   15  pz     Ryd( 3p)     0.00426
   221    C   15  dxy    Ryd( 3d)     0.00039
   222    C   15  dxz    Ryd( 3d)     0.00065
   223    C   15  dyz    Ryd( 3d)     0.00046
   224    C   15  dx2y2  Ryd( 3d)     0.00059
   225    C   15  dz2    Ryd( 3d)     0.00044

   226    H   16  S      Val( 1S)     0.57523
   227    H   16  S      Ryd( 2S)     0.00137
   228    H   16  px     Ryd( 2p)     0.00046
   229    H   16  py     Ryd( 2p)     0.00042
   230    H   16  pz     Ryd( 2p)     0.00036

   231    H   17  S      Val( 1S)     0.57551
   232    H   17  S      Ryd( 2S)     0.00160
   233    H   17  px     Ryd( 2p)     0.00026
   234    H   17  py     Ryd( 2p)     0.00041
   235    H   17  pz     Ryd( 2p)     0.00058

   236    H   18  S      Val( 1S)     0.76123
   237    H   18  S      Ryd( 2S)     0.00101
   238    H   18  px     Ryd( 2p)     0.00009
   239    H   18  py     Ryd( 2p)     0.00025
   240    H   18  pz     Ryd( 2p)     0.00029

   241    H   19  S      Val( 1S)     0.76003
   242    H   19  S      Ryd( 2S)     0.00163
   243    H   19  px     Ryd( 2p)     0.00024
   244    H   19  py     Ryd( 2p)     0.00012
   245    H   19  pz     Ryd( 2p)     0.00027

   246    H   20  S      Val( 1S)     0.73844
   247    H   20  S      Ryd( 2S)     0.00170
   248    H   20  px     Ryd( 2p)     0.00010
   249    H   20  py     Ryd( 2p)     0.00020
   250    H   20  pz     Ryd( 2p)     0.00025

   251    H   21  S      Val( 1S)     0.73844
   252    H   21  S      Ryd( 2S)     0.00170
   253    H   21  px     Ryd( 2p)     0.00010
   254    H   21  py     Ryd( 2p)     0.00020
   255    H   21  pz     Ryd( 2p)     0.00025

   256    H   22  S      Val( 1S)     0.76003
   257    H   22  S      Ryd( 2S)     0.00163
   258    H   22  px     Ryd( 2p)     0.00024
   259    H   22  py     Ryd( 2p)     0.00012
   260    H   22  pz     Ryd( 2p)     0.00027

   261    H   23  S      Val( 1S)     0.76123
   262    H   23  S      Ryd( 2S)     0.00101
   263    H   23  px     Ryd( 2p)     0.00009
   264    H   23  py     Ryd( 2p)     0.00025
   265    H   23  pz     Ryd( 2p)     0.00029

   266    H   24  S      Val( 1S)     0.57523
   267    H   24  S      Ryd( 2S)     0.00137
   268    H   24  px     Ryd( 2p)     0.00046
   269    H   24  py     Ryd( 2p)     0.00042
   270    H   24  pz     Ryd( 2p)     0.00036

   271    H   25  S      Val( 1S)     0.57551
   272    H   25  S      Ryd( 2S)     0.00160
   273    H   25  px     Ryd( 2p)     0.00026
   274    H   25  py     Ryd( 2p)     0.00041
   275    H   25  pz     Ryd( 2p)     0.00058

   276    H   26  S      Val( 1S)     0.76037
   277    H   26  S      Ryd( 2S)     0.00107
   278    H   26  px     Ryd( 2p)     0.00023
   279    H   26  py     Ryd( 2p)     0.00012
   280    H   26  pz     Ryd( 2p)     0.00028

   281    H   27  S      Val( 1S)     0.76283
   282    H   27  S      Ryd( 2S)     0.00104
   283    H   27  px     Ryd( 2p)     0.00009
   284    H   27  py     Ryd( 2p)     0.00025
   285    H   27  pz     Ryd( 2p)     0.00029

   286    H   28  S      Val( 1S)     0.76284
   287    H   28  S      Ryd( 2S)     0.00104
   288    H   28  px     Ryd( 2p)     0.00009
   289    H   28  py     Ryd( 2p)     0.00025
   290    H   28  pz     Ryd( 2p)     0.00029

   291    H   29  S      Val( 1S)     0.76037
   292    H   29  S      Ryd( 2S)     0.00107
   293    H   29  px     Ryd( 2p)     0.00023
   294    H   29  py     Ryd( 2p)     0.00012
   295    H   29  pz     Ryd( 2p)     0.00028

 WARNING:  1 low occupancy (<1.9990e) core orbital  found on  C    2
           1 low occupancy (<1.9990e) core orbital  found on  C   10


 Summary of Natural Population Analysis:                  
                                                          
                                       Natural Population 
                Natural  -----------------------------------------------
    Atom  No    Charge         Core      Valence    Rydberg      Total
 -----------------------------------------------------------------------
      N    1   -0.77528      1.99949     5.76477    0.01101     7.77528
      C    2    0.18001      1.99898     3.80334    0.01767     5.81999
      C    3   -0.33516      1.99905     4.31952    0.01660     6.33516
      C    4   -0.26646      1.99904     4.25156    0.01585     6.26646
      C    5   -0.00134      1.99900     3.98560    0.01673     6.00134
      C    6   -0.49376      1.99921     4.47997    0.01458     6.49376
      C    7   -0.00134      1.99900     3.98561    0.01673     6.00134
      C    8   -0.26645      1.99904     4.25155    0.01585     6.26645
      C    9   -0.33516      1.99905     4.31951    0.01660     6.33516
      C   10    0.18001      1.99898     3.80335    0.01767     5.81999
      N   11   -0.77529      1.99949     5.76478    0.01101     7.77529
      C   12   -0.30734      1.99905     4.29221    0.01609     6.30734
      C   13   -0.29892      1.99905     4.28320    0.01667     6.29892
      C   14   -0.29892      1.99905     4.28321    0.01667     6.29892
      C   15   -0.30735      1.99905     4.29221    0.01609     6.30735
      H   16    0.42216      0.00000     0.57523    0.00261     0.57784
      H   17    0.42164      0.00000     0.57551    0.00284     0.57836
      H   18    0.23712      0.00000     0.76123    0.00165     0.76288
      H   19    0.23772      0.00000     0.76003    0.00226     0.76228
      H   20    0.25930      0.00000     0.73844    0.00225     0.74070
      H   21    0.25930      0.00000     0.73844    0.00225     0.74070
      H   22    0.23772      0.00000     0.76003    0.00226     0.76228
      H   23    0.23712      0.00000     0.76123    0.00165     0.76288
      H   24    0.42216      0.00000     0.57523    0.00261     0.57784
      H   25    0.42164      0.00000     0.57551    0.00284     0.57836
      H   26    0.23793      0.00000     0.76037    0.00169     0.76207
      H   27    0.23550      0.00000     0.76283    0.00166     0.76450
      H   28    0.23550      0.00000     0.76284    0.00166     0.76450
      H   29    0.23793      0.00000     0.76037    0.00169     0.76207
 =======================================================================
   * Total *    0.00000     29.98653    75.74772    0.26575   106.00000

                                 Natural Population      
 --------------------------------------------------------
   Core                      29.98653 ( 99.9551% of  30)
   Valence                   75.74772 ( 99.6681% of  76)
   Natural Minimal Basis    105.73425 ( 99.7493% of 106)
   Natural Rydberg Basis      0.26575 (  0.2507% of 106)
 --------------------------------------------------------

    Atom  No          Natural Electron Configuration
 ----------------------------------------------------------------------------
      N    1      [core]2S( 1.37)2p( 4.39)3p( 0.01)
      C    2      [core]2S( 0.85)2p( 2.95)3p( 0.01)
      C    3      [core]2S( 0.95)2p( 3.37)3p( 0.01)
      C    4      [core]2S( 0.95)2p( 3.30)3p( 0.01)
      C    5      [core]2S( 0.89)2p( 3.10)3p( 0.01)
      C    6      [core]2S( 1.02)2p( 3.46)3p( 0.01)
      C    7      [core]2S( 0.89)2p( 3.10)3p( 0.01)
      C    8      [core]2S( 0.95)2p( 3.30)3p( 0.01)
      C    9      [core]2S( 0.95)2p( 3.37)3p( 0.01)
      C   10      [core]2S( 0.85)2p( 2.95)3p( 0.01)
      N   11      [core]2S( 1.37)2p( 4.39)3p( 0.01)
      C   12      [core]2S( 0.95)2p( 3.34)3p( 0.01)
      C   13      [core]2S( 0.95)2p( 3.34)3p( 0.01)
      C   14      [core]2S( 0.95)2p( 3.34)3p( 0.01)
      C   15      [core]2S( 0.95)2p( 3.34)3p( 0.01)
      H   16            1S( 0.58)
      H   17            1S( 0.58)
      H   18            1S( 0.76)
      H   19            1S( 0.76)
      H   20            1S( 0.74)
      H   21            1S( 0.74)
      H   22            1S( 0.76)
      H   23            1S( 0.76)
      H   24            1S( 0.58)
      H   25            1S( 0.58)
      H   26            1S( 0.76)
      H   27            1S( 0.76)
      H   28            1S( 0.76)
      H   29            1S( 0.76)


 NBO analysis skipped by request.
 1\1\GINC-DRG2-W012\SP\RB3LYP TD-FC\6-31G(d,p)\C13H14N2\QDUEZ\21-Jul-20
 24\0\\# TD(NStates=10, Root=1) B3LYP/6-31G** SCRF=(Solvent=water) volu
 me pop=NPA density=current Geom=AllCheck Guess=Read\\YBRVSVVVWCFQMG-UH
 FFFAOYSA-N_conf_1\\0,1\N,0,-4.9216986718,0.7396593918,-0.6881301554\C,
 0,-3.7209398946,0.2808638631,-0.1370681896\C,0,-2.8042064457,1.1778256
 512,0.444251915\C,0,-1.5816629693,0.7264586324,0.9318126272\C,0,-1.217
 9066785,-0.6274246729,0.8678938916\C,0,0.1143159694,-1.1117112885,1.41
 80041771\C,0,1.3353570279,-0.5147755321,0.7363148984\C,0,1.581621837,-
 0.7263363816,-0.6289688812\C,0,2.7032716433,-0.1965144351,-1.259247095
 \C,0,3.6325492222,0.5787409453,-0.5393193658\N,0,4.7255078862,1.168308
 4272,-1.1826202903\C,0,3.3930181246,0.7959474403,0.8274030338\C,0,2.26
 41304248,0.2562814131,1.4448252499\C,0,-2.1349258101,-1.5125114415,0.2
 892462399\C,0,-3.3642123725,-1.075793592,-0.2056972944\H,0,-5.65304273
 91,0.0411451284,-0.7361974395\H,0,-5.271467241,1.5957981542,-0.2761163
 26\H,0,-3.0584790467,2.2329403691,0.510597183\H,0,-0.8935945853,1.4434
 711242,1.37352539\H,0,0.1729815144,-0.8873307359,2.4905183846\H,0,0.14
 50536548,-2.205514109,1.3359918696\H,0,0.880783777,-1.3193889033,-1.21
 1866574\H,0,2.8679250629,-0.3803076504,-2.3182242633\H,0,5.5075197376,
 1.3742075878,-0.5733913942\H,0,5.0375896549,0.6784173229,-2.0118843045
 \H,0,4.095458984,1.3906453704,1.4061060221\H,0,2.1091172672,0.43628135
 2,2.5062098116\H,0,-1.8896236013,-2.5703548776,0.2279247687\H,0,-4.054
 4417326,-1.7890285535,-0.6493923519\\Version=ES64L-G16RevA.03\State=1-
 A\HF=-613.362074\RMSD=2.438e-09\Dipole=-0.0222375,0.2170017,-0.2472644
 \Quadrupole=25.7356557,-12.7147554,-13.0209004,0.1065456,-3.6224733,2.
 381392\PG=C01 [X(C13H14N2)]\\@


 LIFE CAN ONLY BE UNDERSTOOD BACKWARD, BUT MUST
 BE LIVED FORWARD. -- KIRKEGAARD
 Job cpu time:       0 days  0 hours 46 minutes 31.9 seconds.
 Elapsed time:       0 days  0 hours 16 minutes 26.2 seconds.
 File lengths (MBytes):  RWF=    731 Int=      0 D2E=      0 Chk=     46 Scr=      1
 Normal termination of Gaussian 16 at Sun Jul 21 12:45:15 2024.
