 Entering Gaussian System, Link 0=g16
 Initial command:
 /opt/sw/arch/manual/gaussian/G16_A03/g16/l1.exe "/scratch/1380960/Gau-182153.inp" -scrdir="/scratch/1380960/"
 Entering Link 1 = /opt/sw/arch/manual/gaussian/G16_A03/g16/l1.exe PID=    182154.
  
 Copyright (c) 1988,1990,1992,1993,1995,1998,2003,2009,2016,
            Gaussian, Inc.  All Rights Reserved.
  
 This is part of the Gaussian(R) 16 program.  It is based on
 the Gaussian(R) 09 system (copyright 2009, Gaussian, Inc.),
 the Gaussian(R) 03 system (copyright 2003, Gaussian, Inc.),
 the Gaussian(R) 98 system (copyright 1998, Gaussian, Inc.),
 the Gaussian(R) 94 system (copyright 1995, Gaussian, Inc.),
 the Gaussian 92(TM) system (copyright 1992, Gaussian, Inc.),
 the Gaussian 90(TM) system (copyright 1990, Gaussian, Inc.),
 the Gaussian 88(TM) system (copyright 1988, Gaussian, Inc.),
 the Gaussian 86(TM) system (copyright 1986, Carnegie Mellon
 University), and the Gaussian 82(TM) system (copyright 1983,
 Carnegie Mellon University). Gaussian is a federally registered
 trademark of Gaussian, Inc.
  
 This software contains proprietary and confidential information,
 including trade secrets, belonging to Gaussian, Inc.
  
 This software is provided under written license and may be
 used, copied, transmitted, or stored only in accord with that
 written license.
  
 The following legend is applicable only to US Government
 contracts under FAR:
  
                    RESTRICTED RIGHTS LEGEND
  
 Use, reproduction and disclosure by the US Government is
 subject to restrictions as set forth in subparagraphs (a)
 and (c) of the Commercial Computer Software - Restricted
 Rights clause in FAR 52.227-19.
  
 Gaussian, Inc.
 340 Quinnipiac St., Bldg. 40, Wallingford CT 06492
  
  
 ---------------------------------------------------------------
 Warning -- This program may not be used in any manner that
 competes with the business of Gaussian, Inc. or will provide
 assistance to any competitor of Gaussian, Inc.  The licensee
 of this program is prohibited from giving any competitor of
 Gaussian, Inc. access to this program.  By using this program,
 the user acknowledges that Gaussian, Inc. is engaged in the
 business of creating and licensing software in the field of
 computational chemistry and represents and warrants to the
 licensee that it is not a competitor of Gaussian, Inc. and that
 it will not use this program in any manner prohibited above.
 ---------------------------------------------------------------
  

 Cite this work as:
 Gaussian 16, Revision A.03,
 M. J. Frisch, G. W. Trucks, H. B. Schlegel, G. E. Scuseria, 
 M. A. Robb, J. R. Cheeseman, G. Scalmani, V. Barone, 
 G. A. Petersson, H. Nakatsuji, X. Li, M. Caricato, A. V. Marenich, 
 J. Bloino, B. G. Janesko, R. Gomperts, B. Mennucci, H. P. Hratchian, 
 J. V. Ortiz, A. F. Izmaylov, J. L. Sonnenberg, D. Williams-Young, 
 F. Ding, F. Lipparini, F. Egidi, J. Goings, B. Peng, A. Petrone, 
 T. Henderson, D. Ranasinghe, V. G. Zakrzewski, J. Gao, N. Rega, 
 G. Zheng, W. Liang, M. Hada, M. Ehara, K. Toyota, R. Fukuda, 
 J. Hasegawa, M. Ishida, T. Nakajima, Y. Honda, O. Kitao, H. Nakai, 
 T. Vreven, K. Throssell, J. A. Montgomery, Jr., J. E. Peralta, 
 F. Ogliaro, M. J. Bearpark, J. J. Heyd, E. N. Brothers, K. N. Kudin, 
 V. N. Staroverov, T. A. Keith, R. Kobayashi, J. Normand, 
 K. Raghavachari, A. P. Rendell, J. C. Burant, S. S. Iyengar, 
 J. Tomasi, M. Cossi, J. M. Millam, M. Klene, C. Adamo, R. Cammi, 
 J. W. Ochterski, R. L. Martin, K. Morokuma, O. Farkas, 
 J. B. Foresman, and D. J. Fox, Gaussian, Inc., Wallingford CT, 2016.
 
 ******************************************
 Gaussian 16:  ES64L-G16RevA.03 25-Dec-2016
                18-Jul-2024 
 ******************************************
 %nprocshared=4
 Will use up to    4 processors via shared memory.
 %mem=8GB
 %Chk=OXIKYYJDTWKERT-OCAPTIKFSA-N_conf_0_0.chk
 -------------------------------------------------------
 # opt=CalcFc B3LYP/6-31G** SCRF=(Solvent=water) scf=xqc
 -------------------------------------------------------
 1/10=4,18=20,19=15,26=3,38=1/1,3;
 2/9=110,12=2,17=6,18=5,40=1/2;
 3/5=1,6=6,7=101,11=2,25=1,30=1,70=2201,71=2,72=1,74=-5,140=1/1,2,3;
 4//1;
 5/5=2,8=3,13=1,38=5,53=1/2,8;
 8/6=4,10=90,11=11/1;
 11/6=1,8=1,9=11,15=111,16=1/1,2,10;
 10/6=1,13=1/2;
 6/7=2,8=2,9=2,10=2,28=1/1;
 7/10=1,18=20,25=1/1,2,3,16;
 1/10=4,18=20,19=15,26=3/3(2);
 2/9=110/2;
 99//99;
 2/9=110/2;
 3/5=1,6=6,7=101,11=2,25=1,30=1,70=2205,71=1,72=1,74=-5/1,2,3;
 4/5=5,16=3,69=1/1;
 5/5=2,8=3,13=1,38=5,53=1/2,8;
 7//1,2,3,16;
 1/18=20,19=15,26=3/3(-5);
 2/9=110/2;
 6/7=2,8=2,9=2,10=2,19=2,28=1/1;
 99/9=1/99;
 ----------------------------------
 OXIKYYJDTWKERT-OCAPTIKFSA-N_conf_0
 ----------------------------------
 Symbolic Z-matrix:
 Charge =  0 Multiplicity = 1
 N                     3.70761   0.66148   0.30905 
 C                     2.86893  -0.01422  -0.67613 
 C                     1.42637  -0.1908   -0.17277 
 C                     0.75125   1.16143   0.13595 
 C                    -0.77839   1.12699   0.0377 
 C                    -1.33836  -0.26507   0.34875 
 C                    -2.87344  -0.28655   0.46325 
 N                    -3.56206   0.10109  -0.76332 
 C                    -0.8113   -1.30029  -0.66385 
 C                     0.59557  -0.98679  -1.18569 
 H                     4.6653    0.70473  -0.03681 
 H                     3.73775   0.11138   1.16643 
 H                     2.87713   0.56389  -1.60711 
 H                     3.30734  -0.99402  -0.8978 
 H                     1.46236  -0.77537   0.75788 
 H                     1.12013   1.94555  -0.53715 
 H                     1.03738   1.47096   1.14934 
 H                    -1.06969   1.42722  -0.9769 
 H                    -1.19973   1.87686   0.7177 
 H                    -0.95679  -0.55264   1.33935 
 H                    -3.18784   0.38406   1.27143 
 H                    -3.19893  -1.29555   0.74114 
 H                    -3.33548   1.06715  -0.99503 
 H                    -4.56875   0.07839  -0.60534 
 H                    -0.80513  -2.28423  -0.17739 
 H                    -1.48016  -1.39743  -1.52692 
 H                     0.51199  -0.41183  -2.11748 
 H                     1.09694  -1.9264   -1.44717 
 

 GradGradGradGradGradGradGradGradGradGradGradGradGradGradGradGradGradGrad
 Berny optimization.
 Initialization pass.
                           ----------------------------
                           !    Initial Parameters    !
                           ! (Angstroms and Degrees)  !
 --------------------------                            --------------------------
 ! Name  Definition              Value          Derivative Info.                !
 --------------------------------------------------------------------------------
 ! R1    R(1,2)                  1.4596         calculate D2E/DX2 analytically  !
 ! R2    R(1,11)                 1.0191         calculate D2E/DX2 analytically  !
 ! R3    R(1,12)                 1.0191         calculate D2E/DX2 analytically  !
 ! R4    R(2,3)                  1.538          calculate D2E/DX2 analytically  !
 ! R5    R(2,13)                 1.0959         calculate D2E/DX2 analytically  !
 ! R6    R(2,14)                 1.0961         calculate D2E/DX2 analytically  !
 ! R7    R(3,4)                  1.5426         calculate D2E/DX2 analytically  !
 ! R8    R(3,10)                 1.5329         calculate D2E/DX2 analytically  !
 ! R9    R(3,15)                 1.0996         calculate D2E/DX2 analytically  !
 ! R10   R(4,5)                  1.5332         calculate D2E/DX2 analytically  !
 ! R11   R(4,16)                 1.0973         calculate D2E/DX2 analytically  !
 ! R12   R(4,17)                 1.0976         calculate D2E/DX2 analytically  !
 ! R13   R(5,6)                  1.5324         calculate D2E/DX2 analytically  !
 ! R14   R(5,18)                 1.0974         calculate D2E/DX2 analytically  !
 ! R15   R(5,19)                 1.0965         calculate D2E/DX2 analytically  !
 ! R16   R(6,7)                  1.5395         calculate D2E/DX2 analytically  !
 ! R17   R(6,9)                  1.541          calculate D2E/DX2 analytically  !
 ! R18   R(6,20)                 1.0998         calculate D2E/DX2 analytically  !
 ! R19   R(7,8)                  1.4591         calculate D2E/DX2 analytically  !
 ! R20   R(7,21)                 1.0962         calculate D2E/DX2 analytically  !
 ! R21   R(7,22)                 1.096          calculate D2E/DX2 analytically  !
 ! R22   R(8,23)                 1.019          calculate D2E/DX2 analytically  !
 ! R23   R(8,24)                 1.0193         calculate D2E/DX2 analytically  !
 ! R24   R(9,10)                 1.5329         calculate D2E/DX2 analytically  !
 ! R25   R(9,25)                 1.0976         calculate D2E/DX2 analytically  !
 ! R26   R(9,26)                 1.0962         calculate D2E/DX2 analytically  !
 ! R27   R(10,27)                1.0981         calculate D2E/DX2 analytically  !
 ! R28   R(10,28)                1.0966         calculate D2E/DX2 analytically  !
 ! A1    A(2,1,11)             109.3003         calculate D2E/DX2 analytically  !
 ! A2    A(2,1,12)             109.569          calculate D2E/DX2 analytically  !
 ! A3    A(11,1,12)            106.2969         calculate D2E/DX2 analytically  !
 ! A4    A(1,2,3)              111.7875         calculate D2E/DX2 analytically  !
 ! A5    A(1,2,13)             108.9575         calculate D2E/DX2 analytically  !
 ! A6    A(1,2,14)             108.6929         calculate D2E/DX2 analytically  !
 ! A7    A(3,2,13)             110.2192         calculate D2E/DX2 analytically  !
 ! A8    A(3,2,14)             109.7989         calculate D2E/DX2 analytically  !
 ! A9    A(13,2,14)            107.2639         calculate D2E/DX2 analytically  !
 ! A10   A(2,3,4)              112.0458         calculate D2E/DX2 analytically  !
 ! A11   A(2,3,10)             110.5905         calculate D2E/DX2 analytically  !
 ! A12   A(2,3,15)             107.8979         calculate D2E/DX2 analytically  !
 ! A13   A(4,3,10)             110.5015         calculate D2E/DX2 analytically  !
 ! A14   A(4,3,15)             108.1168         calculate D2E/DX2 analytically  !
 ! A15   A(10,3,15)            107.5141         calculate D2E/DX2 analytically  !
 ! A16   A(3,4,5)              113.8364         calculate D2E/DX2 analytically  !
 ! A17   A(3,4,16)             110.8868         calculate D2E/DX2 analytically  !
 ! A18   A(3,4,17)             108.5362         calculate D2E/DX2 analytically  !
 ! A19   A(5,4,16)             108.1886         calculate D2E/DX2 analytically  !
 ! A20   A(5,4,17)             109.0023         calculate D2E/DX2 analytically  !
 ! A21   A(16,4,17)            106.094          calculate D2E/DX2 analytically  !
 ! A22   A(4,5,6)              111.8378         calculate D2E/DX2 analytically  !
 ! A23   A(4,5,18)             108.5379         calculate D2E/DX2 analytically  !
 ! A24   A(4,5,19)             109.1646         calculate D2E/DX2 analytically  !
 ! A25   A(6,5,18)             109.8271         calculate D2E/DX2 analytically  !
 ! A26   A(6,5,19)             110.7909         calculate D2E/DX2 analytically  !
 ! A27   A(18,5,19)            106.5148         calculate D2E/DX2 analytically  !
 ! A28   A(5,6,7)              113.0884         calculate D2E/DX2 analytically  !
 ! A29   A(5,6,9)              110.603          calculate D2E/DX2 analytically  !
 ! A30   A(5,6,20)             107.0727         calculate D2E/DX2 analytically  !
 ! A31   A(7,6,9)              112.3667         calculate D2E/DX2 analytically  !
 ! A32   A(7,6,20)             105.9805         calculate D2E/DX2 analytically  !
 ! A33   A(9,6,20)             107.3092         calculate D2E/DX2 analytically  !
 ! A34   A(6,7,8)              113.8516         calculate D2E/DX2 analytically  !
 ! A35   A(6,7,21)             109.4074         calculate D2E/DX2 analytically  !
 ! A36   A(6,7,22)             109.137          calculate D2E/DX2 analytically  !
 ! A37   A(8,7,21)             108.7762         calculate D2E/DX2 analytically  !
 ! A38   A(8,7,22)             108.5151         calculate D2E/DX2 analytically  !
 ! A39   A(21,7,22)            106.9224         calculate D2E/DX2 analytically  !
 ! A40   A(7,8,23)             109.7606         calculate D2E/DX2 analytically  !
 ! A41   A(7,8,24)             109.2639         calculate D2E/DX2 analytically  !
 ! A42   A(23,8,24)            106.0205         calculate D2E/DX2 analytically  !
 ! A43   A(6,9,10)             113.59           calculate D2E/DX2 analytically  !
 ! A44   A(6,9,25)             108.2335         calculate D2E/DX2 analytically  !
 ! A45   A(6,9,26)             111.6038         calculate D2E/DX2 analytically  !
 ! A46   A(10,9,25)            109.21           calculate D2E/DX2 analytically  !
 ! A47   A(10,9,26)            108.0639         calculate D2E/DX2 analytically  !
 ! A48   A(25,9,26)            105.8381         calculate D2E/DX2 analytically  !
 ! A49   A(3,10,9)             112.2504         calculate D2E/DX2 analytically  !
 ! A50   A(3,10,27)            109.2733         calculate D2E/DX2 analytically  !
 ! A51   A(3,10,28)            110.7743         calculate D2E/DX2 analytically  !
 ! A52   A(9,10,27)            109.0319         calculate D2E/DX2 analytically  !
 ! A53   A(9,10,28)            108.9975         calculate D2E/DX2 analytically  !
 ! A54   A(27,10,28)           106.3257         calculate D2E/DX2 analytically  !
 ! D1    D(11,1,2,3)           176.377          calculate D2E/DX2 analytically  !
 ! D2    D(11,1,2,13)          -61.5602         calculate D2E/DX2 analytically  !
 ! D3    D(11,1,2,14)           55.0224         calculate D2E/DX2 analytically  !
 ! D4    D(12,1,2,3)            60.2707         calculate D2E/DX2 analytically  !
 ! D5    D(12,1,2,13)         -177.6665         calculate D2E/DX2 analytically  !
 ! D6    D(12,1,2,14)          -61.0839         calculate D2E/DX2 analytically  !
 ! D7    D(1,2,3,4)             60.1238         calculate D2E/DX2 analytically  !
 ! D8    D(1,2,3,10)          -176.1117         calculate D2E/DX2 analytically  !
 ! D9    D(1,2,3,15)           -58.7791         calculate D2E/DX2 analytically  !
 ! D10   D(13,2,3,4)           -61.2121         calculate D2E/DX2 analytically  !
 ! D11   D(13,2,3,10)           62.5525         calculate D2E/DX2 analytically  !
 ! D12   D(13,2,3,15)          179.8851         calculate D2E/DX2 analytically  !
 ! D13   D(14,2,3,4)          -179.1635         calculate D2E/DX2 analytically  !
 ! D14   D(14,2,3,10)          -55.3989         calculate D2E/DX2 analytically  !
 ! D15   D(14,2,3,15)           61.9337         calculate D2E/DX2 analytically  !
 ! D16   D(2,3,4,5)            154.57           calculate D2E/DX2 analytically  !
 ! D17   D(2,3,4,16)            32.3041         calculate D2E/DX2 analytically  !
 ! D18   D(2,3,4,17)           -83.857          calculate D2E/DX2 analytically  !
 ! D19   D(10,3,4,5)            30.7555         calculate D2E/DX2 analytically  !
 ! D20   D(10,3,4,16)          -91.5104         calculate D2E/DX2 analytically  !
 ! D21   D(10,3,4,17)          152.3286         calculate D2E/DX2 analytically  !
 ! D22   D(15,3,4,5)           -86.6564         calculate D2E/DX2 analytically  !
 ! D23   D(15,3,4,16)          151.0777         calculate D2E/DX2 analytically  !
 ! D24   D(15,3,4,17)           34.9166         calculate D2E/DX2 analytically  !
 ! D25   D(2,3,10,9)           174.5661         calculate D2E/DX2 analytically  !
 ! D26   D(2,3,10,27)          -64.3491         calculate D2E/DX2 analytically  !
 ! D27   D(2,3,10,28)           52.4678         calculate D2E/DX2 analytically  !
 ! D28   D(4,3,10,9)           -60.7848         calculate D2E/DX2 analytically  !
 ! D29   D(4,3,10,27)           60.3            calculate D2E/DX2 analytically  !
 ! D30   D(4,3,10,28)          177.1169         calculate D2E/DX2 analytically  !
 ! D31   D(15,3,10,9)           56.9977         calculate D2E/DX2 analytically  !
 ! D32   D(15,3,10,27)         178.0824         calculate D2E/DX2 analytically  !
 ! D33   D(15,3,10,28)         -65.1007         calculate D2E/DX2 analytically  !
 ! D34   D(3,4,5,6)             28.5109         calculate D2E/DX2 analytically  !
 ! D35   D(3,4,5,18)           -92.8067         calculate D2E/DX2 analytically  !
 ! D36   D(3,4,5,19)           151.4746         calculate D2E/DX2 analytically  !
 ! D37   D(16,4,5,6)           152.2512         calculate D2E/DX2 analytically  !
 ! D38   D(16,4,5,18)           30.9336         calculate D2E/DX2 analytically  !
 ! D39   D(16,4,5,19)          -84.785          calculate D2E/DX2 analytically  !
 ! D40   D(17,4,5,6)           -92.8031         calculate D2E/DX2 analytically  !
 ! D41   D(17,4,5,18)          145.8793         calculate D2E/DX2 analytically  !
 ! D42   D(17,4,5,19)           30.1607         calculate D2E/DX2 analytically  !
 ! D43   D(4,5,6,7)            171.4977         calculate D2E/DX2 analytically  !
 ! D44   D(4,5,6,9)            -61.4753         calculate D2E/DX2 analytically  !
 ! D45   D(4,5,6,20)            55.1381         calculate D2E/DX2 analytically  !
 ! D46   D(18,5,6,7)           -67.933          calculate D2E/DX2 analytically  !
 ! D47   D(18,5,6,9)            59.0941         calculate D2E/DX2 analytically  !
 ! D48   D(18,5,6,20)          175.7075         calculate D2E/DX2 analytically  !
 ! D49   D(19,5,6,7)            49.4619         calculate D2E/DX2 analytically  !
 ! D50   D(19,5,6,9)           176.489          calculate D2E/DX2 analytically  !
 ! D51   D(19,5,6,20)          -66.8976         calculate D2E/DX2 analytically  !
 ! D52   D(5,6,7,8)             61.7597         calculate D2E/DX2 analytically  !
 ! D53   D(5,6,7,21)           -60.171          calculate D2E/DX2 analytically  !
 ! D54   D(5,6,7,22)          -176.8451         calculate D2E/DX2 analytically  !
 ! D55   D(9,6,7,8)            -64.3312         calculate D2E/DX2 analytically  !
 ! D56   D(9,6,7,21)           173.7381         calculate D2E/DX2 analytically  !
 ! D57   D(9,6,7,22)            57.0641         calculate D2E/DX2 analytically  !
 ! D58   D(20,6,7,8)           178.7641         calculate D2E/DX2 analytically  !
 ! D59   D(20,6,7,21)           56.8334         calculate D2E/DX2 analytically  !
 ! D60   D(20,6,7,22)          -59.8407         calculate D2E/DX2 analytically  !
 ! D61   D(5,6,9,10)            31.5414         calculate D2E/DX2 analytically  !
 ! D62   D(5,6,9,25)           152.9993         calculate D2E/DX2 analytically  !
 ! D63   D(5,6,9,26)           -90.9278         calculate D2E/DX2 analytically  !
 ! D64   D(7,6,9,10)           158.9664         calculate D2E/DX2 analytically  !
 ! D65   D(7,6,9,25)           -79.5757         calculate D2E/DX2 analytically  !
 ! D66   D(7,6,9,26)            36.4972         calculate D2E/DX2 analytically  !
 ! D67   D(20,6,9,10)          -84.9254         calculate D2E/DX2 analytically  !
 ! D68   D(20,6,9,25)           36.5325         calculate D2E/DX2 analytically  !
 ! D69   D(20,6,9,26)          152.6054         calculate D2E/DX2 analytically  !
 ! D70   D(6,7,8,23)           -63.1633         calculate D2E/DX2 analytically  !
 ! D71   D(6,7,8,24)          -179.0247         calculate D2E/DX2 analytically  !
 ! D72   D(21,7,8,23)           59.1156         calculate D2E/DX2 analytically  !
 ! D73   D(21,7,8,24)          -56.7458         calculate D2E/DX2 analytically  !
 ! D74   D(22,7,8,23)          175.0963         calculate D2E/DX2 analytically  !
 ! D75   D(22,7,8,24)           59.235          calculate D2E/DX2 analytically  !
 ! D76   D(6,9,10,3)            27.9605         calculate D2E/DX2 analytically  !
 ! D77   D(6,9,10,27)          -93.2629         calculate D2E/DX2 analytically  !
 ! D78   D(6,9,10,28)          151.0638         calculate D2E/DX2 analytically  !
 ! D79   D(25,9,10,3)          -92.9507         calculate D2E/DX2 analytically  !
 ! D80   D(25,9,10,27)         145.8259         calculate D2E/DX2 analytically  !
 ! D81   D(25,9,10,28)          30.1526         calculate D2E/DX2 analytically  !
 ! D82   D(26,9,10,3)          152.3638         calculate D2E/DX2 analytically  !
 ! D83   D(26,9,10,27)          31.1404         calculate D2E/DX2 analytically  !
 ! D84   D(26,9,10,28)         -84.5329         calculate D2E/DX2 analytically  !
 --------------------------------------------------------------------------------
 Trust Radius=3.00D-01 FncErr=1.00D-07 GrdErr=1.00D-06 EigMax=2.50D+02 EigMin=1.00D-04
 Number of steps in this run=    168 maximum allowed number of steps=    168.
 GradGradGradGradGradGradGradGradGradGradGradGradGradGradGradGradGradGrad

                          Input orientation:                          
 ---------------------------------------------------------------------
 Center     Atomic      Atomic             Coordinates (Angstroms)
 Number     Number       Type             X           Y           Z
 ---------------------------------------------------------------------
      1          7           0        3.707607    0.661484    0.309050
      2          6           0        2.868926   -0.014220   -0.676134
      3          6           0        1.426369   -0.190795   -0.172772
      4          6           0        0.751249    1.161429    0.135955
      5          6           0       -0.778388    1.126993    0.037696
      6          6           0       -1.338361   -0.265069    0.348752
      7          6           0       -2.873437   -0.286545    0.463254
      8          7           0       -3.562058    0.101093   -0.763318
      9          6           0       -0.811303   -1.300288   -0.663849
     10          6           0        0.595571   -0.986786   -1.185692
     11          1           0        4.665297    0.704730   -0.036815
     12          1           0        3.737750    0.111376    1.166432
     13          1           0        2.877133    0.563893   -1.607108
     14          1           0        3.307337   -0.994020   -0.897797
     15          1           0        1.462365   -0.775371    0.757885
     16          1           0        1.120133    1.945552   -0.537148
     17          1           0        1.037383    1.470960    1.149340
     18          1           0       -1.069694    1.427218   -0.976896
     19          1           0       -1.199733    1.876857    0.717696
     20          1           0       -0.956788   -0.552644    1.339353
     21          1           0       -3.187841    0.384060    1.271434
     22          1           0       -3.198934   -1.295552    0.741139
     23          1           0       -3.335476    1.067149   -0.995029
     24          1           0       -4.568749    0.078393   -0.605338
     25          1           0       -0.805127   -2.284228   -0.177392
     26          1           0       -1.480161   -1.397434   -1.526923
     27          1           0        0.511993   -0.411833   -2.117475
     28          1           0        1.096936   -1.926402   -1.447172
 ---------------------------------------------------------------------
                    Distance matrix (angstroms):
                    1          2          3          4          5
     1  N    0.000000
     2  C    1.459641   0.000000
     3  C    2.482454   1.538025   0.000000
     4  C    3.003325   2.554642   1.542599   0.000000
     5  C    4.518239   3.887779   2.577173   1.533177   0.000000
     6  C    5.130484   4.337577   2.814469   2.539025   1.532372
     7  C    6.650764   5.860639   4.347646   3.916899   2.562892
     8  N    7.369670   6.432609   5.031734   4.531845   3.072932
     9  C    5.021516   3.898487   2.545448   3.023459   2.526844
    10  C    3.825678   2.524614   1.532916   2.527016   2.802232
    11  H    1.019149   2.037785   3.363199   3.944388   5.460547
    12  H    1.019133   2.040999   2.688356   3.329217   4.764560
    13  H    2.090663   1.095899   2.175222   2.813308   4.047876
    14  H    2.087436   1.096059   2.169993   3.499741   4.697552
    15  H    2.703168   2.148063   1.099612   2.154919   3.026324
    16  H    3.009967   2.630267   2.188728   1.097265   2.145895
    17  H    2.914007   2.982058   2.158871   1.097557   2.156639
    18  H    5.006256   4.204869   3.081381   2.150560   1.097446
    19  H    5.072091   4.698183   3.458978   2.157914   1.096461
    20  H    4.928713   4.357542   2.845504   2.702518   2.132444
    21  H    6.967808   6.374643   4.868996   4.172535   2.807049
    22  H    7.191453   6.361556   4.842432   4.691156   3.496083
    23  H    7.174273   6.306001   4.993365   4.241383   2.758405
    24  H    8.347105   7.438588   6.016728   5.479494   3.984957
    25  H    5.410971   4.347452   3.059747   3.793816   3.418100
    26  H    5.875617   4.642379   3.426021   3.780493   3.051761
    27  H    4.153550   2.791181   2.160280   2.758685   2.945816
    28  H    4.073951   2.718618   2.178291   3.487190   3.878775
                    6          7          8          9         10
     6  C    0.000000
     7  C    1.539490   0.000000
     8  N    2.513087   1.459090   0.000000
     9  C    1.541048   2.559381   3.088757   0.000000
    10  C    2.572058   3.904276   4.318305   1.532937   0.000000
    11  H    6.093692   7.620052   8.281399   5.865698   4.554538
    12  H    5.155309   6.660374   7.550579   5.102607   4.075749
    13  H    4.720483   6.170794   6.510711   4.239041   2.790649
    14  H    4.864953   6.368276   6.957439   4.136632   2.727015
    15  H    2.876084   4.373206   5.322319   2.732477   2.138579
    16  H    3.422844   4.683125   5.037469   3.779150   3.048668
    17  H    3.049409   4.342124   5.166203   3.792770   3.418784
    18  H    2.166416   2.874805   2.831272   2.757544   2.940087
    19  H    2.177885   2.747058   3.305650   3.486229   3.878975
    20  H    1.099812   2.124123   3.411163   2.143119   2.995688
    21  H    2.166400   1.096228   2.088140   3.497182   4.714965
    22  H    2.162775   1.096022   2.084675   2.770342   4.266882
    23  H    2.751186   2.042684   1.018967   3.476476   4.439383
    24  H    3.385803   2.036947   1.019264   4.002822   5.304867
    25  H    2.153641   2.946026   3.692389   1.097642   2.159162
    26  H    2.195567   2.671347   2.676373   1.096223   2.143300
    27  H    3.086686   4.258755   4.323740   2.157196   1.098078
    28  H    3.451962   4.701353   5.126853   2.155688   1.096640
                   11         12         13         14         15
    11  H    0.000000
    12  H    1.631016   0.000000
    13  H    2.383943   2.939040   0.000000
    14  H    2.339037   2.380797   1.765018   0.000000
    15  H    3.616769   2.476006   3.064048   2.488576   0.000000
    16  H    3.789217   3.621920   2.478074   3.681713   3.032763
    17  H    3.893050   3.023367   3.435908   3.926778   2.319450
    18  H    5.856267   5.425569   4.089002   5.002704   3.777854
    19  H    6.028412   5.262797   4.873339   5.582601   3.758017
    20  H    5.923062   4.744419   4.962584   4.835537   2.498002
    21  H    7.967818   6.931753   6.715822   6.985127   4.820003
    22  H    8.151838   7.090691   6.774245   6.716293   4.690264
    23  H    8.066095   7.457609   6.262940   6.955921   5.430180
    24  H    9.272708   8.493420   7.528640   7.954139   6.241924
    25  H    6.235316   5.308720   4.869796   4.369895   2.879742
    26  H    6.663796   6.062777   4.779042   4.845481   3.777005
    27  H    4.777634   4.632850   2.608908   3.104916   3.050092
    28  H    4.652436   4.237612   3.065330   2.461102   2.514098
                   16         17         18         19         20
    16  H    0.000000
    17  H    1.753946   0.000000
    18  H    2.292899   2.993754   0.000000
    19  H    2.638396   2.314251   1.758046   0.000000
    20  H    3.751778   2.847419   3.049198   2.519514   0.000000
    21  H    4.926243   4.364490   3.260324   2.547085   2.420666
    22  H    5.549154   5.076081   3.859894   3.749871   2.436594
    23  H    4.564394   4.887051   2.294286   2.854899   3.705567
    24  H    5.987846   6.037122   3.768391   4.041677   4.150457
    25  H    4.661232   4.388222   3.805789   4.274520   2.306925
    26  H    4.349338   4.661340   2.906831   3.979690   3.033666
    27  H    2.902504   3.806970   2.680440   4.025705   3.758564
    28  H    3.977526   4.276388   4.020225   4.942279   3.724207
                   21         22         23         24         25
    21  H    0.000000
    22  H    1.761372   0.000000
    23  H    2.371764   2.935180   0.000000
    24  H    2.350024   2.361593   1.628023   0.000000
    25  H    3.859558   2.747998   4.278192   4.464299   0.000000
    26  H    3.731044   2.847572   3.130379   3.544962   1.750231
    27  H    5.080052   4.766930   4.272036   5.323610   3.000765
    28  H    5.575695   4.862219   5.367686   6.068598   2.314784
                   26         27         28
    26  H    0.000000
    27  H    2.299748   0.000000
    28  H    2.632033   1.756527   0.000000
 Stoichiometry    C8H18N2
 Framework group  C1[X(C8H18N2)]
 Deg. of freedom    78
 Full point group                 C1      NOp   1
 Largest Abelian subgroup         C1      NOp   1
 Largest concise Abelian subgroup C1      NOp   1
                         Standard orientation:                         
 ---------------------------------------------------------------------
 Center     Atomic      Atomic             Coordinates (Angstroms)
 Number     Number       Type             X           Y           Z
 ---------------------------------------------------------------------
      1          7           0       -3.741586   -0.607749    0.264617
      2          6           0       -2.859962    0.405314   -0.307216
      3          6           0       -1.409371    0.238107    0.175846
      4          6           0       -0.823867   -1.134762   -0.214060
      5          6           0        0.704848   -1.145948   -0.330405
      6          6           0        1.353926   -0.103710    0.586439
      7          6           0        2.887058   -0.227675    0.650998
      8          7           0        3.549974   -0.024934   -0.632896
      9          6           0        0.896106    1.316711    0.202207
     10          6           0       -0.527768    1.370416   -0.363120
     11          1           0       -4.699789   -0.426231   -0.031289
     12          1           0       -3.736561   -0.530355    1.280794
     13          1           0       -2.905020    0.340505   -1.400269
     14          1           0       -3.233548    1.396180   -0.024438
     15          1           0       -1.408002    0.311286    1.273020
     16          1           0       -1.242438   -1.482199   -1.166991
     17          1           0       -1.130321   -1.871537    0.539518
     18          1           0        0.976807   -0.944285   -1.374320
     19          1           0        1.075999   -2.151704   -0.100339
     20          1           0        0.991087   -0.299883    1.605973
     21          1           0        3.156549   -1.218580    1.034663
     22          1           0        3.277271    0.507492    1.364109
     23          1           0        3.261223   -0.750024   -1.287999
     24          1           0        4.555885   -0.138047   -0.513535
     25          1           0        0.953554    1.949876    1.096980
     26          1           0        1.570544    1.773544   -0.531375
     27          1           0       -0.481030    1.303480   -1.458159
     28          1           0       -0.966757    2.348545   -0.132530
 ---------------------------------------------------------------------
 Rotational constants (GHZ):           3.2607795           0.6275799           0.5757244
 Standard basis: 6-31G(d,p) (6D, 7F)
 There are   240 symmetry adapted cartesian basis functions of A   symmetry.
 There are   240 symmetry adapted basis functions of A   symmetry.
   240 basis functions,   406 primitive gaussians,   240 cartesian basis functions
    40 alpha electrons       40 beta electrons
       nuclear repulsion energy       577.0820953326 Hartrees.
 NAtoms=   28 NActive=   28 NUniq=   28 SFac= 1.00D+00 NAtFMM=   60 NAOKFM=F Big=F
 Integral buffers will be    131072 words long.
 Raffenetti 2 integral format.
 Two-electron integral symmetry is turned on.
 Force inversion solution in PCM.
 ------------------------------------------------------------------------------
 Polarizable Continuum Model (PCM)
 =================================
 Model                : PCM.
 Atomic radii         : UFF (Universal Force Field).
 Polarization charges : Total charges.
 Charge compensation  : None.
 Solution method      : Matrix inversion.
 Cavity type          : Scaled VdW (van der Waals Surface) (Alpha=1.100).
 Cavity algorithm     : GePol (No added spheres)
                        Default sphere list used, NSphG=   28.
                        Lebedev-Laikov grids with approx.  5.0 points / Ang**2.
                        Smoothing algorithm: York/Karplus (Gamma=1.0000).
                        Polarization charges: spherical gaussians, with
                                              point-specific exponents (IZeta= 3).
                        Self-potential: point-specific (ISelfS= 7).
                        Self-field    : sphere-specific E.n sum rule (ISelfD= 2).
 1st derivatives      : Analytical E(r).r(x)/FMM algorithm (CHGder, D1EAlg=3).
                        Cavity 1st derivative terms included.
 2nd derivatives      : Analytical E(r).r(xy)/FMM algorithm (CHGder, D2EAlg=3).
                        Cavity 2nd derivative terms included.
 Solvent              : Water, Eps=  78.355300 Eps(inf)=   1.777849
 ------------------------------------------------------------------------------
 One-electron integrals computed using PRISM.
 NBasis=   240 RedAO= T EigKep=  1.74D-03  NBF=   240
 NBsUse=   240 1.00D-06 EigRej= -1.00D+00 NBFU=   240
 ExpMin= 1.61D-01 ExpMax= 4.17D+03 ExpMxC= 6.27D+02 IAcc=3 IRadAn=         5 AccDes= 0.00D+00
 Harris functional with IExCor=  402 and IRadAn=       5 diagonalized for initial guess.
 HarFok:  IExCor=  402 AccDes= 0.00D+00 IRadAn=         5 IDoV= 1 UseB2=F ITyADJ=14
 ICtDFT=  3500011 ScaDFX=  1.000000  1.000000  1.000000  1.000000
 FoFCou: FMM=F IPFlag=           0 FMFlag=      100000 FMFlg1=           0
         NFxFlg=           0 DoJE=T BraDBF=F KetDBF=T FulRan=T
         wScrn=  0.000000 ICntrl=       500 IOpCl=  0 I1Cent=   200000004 NGrid=           0
         NMat0=    1 NMatS0=      1 NMatT0=    0 NMatD0=    1 NMtDS0=    0 NMtDT0=    0
 Petite list used in FoFCou.
 Keep R1 ints in memory in canonical form, NReq=425198025.
 Requested convergence on RMS density matrix=1.00D-08 within  32 cycles.
 Requested convergence on MAX density matrix=1.00D-06.
 Requested convergence on             energy=1.00D-06.
 No special actions if energy rises.
 Inv3:  Mode=1 IEnd=     9730803.
 Iteration    1 A*A^-1 deviation from unit magnitude is 4.44D-15 for   1266.
 Iteration    1 A*A^-1 deviation from orthogonality  is 1.82D-15 for   1463     66.
 Iteration    1 A^-1*A deviation from unit magnitude is 4.44D-15 for   1266.
 Iteration    1 A^-1*A deviation from orthogonality  is 2.01D-15 for    548     92.
 Error on total polarization charges =  0.00940
 SCF Done:  E(RB3LYP) =  -425.214316041     A.U. after   11 cycles
            NFock= 11  Conv=0.35D-08     -V/T= 2.0096
 QCSCF skips out because SCF is already converged.
 DoSCS=F DFT=T ScalE2(SS,OS)=  1.000000  1.000000
 Range of M.O.s used for correlation:     1   240
 NBasis=   240 NAE=    40 NBE=    40 NFC=     0 NFV=     0
 NROrb=    240 NOA=    40 NOB=    40 NVA=   200 NVB=   200
 Symmetrizing basis deriv contribution to polar:
 IMax=3 JMax=2 DiffMx= 0.00D+00
 G2DrvN: will do    29 centers at a time, making    1 passes.
 Calling FoFCou, ICntrl=  3107 FMM=F I1Cent=   0 AccDes= 0.00D+00.
 NEqPCM:  Using equilibrium solvation (IEInf=0, Eps=  78.3553, EpsInf=   1.7778)
 G2PCM: DoFxE=T DoFxN=T DoGrad=T DoDP/DQ/DG/TGxP=FFFF NFrqRd=   0 IEInf=0 SqF1=F DoCFld=F IF1Alg=4.
 End of G2Drv F.D. properties file   721 does not exist.
 End of G2Drv F.D. properties file   722 does not exist.
 End of G2Drv F.D. properties file   788 does not exist.
          IDoAtm=1111111111111111111111111111
 NEqPCM:  Using equilibrium solvation (IEInf=0, Eps=  78.3553, EpsInf=   1.7778)
          Differentiating once with respect to nuclear coordinates.
 Keep R1 ints in memory in canonical form, NReq=426904207.
          There are    87 degrees of freedom in the 1st order CPHF.  IDoFFX=6 NUNeed=     0.
     81 vectors produced by pass  0 Test12= 9.20D-15 1.15D-09 XBig12= 7.84D-02 6.94D-02.
 AX will form    81 AO Fock derivatives at one time.
     81 vectors produced by pass  1 Test12= 9.20D-15 1.15D-09 XBig12= 5.63D-03 1.39D-02.
     81 vectors produced by pass  2 Test12= 9.20D-15 1.15D-09 XBig12= 8.51D-05 1.09D-03.
     81 vectors produced by pass  3 Test12= 9.20D-15 1.15D-09 XBig12= 2.93D-07 5.33D-05.
     81 vectors produced by pass  4 Test12= 9.20D-15 1.15D-09 XBig12= 2.20D-10 1.23D-06.
     31 vectors produced by pass  5 Test12= 9.20D-15 1.15D-09 XBig12= 1.43D-13 3.85D-08.
      1 vectors produced by pass  6 Test12= 9.20D-15 1.15D-09 XBig12= 1.08D-16 1.23D-09.
 InvSVY:  IOpt=1 It=  1 EMax= 2.22D-16
 Solved reduced A of dimension   437 with    87 vectors.
 End of Minotr F.D. properties file   721 does not exist.
 End of Minotr F.D. properties file   722 does not exist.
 End of Minotr F.D. properties file   788 does not exist.

 **********************************************************************

            Population analysis using the SCF density.

 **********************************************************************

 Orbital symmetries:
       Occupied  (A) (A) (A) (A) (A) (A) (A) (A) (A) (A) (A) (A)
                 (A) (A) (A) (A) (A) (A) (A) (A) (A) (A) (A) (A)
                 (A) (A) (A) (A) (A) (A) (A) (A) (A) (A) (A) (A)
                 (A) (A) (A) (A)
       Virtual   (A) (A) (A) (A) (A) (A) (A) (A) (A) (A) (A) (A)
                 (A) (A) (A) (A) (A) (A) (A) (A) (A) (A) (A) (A)
                 (A) (A) (A) (A) (A) (A) (A) (A) (A) (A) (A) (A)
                 (A) (A) (A) (A) (A) (A) (A) (A) (A) (A) (A) (A)
                 (A) (A) (A) (A) (A) (A) (A) (A) (A) (A) (A) (A)
                 (A) (A) (A) (A) (A) (A) (A) (A) (A) (A) (A) (A)
                 (A) (A) (A) (A) (A) (A) (A) (A) (A) (A) (A) (A)
                 (A) (A) (A) (A) (A) (A) (A) (A) (A) (A) (A) (A)
                 (A) (A) (A) (A) (A) (A) (A) (A) (A) (A) (A) (A)
                 (A) (A) (A) (A) (A) (A) (A) (A) (A) (A) (A) (A)
                 (A) (A) (A) (A) (A) (A) (A) (A) (A) (A) (A) (A)
                 (A) (A) (A) (A) (A) (A) (A) (A) (A) (A) (A) (A)
                 (A) (A) (A) (A) (A) (A) (A) (A) (A) (A) (A) (A)
                 (A) (A) (A) (A) (A) (A) (A) (A) (A) (A) (A) (A)
                 (A) (A) (A) (A) (A) (A) (A) (A) (A) (A) (A) (A)
                 (A) (A) (A) (A) (A) (A) (A) (A) (A) (A) (A) (A)
                 (A) (A) (A) (A) (A) (A) (A) (A)
 The electronic state is 1-A.
 Alpha  occ. eigenvalues --  -14.30483 -14.30386 -10.19663 -10.19612 -10.17747
 Alpha  occ. eigenvalues --  -10.17736 -10.17014 -10.16970 -10.16881 -10.16671
 Alpha  occ. eigenvalues --   -0.87619  -0.87338  -0.81869  -0.74744  -0.73120
 Alpha  occ. eigenvalues --   -0.66945  -0.61767  -0.60280  -0.57375  -0.51547
 Alpha  occ. eigenvalues --   -0.48993  -0.48087  -0.46409  -0.44533  -0.43884
 Alpha  occ. eigenvalues --   -0.42723  -0.41714  -0.40300  -0.39101  -0.36583
 Alpha  occ. eigenvalues --   -0.36277  -0.34375  -0.34154  -0.33739  -0.33077
 Alpha  occ. eigenvalues --   -0.29154  -0.28788  -0.28607  -0.22763  -0.22692
 Alpha virt. eigenvalues --    0.07735   0.08539   0.10199   0.10832   0.12924
 Alpha virt. eigenvalues --    0.13684   0.15003   0.15403   0.15943   0.16339
 Alpha virt. eigenvalues --    0.17260   0.17903   0.18464   0.18765   0.20345
 Alpha virt. eigenvalues --    0.20727   0.21261   0.22105   0.23224   0.24309
 Alpha virt. eigenvalues --    0.24545   0.27005   0.27345   0.28199   0.30083
 Alpha virt. eigenvalues --    0.31380   0.33326   0.34783   0.51151   0.52001
 Alpha virt. eigenvalues --    0.53784   0.53935   0.54676   0.56914   0.57364
 Alpha virt. eigenvalues --    0.60723   0.61447   0.63109   0.65184   0.66078
 Alpha virt. eigenvalues --    0.66816   0.68706   0.71206   0.71651   0.72633
 Alpha virt. eigenvalues --    0.73601   0.74041   0.74737   0.75667   0.79288
 Alpha virt. eigenvalues --    0.80094   0.80798   0.82534   0.83385   0.84981
 Alpha virt. eigenvalues --    0.86264   0.87604   0.88334   0.88519   0.88818
 Alpha virt. eigenvalues --    0.90169   0.90908   0.91906   0.92431   0.92845
 Alpha virt. eigenvalues --    0.94059   0.95048   0.95208   0.95406   0.96908
 Alpha virt. eigenvalues --    0.98247   1.00206   1.04692   1.06881   1.08538
 Alpha virt. eigenvalues --    1.13262   1.18046   1.23671   1.27337   1.29228
 Alpha virt. eigenvalues --    1.32596   1.36634   1.41408   1.42123   1.44475
 Alpha virt. eigenvalues --    1.48943   1.51482   1.56103   1.57357   1.59394
 Alpha virt. eigenvalues --    1.60609   1.63006   1.66883   1.71248   1.73996
 Alpha virt. eigenvalues --    1.76486   1.78295   1.79029   1.83008   1.83592
 Alpha virt. eigenvalues --    1.84212   1.86020   1.87373   1.88433   1.90284
 Alpha virt. eigenvalues --    1.92009   1.94928   1.95451   1.95719   1.97998
 Alpha virt. eigenvalues --    2.00322   2.02468   2.04564   2.07636   2.08549
 Alpha virt. eigenvalues --    2.09368   2.11812   2.12976   2.13438   2.14637
 Alpha virt. eigenvalues --    2.19986   2.21792   2.22937   2.25096   2.25620
 Alpha virt. eigenvalues --    2.26078   2.28411   2.29064   2.31180   2.31653
 Alpha virt. eigenvalues --    2.32194   2.34107   2.36512   2.38471   2.39450
 Alpha virt. eigenvalues --    2.41005   2.43987   2.45234   2.45619   2.49123
 Alpha virt. eigenvalues --    2.50917   2.52935   2.53849   2.57792   2.58044
 Alpha virt. eigenvalues --    2.60393   2.62203   2.62832   2.64155   2.65189
 Alpha virt. eigenvalues --    2.69810   2.70837   2.71821   2.75045   2.75813
 Alpha virt. eigenvalues --    2.77305   2.80335   2.81442   2.81700   2.83670
 Alpha virt. eigenvalues --    2.86729   2.87686   2.89582   2.90518   2.91266
 Alpha virt. eigenvalues --    2.94945   2.96362   2.97616   2.98591   2.98712
 Alpha virt. eigenvalues --    3.00583   3.06798   3.21773   3.27535   3.28753
 Alpha virt. eigenvalues --    3.30548   3.31794   3.32147   3.34279   3.36463
 Alpha virt. eigenvalues --    3.39900   3.42204   3.46497   3.47066   3.49812
 Alpha virt. eigenvalues --    3.51714   3.52587   3.55546   3.57260   3.58645
 Alpha virt. eigenvalues --    4.00461   4.04868   4.28868   4.46871   4.48000
 Alpha virt. eigenvalues --    4.53563   4.60114   4.68377   4.73701   4.92984
          Condensed to atoms (all electrons):
               1          2          3          4          5          6
     1  N    6.823225   0.285710  -0.052416   0.003574   0.000300  -0.000003
     2  C    0.285710   4.820904   0.378611  -0.042171   0.004348   0.000197
     3  C   -0.052416   0.378611   4.909660   0.368229  -0.051253  -0.007532
     4  C    0.003574  -0.042171   0.368229   4.947491   0.354538  -0.033680
     5  C    0.000300   0.004348  -0.051253   0.354538   4.969542   0.387087
     6  C   -0.000003   0.000197  -0.007532  -0.033680   0.387087   4.895663
     7  C    0.000000  -0.000007   0.000195   0.004453  -0.038444   0.372419
     8  N   -0.000000   0.000000  -0.000009   0.000100  -0.005951  -0.050909
     9  C   -0.000102   0.004202  -0.035728  -0.019223  -0.051355   0.371466
    10  C    0.003372  -0.036848   0.380256  -0.045110  -0.005398  -0.048380
    11  H    0.338065  -0.032425   0.005772   0.000043  -0.000000  -0.000000
    12  H    0.341393  -0.040022  -0.004917  -0.001342  -0.000043   0.000000
    13  H   -0.042212   0.377514  -0.027780  -0.010259  -0.000127   0.000023
    14  H   -0.054234   0.387776  -0.048208   0.006539  -0.000087   0.000014
    15  H   -0.004220  -0.044695   0.385896  -0.046610  -0.001379   0.000436
    16  H    0.000958  -0.008703  -0.038099   0.376616  -0.035497   0.004003
    17  H    0.004738  -0.001564  -0.030898   0.377158  -0.035505  -0.002818
    18  H   -0.000001  -0.000087  -0.001634  -0.035818   0.375738  -0.038556
    19  H   -0.000000  -0.000079   0.004512  -0.033330   0.375818  -0.034308
    20  H    0.000003  -0.000068   0.000641  -0.003631  -0.052727   0.381715
    21  H    0.000000  -0.000000   0.000015  -0.000063  -0.009420  -0.039813
    22  H   -0.000000  -0.000000   0.000014  -0.000167   0.005384  -0.029697
    23  H    0.000000  -0.000000   0.000006  -0.000175   0.006451  -0.008090
    24  H    0.000000  -0.000000   0.000000   0.000001   0.000165   0.005579
    25  H    0.000001  -0.000046  -0.002930  -0.000030   0.005443  -0.035705
    26  H    0.000001  -0.000131   0.003972   0.000178  -0.003826  -0.038809
    27  H   -0.000011  -0.005985  -0.039983  -0.007474   0.002021  -0.002200
    28  H   -0.000012  -0.004076  -0.033642   0.005848  -0.000014   0.004521
               7          8          9         10         11         12
     1  N    0.000000  -0.000000  -0.000102   0.003372   0.338065   0.341393
     2  C   -0.000007   0.000000   0.004202  -0.036848  -0.032425  -0.040022
     3  C    0.000195  -0.000009  -0.035728   0.380256   0.005772  -0.004917
     4  C    0.004453   0.000100  -0.019223  -0.045110   0.000043  -0.001342
     5  C   -0.038444  -0.005951  -0.051355  -0.005398  -0.000000  -0.000043
     6  C    0.372419  -0.050909   0.371466  -0.048380  -0.000000   0.000000
     7  C    4.827177   0.297908  -0.039370   0.004457  -0.000000  -0.000000
     8  N    0.297908   6.805943  -0.009020  -0.000061   0.000000  -0.000000
     9  C   -0.039370  -0.009020   4.965487   0.355169   0.000003  -0.000000
    10  C    0.004457  -0.000061   0.355169   4.949024  -0.000213  -0.000046
    11  H   -0.000000   0.000000   0.000003  -0.000213   0.480447  -0.032478
    12  H   -0.000000  -0.000000  -0.000000  -0.000046  -0.032478   0.482285
    13  H    0.000000  -0.000000  -0.000048  -0.004869  -0.003422   0.006715
    14  H    0.000000  -0.000000  -0.000007  -0.002608  -0.004318  -0.004838
    15  H   -0.000048  -0.000001  -0.002879  -0.048915   0.000015   0.006050
    16  H   -0.000143   0.000000   0.000330  -0.002921  -0.000117   0.000150
    17  H   -0.000100  -0.000000   0.000033   0.005132  -0.000077   0.000073
    18  H   -0.006689   0.003056  -0.006756   0.001696   0.000000   0.000000
    19  H   -0.003115  -0.000807   0.005966  -0.000119  -0.000000  -0.000000
    20  H   -0.039549   0.004024  -0.041294  -0.001657   0.000000  -0.000002
    21  H    0.378203  -0.056526   0.005991  -0.000197  -0.000000   0.000000
    22  H    0.379574  -0.043395  -0.005798   0.000021  -0.000000   0.000000
    23  H   -0.039214   0.339072   0.000126  -0.000018  -0.000000  -0.000000
    24  H   -0.032974   0.340130   0.000185   0.000005  -0.000000   0.000000
    25  H   -0.000272   0.000112   0.374738  -0.034281  -0.000000  -0.000000
    26  H   -0.012016   0.017018   0.374997  -0.034660  -0.000000   0.000000
    27  H   -0.000048   0.000039  -0.037458   0.379709   0.000004   0.000017
    28  H   -0.000083  -0.000001  -0.032410   0.376067  -0.000007  -0.000014
              13         14         15         16         17         18
     1  N   -0.042212  -0.054234  -0.004220   0.000958   0.004738  -0.000001
     2  C    0.377514   0.387776  -0.044695  -0.008703  -0.001564  -0.000087
     3  C   -0.027780  -0.048208   0.385896  -0.038099  -0.030898  -0.001634
     4  C   -0.010259   0.006539  -0.046610   0.376616   0.377158  -0.035818
     5  C   -0.000127  -0.000087  -0.001379  -0.035497  -0.035505   0.375738
     6  C    0.000023   0.000014   0.000436   0.004003  -0.002818  -0.038556
     7  C    0.000000   0.000000  -0.000048  -0.000143  -0.000100  -0.006689
     8  N   -0.000000  -0.000000  -0.000001   0.000000  -0.000000   0.003056
     9  C   -0.000048  -0.000007  -0.002879   0.000330   0.000033  -0.006756
    10  C   -0.004869  -0.002608  -0.048915  -0.002921   0.005132   0.001696
    11  H   -0.003422  -0.004318   0.000015  -0.000117  -0.000077   0.000000
    12  H    0.006715  -0.004838   0.006050   0.000150   0.000073   0.000000
    13  H    0.640653  -0.048563   0.006401   0.005856  -0.000226  -0.000039
    14  H   -0.048563   0.692513  -0.006264   0.000257  -0.000116  -0.000005
    15  H    0.006401  -0.006264   0.670800   0.006114  -0.009952  -0.000160
    16  H    0.005856   0.000257   0.006114   0.647754  -0.036432  -0.010834
    17  H   -0.000226  -0.000116  -0.009952  -0.036432   0.641007   0.005969
    18  H   -0.000039  -0.000005  -0.000160  -0.010834   0.005969   0.649458
    19  H   -0.000005   0.000003  -0.000118   0.002055  -0.011348  -0.040379
    20  H   -0.000003  -0.000002  -0.000344   0.000013   0.002946   0.007032
    21  H    0.000000   0.000000   0.000001  -0.000001  -0.000022   0.000304
    22  H    0.000000   0.000000   0.000006   0.000003   0.000002  -0.000123
    23  H   -0.000000   0.000000  -0.000001   0.000007   0.000005   0.001525
    24  H    0.000000  -0.000000  -0.000000  -0.000000   0.000000  -0.000143
    25  H    0.000006  -0.000015   0.002798   0.000015   0.000036   0.000015
    26  H    0.000000   0.000001  -0.000005   0.000043   0.000013   0.003104
    27  H    0.005240  -0.000585   0.006921   0.002794   0.000005  -0.000118
    28  H   -0.000654   0.006464  -0.004813  -0.000112  -0.000202  -0.000058
              19         20         21         22         23         24
     1  N   -0.000000   0.000003   0.000000  -0.000000   0.000000   0.000000
     2  C   -0.000079  -0.000068  -0.000000  -0.000000  -0.000000  -0.000000
     3  C    0.004512   0.000641   0.000015   0.000014   0.000006   0.000000
     4  C   -0.033330  -0.003631  -0.000063  -0.000167  -0.000175   0.000001
     5  C    0.375818  -0.052727  -0.009420   0.005384   0.006451   0.000165
     6  C   -0.034308   0.381715  -0.039813  -0.029697  -0.008090   0.005579
     7  C   -0.003115  -0.039549   0.378203   0.379574  -0.039214  -0.032974
     8  N   -0.000807   0.004024  -0.056526  -0.043395   0.339072   0.340130
     9  C    0.005966  -0.041294   0.005991  -0.005798   0.000126   0.000185
    10  C   -0.000119  -0.001657  -0.000197   0.000021  -0.000018   0.000005
    11  H   -0.000000   0.000000  -0.000000  -0.000000  -0.000000  -0.000000
    12  H   -0.000000  -0.000002   0.000000   0.000000  -0.000000   0.000000
    13  H   -0.000005  -0.000003   0.000000   0.000000  -0.000000   0.000000
    14  H    0.000003  -0.000002   0.000000   0.000000   0.000000  -0.000000
    15  H   -0.000118  -0.000344   0.000001   0.000006  -0.000001  -0.000000
    16  H    0.002055   0.000013  -0.000001   0.000003   0.000007  -0.000000
    17  H   -0.011348   0.002946  -0.000022   0.000002   0.000005   0.000000
    18  H   -0.040379   0.007032   0.000304  -0.000123   0.001525  -0.000143
    19  H    0.645442  -0.004243   0.005739  -0.000051   0.000416  -0.000054
    20  H   -0.004243   0.671144  -0.001078  -0.003693  -0.000017  -0.000221
    21  H    0.005739  -0.001078   0.697585  -0.047809  -0.005265  -0.003967
    22  H   -0.000051  -0.003693  -0.047809   0.648455   0.006824  -0.004364
    23  H    0.000416  -0.000017  -0.005265   0.006824   0.480326  -0.031965
    24  H   -0.000054  -0.000221  -0.003967  -0.004364  -0.031965   0.476309
    25  H   -0.000205  -0.010438  -0.000137   0.002986  -0.000008  -0.000010
    26  H   -0.000063   0.006269   0.000704  -0.000823  -0.000307  -0.000395
    27  H   -0.000046  -0.000176   0.000002   0.000007  -0.000026  -0.000001
    28  H    0.000003  -0.000106   0.000003  -0.000006   0.000001  -0.000000
              25         26         27         28
     1  N    0.000001   0.000001  -0.000011  -0.000012
     2  C   -0.000046  -0.000131  -0.005985  -0.004076
     3  C   -0.002930   0.003972  -0.039983  -0.033642
     4  C   -0.000030   0.000178  -0.007474   0.005848
     5  C    0.005443  -0.003826   0.002021  -0.000014
     6  C   -0.035705  -0.038809  -0.002200   0.004521
     7  C   -0.000272  -0.012016  -0.000048  -0.000083
     8  N    0.000112   0.017018   0.000039  -0.000001
     9  C    0.374738   0.374997  -0.037458  -0.032410
    10  C   -0.034281  -0.034660   0.379709   0.376067
    11  H   -0.000000  -0.000000   0.000004  -0.000007
    12  H   -0.000000   0.000000   0.000017  -0.000014
    13  H    0.000006   0.000000   0.005240  -0.000654
    14  H   -0.000015   0.000001  -0.000585   0.006464
    15  H    0.002798  -0.000005   0.006921  -0.004813
    16  H    0.000015   0.000043   0.002794  -0.000112
    17  H    0.000036   0.000013   0.000005  -0.000202
    18  H    0.000015   0.003104  -0.000118  -0.000058
    19  H   -0.000205  -0.000063  -0.000046   0.000003
    20  H   -0.010438   0.006269  -0.000176  -0.000106
    21  H   -0.000137   0.000704   0.000002   0.000003
    22  H    0.002986  -0.000823   0.000007  -0.000006
    23  H   -0.000008  -0.000307  -0.000026   0.000001
    24  H   -0.000010  -0.000395  -0.000001  -0.000000
    25  H    0.654716  -0.037679   0.006124  -0.011529
    26  H   -0.037679   0.637093  -0.010554   0.002276
    27  H    0.006124  -0.010554   0.651097  -0.039785
    28  H   -0.011529   0.002276  -0.039785   0.645003
 Mulliken charges:
               1
     1  N   -0.648128
     2  C   -0.042354
     3  C   -0.062747
     4  C   -0.165683
     5  C   -0.195809
     6  C   -0.052624
     7  C   -0.052315
     8  N   -0.640723
     9  C   -0.177244
    10  C   -0.188610
    11  H    0.248709
    12  H    0.247018
    13  H    0.095801
    14  H    0.076283
    15  H    0.084964
    16  H    0.085892
    17  H    0.092144
    18  H    0.093502
    19  H    0.088319
    20  H    0.085461
    21  H    0.075750
    22  H    0.092649
    23  H    0.250326
    24  H    0.251718
    25  H    0.086294
    26  H    0.093596
    27  H    0.090470
    28  H    0.087339
 Sum of Mulliken charges =  -0.00000
 Mulliken charges with hydrogens summed into heavy atoms:
               1
     1  N   -0.152401
     2  C    0.129730
     3  C    0.022217
     4  C    0.012353
     5  C   -0.013989
     6  C    0.032837
     7  C    0.116084
     8  N   -0.138679
     9  C    0.002647
    10  C   -0.010800
 APT charges:
               1
     1  N   -1.586692
     2  C   -0.586639
     3  C   -0.355719
     4  C   -0.770432
     5  C   -0.746271
     6  C   -0.341125
     7  C   -0.725137
     8  N   -1.433131
     9  C   -0.787180
    10  C   -0.752341
    11  H    0.959524
    12  H    0.459259
    13  H    0.350327
    14  H    0.443889
    15  H    0.294236
    16  H    0.380675
    17  H    0.391054
    18  H    0.319792
    19  H    0.432816
    20  H    0.297983
    21  H    0.420465
    22  H    0.456733
    23  H    0.334265
    24  H    0.985320
    25  H    0.403451
    26  H    0.389539
    27  H    0.314860
    28  H    0.450478
 Sum of APT charges =  -0.00000
 APT charges with hydrogens summed into heavy atoms:
               1
     1  N   -0.167909
     2  C    0.207578
     3  C   -0.061483
     4  C    0.001297
     5  C    0.006337
     6  C   -0.043143
     7  C    0.152061
     8  N   -0.113547
     9  C    0.005811
    10  C    0.012997
 Electronic spatial extent (au):  <R**2>=           2078.7203
 Charge=             -0.0000 electrons
 Dipole moment (field-independent basis, Debye):
    X=             -0.1286    Y=             -0.1186    Z=              1.0439  Tot=              1.0584
 Quadrupole moment (field-independent basis, Debye-Ang):
   XX=            -54.7717   YY=            -67.5937   ZZ=            -62.1536
   XY=             -9.6361   XZ=             -1.1168   YZ=              1.6566
 Traceless Quadrupole moment (field-independent basis, Debye-Ang):
   XX=              6.7347   YY=             -6.0874   ZZ=             -0.6473
   XY=             -9.6361   XZ=             -1.1168   YZ=              1.6566
 Octapole moment (field-independent basis, Debye-Ang**2):
  XXX=             -7.0663  YYY=              0.6154  ZZZ=              0.8336  XYY=              8.0884
  XXY=             -3.2346  XXZ=              9.8347  XZZ=             -6.2214  YZZ=             -3.3447
  YYZ=              0.8584  XYZ=              7.6106
 Hexadecapole moment (field-independent basis, Debye-Ang**3):
 XXXX=          -1657.1417 YYYY=           -423.5264 ZZZZ=           -198.2918 XXXY=           -103.3358
 XXXZ=            -36.9599 YYYX=            -17.2666 YYYZ=              1.7588 ZZZX=            -19.1263
 ZZZY=              3.3259 XXYY=           -458.6505 XXZZ=           -361.7572 YYZZ=           -103.5258
 XXYZ=             18.4476 YYXZ=             -4.5368 ZZXY=             -1.8668
 N-N= 5.770820953326D+02 E-N=-2.139861857754D+03  KE= 4.211795544243D+02
  Exact polarizability:   0.000   0.000   0.000   0.000   0.000   0.000
 Approx polarizability: 133.010   1.146 125.259  -0.643   0.393 133.382
 D2PCM: PCM CHGder 2nd derivatives, FixD1E=F FixD2E=F DoIter=F DoCFld=F I1PDM=0
 Calling FoFJK, ICntrl=    100147 FMM=F ISym2X=0 I1Cent= 0 IOpClX= 0 NMat=1 NMatS=1 NMatT=0.
 ***** Axes restored to original set *****
 -------------------------------------------------------------------
 Center     Atomic                   Forces (Hartrees/Bohr)
 Number     Number              X              Y              Z
 -------------------------------------------------------------------
      1        7           0.003178229    0.013042033    0.005223920
      2        6           0.001817353   -0.007381225    0.007285726
      3        6           0.005152635    0.000925822   -0.008185285
      4        6           0.003975924    0.004651733    0.006439631
      5        6          -0.003304461    0.001187683   -0.002463338
      6        6          -0.005599157    0.000100183   -0.000513350
      7        6          -0.000907814    0.004381650    0.004690429
      8        7          -0.001379461   -0.002814602   -0.013499273
      9        6          -0.002653764   -0.008034368   -0.000668244
     10        6           0.001329195   -0.000102426   -0.002125861
     11        1          -0.001069486   -0.000637923    0.001734515
     12        1           0.000901509   -0.000780894   -0.001829578
     13        1          -0.001185568    0.001302877   -0.000352330
     14        1          -0.004885003   -0.006673251   -0.006783386
     15        1           0.001359328   -0.000795149    0.000218770
     16        1           0.003020287   -0.001579844   -0.000108345
     17        1           0.001150769    0.000410072   -0.001691614
     18        1          -0.002374191   -0.001026222   -0.000321533
     19        1          -0.001861051   -0.000125089   -0.000325789
     20        1          -0.001169996    0.000948121    0.000570687
     21        1           0.004218413   -0.000580129    0.009422322
     22        1          -0.000414849   -0.000999095   -0.000722637
     23        1          -0.001491762   -0.000934640    0.001640708
     24        1           0.002081488    0.000619102   -0.000298390
     25        1          -0.000660411   -0.000217052    0.000515344
     26        1          -0.003140417    0.002604217    0.002989680
     27        1           0.002176345    0.001331143   -0.000084925
     28        1           0.001735914    0.001177272   -0.000757854
 -------------------------------------------------------------------
 Cartesian Forces:  Max     0.013499273 RMS     0.003731432
 FormGI is forming the generalized inverse of G from B-inverse, IUseBI=4.

 GradGradGradGradGradGradGradGradGradGradGradGradGradGradGradGradGradGrad
 Berny optimization.
 Internal  Forces:  Max     0.010566649 RMS     0.002436783
 Search for a local minimum.
 Step number   1 out of a maximum of  168
 All quantities printed in internal units (Hartrees-Bohrs-Radians)
 Mixed Optimization -- RFO/linear search
 Second derivative matrix not updated -- analytic derivatives used.
 ITU=  0
     Eigenvalues ---    0.00047   0.00160   0.00191   0.00229   0.00355
     Eigenvalues ---    0.00368   0.00612   0.01509   0.01924   0.03193
     Eigenvalues ---    0.03209   0.03302   0.03647   0.03779   0.03827
     Eigenvalues ---    0.03927   0.03961   0.04137   0.04289   0.04451
     Eigenvalues ---    0.04470   0.04583   0.04642   0.04982   0.05088
     Eigenvalues ---    0.05345   0.05430   0.06084   0.06896   0.07221
     Eigenvalues ---    0.07508   0.07546   0.08416   0.08706   0.09444
     Eigenvalues ---    0.09840   0.10681   0.11332   0.11950   0.13347
     Eigenvalues ---    0.14189   0.14918   0.15064   0.17059   0.17397
     Eigenvalues ---    0.17874   0.18741   0.20528   0.22985   0.23198
     Eigenvalues ---    0.24361   0.25260   0.26467   0.27123   0.28269
     Eigenvalues ---    0.28973   0.29248   0.30735   0.31824   0.31909
     Eigenvalues ---    0.32203   0.32347   0.32462   0.32549   0.32654
     Eigenvalues ---    0.32849   0.32949   0.33063   0.33219   0.33334
     Eigenvalues ---    0.33506   0.33865   0.37432   0.37536   0.43957
     Eigenvalues ---    0.44035   0.44242   0.44309
 RFO step:  Lambda=-5.85821694D-03 EMin= 4.67299851D-04
 Linear search not attempted -- first point.
 Iteration  1 RMS(Cart)=  0.02758623 RMS(Int)=  0.00058264
 Iteration  2 RMS(Cart)=  0.00071227 RMS(Int)=  0.00016102
 Iteration  3 RMS(Cart)=  0.00000059 RMS(Int)=  0.00016102
 Variable       Old X    -DE/DX   Delta X   Delta X   Delta X     New X
                                 (Linear)    (Quad)   (Total)
    R1        2.75832   0.01057   0.00000   0.02156   0.02156   2.77988
    R2        1.92591  -0.00162   0.00000  -0.00167  -0.00167   1.92425
    R3        1.92588  -0.00109   0.00000   0.00037   0.00037   1.92625
    R4        2.90645  -0.00302   0.00000  -0.00953  -0.00953   2.89692
    R5        2.07095   0.00098   0.00000   0.00477   0.00477   2.07572
    R6        2.07125   0.00539   0.00000   0.01473   0.01473   2.08598
    R7        2.91509   0.00337   0.00000   0.01342   0.01345   2.92853
    R8        2.89679   0.00240   0.00000   0.00762   0.00758   2.90437
    R9        2.07797   0.00065   0.00000   0.00377   0.00377   2.08174
   R10        2.89728   0.01027   0.00000   0.02591   0.02594   2.92323
   R11        2.07353  -0.00005   0.00000   0.00029   0.00029   2.07382
   R12        2.07408  -0.00115   0.00000  -0.00481  -0.00481   2.06927
   R13        2.89576   0.00235   0.00000   0.00953   0.00949   2.90525
   R14        2.07387   0.00065   0.00000   0.00112   0.00112   2.07499
   R15        2.07201   0.00043   0.00000   0.00163   0.00163   2.07364
   R16        2.90921  -0.00200   0.00000  -0.00338  -0.00338   2.90583
   R17        2.91216   0.00215   0.00000   0.01126   0.01127   2.92343
   R18        2.07834  -0.00014   0.00000   0.00019   0.00019   2.07853
   R19        2.75728   0.00976   0.00000   0.02279   0.02279   2.78007
   R20        2.07157   0.00538   0.00000   0.01423   0.01423   2.08581
   R21        2.07118   0.00086   0.00000   0.00271   0.00271   2.07389
   R22        1.92557  -0.00159   0.00000  -0.00138  -0.00138   1.92419
   R23        1.92613  -0.00212   0.00000  -0.00257  -0.00257   1.92356
   R24        2.89683   0.00957   0.00000   0.02357   0.02358   2.92041
   R25        2.07424   0.00042   0.00000  -0.00027  -0.00027   2.07397
   R26        2.07156  -0.00067   0.00000  -0.00272  -0.00272   2.06884
   R27        2.07507   0.00060   0.00000   0.00161   0.00161   2.07668
   R28        2.07235  -0.00003   0.00000   0.00019   0.00019   2.07254
    A1        1.90765   0.00125   0.00000  -0.00443  -0.00456   1.90309
    A2        1.91234  -0.00183   0.00000  -0.01715  -0.01727   1.89507
    A3        1.85523  -0.00079   0.00000  -0.01868  -0.01896   1.83627
    A4        1.95106  -0.00066   0.00000   0.00027  -0.00004   1.95102
    A5        1.90167  -0.00140   0.00000  -0.01814  -0.01825   1.88342
    A6        1.89705   0.00773   0.00000   0.07031   0.07043   1.96748
    A7        1.92369  -0.00074   0.00000  -0.01982  -0.02024   1.90345
    A8        1.91635  -0.00439   0.00000  -0.02087  -0.02163   1.89472
    A9        1.87211  -0.00040   0.00000  -0.01099  -0.01136   1.86075
   A10        1.95557  -0.00027   0.00000   0.00467   0.00472   1.96029
   A11        1.93017   0.00178   0.00000   0.01458   0.01467   1.94484
   A12        1.88317  -0.00139   0.00000  -0.01517  -0.01517   1.86800
   A13        1.92862  -0.00097   0.00000  -0.00674  -0.00694   1.92167
   A14        1.88699   0.00097   0.00000   0.00575   0.00576   1.89275
   A15        1.87648  -0.00015   0.00000  -0.00389  -0.00383   1.87265
   A16        1.98682  -0.00080   0.00000  -0.01025  -0.01046   1.97636
   A17        1.93534  -0.00280   0.00000  -0.03027  -0.03009   1.90525
   A18        1.89431   0.00083   0.00000   0.01146   0.01154   1.90585
   A19        1.88825   0.00269   0.00000   0.01881   0.01852   1.90677
   A20        1.90245   0.00069   0.00000   0.01417   0.01417   1.91662
   A21        1.85169  -0.00057   0.00000  -0.00292  -0.00309   1.84860
   A22        1.95194   0.00078   0.00000  -0.00227  -0.00246   1.94948
   A23        1.89434   0.00149   0.00000   0.01711   0.01716   1.91150
   A24        1.90528   0.00060   0.00000   0.00976   0.00979   1.91507
   A25        1.91685  -0.00149   0.00000  -0.01288  -0.01287   1.90398
   A26        1.93367  -0.00122   0.00000  -0.00804  -0.00795   1.92572
   A27        1.85903  -0.00015   0.00000  -0.00311  -0.00336   1.85567
   A28        1.97377   0.00112   0.00000   0.00353   0.00361   1.97737
   A29        1.93039  -0.00080   0.00000  -0.00924  -0.00939   1.92100
   A30        1.86877  -0.00016   0.00000  -0.00095  -0.00093   1.86784
   A31        1.96117  -0.00045   0.00000  -0.00329  -0.00326   1.95791
   A32        1.84971  -0.00078   0.00000  -0.00643  -0.00646   1.84325
   A33        1.87290   0.00110   0.00000   0.01771   0.01776   1.89066
   A34        1.98709  -0.00532   0.00000  -0.01883  -0.01901   1.96807
   A35        1.90952  -0.00354   0.00000  -0.01789  -0.01789   1.89163
   A36        1.90480   0.00171   0.00000  -0.00669  -0.00718   1.89762
   A37        1.89850   0.00892   0.00000   0.06722   0.06736   1.96586
   A38        1.89395  -0.00046   0.00000  -0.01652  -0.01688   1.87706
   A39        1.86615  -0.00105   0.00000  -0.00658  -0.00671   1.85944
   A40        1.91568  -0.00102   0.00000  -0.01245  -0.01254   1.90314
   A41        1.90701   0.00004   0.00000  -0.00671  -0.00680   1.90021
   A42        1.85041  -0.00048   0.00000  -0.01502  -0.01523   1.83518
   A43        1.98252  -0.00047   0.00000  -0.00671  -0.00698   1.97554
   A44        1.88903   0.00075   0.00000   0.01029   0.01040   1.89944
   A45        1.94785  -0.00405   0.00000  -0.05035  -0.05010   1.89775
   A46        1.90607   0.00029   0.00000   0.00978   0.00975   1.91582
   A47        1.88607   0.00332   0.00000   0.02571   0.02516   1.91123
   A48        1.84722   0.00024   0.00000   0.01352   0.01321   1.86043
   A49        1.95914   0.00094   0.00000  -0.00370  -0.00382   1.95532
   A50        1.90718  -0.00177   0.00000  -0.01251  -0.01250   1.89468
   A51        1.93338  -0.00122   0.00000  -0.00870  -0.00862   1.92476
   A52        1.90297   0.00149   0.00000   0.01681   0.01680   1.91977
   A53        1.90237   0.00069   0.00000   0.01285   0.01287   1.91524
   A54        1.85573  -0.00016   0.00000  -0.00435  -0.00462   1.85111
    D1        3.07836   0.00009   0.00000   0.02284   0.02318   3.10154
    D2       -1.07443  -0.00224   0.00000  -0.01443  -0.01425  -1.08867
    D3        0.96032   0.00080   0.00000   0.00140   0.00111   0.96143
    D4        1.05192   0.00137   0.00000   0.05749   0.05767   1.10959
    D5       -3.10087  -0.00096   0.00000   0.02022   0.02025  -3.08062
    D6       -1.06612   0.00208   0.00000   0.03605   0.03560  -1.03051
    D7        1.04936  -0.00294   0.00000  -0.03642  -0.03625   1.01310
    D8       -3.07373  -0.00308   0.00000  -0.03103  -0.03085  -3.10458
    D9       -1.02589  -0.00308   0.00000  -0.03654  -0.03638  -1.06227
   D10       -1.06835  -0.00021   0.00000   0.00017   0.00028  -1.06807
   D11        1.09175  -0.00035   0.00000   0.00556   0.00568   1.09743
   D12        3.13959  -0.00035   0.00000   0.00005   0.00015   3.13974
   D13       -3.12699   0.00339   0.00000   0.03827   0.03799  -3.08900
   D14       -0.96689   0.00325   0.00000   0.04365   0.04339  -0.92350
   D15        1.08095   0.00325   0.00000   0.03815   0.03786   1.11881
   D16        2.69776   0.00095   0.00000   0.00401   0.00408   2.70184
   D17        0.56381   0.00014   0.00000   0.00987   0.00975   0.57356
   D18       -1.46358   0.00190   0.00000   0.02363   0.02361  -1.43997
   D19        0.53679  -0.00045   0.00000  -0.01330  -0.01326   0.52353
   D20       -1.59716  -0.00126   0.00000  -0.00744  -0.00759  -1.60475
   D21        2.65864   0.00050   0.00000   0.00631   0.00627   2.66490
   D22       -1.51244  -0.00030   0.00000  -0.00822  -0.00812  -1.52056
   D23        2.63680  -0.00111   0.00000  -0.00236  -0.00245   2.63435
   D24        0.60941   0.00065   0.00000   0.01140   0.01141   0.62082
   D25        3.04675  -0.00084   0.00000  -0.03596  -0.03592   3.01083
   D26       -1.12310   0.00045   0.00000  -0.02576  -0.02580  -1.14891
   D27        0.91574  -0.00152   0.00000  -0.04366  -0.04362   0.87211
   D28       -1.06089  -0.00061   0.00000  -0.02437  -0.02431  -1.08521
   D29        1.05243   0.00068   0.00000  -0.01416  -0.01419   1.03824
   D30        3.09127  -0.00129   0.00000  -0.03207  -0.03201   3.05926
   D31        0.99480  -0.00007   0.00000  -0.02347  -0.02345   0.97134
   D32        3.10812   0.00122   0.00000  -0.01327  -0.01333   3.09479
   D33       -1.13622  -0.00075   0.00000  -0.03118  -0.03115  -1.16737
   D34        0.49761   0.00149   0.00000   0.03609   0.03607   0.53368
   D35       -1.61978   0.00185   0.00000   0.04214   0.04222  -1.57756
   D36        2.64373   0.00089   0.00000   0.03120   0.03117   2.67490
   D37        2.65728  -0.00067   0.00000   0.00401   0.00382   2.66110
   D38        0.53989  -0.00031   0.00000   0.01005   0.00997   0.54986
   D39       -1.47978  -0.00127   0.00000  -0.00088  -0.00108  -1.48086
   D40       -1.61972   0.00046   0.00000   0.01798   0.01801  -1.60171
   D41        2.54607   0.00082   0.00000   0.02403   0.02416   2.57023
   D42        0.52640  -0.00014   0.00000   0.01309   0.01311   0.53951
   D43        2.99320  -0.00049   0.00000  -0.01533  -0.01533   2.97787
   D44       -1.07295  -0.00086   0.00000  -0.02451  -0.02449  -1.09743
   D45        0.96234  -0.00006   0.00000  -0.00884  -0.00885   0.95349
   D46       -1.18565   0.00090   0.00000  -0.00398  -0.00405  -1.18970
   D47        1.03139   0.00053   0.00000  -0.01317  -0.01321   1.01818
   D48        3.06667   0.00133   0.00000   0.00250   0.00243   3.06910
   D49        0.86327  -0.00094   0.00000  -0.02057  -0.02053   0.84274
   D50        3.08031  -0.00131   0.00000  -0.02975  -0.02969   3.05062
   D51       -1.16758  -0.00051   0.00000  -0.01408  -0.01406  -1.18164
   D52        1.07791   0.00247   0.00000   0.01317   0.01304   1.09095
   D53       -1.05018  -0.00277   0.00000  -0.04751  -0.04747  -1.09765
   D54       -3.08653  -0.00047   0.00000  -0.02568  -0.02571  -3.11224
   D55       -1.12279   0.00301   0.00000   0.02558   0.02554  -1.09725
   D56        3.03230  -0.00222   0.00000  -0.03510  -0.03498   2.99732
   D57        0.99596   0.00007   0.00000  -0.01328  -0.01322   0.98274
   D58        3.12002   0.00239   0.00000   0.00990   0.00981   3.12983
   D59        0.99193  -0.00284   0.00000  -0.05078  -0.05070   0.94123
   D60       -1.04442  -0.00055   0.00000  -0.02895  -0.02895  -1.07336
   D61        0.55050  -0.00009   0.00000  -0.01338  -0.01336   0.53715
   D62        2.67034   0.00051   0.00000   0.00201   0.00192   2.67226
   D63       -1.58699  -0.00101   0.00000  -0.00362  -0.00390  -1.59089
   D64        2.77449   0.00041   0.00000  -0.01870  -0.01856   2.75592
   D65       -1.38886   0.00101   0.00000  -0.00330  -0.00329  -1.39214
   D66        0.63700  -0.00051   0.00000  -0.00894  -0.00911   0.62789
   D67       -1.48223  -0.00010   0.00000  -0.01748  -0.01734  -1.49957
   D68        0.63761   0.00050   0.00000  -0.00209  -0.00206   0.63555
   D69        2.66347  -0.00103   0.00000  -0.00772  -0.00789   2.65558
   D70       -1.10241  -0.00096   0.00000  -0.07632  -0.07614  -1.17855
   D71       -3.12457   0.00018   0.00000  -0.04745  -0.04739   3.11122
   D72        1.03176  -0.00256   0.00000  -0.06261  -0.06253   0.96923
   D73       -0.99040  -0.00143   0.00000  -0.03374  -0.03378  -1.02418
   D74        3.05601   0.00074   0.00000  -0.04318  -0.04326   3.01275
   D75        1.03384   0.00187   0.00000  -0.01431  -0.01450   1.01934
   D76        0.48800   0.00144   0.00000   0.03489   0.03492   0.52293
   D77       -1.62775   0.00203   0.00000   0.04153   0.04168  -1.58606
   D78        2.63656   0.00102   0.00000   0.03046   0.03048   2.66704
   D79       -1.62230   0.00058   0.00000   0.01919   0.01926  -1.60303
   D80        2.54514   0.00117   0.00000   0.02583   0.02602   2.57116
   D81        0.52626   0.00016   0.00000   0.01476   0.01482   0.54109
   D82        2.65925  -0.00163   0.00000  -0.01554  -0.01585   2.64340
   D83        0.54350  -0.00104   0.00000  -0.00891  -0.00909   0.53441
   D84       -1.47538  -0.00205   0.00000  -0.01998  -0.02029  -1.49566
         Item               Value     Threshold  Converged?
 Maximum Force            0.010567     0.000450     NO 
 RMS     Force            0.002437     0.000300     NO 
 Maximum Displacement     0.114992     0.001800     NO 
 RMS     Displacement     0.027698     0.001200     NO 
 Predicted change in Energy=-3.178597D-03
 GradGradGradGradGradGradGradGradGradGradGradGradGradGradGradGradGradGrad

                          Input orientation:                          
 ---------------------------------------------------------------------
 Center     Atomic      Atomic             Coordinates (Angstroms)
 Number     Number       Type             X           Y           Z
 ---------------------------------------------------------------------
      1          7           0        3.710217    0.667412    0.331176
      2          6           0        2.879868   -0.031427   -0.661863
      3          6           0        1.433164   -0.193007   -0.181268
      4          6           0        0.764551    1.167519    0.140504
      5          6           0       -0.777405    1.133005    0.021792
      6          6           0       -1.342491   -0.256334    0.359429
      7          6           0       -2.875527   -0.277079    0.477274
      8          7           0       -3.548071    0.077817   -0.782100
      9          6           0       -0.820425   -1.302243   -0.653865
     10          6           0        0.585937   -0.969801   -1.201533
     11          1           0        4.667341    0.717982   -0.012660
     12          1           0        3.758627    0.096026    1.173911
     13          1           0        2.886665    0.562416   -1.585894
     14          1           0        3.276343   -1.027699   -0.924051
     15          1           0        1.465083   -0.792772    0.742206
     16          1           0        1.162527    1.933646   -0.536984
     17          1           0        1.052225    1.480347    1.149678
     18          1           0       -1.072772    1.401966   -1.001002
     19          1           0       -1.216629    1.893508    0.679698
     20          1           0       -0.965274   -0.523450    1.357509
     21          1           0       -3.169134    0.378740    1.315120
     22          1           0       -3.194371   -1.291656    0.748162
     23          1           0       -3.366024    1.057560   -0.991300
     24          1           0       -4.555030    0.017542   -0.645996
     25          1           0       -0.807274   -2.287621   -0.170793
     26          1           0       -1.529567   -1.370961   -1.485097
     27          1           0        0.500106   -0.366780   -2.116218
     28          1           0        1.097341   -1.894654   -1.494708
 ---------------------------------------------------------------------
                    Distance matrix (angstroms):
                    1          2          3          4          5
     1  N    0.000000
     2  C    1.471047   0.000000
     3  C    2.487547   1.532982   0.000000
     4  C    2.993895   2.560436   1.549714   0.000000
     5  C    4.522305   3.898581   2.585761   1.546904   0.000000
     6  C    5.136531   4.349935   2.828537   2.552432   1.537394
     7  C    6.654730   5.872185   4.359538   3.930706   2.568641
     8  N    7.366800   6.429992   5.024644   4.542836   3.071848
     9  C    5.037515   3.912443   2.555859   3.040214   2.527607
    10  C    3.845880   2.536516   1.536927   2.530041   2.788731
    11  H    1.018267   2.044049   3.364258   3.931579   5.460649
    12  H    1.019327   2.039247   2.706996   3.343728   4.793567
    13  H    2.089120   1.098421   2.157847   2.801779   4.041737
    14  H    2.153426   1.103853   2.155399   3.501622   4.690003
    15  H    2.709558   2.133700   1.101609   2.166918   3.042428
    16  H    2.974521   2.612732   2.173116   1.097418   2.171772
    17  H    2.897538   2.984530   2.171784   1.095011   2.177228
    18  H    5.019088   4.218174   3.081496   2.175720   1.098039
    19  H    5.089065   4.720853   3.480835   2.177812   1.097325
    20  H    4.932720   4.370935   2.868716   2.707909   2.136182
    21  H    6.955354   6.377078   4.873112   4.180404   2.821698
    22  H    7.189239   6.361818   4.846127   4.699985   3.499760
    23  H    7.209323   6.348669   5.025164   4.284241   2.780826
    24  H    8.348143   7.435077   6.009890   5.498998   3.995078
    25  H    5.421431   4.350469   3.067096   3.808613   3.426173
    26  H    5.908396   4.681366   3.444607   3.788065   3.017666
    27  H    4.167026   2.809071   2.155186   2.741679   2.907315
    28  H    4.089640   2.709733   2.175662   3.487345   3.870551
                    6          7          8          9         10
     6  C    0.000000
     7  C    1.537700   0.000000
     8  N    2.505859   1.471152   0.000000
     9  C    1.547011   2.560055   3.059585   0.000000
    10  C    2.581563   3.908963   4.285259   1.545416   0.000000
    11  H    6.099657   7.623978   8.276161   5.882859   4.573827
    12  H    5.177735   6.681056   7.564003   5.124806   4.104228
    13  H    4.726562   6.177724   6.502826   4.253016   2.790837
    14  H    4.855507   6.353947   6.914834   4.114837   2.705297
    15  H    2.883879   4.379159   5.311605   2.726192   2.140645
    16  H    3.445966   4.714012   5.068916   3.796938   3.033824
    17  H    3.061898   4.355217   5.182816   3.808201   3.427659
    18  H    2.161823   2.873051   2.815740   2.738052   2.901173
    19  H    2.177208   2.739410   3.296848   3.485426   3.871280
    20  H    1.099912   2.117682   3.407386   2.161741   3.025587
    21  H    2.157149   1.103761   2.152319   3.495574   4.717273
    22  H    2.156958   1.097455   2.083809   2.757065   4.265633
    23  H    2.765045   2.044152   1.018235   3.487493   4.446615
    24  H    3.377321   2.041878   1.017902   3.960956   5.264315
    25  H    2.166499   2.956339   3.671642   1.097497   2.177179
    26  H    2.163253   2.618986   2.582154   1.094783   2.171795
    27  H    3.088072   4.257834   4.285472   2.181140   1.098931
    28  H    3.474866   4.721117   5.096891   2.176188   1.096740
                   11         12         13         14         15
    11  H    0.000000
    12  H    1.618809   0.000000
    13  H    2.381192   2.931614   0.000000
    14  H    2.410998   2.428333   1.765885   0.000000
[...]
   XX=              5.6536   YY=             -5.7772   ZZ=              0.1236
   XY=             -4.3696   XZ=              0.2750   YZ=             -1.4546
 Octapole moment (field-independent basis, Debye-Ang**2):
  XXX=            -63.8270  YYY=              7.1340  ZZZ=              6.4106  XYY=              1.4451
  XXY=             12.9838  XXZ=             12.9369  XZZ=            -10.2531  YZZ=              0.1762
  YYZ=              2.7295  XYZ=             -3.4689
 Hexadecapole moment (field-independent basis, Debye-Ang**3):
 XXXX=          -2051.9271 YYYY=           -443.2139 ZZZZ=           -220.6608 XXXY=            -35.3710
 XXXZ=             -7.7650 YYYX=             -2.3306 YYYZ=             -4.7698 ZZZX=             -2.9196
 ZZZY=             -6.3146 XXYY=           -480.6459 XXZZ=           -381.5997 YYZZ=           -110.3797
 XXYZ=            -13.7693 YYXZ=              3.5513 ZZXY=              7.5989
 N-N= 5.760360427762D+02 E-N=-2.136322038704D+03  KE= 4.212761694197D+02
 Evaluate density.
 Using the total density.
 Monte-Carlo method of calculating molar volume:
 based on  0.001 e/bohr**3 density envelope.
 Number of points per bohr**3 =   20 CutOff= 1.00D-04
 Using the CI density.
 There are       374 points.  Will hold       374 in memory.
 LenV=  1073592728 MDV=  1073741824.
 Box volume = 6564.912 fraction occupied=0.235
 Integrated density= 7.4077627223502134D+01 error=-5.9223727764978662D+00
 Molar volume = 1544.685 bohr**3/mol (137.846 cm**3/mol)
 Recommended a0 for SCRF calculation =  4.68 angstrom (  8.84 bohr)
 ******************************Gaussian NBO Version 3.1******************************
             N A T U R A L   A T O M I C   O R B I T A L   A N D
          N A T U R A L   B O N D   O R B I T A L   A N A L Y S I S
 ******************************Gaussian NBO Version 3.1******************************
       /RESON  / : Allow strongly delocalized NBO set

 Analyzing the CI density

 Job title: OXIKYYJDTWKERT-OCAPTIKFSA-N_conf_0                              

 Storage needed:    175420 in NPA (1073737624 available)
 GSVD:  LWork=       31158 too small for GESVD, short by       20709 words or       20709 for optimal perf.


 NATURAL POPULATIONS:  Natural atomic orbital occupancies 
                                                          
   NAO  Atom  No  lang   Type(AO)    Occupancy
 --------------------------------------------
     1    N    1  S      Cor( 1S)     1.99968
     2    N    1  S      Val( 2S)     1.44650
     3    N    1  S      Ryd( 3S)     0.00048
     4    N    1  S      Ryd( 4S)     0.00001
     5    N    1  px     Val( 2p)     1.38090
     6    N    1  px     Ryd( 3p)     0.00243
     7    N    1  py     Val( 2p)     1.70868
     8    N    1  py     Ryd( 3p)     0.00486
     9    N    1  pz     Val( 2p)     1.37791
    10    N    1  pz     Ryd( 3p)     0.00221
    11    N    1  dxy    Ryd( 3d)     0.00118
    12    N    1  dxz    Ryd( 3d)     0.00020
    13    N    1  dyz    Ryd( 3d)     0.00094
    14    N    1  dx2y2  Ryd( 3d)     0.00127
    15    N    1  dz2    Ryd( 3d)     0.00102

    16    C    2  S      Cor( 1S)     1.99931
    17    C    2  S      Val( 2S)     1.01349
    18    C    2  S      Ryd( 3S)     0.00221
    19    C    2  S      Ryd( 4S)     0.00004
    20    C    2  px     Val( 2p)     0.98586
    21    C    2  px     Ryd( 3p)     0.00212
    22    C    2  py     Val( 2p)     1.07602
    23    C    2  py     Ryd( 3p)     0.00390
    24    C    2  pz     Val( 2p)     1.16306
    25    C    2  pz     Ryd( 3p)     0.00175
    26    C    2  dxy    Ryd( 3d)     0.00105
    27    C    2  dxz    Ryd( 3d)     0.00061
    28    C    2  dyz    Ryd( 3d)     0.00045
    29    C    2  dx2y2  Ryd( 3d)     0.00139
    30    C    2  dz2    Ryd( 3d)     0.00136

    31    C    3  S      Cor( 1S)     1.99921
    32    C    3  S      Val( 2S)     0.97222
    33    C    3  S      Ryd( 3S)     0.00106
    34    C    3  S      Ryd( 4S)     0.00002
    35    C    3  px     Val( 2p)     1.04631
    36    C    3  px     Ryd( 3p)     0.00327
    37    C    3  py     Val( 2p)     1.04207
    38    C    3  py     Ryd( 3p)     0.00259
    39    C    3  pz     Val( 2p)     1.19690
    40    C    3  pz     Ryd( 3p)     0.00330
    41    C    3  dxy    Ryd( 3d)     0.00074
    42    C    3  dxz    Ryd( 3d)     0.00039
    43    C    3  dyz    Ryd( 3d)     0.00043
    44    C    3  dx2y2  Ryd( 3d)     0.00076
    45    C    3  dz2    Ryd( 3d)     0.00115

    46    C    4  S      Cor( 1S)     1.99932
    47    C    4  S      Val( 2S)     1.02830
    48    C    4  S      Ryd( 3S)     0.00126
    49    C    4  S      Ryd( 4S)     0.00002
    50    C    4  px     Val( 2p)     1.07158
    51    C    4  px     Ryd( 3p)     0.00433
    52    C    4  py     Val( 2p)     1.11545
    53    C    4  py     Ryd( 3p)     0.00221
    54    C    4  pz     Val( 2p)     1.23753
    55    C    4  pz     Ryd( 3p)     0.00398
    56    C    4  dxy    Ryd( 3d)     0.00054
    57    C    4  dxz    Ryd( 3d)     0.00056
    58    C    4  dyz    Ryd( 3d)     0.00079
    59    C    4  dx2y2  Ryd( 3d)     0.00066
    60    C    4  dz2    Ryd( 3d)     0.00055

    61    C    5  S      Cor( 1S)     1.99930
    62    C    5  S      Val( 2S)     1.05043
    63    C    5  S      Ryd( 3S)     0.00125
    64    C    5  S      Ryd( 4S)     0.00004
    65    C    5  px     Val( 2p)     1.06471
    66    C    5  px     Ryd( 3p)     0.00626
    67    C    5  py     Val( 2p)     1.17718
    68    C    5  py     Ryd( 3p)     0.00362
    69    C    5  pz     Val( 2p)     1.17849
    70    C    5  pz     Ryd( 3p)     0.00230
    71    C    5  dxy    Ryd( 3d)     0.00059
    72    C    5  dxz    Ryd( 3d)     0.00051
    73    C    5  dyz    Ryd( 3d)     0.00043
    74    C    5  dx2y2  Ryd( 3d)     0.00075
    75    C    5  dz2    Ryd( 3d)     0.00088

    76    C    6  S      Cor( 1S)     1.99920
    77    C    6  S      Val( 2S)     0.97398
    78    C    6  S      Ryd( 3S)     0.00119
    79    C    6  S      Ryd( 4S)     0.00002
    80    C    6  px     Val( 2p)     1.02514
    81    C    6  px     Ryd( 3p)     0.00233
    82    C    6  py     Val( 2p)     1.05554
    83    C    6  py     Ryd( 3p)     0.00213
    84    C    6  pz     Val( 2p)     1.19822
    85    C    6  pz     Ryd( 3p)     0.00395
    86    C    6  dxy    Ryd( 3d)     0.00056
    87    C    6  dxz    Ryd( 3d)     0.00051
    88    C    6  dyz    Ryd( 3d)     0.00064
    89    C    6  dx2y2  Ryd( 3d)     0.00084
    90    C    6  dz2    Ryd( 3d)     0.00094

    91    C    7  S      Cor( 1S)     1.99923
    92    C    7  S      Val( 2S)     1.04745
    93    C    7  S      Ryd( 3S)     0.00197
    94    C    7  S      Ryd( 4S)     0.00003
    95    C    7  px     Val( 2p)     1.05552
    96    C    7  px     Ryd( 3p)     0.00244
    97    C    7  py     Val( 2p)     1.23596
    98    C    7  py     Ryd( 3p)     0.00367
    99    C    7  pz     Val( 2p)     0.99138
   100    C    7  pz     Ryd( 3p)     0.00642
   101    C    7  dxy    Ryd( 3d)     0.00072
   102    C    7  dxz    Ryd( 3d)     0.00121
   103    C    7  dyz    Ryd( 3d)     0.00076
   104    C    7  dx2y2  Ryd( 3d)     0.00071
   105    C    7  dz2    Ryd( 3d)     0.00104

   106    N    8  S      Cor( 1S)     1.99935
   107    N    8  S      Val( 2S)     1.52076
   108    N    8  S      Ryd( 3S)     0.01614
   109    N    8  S      Ryd( 4S)     0.00003
   110    N    8  px     Val( 2p)     1.36741
   111    N    8  px     Ryd( 3p)     0.00200
   112    N    8  py     Val( 2p)     1.19373
   113    N    8  py     Ryd( 3p)     0.00024
   114    N    8  pz     Val( 2p)     1.27769
   115    N    8  pz     Ryd( 3p)     0.00051
   116    N    8  dxy    Ryd( 3d)     0.00000
   117    N    8  dxz    Ryd( 3d)     0.00033
   118    N    8  dyz    Ryd( 3d)     0.00068
   119    N    8  dx2y2  Ryd( 3d)     0.00070
   120    N    8  dz2    Ryd( 3d)     0.00061

   121    C    9  S      Cor( 1S)     1.99931
   122    C    9  S      Val( 2S)     1.03507
   123    C    9  S      Ryd( 3S)     0.00077
   124    C    9  S      Ryd( 4S)     0.00002
   125    C    9  px     Val( 2p)     1.10625
   126    C    9  px     Ryd( 3p)     0.00256
   127    C    9  py     Val( 2p)     1.09283
   128    C    9  py     Ryd( 3p)     0.00209
   129    C    9  pz     Val( 2p)     1.21052
   130    C    9  pz     Ryd( 3p)     0.00370
   131    C    9  dxy    Ryd( 3d)     0.00055
   132    C    9  dxz    Ryd( 3d)     0.00066
   133    C    9  dyz    Ryd( 3d)     0.00082
   134    C    9  dx2y2  Ryd( 3d)     0.00064
   135    C    9  dz2    Ryd( 3d)     0.00050

   136    C   10  S      Cor( 1S)     1.99931
   137    C   10  S      Val( 2S)     1.02889
   138    C   10  S      Ryd( 3S)     0.00075
   139    C   10  S      Ryd( 4S)     0.00002
   140    C   10  px     Val( 2p)     1.05845
   141    C   10  px     Ryd( 3p)     0.00233
   142    C   10  py     Val( 2p)     1.17386
   143    C   10  py     Ryd( 3p)     0.00327
   144    C   10  pz     Val( 2p)     1.19506
   145    C   10  pz     Ryd( 3p)     0.00242
   146    C   10  dxy    Ryd( 3d)     0.00072
   147    C   10  dxz    Ryd( 3d)     0.00044
   148    C   10  dyz    Ryd( 3d)     0.00025
   149    C   10  dx2y2  Ryd( 3d)     0.00068
   150    C   10  dz2    Ryd( 3d)     0.00110

   151    H   11  S      Val( 1S)     0.60761
   152    H   11  S      Ryd( 2S)     0.00126
   153    H   11  px     Ryd( 2p)     0.00056
   154    H   11  py     Ryd( 2p)     0.00050
   155    H   11  pz     Ryd( 2p)     0.00035

   156    H   12  S      Val( 1S)     0.61503
   157    H   12  S      Ryd( 2S)     0.00154
   158    H   12  px     Ryd( 2p)     0.00035
   159    H   12  py     Ryd( 2p)     0.00050
   160    H   12  pz     Ryd( 2p)     0.00058

   161    H   13  S      Val( 1S)     0.77724
   162    H   13  S      Ryd( 2S)     0.00188
   163    H   13  px     Ryd( 2p)     0.00008
   164    H   13  py     Ryd( 2p)     0.00008
   165    H   13  pz     Ryd( 2p)     0.00039

   166    H   14  S      Val( 1S)     0.79329
   167    H   14  S      Ryd( 2S)     0.00202
   168    H   14  px     Ryd( 2p)     0.00013
   169    H   14  py     Ryd( 2p)     0.00034
   170    H   14  pz     Ryd( 2p)     0.00010

   171    H   15  S      Val( 1S)     0.76575
   172    H   15  S      Ryd( 2S)     0.00475
   173    H   15  px     Ryd( 2p)     0.00012
   174    H   15  py     Ryd( 2p)     0.00011
   175    H   15  pz     Ryd( 2p)     0.00038

   176    H   16  S      Val( 1S)     0.76640
   177    H   16  S      Ryd( 2S)     0.00297
   178    H   16  px     Ryd( 2p)     0.00016
   179    H   16  py     Ryd( 2p)     0.00012
   180    H   16  pz     Ryd( 2p)     0.00027

   181    H   17  S      Val( 1S)     0.76037
   182    H   17  S      Ryd( 2S)     0.00216
   183    H   17  px     Ryd( 2p)     0.00014
   184    H   17  py     Ryd( 2p)     0.00021
   185    H   17  pz     Ryd( 2p)     0.00022

   186    H   18  S      Val( 1S)     0.79059
   187    H   18  S      Ryd( 2S)     0.02192
   188    H   18  px     Ryd( 2p)     0.00014
   189    H   18  py     Ryd( 2p)     0.00011
   190    H   18  pz     Ryd( 2p)     0.00033

   191    H   19  S      Val( 1S)     0.77141
   192    H   19  S      Ryd( 2S)     0.01794
   193    H   19  px     Ryd( 2p)     0.00014
   194    H   19  py     Ryd( 2p)     0.00032
   195    H   19  pz     Ryd( 2p)     0.00010

   196    H   20  S      Val( 1S)     0.76060
   197    H   20  S      Ryd( 2S)     0.01000
   198    H   20  px     Ryd( 2p)     0.00016
   199    H   20  py     Ryd( 2p)     0.00011
   200    H   20  pz     Ryd( 2p)     0.00034

   201    H   21  S      Val( 1S)     0.70575
   202    H   21  S      Ryd( 2S)     0.02709
   203    H   21  px     Ryd( 2p)     0.00010
   204    H   21  py     Ryd( 2p)     0.00032
   205    H   21  pz     Ryd( 2p)     0.00014

   206    H   22  S      Val( 1S)     0.76273
   207    H   22  S      Ryd( 2S)     0.02234
   208    H   22  px     Ryd( 2p)     0.00009
   209    H   22  py     Ryd( 2p)     0.00022
   210    H   22  pz     Ryd( 2p)     0.00021

   211    H   23  S      Val( 1S)     0.70897
   212    H   23  S      Ryd( 2S)     0.07663
   213    H   23  px     Ryd( 2p)     0.00023
   214    H   23  py     Ryd( 2p)     0.00064
   215    H   23  pz     Ryd( 2p)     0.00036

   216    H   24  S      Val( 1S)     0.72628
   217    H   24  S      Ryd( 2S)     0.07920
   218    H   24  px     Ryd( 2p)     0.00076
   219    H   24  py     Ryd( 2p)     0.00016
   220    H   24  pz     Ryd( 2p)     0.00026

   221    H   25  S      Val( 1S)     0.76442
   222    H   25  S      Ryd( 2S)     0.00677
   223    H   25  px     Ryd( 2p)     0.00009
   224    H   25  py     Ryd( 2p)     0.00018
   225    H   25  pz     Ryd( 2p)     0.00028

   226    H   26  S      Val( 1S)     0.76792
   227    H   26  S      Ryd( 2S)     0.00654
   228    H   26  px     Ryd( 2p)     0.00021
   229    H   26  py     Ryd( 2p)     0.00015
   230    H   26  pz     Ryd( 2p)     0.00020

   231    H   27  S      Val( 1S)     0.77022
   232    H   27  S      Ryd( 2S)     0.00583
   233    H   27  px     Ryd( 2p)     0.00010
   234    H   27  py     Ryd( 2p)     0.00010
   235    H   27  pz     Ryd( 2p)     0.00036

   236    H   28  S      Val( 1S)     0.75628
   237    H   28  S      Ryd( 2S)     0.00242
   238    H   28  px     Ryd( 2p)     0.00014
   239    H   28  py     Ryd( 2p)     0.00031
   240    H   28  pz     Ryd( 2p)     0.00010


 Summary of Natural Population Analysis:                  
                                                          
                                       Natural Population 
                Natural  -----------------------------------------------
    Atom  No    Charge         Core      Valence    Rydberg      Total
 -----------------------------------------------------------------------
      N    1   -0.92827      1.99968     5.91399    0.01460     7.92827
      C    2   -0.25264      1.99931     4.23844    0.01490     6.25264
      C    3   -0.27043      1.99921     4.25750    0.01372     6.27043
      C    4   -0.46709      1.99932     4.45287    0.01490     6.46709
      C    5   -0.48673      1.99930     4.47081    0.01662     6.48673
      C    6   -0.26519      1.99920     4.25288    0.01311     6.26519
      C    7   -0.34851      1.99923     4.33031    0.01897     6.34851
      N    8   -0.38019      1.99935     5.35960    0.02124     7.38019
      C    9   -0.45631      1.99931     4.44468    0.01232     6.45631
      C   10   -0.46753      1.99931     4.45625    0.01197     6.46753
      H   11    0.38972      0.00000     0.60761    0.00267     0.61028
      H   12    0.38200      0.00000     0.61503    0.00297     0.61800
      H   13    0.22033      0.00000     0.77724    0.00243     0.77967
      H   14    0.20413      0.00000     0.79329    0.00258     0.79587
      H   15    0.22890      0.00000     0.76575    0.00535     0.77110
      H   16    0.23007      0.00000     0.76640    0.00353     0.76993
      H   17    0.23691      0.00000     0.76037    0.00272     0.76309
      H   18    0.18691      0.00000     0.79059    0.02250     0.81309
      H   19    0.21010      0.00000     0.77141    0.01849     0.78990
      H   20    0.22879      0.00000     0.76060    0.01061     0.77121
      H   21    0.26660      0.00000     0.70575    0.02765     0.73340
      H   22    0.21441      0.00000     0.76273    0.02286     0.78559
      H   23    0.21317      0.00000     0.70897    0.07787     0.78683
      H   24    0.19334      0.00000     0.72628    0.08038     0.80666
      H   25    0.22826      0.00000     0.76442    0.00732     0.77174
      H   26    0.22499      0.00000     0.76792    0.00709     0.77501
      H   27    0.22339      0.00000     0.77022    0.00639     0.77661
      H   28    0.24075      0.00000     0.75628    0.00297     0.75925
 =======================================================================
   * Total *   -0.00014     19.99322    59.54818    0.45874    80.00014

                                 Natural Population      
 --------------------------------------------------------
   Core                      19.99322 ( 99.9661% of  20)
   Valence                   59.54818 ( 99.2470% of  60)
   Natural Minimal Basis     79.54139 ( 99.4267% of  80)
   Natural Rydberg Basis      0.45874 (  0.5734% of  80)
 --------------------------------------------------------

    Atom  No          Natural Electron Configuration
 ----------------------------------------------------------------------------
      N    1      [core]2S( 1.45)2p( 4.47)3p( 0.01)
      C    2      [core]2S( 1.01)2p( 3.22)3p( 0.01)
      C    3      [core]2S( 0.97)2p( 3.29)3p( 0.01)
      C    4      [core]2S( 1.03)2p( 3.42)3p( 0.01)
      C    5      [core]2S( 1.05)2p( 3.42)3p( 0.01)
      C    6      [core]2S( 0.97)2p( 3.28)3p( 0.01)
      C    7      [core]2S( 1.05)2p( 3.28)3p( 0.01)
      N    8      [core]2S( 1.52)2p( 3.84)3S( 0.02)
      C    9      [core]2S( 1.04)2p( 3.41)3p( 0.01)
      C   10      [core]2S( 1.03)2p( 3.43)3p( 0.01)
      H   11            1S( 0.61)
      H   12            1S( 0.62)
      H   13            1S( 0.78)
      H   14            1S( 0.79)
      H   15            1S( 0.77)
      H   16            1S( 0.77)
      H   17            1S( 0.76)
      H   18            1S( 0.79)2S( 0.02)
      H   19            1S( 0.77)2S( 0.02)
      H   20            1S( 0.76)2S( 0.01)
      H   21            1S( 0.71)2S( 0.03)
      H   22            1S( 0.76)2S( 0.02)
      H   23            1S( 0.71)2S( 0.08)
      H   24            1S( 0.73)2S( 0.08)
      H   25            1S( 0.76)2S( 0.01)
      H   26            1S( 0.77)2S( 0.01)
      H   27            1S( 0.77)2S( 0.01)
      H   28            1S( 0.76)


 NBO analysis skipped by request.
 1\1\GINC-DRG2-W002\SP\RB3LYP TD-FC\6-31G(d,p)\C8H18N2\QDUEZ\18-Jul-202
 4\0\\# TD(NStates=10, Root=1) B3LYP/6-31G** SCRF=(Solvent=water) volum
 e pop=NPA density=current Geom=AllCheck Guess=Read\\OXIKYYJDTWKERT-OCA
 PTIKFSA-N_conf_0\\0,1\N,0,3.7182490557,0.6590802104,0.3213239011\C,0,2
 .8782192884,-0.0296187692,-0.6724402959\C,0,1.4364046957,-0.1975043982
 ,-0.1792705641\C,0,0.7666674989,1.1581918362,0.1674322202\C,0,-0.77182
 56899,1.1278035245,0.0171516835\C,0,-1.3479190594,-0.252728211,0.37319
 61007\C,0,-2.8836824806,-0.2619224016,0.4572127672\N,0,-3.5210054675,0
 .122475969,-0.8132002265\C,0,-0.8100923075,-1.3231935307,-0.6100846581
 \C,0,0.5741057369,-0.9648428248,-1.1943892118\H,0,4.6611266411,0.75463
 44913,-0.0514131321\H,0,3.8156657044,0.0570157856,1.1381697211\H,0,2.8
 736449354,0.5800256125,-1.5863621255\H,0,3.2702119512,-1.021049589,-0.
 9594453138\H,0,1.4779885202,-0.8074761563,0.737412085\H,0,1.1796855718
 ,1.9412392622,-0.4811065302\H,0,1.0350160139,1.4423391426,1.1903866963
 \H,0,-1.0474175857,1.3708715666,-1.017203856\H,0,-1.2228245909,1.90552
 53893,0.6467221544\H,0,-0.9920892024,-0.4992839489,1.3844199707\H,0,-3
 .1907618271,0.3762881994,1.3037678951\H,0,-3.2163303683,-1.2795521829,
 0.6978162735\H,0,-3.4163297203,1.1258807231,-0.9496874362\H,0,-4.52412
 9524,-0.0325350914,-0.739041227\H,0,-0.7531488391,-2.2874683126,-0.089
 2165722\H,0,-1.531136036,-1.4453011804,-1.4251771497\H,0,0.4532148136,
 -0.3429540734,-2.0922526985\H,0,1.0884922713,-1.8759410421,-1.52359286
 16\\Version=ES64L-G16RevA.03\State=1-A\HF=-425.2177505\RMSD=2.435e-09\
 Dipole=-0.0240839,-0.8999192,0.1608095\Quadrupole=4.5367908,-4.5331428
 ,-0.003648,-2.2006444,-1.6130194,-1.3481097\PG=C01 [X(C8H18N2)]\\@


 My opinions may have changed, but not the fact that I am right.
                       -- Ashleigh Brilliant
 Job cpu time:       0 days  0 hours 39 minutes 30.8 seconds.
 Elapsed time:       0 days  0 hours 13 minutes 26.8 seconds.
 File lengths (MBytes):  RWF=    501 Int=      0 D2E=      0 Chk=     33 Scr=      1
 Normal termination of Gaussian 16 at Thu Jul 18 17:29:40 2024.
