 Entering Gaussian System, Link 0=g16
 Initial command:
 /opt/sw/arch/manual/gaussian/G16_A03/g16/l1.exe "/scratch/1032076.jesse.materianova.be/Gau-24038.inp" -scrdir="/scratch/1032076.jesse.materianova.be/"
 Entering Link 1 = /opt/sw/arch/manual/gaussian/G16_A03/g16/l1.exe PID=     24039.
  
 Copyright (c) 1988,1990,1992,1993,1995,1998,2003,2009,2016,
            Gaussian, Inc.  All Rights Reserved.
  
 This is part of the Gaussian(R) 16 program.  It is based on
 the Gaussian(R) 09 system (copyright 2009, Gaussian, Inc.),
 the Gaussian(R) 03 system (copyright 2003, Gaussian, Inc.),
 the Gaussian(R) 98 system (copyright 1998, Gaussian, Inc.),
 the Gaussian(R) 94 system (copyright 1995, Gaussian, Inc.),
 the Gaussian 92(TM) system (copyright 1992, Gaussian, Inc.),
 the Gaussian 90(TM) system (copyright 1990, Gaussian, Inc.),
 the Gaussian 88(TM) system (copyright 1988, Gaussian, Inc.),
 the Gaussian 86(TM) system (copyright 1986, Carnegie Mellon
 University), and the Gaussian 82(TM) system (copyright 1983,
 Carnegie Mellon University). Gaussian is a federally registered
 trademark of Gaussian, Inc.
  
 This software contains proprietary and confidential information,
 including trade secrets, belonging to Gaussian, Inc.
  
 This software is provided under written license and may be
 used, copied, transmitted, or stored only in accord with that
 written license.
  
 The following legend is applicable only to US Government
 contracts under FAR:
  
                    RESTRICTED RIGHTS LEGEND
  
 Use, reproduction and disclosure by the US Government is
 subject to restrictions as set forth in subparagraphs (a)
 and (c) of the Commercial Computer Software - Restricted
 Rights clause in FAR 52.227-19.
  
 Gaussian, Inc.
 340 Quinnipiac St., Bldg. 40, Wallingford CT 06492
  
  
 ---------------------------------------------------------------
 Warning -- This program may not be used in any manner that
 competes with the business of Gaussian, Inc. or will provide
 assistance to any competitor of Gaussian, Inc.  The licensee
 of this program is prohibited from giving any competitor of
 Gaussian, Inc. access to this program.  By using this program,
 the user acknowledges that Gaussian, Inc. is engaged in the
 business of creating and licensing software in the field of
 computational chemistry and represents and warrants to the
 licensee that it is not a competitor of Gaussian, Inc. and that
 it will not use this program in any manner prohibited above.
 ---------------------------------------------------------------
  

 Cite this work as:
 Gaussian 16, Revision A.03,
 M. J. Frisch, G. W. Trucks, H. B. Schlegel, G. E. Scuseria, 
 M. A. Robb, J. R. Cheeseman, G. Scalmani, V. Barone, 
 G. A. Petersson, H. Nakatsuji, X. Li, M. Caricato, A. V. Marenich, 
 J. Bloino, B. G. Janesko, R. Gomperts, B. Mennucci, H. P. Hratchian, 
 J. V. Ortiz, A. F. Izmaylov, J. L. Sonnenberg, D. Williams-Young, 
 F. Ding, F. Lipparini, F. Egidi, J. Goings, B. Peng, A. Petrone, 
 T. Henderson, D. Ranasinghe, V. G. Zakrzewski, J. Gao, N. Rega, 
 G. Zheng, W. Liang, M. Hada, M. Ehara, K. Toyota, R. Fukuda, 
 J. Hasegawa, M. Ishida, T. Nakajima, Y. Honda, O. Kitao, H. Nakai, 
 T. Vreven, K. Throssell, J. A. Montgomery, Jr., J. E. Peralta, 
 F. Ogliaro, M. J. Bearpark, J. J. Heyd, E. N. Brothers, K. N. Kudin, 
 V. N. Staroverov, T. A. Keith, R. Kobayashi, J. Normand, 
 K. Raghavachari, A. P. Rendell, J. C. Burant, S. S. Iyengar, 
 J. Tomasi, M. Cossi, J. M. Millam, M. Klene, C. Adamo, R. Cammi, 
 J. W. Ochterski, R. L. Martin, K. Morokuma, O. Farkas, 
 J. B. Foresman, and D. J. Fox, Gaussian, Inc., Wallingford CT, 2016.
 
 ******************************************
 Gaussian 16:  EM64L-G16RevA.03 25-Dec-2016
                11-Jul-2024 
 ******************************************
 %nprocshared=4
 Will use up to    4 processors via shared memory.
 %mem=8GB
 %Chk=NULAJYZBOLVQPQ-UHFFFAOYSA-N_conf_2_0.chk
 -------------------------------------------------------
 # opt=CalcFc B3LYP/6-31G** SCRF=(Solvent=water) scf=xqc
 -------------------------------------------------------
 1/10=4,18=20,19=15,26=3,38=1/1,3;
 2/9=110,12=2,17=6,18=5,40=1/2;
 3/5=1,6=6,7=101,11=2,25=1,30=1,70=2201,71=2,72=1,74=-5,140=1/1,2,3;
 4//1;
 5/5=2,8=3,13=1,38=5,53=1/2,8;
 8/6=4,10=90,11=11/1;
 11/6=1,8=1,9=11,15=111,16=1/1,2,10;
 10/6=1,13=1/2;
 6/7=2,8=2,9=2,10=2,28=1/1;
 7/10=1,18=20,25=1/1,2,3,16;
 1/10=4,18=20,19=15,26=3/3(2);
 2/9=110/2;
 99//99;
 2/9=110/2;
 3/5=1,6=6,7=101,11=2,25=1,30=1,70=2205,71=1,72=1,74=-5/1,2,3;
 4/5=5,16=3,69=1/1;
 5/5=2,8=3,13=1,38=5,53=1/2,8;
 7//1,2,3,16;
 1/18=20,19=15,26=3/3(-5);
 2/9=110/2;
 6/7=2,8=2,9=2,10=2,19=2,28=1/1;
 99/9=1/99;
 ----------------------------------
 NULAJYZBOLVQPQ-UHFFFAOYSA-N_conf_2
 ----------------------------------
 Symbolic Z-matrix:
 Charge =  0 Multiplicity = 1
 N                     3.97374  -0.40659  -0.95587 
 C                     2.92803   0.09234  -0.05891 
 C                     1.98256  -1.02685   0.42238 
 N                     1.02777  -0.56402   1.4461 
 C                    -0.0074    0.26791   0.95129 
 C                    -1.0893   -0.24635   0.18237 
 C                    -1.29768  -1.62705  -0.03473 
 C                    -2.36845  -2.09895  -0.79674 
 C                    -3.26783  -1.20014  -1.3548 
 C                    -3.10287   0.16778  -1.14035 
 C                    -2.0316    0.65623  -0.37282 
 C                    -1.89466   2.03326  -0.14533 
 C                    -0.84678   2.52832   0.62597 
 C                     0.0896    1.65245   1.16755 
 H                     3.5401   -0.79376  -1.79457 
 H                     4.54128   0.37894  -1.27338 
 H                     2.3607    0.86905  -0.58276 
 H                     3.40626   0.56713   0.80521 
 H                     2.58049  -1.82405   0.8806 
 H                     1.47011  -1.47986  -0.43397 
 H                     1.51926  -0.11187   2.21416 
 H                    -0.62102  -2.35118   0.4146 
 H                    -2.49914  -3.16752  -0.94377 
 H                    -4.10438  -1.56163  -1.94648 
 H                    -3.82657   0.85478  -1.57368 
 H                    -2.61469   2.73397  -0.56263 
 H                    -0.75705   3.59719   0.79966 
 H                     0.90956   2.06046   1.75239 
 

 GradGradGradGradGradGradGradGradGradGradGradGradGradGradGradGradGradGrad
 Berny optimization.
 Initialization pass.
                           ----------------------------
                           !    Initial Parameters    !
                           ! (Angstroms and Degrees)  !
 --------------------------                            --------------------------
 ! Name  Definition              Value          Derivative Info.                !
 --------------------------------------------------------------------------------
 ! R1    R(1,2)                  1.4652         calculate D2E/DX2 analytically  !
 ! R2    R(1,15)                 1.0205         calculate D2E/DX2 analytically  !
 ! R3    R(1,16)                 1.0198         calculate D2E/DX2 analytically  !
 ! R4    R(2,3)                  1.5421         calculate D2E/DX2 analytically  !
 ! R5    R(2,17)                 1.0952         calculate D2E/DX2 analytically  !
 ! R6    R(2,18)                 1.0958         calculate D2E/DX2 analytically  !
 ! R7    R(3,4)                  1.4744         calculate D2E/DX2 analytically  !
 ! R8    R(3,19)                 1.0968         calculate D2E/DX2 analytically  !
 ! R9    R(3,20)                 1.096          calculate D2E/DX2 analytically  !
 ! R10   R(4,5)                  1.4172         calculate D2E/DX2 analytically  !
 ! R11   R(4,21)                 1.0178         calculate D2E/DX2 analytically  !
 ! R12   R(5,6)                  1.4235         calculate D2E/DX2 analytically  !
 ! R13   R(5,14)                 1.4047         calculate D2E/DX2 analytically  !
 ! R14   R(6,7)                  1.4131         calculate D2E/DX2 analytically  !
 ! R15   R(6,11)                 1.418          calculate D2E/DX2 analytically  !
 ! R16   R(7,8)                  1.3964         calculate D2E/DX2 analytically  !
 ! R17   R(7,22)                 1.0882         calculate D2E/DX2 analytically  !
 ! R18   R(8,9)                  1.3886         calculate D2E/DX2 analytically  !
 ! R19   R(8,23)                 1.0865         calculate D2E/DX2 analytically  !
 ! R20   R(9,10)                 1.3944         calculate D2E/DX2 analytically  !
 ! R21   R(9,24)                 1.0865         calculate D2E/DX2 analytically  !
 ! R22   R(10,11)                1.4055         calculate D2E/DX2 analytically  !
 ! R23   R(10,25)                1.0879         calculate D2E/DX2 analytically  !
 ! R24   R(11,12)                1.4024         calculate D2E/DX2 analytically  !
 ! R25   R(12,13)                1.3921         calculate D2E/DX2 analytically  !
 ! R26   R(12,26)                1.0879         calculate D2E/DX2 analytically  !
 ! R27   R(13,14)                1.3919         calculate D2E/DX2 analytically  !
 ! R28   R(13,27)                1.0866         calculate D2E/DX2 analytically  !
 ! R29   R(14,28)                1.0867         calculate D2E/DX2 analytically  !
 ! A1    A(2,1,15)             109.2107         calculate D2E/DX2 analytically  !
 ! A2    A(2,1,16)             108.9949         calculate D2E/DX2 analytically  !
 ! A3    A(15,1,16)            105.8334         calculate D2E/DX2 analytically  !
 ! A4    A(1,2,3)              112.4252         calculate D2E/DX2 analytically  !
 ! A5    A(1,2,17)             108.5642         calculate D2E/DX2 analytically  !
 ! A6    A(1,2,18)             108.5905         calculate D2E/DX2 analytically  !
 ! A7    A(3,2,17)             110.2649         calculate D2E/DX2 analytically  !
 ! A8    A(3,2,18)             109.6276         calculate D2E/DX2 analytically  !
 ! A9    A(17,2,18)            107.2147         calculate D2E/DX2 analytically  !
 ! A10   A(2,3,4)              112.7002         calculate D2E/DX2 analytically  !
 ! A11   A(2,3,19)             108.8842         calculate D2E/DX2 analytically  !
 ! A12   A(2,3,20)             110.0472         calculate D2E/DX2 analytically  !
 ! A13   A(4,3,19)             106.9245         calculate D2E/DX2 analytically  !
 ! A14   A(4,3,20)             111.6833         calculate D2E/DX2 analytically  !
 ! A15   A(19,3,20)            106.314          calculate D2E/DX2 analytically  !
 ! A16   A(3,4,5)              114.5107         calculate D2E/DX2 analytically  !
 ! A17   A(3,4,21)             110.5299         calculate D2E/DX2 analytically  !
 ! A18   A(5,4,21)             110.8185         calculate D2E/DX2 analytically  !
 ! A19   A(4,5,6)              122.1194         calculate D2E/DX2 analytically  !
 ! A20   A(4,5,14)             118.3209         calculate D2E/DX2 analytically  !
 ! A21   A(6,5,14)             119.4552         calculate D2E/DX2 analytically  !
 ! A22   A(5,6,7)              123.2336         calculate D2E/DX2 analytically  !
 ! A23   A(5,6,11)             119.1177         calculate D2E/DX2 analytically  !
 ! A24   A(7,6,11)             117.6304         calculate D2E/DX2 analytically  !
 ! A25   A(6,7,8)              121.8099         calculate D2E/DX2 analytically  !
 ! A26   A(6,7,22)             119.6736         calculate D2E/DX2 analytically  !
 ! A27   A(8,7,22)             118.5073         calculate D2E/DX2 analytically  !
 ! A28   A(7,8,9)              119.8168         calculate D2E/DX2 analytically  !
 ! A29   A(7,8,23)             119.8973         calculate D2E/DX2 analytically  !
 ! A30   A(9,8,23)             120.284          calculate D2E/DX2 analytically  !
 ! A31   A(8,9,10)             119.7723         calculate D2E/DX2 analytically  !
 ! A32   A(8,9,24)             120.1443         calculate D2E/DX2 analytically  !
 ! A33   A(10,9,24)            120.0792         calculate D2E/DX2 analytically  !
 ! A34   A(9,10,11)            121.0036         calculate D2E/DX2 analytically  !
 ! A35   A(9,10,25)            118.6561         calculate D2E/DX2 analytically  !
 ! A36   A(11,10,25)           120.3386         calculate D2E/DX2 analytically  !
 ! A37   A(6,11,10)            119.941          calculate D2E/DX2 analytically  !
 ! A38   A(6,11,12)            119.7746         calculate D2E/DX2 analytically  !
 ! A39   A(10,11,12)           120.2831         calculate D2E/DX2 analytically  !
 ! A40   A(11,12,13)           120.8342         calculate D2E/DX2 analytically  !
 ! A41   A(11,12,26)           120.3701         calculate D2E/DX2 analytically  !
 ! A42   A(13,12,26)           118.793          calculate D2E/DX2 analytically  !
 ! A43   A(12,13,14)           119.8806         calculate D2E/DX2 analytically  !
 ! A44   A(12,13,27)           120.0351         calculate D2E/DX2 analytically  !
 ! A45   A(14,13,27)           120.0832         calculate D2E/DX2 analytically  !
 ! A46   A(5,14,13)            120.9237         calculate D2E/DX2 analytically  !
 ! A47   A(5,14,28)            120.3347         calculate D2E/DX2 analytically  !
 ! A48   A(13,14,28)           118.7362         calculate D2E/DX2 analytically  !
 ! D1    D(15,1,2,3)            62.3643         calculate D2E/DX2 analytically  !
 ! D2    D(15,1,2,17)          -59.9024         calculate D2E/DX2 analytically  !
 ! D3    D(15,1,2,18)         -176.156          calculate D2E/DX2 analytically  !
 ! D4    D(16,1,2,3)           177.5474         calculate D2E/DX2 analytically  !
 ! D5    D(16,1,2,17)           55.2808         calculate D2E/DX2 analytically  !
 ! D6    D(16,1,2,18)          -60.9728         calculate D2E/DX2 analytically  !
 ! D7    D(1,2,3,4)            173.2551         calculate D2E/DX2 analytically  !
 ! D8    D(1,2,3,19)            54.7917         calculate D2E/DX2 analytically  !
 ! D9    D(1,2,3,20)           -61.3665         calculate D2E/DX2 analytically  !
 ! D10   D(17,2,3,4)           -65.4457         calculate D2E/DX2 analytically  !
 ! D11   D(17,2,3,19)          176.0909         calculate D2E/DX2 analytically  !
 ! D12   D(17,2,3,20)           59.9327         calculate D2E/DX2 analytically  !
 ! D13   D(18,2,3,4)            52.369          calculate D2E/DX2 analytically  !
 ! D14   D(18,2,3,19)          -66.0944         calculate D2E/DX2 analytically  !
 ! D15   D(18,2,3,20)          177.7475         calculate D2E/DX2 analytically  !
 ! D16   D(2,3,4,5)             72.8678         calculate D2E/DX2 analytically  !
 ! D17   D(2,3,4,21)           -53.1364         calculate D2E/DX2 analytically  !
 ! D18   D(19,3,4,5)          -167.5281         calculate D2E/DX2 analytically  !
 ! D19   D(19,3,4,21)           66.4677         calculate D2E/DX2 analytically  !
 ! D20   D(20,3,4,5)           -51.6177         calculate D2E/DX2 analytically  !
 ! D21   D(20,3,4,21)         -177.6219         calculate D2E/DX2 analytically  !
 ! D22   D(3,4,5,6)             73.6566         calculate D2E/DX2 analytically  !
 ! D23   D(3,4,5,14)          -102.6034         calculate D2E/DX2 analytically  !
 ! D24   D(21,4,5,6)          -160.4895         calculate D2E/DX2 analytically  !
 ! D25   D(21,4,5,14)           23.2505         calculate D2E/DX2 analytically  !
 ! D26   D(4,5,6,7)              6.6875         calculate D2E/DX2 analytically  !
 ! D27   D(4,5,6,11)          -174.9059         calculate D2E/DX2 analytically  !
 ! D28   D(14,5,6,7)          -177.0936         calculate D2E/DX2 analytically  !
 ! D29   D(14,5,6,11)            1.313          calculate D2E/DX2 analytically  !
 ! D30   D(4,5,14,13)          175.5049         calculate D2E/DX2 analytically  !
 ! D31   D(4,5,14,28)           -3.6414         calculate D2E/DX2 analytically  !
 ! D32   D(6,5,14,13)           -0.8574         calculate D2E/DX2 analytically  !
 ! D33   D(6,5,14,28)          179.9962         calculate D2E/DX2 analytically  !
 ! D34   D(5,6,7,8)           -179.8807         calculate D2E/DX2 analytically  !
 ! D35   D(5,6,7,22)             1.2357         calculate D2E/DX2 analytically  !
 ! D36   D(11,6,7,8)             1.6905         calculate D2E/DX2 analytically  !
 ! D37   D(11,6,7,22)         -177.1931         calculate D2E/DX2 analytically  !
 ! D38   D(5,6,11,10)          179.6907         calculate D2E/DX2 analytically  !
 ! D39   D(5,6,11,12)           -0.7377         calculate D2E/DX2 analytically  !
 ! D40   D(7,6,11,10)           -1.8136         calculate D2E/DX2 analytically  !
 ! D41   D(7,6,11,12)          177.7579         calculate D2E/DX2 analytically  !
 ! D42   D(6,7,8,9)             -0.5025         calculate D2E/DX2 analytically  !
 ! D43   D(6,7,8,23)           179.9977         calculate D2E/DX2 analytically  !
 ! D44   D(22,7,8,9)           178.3937         calculate D2E/DX2 analytically  !
 ! D45   D(22,7,8,23)           -1.1061         calculate D2E/DX2 analytically  !
 ! D46   D(7,8,9,10)            -0.5876         calculate D2E/DX2 analytically  !
 ! D47   D(7,8,9,24)          -179.8401         calculate D2E/DX2 analytically  !
 ! D48   D(23,8,9,10)          178.9103         calculate D2E/DX2 analytically  !
 ! D49   D(23,8,9,24)           -0.3422         calculate D2E/DX2 analytically  !
 ! D50   D(8,9,10,11)            0.436          calculate D2E/DX2 analytically  !
 ! D51   D(8,9,10,25)         -179.0959         calculate D2E/DX2 analytically  !
 ! D52   D(24,9,10,11)         179.689          calculate D2E/DX2 analytically  !
 ! D53   D(24,9,10,25)           0.1571         calculate D2E/DX2 analytically  !
 ! D54   D(9,10,11,6)            0.7977         calculate D2E/DX2 analytically  !
 ! D55   D(9,10,11,12)        -178.7717         calculate D2E/DX2 analytically  !
 ! D56   D(25,10,11,6)        -179.6783         calculate D2E/DX2 analytically  !
 ! D57   D(25,10,11,12)          0.7523         calculate D2E/DX2 analytically  !
 ! D58   D(6,11,12,13)          -0.3163         calculate D2E/DX2 analytically  !
 ! D59   D(6,11,12,26)        -179.7059         calculate D2E/DX2 analytically  !
 ! D60   D(10,11,12,13)        179.2538         calculate D2E/DX2 analytically  !
 ! D61   D(10,11,12,26)         -0.1358         calculate D2E/DX2 analytically  !
 ! D62   D(11,12,13,14)          0.7937         calculate D2E/DX2 analytically  !
 ! D63   D(11,12,13,27)       -179.5724         calculate D2E/DX2 analytically  !
 ! D64   D(26,12,13,14)       -179.8073         calculate D2E/DX2 analytically  !
 ! D65   D(26,12,13,27)         -0.1734         calculate D2E/DX2 analytically  !
 ! D66   D(12,13,14,5)          -0.1983         calculate D2E/DX2 analytically  !
 ! D67   D(12,13,14,28)        178.9614         calculate D2E/DX2 analytically  !
 ! D68   D(27,13,14,5)        -179.832          calculate D2E/DX2 analytically  !
 ! D69   D(27,13,14,28)         -0.6723         calculate D2E/DX2 analytically  !
 --------------------------------------------------------------------------------
 Trust Radius=3.00D-01 FncErr=1.00D-07 GrdErr=1.00D-06 EigMax=2.50D+02 EigMin=1.00D-04
 Number of steps in this run=    156 maximum allowed number of steps=    168.
 GradGradGradGradGradGradGradGradGradGradGradGradGradGradGradGradGradGrad

                          Input orientation:                          
 ---------------------------------------------------------------------
 Center     Atomic      Atomic             Coordinates (Angstroms)
 Number     Number       Type             X           Y           Z
 ---------------------------------------------------------------------
      1          7           0        3.973735   -0.406589   -0.955866
      2          6           0        2.928033    0.092337   -0.058909
      3          6           0        1.982565   -1.026850    0.422379
      4          7           0        1.027767   -0.564018    1.446099
      5          6           0       -0.007400    0.267912    0.951292
      6          6           0       -1.089304   -0.246346    0.182372
      7          6           0       -1.297675   -1.627051   -0.034731
      8          6           0       -2.368446   -2.098955   -0.796740
      9          6           0       -3.267834   -1.200145   -1.354796
     10          6           0       -3.102874    0.167778   -1.140353
     11          6           0       -2.031604    0.656233   -0.372816
     12          6           0       -1.894661    2.033259   -0.145327
     13          6           0       -0.846782    2.528318    0.625966
     14          6           0        0.089598    1.652450    1.167548
     15          1           0        3.540102   -0.793761   -1.794571
     16          1           0        4.541275    0.378943   -1.273383
     17          1           0        2.360695    0.869047   -0.582757
     18          1           0        3.406256    0.567132    0.805206
     19          1           0        2.580486   -1.824052    0.880605
     20          1           0        1.470109   -1.479862   -0.433971
     21          1           0        1.519260   -0.111867    2.214158
     22          1           0       -0.621023   -2.351179    0.414604
     23          1           0       -2.499143   -3.167517   -0.943774
     24          1           0       -4.104379   -1.561628   -1.946484
     25          1           0       -3.826571    0.854780   -1.573679
     26          1           0       -2.614691    2.733975   -0.562629
     27          1           0       -0.757053    3.597195    0.799665
     28          1           0        0.909559    2.060462    1.752387
 ---------------------------------------------------------------------
                    Distance matrix (angstroms):
                    1          2          3          4          5
     1  N    0.000000
     2  C    1.465249   0.000000
     3  C    2.499809   1.542118   0.000000
     4  N    3.804332   2.511346   1.474399   0.000000
     5  C    4.465606   3.109357   2.432307   1.417220   0.000000
     6  C    5.191881   4.038802   3.178548   2.485943   1.423452
     7  C    5.488696   4.562181   3.365883   2.954756   2.495584
     8  C    6.566025   5.779173   4.644023   4.349784   3.772560
     9  C    7.295835   6.460542   5.545726   5.167385   4.254840
    10  C    7.102277   6.127565   5.452610   4.928230   3.737240
    11  C    6.126471   5.001452   4.424777   3.762608   2.449787
    12  C    6.406864   5.199329   4.971864   4.221264   2.807272
    13  C    5.861165   4.544478   4.548172   3.707977   2.433071
    14  C    4.882115   3.463360   3.364111   2.422908   1.404678
    15  H    1.020473   2.042626   2.719397   4.106890   4.609954
    16  H    1.019794   2.039520   3.376220   4.541970   5.064775
    17  H    2.090061   1.095248   2.178923   2.818976   2.884882
    18  H    2.090823   1.095820   2.171228   2.710618   3.429857
    19  H    2.706099   2.162411   1.096818   2.078076   3.328432
    20  H    2.773523   2.176700   1.095977   2.137545   2.675201
    21  H    4.019996   2.682009   2.064538   1.017802   2.017363
    22  H    5.174110   4.334834   2.921057   2.641294   2.743029
    23  H    7.037117   6.392486   5.151168   4.992874   4.647820
    24  H    8.220181   7.466818   6.553502   6.232477   5.341307
    25  H    7.925750   6.964232   6.424238   5.890386   4.615837
    26  H    7.309250   6.160663   6.020697   5.308412   3.895046
    27  H    6.441470   5.157619   5.387916   4.573746   3.416005
    28  H    4.775998   3.350903   3.528705   2.644936   2.166980
                    6          7          8          9         10
     6  C    0.000000
     7  C    1.413117   0.000000
     8  C    2.454999   1.396388   0.000000
     9  C    2.831715   2.409636   1.388591   0.000000
    10  C    2.444496   2.775347   2.407391   1.394421   0.000000
    11  C    1.418031   2.422053   2.807888   2.436943   1.405461
    12  C    2.439792   3.710322   4.209988   3.715282   2.435133
    13  C    2.820346   4.231657   5.074565   4.866862   3.712410
    14  C    2.442501   3.758342   4.896268   5.076600   4.209814
    15  H    5.063533   5.214930   6.132710   6.834219   6.744011
    16  H    5.849242   6.296953   7.356046   7.967581   7.648223
    17  H    3.705674   4.462568   5.587450   6.046317   5.536541
    18  H    4.610827   5.258032   6.559072   7.234111   6.805399
    19  H    4.055125   3.989584   5.232684   6.291989   6.352341
    20  H    2.907238   2.800302   3.905046   4.834694   4.911809
    21  H    3.309207   3.910040   5.303610   6.069436   5.717960
    22  H    2.168765   1.088173   2.141135   3.385449   3.862980
    23  H    3.433524   2.154743   1.086520   2.151832   3.395192
    24  H    3.918248   3.396567   2.150371   1.086541   2.154925
    25  H    3.433485   3.863051   3.384422   2.140750   1.087879
    26  H    3.429889   4.586039   4.844858   4.065885   2.675342
    27  H    3.906949   5.318011   6.131167   5.827537   4.585569
    28  H    3.432458   4.654399   5.877424   6.143025   5.296208
                   11         12         13         14         15
    11  C    0.000000
    12  C    1.402392   0.000000
    13  C    2.430241   1.392130   0.000000
    14  C    2.804401   2.409552   1.391856   0.000000
    15  H    5.930243   6.344186   6.011652   5.163727   0.000000
    16  H    6.640080   6.740218   6.103974   5.234252   1.627643
    17  H    4.402461   4.433372   3.808162   2.972401   2.371587
    18  H    5.564710   5.581465   4.686865   3.508479   2.937479
    19  H    5.384631   5.996525   5.545640   4.286364   3.023066
    20  H    4.102272   4.873090   4.749416   3.779160   2.570377
    21  H    4.459938   4.671572   3.884724   2.500428   4.540781
    22  H    3.413839   4.599888   4.889287   4.135330   4.961951
    23  H    3.894310   5.296318   6.134893   5.864413   6.544544
    24  H    3.419318   4.588053   5.827272   6.133265   7.684451
    25  H    2.168732   2.676056   4.064272   4.846337   7.552109
    26  H    2.166340   1.087928   2.140223   3.387682   7.200282
    27  H    3.412982   2.152453   1.086609   2.152717   6.669040
    28  H    3.890859   3.386105   2.138328   1.086668   5.258066
                   16         17         18         19         20
    16  H    0.000000
    17  H    2.339251   0.000000
    18  H    2.375756   1.763743   0.000000
    19  H    3.652060   3.072868   2.530877   0.000000
    20  H    3.686710   2.516476   3.078052   1.754854   0.000000
    21  H    4.640734   3.081062   2.450906   2.415810   2.981009
    22  H    6.078831   4.500581   4.988796   3.277907   2.419113
    23  H    7.890090   6.327892   7.202796   5.562004   4.343161
    24  H    8.886294   7.040250   8.277261   7.262831   5.776617
    25  H    8.386742   6.266130   7.619424   7.365461   5.899517
    26  H    7.566980   5.313457   6.543545   7.060339   5.870141
    27  H    6.536586   4.367406   5.149219   6.366760   5.679666
    28  H    5.017186   2.996359   3.059523   4.317574   4.198604
                   21         22         23         24         25
    21  H    0.000000
    22  H    3.582419   0.000000
    23  H    5.954586   2.457424   0.000000
    24  H    7.144093   4.281576   2.482155   0.000000
    25  H    6.622690   4.950452   4.282257   2.460729   0.000000
    26  H    5.735757   5.548737   5.914916   4.752518   2.454026
    27  H    4.575974   5.962376   7.199707   6.734937   4.751372
    28  H    2.303038   4.857461   6.798552   7.206994   5.911625
                   26         27         28
    26  H    0.000000
    27  H    2.460043   0.000000
    28  H    4.270041   2.459029   0.000000
 Stoichiometry    C12H14N2
 Framework group  C1[X(C12H14N2)]
 Deg. of freedom    78
 Full point group                 C1      NOp   1
 Largest Abelian subgroup         C1      NOp   1
 Largest concise Abelian subgroup C1      NOp   1
                         Standard orientation:                         
 ---------------------------------------------------------------------
 Center     Atomic      Atomic             Coordinates (Angstroms)
 Number     Number       Type             X           Y           Z
 ---------------------------------------------------------------------
      1          7           0       -4.045965   -0.859064    1.315983
      2          6           0       -3.137589   -0.070482    0.479357
      3          6           0       -2.262926   -0.953474   -0.433560
      4          7           0       -1.462030   -0.166177   -1.388851
      5          6           0       -0.372082    0.529727   -0.808984
      6          6           0        0.808703   -0.137926   -0.377471
      7          6           0        1.051836   -1.510199   -0.611251
      8          6           0        2.220432   -2.135899   -0.172181
      9          6           0        3.184401   -1.401038    0.505261
     10          6           0        2.984687   -0.039753    0.732041
     11          6           0        1.814748    0.603352    0.292746
     12          6           0        1.640920    1.978457    0.506226
     13          6           0        0.493591    2.630048    0.062276
     14          6           0       -0.504827    1.910530   -0.587892
     15          1           0       -3.498041   -1.455784    1.936523
     16          1           0       -4.567566   -0.228917    1.924938
     17          1           0       -2.506614    0.542644    1.131673
     18          1           0       -3.733621    0.615311   -0.133224
     19          1           0       -2.914960   -1.606899   -1.025927
     20          1           0       -1.634178   -1.614612    0.173677
     21          1           0       -2.057733    0.469092   -1.915627
     22          1           0        0.322725   -2.100114   -1.163081
     23          1           0        2.375411   -3.193158   -0.368936
     24          1           0        4.096833   -1.881932    0.846994
     25          1           0        3.758335    0.521606    1.251488
     26          1           0        2.408643    2.557458    1.015094
     27          1           0        0.375471    3.697347    0.228533
     28          1           0       -1.400106    2.434581   -0.911455
 ---------------------------------------------------------------------
 Rotational constants (GHZ):           1.0750487           0.4819602           0.3878033
 Standard basis: 6-31G(d,p) (6D, 7F)
 There are   280 symmetry adapted cartesian basis functions of A   symmetry.
 There are   280 symmetry adapted basis functions of A   symmetry.
   280 basis functions,   490 primitive gaussians,   280 cartesian basis functions
    50 alpha electrons       50 beta electrons
       nuclear repulsion energy       841.0591871411 Hartrees.
 NAtoms=   28 NActive=   28 NUniq=   28 SFac= 1.00D+00 NAtFMM=   60 NAOKFM=F Big=F
 Integral buffers will be    131072 words long.
 Raffenetti 2 integral format.
 Two-electron integral symmetry is turned on.
 Force inversion solution in PCM.
 ------------------------------------------------------------------------------
 Polarizable Continuum Model (PCM)
 =================================
 Model                : PCM.
 Atomic radii         : UFF (Universal Force Field).
 Polarization charges : Total charges.
 Charge compensation  : None.
 Solution method      : Matrix inversion.
 Cavity type          : Scaled VdW (van der Waals Surface) (Alpha=1.100).
 Cavity algorithm     : GePol (No added spheres)
                        Default sphere list used, NSphG=   28.
                        Lebedev-Laikov grids with approx.  5.0 points / Ang**2.
                        Smoothing algorithm: York/Karplus (Gamma=1.0000).
                        Polarization charges: spherical gaussians, with
                                              point-specific exponents (IZeta= 3).
                        Self-potential: point-specific (ISelfS= 7).
                        Self-field    : sphere-specific E.n sum rule (ISelfD= 2).
 1st derivatives      : Analytical E(r).r(x)/FMM algorithm (CHGder, D1EAlg=3).
                        Cavity 1st derivative terms included.
 2nd derivatives      : Analytical E(r).r(xy)/FMM algorithm (CHGder, D2EAlg=3).
                        Cavity 2nd derivative terms included.
 Solvent              : Water, Eps=  78.355300 Eps(inf)=   1.777849
 ------------------------------------------------------------------------------
 One-electron integrals computed using PRISM.
 NBasis=   280 RedAO= T EigKep=  2.58D-04  NBF=   280
 NBsUse=   280 1.00D-06 EigRej= -1.00D+00 NBFU=   280
 ExpMin= 1.61D-01 ExpMax= 4.17D+03 ExpMxC= 6.27D+02 IAcc=3 IRadAn=         5 AccDes= 0.00D+00
 Harris functional with IExCor=  402 and IRadAn=       5 diagonalized for initial guess.
 HarFok:  IExCor=  402 AccDes= 0.00D+00 IRadAn=         5 IDoV= 1 UseB2=F ITyADJ=14
 ICtDFT=  3500011 ScaDFX=  1.000000  1.000000  1.000000  1.000000
 FoFCou: FMM=F IPFlag=           0 FMFlag=      100000 FMFlg1=           0
         NFxFlg=           0 DoJE=T BraDBF=F KetDBF=T FulRan=T
         wScrn=  0.000000 ICntrl=       500 IOpCl=  0 I1Cent=   200000004 NGrid=           0
         NMat0=    1 NMatS0=      1 NMatT0=    0 NMatD0=    1 NMtDS0=    0 NMtDT0=    0
 Petite list used in FoFCou.
 Keep R1 ints in memory in canonical form, NReq=784933199.
 Requested convergence on RMS density matrix=1.00D-08 within  32 cycles.
 Requested convergence on MAX density matrix=1.00D-06.
 Requested convergence on             energy=1.00D-06.
 No special actions if energy rises.
 Inv3:  Mode=1 IEnd=    12879552.
 Iteration    1 A*A^-1 deviation from unit magnitude is 7.11D-15 for   1598.
 Iteration    1 A*A^-1 deviation from orthogonality  is 4.71D-15 for   1782   1225.
 Iteration    1 A^-1*A deviation from unit magnitude is 6.66D-15 for    819.
 Iteration    1 A^-1*A deviation from orthogonality  is 5.13D-15 for   2000   1333.
 Error on total polarization charges =  0.00977
 SCF Done:  E(RB3LYP) =  -575.231089850     A.U. after   13 cycles
            NFock= 13  Conv=0.28D-08     -V/T= 2.0096
 QCSCF skips out because SCF is already converged.
 DoSCS=F DFT=T ScalE2(SS,OS)=  1.000000  1.000000
 Range of M.O.s used for correlation:     1   280
 NBasis=   280 NAE=    50 NBE=    50 NFC=     0 NFV=     0
 NROrb=    280 NOA=    50 NOB=    50 NVA=   230 NVB=   230
 Symmetrizing basis deriv contribution to polar:
 IMax=3 JMax=2 DiffMx= 0.00D+00
 G2DrvN: will do    29 centers at a time, making    1 passes.
 Calling FoFCou, ICntrl=  3107 FMM=F I1Cent=   0 AccDes= 0.00D+00.
 NEqPCM:  Using equilibrium solvation (IEInf=0, Eps=  78.3553, EpsInf=   1.7778)
 G2PCM: DoFxE=T DoFxN=T DoGrad=T DoDP/DQ/DG/TGxP=FFFF NFrqRd=   0 IEInf=0 SqF1=F DoCFld=F IF1Alg=4.
 End of G2Drv F.D. properties file   721 does not exist.
 End of G2Drv F.D. properties file   722 does not exist.
 End of G2Drv F.D. properties file   788 does not exist.
          IDoAtm=1111111111111111111111111111
 NEqPCM:  Using equilibrium solvation (IEInf=0, Eps=  78.3553, EpsInf=   1.7778)
          Differentiating once with respect to nuclear coordinates.
 Keep R1 ints in memory in canonical form, NReq=784944744.
          There are    87 degrees of freedom in the 1st order CPHF.  IDoFFX=6 NUNeed=     0.
     81 vectors produced by pass  0 Test12= 1.32D-14 1.15D-09 XBig12= 1.39D-01 1.09D-01.
 AX will form    81 AO Fock derivatives at one time.
     81 vectors produced by pass  1 Test12= 1.32D-14 1.15D-09 XBig12= 3.45D-02 4.29D-02.
     81 vectors produced by pass  2 Test12= 1.32D-14 1.15D-09 XBig12= 2.20D-04 2.20D-03.
     81 vectors produced by pass  3 Test12= 1.32D-14 1.15D-09 XBig12= 5.08D-07 1.03D-04.
     81 vectors produced by pass  4 Test12= 1.32D-14 1.15D-09 XBig12= 7.61D-10 2.38D-06.
     55 vectors produced by pass  5 Test12= 1.32D-14 1.15D-09 XBig12= 8.24D-13 8.56D-08.
      8 vectors produced by pass  6 Test12= 1.32D-14 1.15D-09 XBig12= 7.73D-16 2.84D-09.
 InvSVY:  IOpt=1 It=  1 EMax= 7.22D-16
 Solved reduced A of dimension   468 with    87 vectors.
 End of Minotr F.D. properties file   721 does not exist.
 End of Minotr F.D. properties file   722 does not exist.
 End of Minotr F.D. properties file   788 does not exist.

 **********************************************************************

            Population analysis using the SCF density.

 **********************************************************************

 Orbital symmetries:
       Occupied  (A) (A) (A) (A) (A) (A) (A) (A) (A) (A) (A) (A)
                 (A) (A) (A) (A) (A) (A) (A) (A) (A) (A) (A) (A)
                 (A) (A) (A) (A) (A) (A) (A) (A) (A) (A) (A) (A)
                 (A) (A) (A) (A) (A) (A) (A) (A) (A) (A) (A) (A)
                 (A) (A)
       Virtual   (A) (A) (A) (A) (A) (A) (A) (A) (A) (A) (A) (A)
                 (A) (A) (A) (A) (A) (A) (A) (A) (A) (A) (A) (A)
                 (A) (A) (A) (A) (A) (A) (A) (A) (A) (A) (A) (A)
                 (A) (A) (A) (A) (A) (A) (A) (A) (A) (A) (A) (A)
                 (A) (A) (A) (A) (A) (A) (A) (A) (A) (A) (A) (A)
                 (A) (A) (A) (A) (A) (A) (A) (A) (A) (A) (A) (A)
                 (A) (A) (A) (A) (A) (A) (A) (A) (A) (A) (A) (A)
                 (A) (A) (A) (A) (A) (A) (A) (A) (A) (A) (A) (A)
                 (A) (A) (A) (A) (A) (A) (A) (A) (A) (A) (A) (A)
                 (A) (A) (A) (A) (A) (A) (A) (A) (A) (A) (A) (A)
                 (A) (A) (A) (A) (A) (A) (A) (A) (A) (A) (A) (A)
                 (A) (A) (A) (A) (A) (A) (A) (A) (A) (A) (A) (A)
                 (A) (A) (A) (A) (A) (A) (A) (A) (A) (A) (A) (A)
                 (A) (A) (A) (A) (A) (A) (A) (A) (A) (A) (A) (A)
                 (A) (A) (A) (A) (A) (A) (A) (A) (A) (A) (A) (A)
                 (A) (A) (A) (A) (A) (A) (A) (A) (A) (A) (A) (A)
                 (A) (A) (A) (A) (A) (A) (A) (A) (A) (A) (A) (A)
                 (A) (A) (A) (A) (A) (A) (A) (A) (A) (A) (A) (A)
                 (A) (A) (A) (A) (A) (A) (A) (A) (A) (A) (A) (A)
                 (A) (A)
 The electronic state is 1-A.
 Alpha  occ. eigenvalues --  -14.33367 -14.30905 -10.22446 -10.21152 -10.20133
 Alpha  occ. eigenvalues --  -10.19638 -10.19518 -10.19048 -10.18988 -10.18940
 Alpha  occ. eigenvalues --  -10.18892 -10.18856 -10.18485 -10.18356  -0.92625
 Alpha  occ. eigenvalues --   -0.87529  -0.86460  -0.81564  -0.76453  -0.74469
 Alpha  occ. eigenvalues --   -0.72084  -0.68718  -0.62696  -0.61706  -0.60097
 Alpha  occ. eigenvalues --   -0.58444  -0.52066  -0.50932  -0.49564  -0.48149
 Alpha  occ. eigenvalues --   -0.47774  -0.45551  -0.44277  -0.42344  -0.42136
 Alpha  occ. eigenvalues --   -0.41523  -0.40555  -0.39528  -0.38959  -0.37588
 Alpha  occ. eigenvalues --   -0.37162  -0.35111  -0.33555  -0.33304  -0.32641
 Alpha  occ. eigenvalues --   -0.28958  -0.24936  -0.24425  -0.23262  -0.19487
 Alpha virt. eigenvalues --   -0.04200  -0.00647   0.03339   0.08511   0.08940
 Alpha virt. eigenvalues --    0.09720   0.10916   0.11352   0.13831   0.14228
 Alpha virt. eigenvalues --    0.16189   0.16792   0.17184   0.18057   0.18225
 Alpha virt. eigenvalues --    0.19179   0.19786   0.20116   0.20952   0.23936
 Alpha virt. eigenvalues --    0.24707   0.25653   0.26473   0.27433   0.28938
 Alpha virt. eigenvalues --    0.31828   0.32324   0.32963   0.36459   0.38606
 Alpha virt. eigenvalues --    0.47497   0.49868   0.50608   0.51083   0.51473
 Alpha virt. eigenvalues --    0.52244   0.53850   0.54489   0.54963   0.55944
 Alpha virt. eigenvalues --    0.56303   0.56563   0.59347   0.59676   0.60017
 Alpha virt. eigenvalues --    0.60366   0.61360   0.61587   0.62077   0.62460
 Alpha virt. eigenvalues --    0.63977   0.64497   0.65559   0.67231   0.69030
 Alpha virt. eigenvalues --    0.69257   0.71254   0.72193   0.73197   0.76632
 Alpha virt. eigenvalues --    0.78010   0.79249   0.81078   0.81586   0.82056
 Alpha virt. eigenvalues --    0.83635   0.83916   0.84483   0.85532   0.86547
 Alpha virt. eigenvalues --    0.87112   0.88161   0.89042   0.90079   0.90955
 Alpha virt. eigenvalues --    0.92369   0.94026   0.95095   0.97290   0.97681
 Alpha virt. eigenvalues --    0.98906   0.99912   1.01877   1.03207   1.03591
 Alpha virt. eigenvalues --    1.06400   1.06570   1.10621   1.13774   1.18117
 Alpha virt. eigenvalues --    1.18915   1.21009   1.23235   1.24685   1.25302
 Alpha virt. eigenvalues --    1.27857   1.29909   1.32368   1.33529   1.35107
 Alpha virt. eigenvalues --    1.35812   1.38086   1.38882   1.40763   1.41599
 Alpha virt. eigenvalues --    1.43163   1.43760   1.45813   1.48298   1.51816
 Alpha virt. eigenvalues --    1.53196   1.55478   1.61975   1.69128   1.71228
 Alpha virt. eigenvalues --    1.76283   1.77063   1.78073   1.79341   1.80576
 Alpha virt. eigenvalues --    1.83974   1.84521   1.86099   1.86332   1.87373
 Alpha virt. eigenvalues --    1.88701   1.89703   1.90302   1.92641   1.93429
 Alpha virt. eigenvalues --    1.94994   1.96909   1.97378   1.97822   1.99390
 Alpha virt. eigenvalues --    2.00784   2.02137   2.04394   2.05509   2.08657
 Alpha virt. eigenvalues --    2.09426   2.09858   2.13579   2.15970   2.18393
 Alpha virt. eigenvalues --    2.22048   2.23432   2.24231   2.25264   2.27171
 Alpha virt. eigenvalues --    2.27297   2.28588   2.30536   2.31203   2.31791
 Alpha virt. eigenvalues --    2.32258   2.34158   2.35745   2.38631   2.39119
 Alpha virt. eigenvalues --    2.40274   2.41599   2.43687   2.45158   2.45712
 Alpha virt. eigenvalues --    2.46481   2.49717   2.49978   2.52298   2.52685
 Alpha virt. eigenvalues --    2.54276   2.55952   2.57426   2.59476   2.60963
 Alpha virt. eigenvalues --    2.61926   2.63336   2.63711   2.64775   2.66348
 Alpha virt. eigenvalues --    2.68296   2.70247   2.71370   2.74358   2.75551
 Alpha virt. eigenvalues --    2.77627   2.79047   2.80627   2.82196   2.84476
 Alpha virt. eigenvalues --    2.88975   2.89566   2.94531   2.95293   2.97904
 Alpha virt. eigenvalues --    3.03254   3.05203   3.12123   3.17884   3.18889
 Alpha virt. eigenvalues --    3.24276   3.24391   3.24918   3.26501   3.30105
 Alpha virt. eigenvalues --    3.32988   3.33940   3.36341   3.39615   3.42664
 Alpha virt. eigenvalues --    3.47719   3.48243   3.53310   3.57560   3.79188
 Alpha virt. eigenvalues --    3.87706   3.96739   4.11925   4.14203   4.16105
 Alpha virt. eigenvalues --    4.16444   4.18647   4.26883   4.36214   4.41671
 Alpha virt. eigenvalues --    4.42271   4.51670   4.64850   4.66285   4.93240
          Condensed to atoms (all electrons):
               1          2          3          4          5          6
     1  N    6.819062   0.272938  -0.043720   0.003132  -0.000070  -0.000012
     2  C    0.272938   4.879199   0.360599  -0.059446   0.001300  -0.000105
     3  C   -0.043720   0.360599   4.859349   0.298444  -0.046834  -0.009778
     4  N    0.003132  -0.059446   0.298444   6.904658   0.300540  -0.062067
     5  C   -0.000070   0.001300  -0.046834   0.300540   4.931187   0.414338
     6  C   -0.000012  -0.000105  -0.009778  -0.062067   0.414338   4.835102
     7  C   -0.000007   0.000379  -0.001435  -0.008833  -0.104235   0.419896
     8  C   -0.000000   0.000002  -0.000024   0.000433   0.008279  -0.011562
     9  C    0.000000   0.000000  -0.000000   0.000002  -0.000856  -0.039093
    10  C    0.000000  -0.000000   0.000002  -0.000105   0.015584  -0.025895
    11  C    0.000001  -0.000048  -0.000198   0.005665  -0.007292   0.479214
    12  C   -0.000000   0.000013   0.000037  -0.000001  -0.073545  -0.035654
    13  C    0.000003  -0.000207  -0.000197   0.008586   0.007456  -0.046776
    14  C    0.000005   0.000234  -0.000148  -0.100227   0.475674  -0.018084
    15  H    0.341379  -0.038844  -0.005914  -0.000044  -0.000013  -0.000006
    16  H    0.338602  -0.030354   0.004816  -0.000171   0.000007   0.000001
    17  H   -0.051273   0.386114  -0.045274  -0.001126   0.006773   0.000862
    18  H   -0.038738   0.382723  -0.033368  -0.001004  -0.001751  -0.000034
    19  H    0.007948  -0.050240   0.373237  -0.035434   0.003965   0.000533
    20  H   -0.000206  -0.044468   0.388235  -0.032734  -0.008370   0.004603
    21  H    0.000032  -0.005199  -0.037320   0.356075  -0.043302   0.004853
    22  H   -0.000003   0.000193  -0.000804   0.010263  -0.011117  -0.039506
    23  H    0.000000  -0.000000  -0.000001  -0.000003  -0.000194   0.002707
    24  H   -0.000000  -0.000000   0.000000   0.000000   0.000015   0.001099
    25  H   -0.000000   0.000000   0.000000   0.000001  -0.000181   0.004195
    26  H   -0.000000   0.000000  -0.000000   0.000005   0.000763   0.004344
    27  H   -0.000000  -0.000002   0.000002  -0.000151   0.002572   0.001567
    28  H   -0.000002   0.000253  -0.000020  -0.008332  -0.038016   0.003871
               7          8          9         10         11         12
     1  N   -0.000007  -0.000000   0.000000   0.000000   0.000001  -0.000000
     2  C    0.000379   0.000002   0.000000  -0.000000  -0.000048   0.000013
     3  C   -0.001435  -0.000024  -0.000000   0.000002  -0.000198   0.000037
     4  N   -0.008833   0.000433   0.000002  -0.000105   0.005665  -0.000001
     5  C   -0.104235   0.008279  -0.000856   0.015584  -0.007292  -0.073545
     6  C    0.419896  -0.011562  -0.039093  -0.025895   0.479214  -0.035654
     7  C    5.130960   0.501484  -0.023571  -0.075746  -0.050268   0.017683
     8  C    0.501484   4.876665   0.500139  -0.026539  -0.038198  -0.000683
     9  C   -0.023571   0.500139   4.879417   0.500474  -0.010019   0.008629
    10  C   -0.075746  -0.026539   0.500474   5.073518   0.447310  -0.093337
    11  C   -0.050268  -0.038198  -0.010019   0.447310   4.759187   0.443379
    12  C    0.017683  -0.000683   0.008629  -0.093337   0.443379   5.092335
    13  C   -0.002356   0.000086  -0.000430   0.008546   0.005549   0.493355
    14  C    0.013956  -0.000321   0.000059  -0.000554  -0.056291  -0.026547
    15  H   -0.000006  -0.000000   0.000000   0.000000  -0.000000  -0.000000
    16  H    0.000000   0.000000   0.000000  -0.000000   0.000000  -0.000000
    17  H    0.000015  -0.000001   0.000000  -0.000002  -0.000106   0.000011
    18  H   -0.000007  -0.000000   0.000000   0.000000   0.000001  -0.000001
    19  H   -0.000260  -0.000010   0.000000  -0.000000   0.000009  -0.000000
    20  H    0.003352   0.000029  -0.000012  -0.000010  -0.000061  -0.000007
    21  H   -0.000306   0.000003  -0.000000   0.000004  -0.000016  -0.000043
    22  H    0.368027  -0.041994   0.004689   0.000579   0.004682  -0.000181
    23  H   -0.034053   0.370985  -0.040148   0.004316   0.001010   0.000010
    24  H    0.004201  -0.039705   0.368579  -0.033515   0.002729  -0.000209
    25  H    0.000564   0.004587  -0.043138   0.370978  -0.039439  -0.008597
    26  H   -0.000202   0.000014   0.000259  -0.008252  -0.040509   0.369912
    27  H    0.000023  -0.000001   0.000003  -0.000245   0.002113  -0.032056
    28  H   -0.000133   0.000002  -0.000000   0.000006   0.000734   0.004645
              13         14         15         16         17         18
     1  N    0.000003   0.000005   0.341379   0.338602  -0.051273  -0.038738
     2  C   -0.000207   0.000234  -0.038844  -0.030354   0.386114   0.382723
     3  C   -0.000197  -0.000148  -0.005914   0.004816  -0.045274  -0.033368
     4  N    0.008586  -0.100227  -0.000044  -0.000171  -0.001126  -0.001004
     5  C    0.007456   0.475674  -0.000013   0.000007   0.006773  -0.001751
     6  C   -0.046776  -0.018084  -0.000006   0.000001   0.000862  -0.000034
     7  C   -0.002356   0.013956  -0.000006   0.000000   0.000015  -0.000007
     8  C    0.000086  -0.000321  -0.000000   0.000000  -0.000001  -0.000000
     9  C   -0.000430   0.000059   0.000000   0.000000   0.000000   0.000000
    10  C    0.008546  -0.000554   0.000000  -0.000000  -0.000002   0.000000
    11  C    0.005549  -0.056291  -0.000000   0.000000  -0.000106   0.000001
    12  C    0.493355  -0.026547  -0.000000  -0.000000   0.000011  -0.000001
    13  C    4.921404   0.436231   0.000000  -0.000000  -0.000012   0.000035
    14  C    0.436231   5.062705   0.000008   0.000008   0.002232   0.000854
    15  H    0.000000   0.000008   0.479588  -0.032278  -0.005226   0.006531
    16  H   -0.000000   0.000008  -0.032278   0.472215  -0.003621  -0.003945
    17  H   -0.000012   0.002232  -0.005226  -0.003621   0.665151  -0.048091
    18  H    0.000035   0.000854   0.006531  -0.003945  -0.048091   0.629702
    19  H    0.000007  -0.000223  -0.000709  -0.000192   0.006745  -0.006527
    20  H    0.000053  -0.000210   0.004382  -0.000172  -0.007102   0.005263
    21  H    0.000470  -0.006112   0.000016  -0.000002  -0.000379   0.005307
    22  H   -0.000012   0.000251  -0.000001   0.000000   0.000013  -0.000002
    23  H   -0.000000   0.000002  -0.000000  -0.000000  -0.000000  -0.000000
    24  H    0.000003  -0.000001   0.000000  -0.000000   0.000000   0.000000
    25  H    0.000299   0.000011   0.000000   0.000000  -0.000000  -0.000000
    26  H   -0.042236   0.004705   0.000000   0.000000   0.000000  -0.000000
    27  H    0.361704  -0.031515  -0.000000   0.000000  -0.000005  -0.000001
    28  H   -0.037631   0.367847   0.000000  -0.000001   0.000269   0.000484
              19         20         21         22         23         24
     1  N    0.007948  -0.000206   0.000032  -0.000003   0.000000  -0.000000
     2  C   -0.050240  -0.044468  -0.005199   0.000193  -0.000000  -0.000000
     3  C    0.373237   0.388235  -0.037320  -0.000804  -0.000001   0.000000
     4  N   -0.035434  -0.032734   0.356075   0.010263  -0.000003   0.000000
     5  C    0.003965  -0.008370  -0.043302  -0.011117  -0.000194   0.000015
     6  C    0.000533   0.004603   0.004853  -0.039506   0.002707   0.001099
     7  C   -0.000260   0.003352  -0.000306   0.368027  -0.034053   0.004201
     8  C   -0.000010   0.000029   0.000003  -0.041994   0.370985  -0.039705
     9  C    0.000000  -0.000012  -0.000000   0.004689  -0.040148   0.368579
    10  C   -0.000000  -0.000010   0.000004   0.000579   0.004316  -0.033515
    11  C    0.000009  -0.000061  -0.000016   0.004682   0.001010   0.002729
    12  C   -0.000000  -0.000007  -0.000043  -0.000181   0.000010  -0.000209
    13  C    0.000007   0.000053   0.000470  -0.000012  -0.000000   0.000003
    14  C   -0.000223  -0.000210  -0.006112   0.000251   0.000002  -0.000001
    15  H   -0.000709   0.004382   0.000016  -0.000001  -0.000000   0.000000
    16  H   -0.000192  -0.000172  -0.000002   0.000000  -0.000000  -0.000000
    17  H    0.006745  -0.007102  -0.000379   0.000013  -0.000000   0.000000
    18  H   -0.006527   0.005263   0.005307  -0.000002  -0.000000   0.000000
    19  H    0.630353  -0.034558  -0.002574   0.000143  -0.000000  -0.000000
    20  H   -0.034558   0.598339   0.005234  -0.000518   0.000003  -0.000000
    21  H   -0.002574   0.005234   0.452084  -0.000207  -0.000000   0.000000
    22  H    0.000143  -0.000518  -0.000207   0.606990  -0.005541  -0.000193
    23  H   -0.000000   0.000003  -0.000000  -0.005541   0.605537  -0.005412
    24  H   -0.000000  -0.000000   0.000000  -0.000193  -0.005412   0.607212
    25  H    0.000000  -0.000000  -0.000000   0.000017  -0.000198  -0.005478
    26  H    0.000000  -0.000000  -0.000000   0.000002   0.000000  -0.000013
    27  H   -0.000000  -0.000000  -0.000012   0.000000  -0.000000  -0.000000
    28  H   -0.000024   0.000024   0.005404  -0.000006  -0.000000   0.000000
              25         26         27         28
     1  N   -0.000000  -0.000000  -0.000000  -0.000002
     2  C    0.000000   0.000000  -0.000002   0.000253
     3  C    0.000000  -0.000000   0.000002  -0.000020
     4  N    0.000001   0.000005  -0.000151  -0.008332
     5  C   -0.000181   0.000763   0.002572  -0.038016
     6  C    0.004195   0.004344   0.001567   0.003871
     7  C    0.000564  -0.000202   0.000023  -0.000133
     8  C    0.004587   0.000014  -0.000001   0.000002
     9  C   -0.043138   0.000259   0.000003  -0.000000
    10  C    0.370978  -0.008252  -0.000245   0.000006
    11  C   -0.039439  -0.040509   0.002113   0.000734
    12  C   -0.008597   0.369912  -0.032056   0.004645
    13  C    0.000299  -0.042236   0.361704  -0.037631
    14  C    0.000011   0.004705  -0.031515   0.367847
    15  H    0.000000   0.000000  -0.000000   0.000000
    16  H    0.000000   0.000000   0.000000  -0.000001
    17  H   -0.000000   0.000000  -0.000005   0.000269
    18  H   -0.000000  -0.000000  -0.000001   0.000484
    19  H    0.000000   0.000000  -0.000000  -0.000024
    20  H   -0.000000  -0.000000  -0.000000   0.000024
    21  H   -0.000000  -0.000000  -0.000012   0.005404
    22  H    0.000017   0.000002   0.000000  -0.000006
    23  H   -0.000198   0.000000  -0.000000  -0.000000
    24  H   -0.005478  -0.000013  -0.000000   0.000000
    25  H    0.609182   0.005517  -0.000011   0.000000
    26  H    0.005517   0.616874  -0.005187  -0.000204
    27  H   -0.000011  -0.005187   0.606194  -0.005470
    28  H    0.000000  -0.000204  -0.005470   0.609237
 Mulliken charges:
               1
     1  N   -0.649070
     2  C   -0.055033
     3  C   -0.059684
     4  N   -0.578125
     5  C    0.167323
     6  C    0.111385
     7  C   -0.159124
     8  C   -0.103670
     9  C   -0.104985
    10  C   -0.157117
    11  C    0.090861
    12  C   -0.159149
    13  C   -0.113933
    14  C   -0.124549
    15  H    0.251137
    16  H    0.255088
    17  H    0.094032
    18  H    0.102569
    19  H    0.107811
    20  H    0.118910
    21  H    0.265989
    22  H    0.104234
    23  H    0.100978
    24  H    0.100687
    25  H    0.101689
    26  H    0.094207
    27  H    0.100477
    28  H    0.097063
 Sum of Mulliken charges =  -0.00000
 Mulliken charges with hydrogens summed into heavy atoms:
               1
     1  N   -0.142845
     2  C    0.141568
     3  C    0.167037
     4  N   -0.312135
     5  C    0.167323
     6  C    0.111385
     7  C   -0.054890
     8  C   -0.002692
     9  C   -0.004298
    10  C   -0.055429
    11  C    0.090861
    12  C   -0.064942
    13  C   -0.013456
    14  C   -0.027486
 APT charges:
               1
     1  N   -1.273015
     2  C   -0.398930
     3  C   -0.726886
     4  N   -0.779222
     5  C   -0.190388
     6  C   -0.461406
     7  C   -0.560899
     8  C   -0.413791
     9  C   -0.460588
    10  C   -0.516956
    11  C   -0.422596
    12  C   -0.509323
    13  C   -0.494222
    14  C   -0.443458
    15  H    0.285120
    16  H    0.804322
    17  H    0.149346
    18  H    0.491396
    19  H    0.564000
    20  H    0.189970
    21  H    0.695579
    22  H    0.368885
    23  H    0.683461
    24  H    0.836901
    25  H    0.688622
    26  H    0.665593
    27  H    0.694241
    28  H    0.534246
 Sum of APT charges =  -0.00000
 APT charges with hydrogens summed into heavy atoms:
               1
     1  N   -0.183573
     2  C    0.241811
     3  C    0.027084
     4  N   -0.083643
     5  C   -0.190388
     6  C   -0.461406
     7  C   -0.192015
     8  C    0.269669
     9  C    0.376313
    10  C    0.171666
    11  C   -0.422596
    12  C    0.156270
    13  C    0.200019
    14  C    0.090788
 Electronic spatial extent (au):  <R**2>=           3025.2408
 Charge=             -0.0000 electrons
 Dipole moment (field-independent basis, Debye):
    X=             -0.4762    Y=              1.2598    Z=              1.5126  Tot=              2.0253
 Quadrupole moment (field-independent basis, Debye-Ang):
   XX=            -80.7509   YY=            -76.2071   ZZ=            -81.0986
   XY=             -7.6846   XZ=              1.4907   YZ=             -0.7526
 Traceless Quadrupole moment (field-independent basis, Debye-Ang):
   XX=             -1.3987   YY=              3.1451   ZZ=             -1.7464
   XY=             -7.6846   XZ=              1.4907   YZ=             -0.7526
 Octapole moment (field-independent basis, Debye-Ang**2):
  XXX=             30.9030  YYY=              1.6178  ZZZ=             12.2433  XYY=              6.4969
  XXY=             25.5832  XXZ=             21.0330  XZZ=            -27.3160  YZZ=             -0.0996
  YYZ=              1.5627  XYZ=              6.2986
 Hexadecapole moment (field-independent basis, Debye-Ang**3):
 XXXX=          -2703.9425 YYYY=          -1002.3088 ZZZZ=           -361.3328 XXXY=           -165.7252
 XXXZ=             12.4072 YYYX=            -25.5062 YYYZ=             12.4718 ZZZX=            -42.9495
 ZZZY=            -18.8210 XXYY=           -610.4376 XXZZ=           -419.5938 YYZZ=           -246.2480
 XXYZ=              8.1156 YYXZ=             10.7444 ZZXY=              8.0122
 N-N= 8.410591871411D+02 E-N=-3.016015779238D+03  KE= 5.697767534600D+02
  Exact polarizability:   0.000   0.000   0.000   0.000   0.000   0.000
 Approx polarizability: 255.800 -34.743 290.366  64.176  20.976 137.646
 D2PCM: PCM CHGder 2nd derivatives, FixD1E=F FixD2E=F DoIter=F DoCFld=F I1PDM=0
 Calling FoFJK, ICntrl=    100147 FMM=F ISym2X=0 I1Cent= 0 IOpClX= 0 NMat=1 NMatS=1 NMatT=0.
 ***** Axes restored to original set *****
 -------------------------------------------------------------------
 Center     Atomic                   Forces (Hartrees/Bohr)
 Number     Number              X              Y              Z
 -------------------------------------------------------------------
      1        7           0.007028702   -0.009712646    0.001040434
      2        6          -0.001803292    0.002307578   -0.009764214
      3        6           0.014894844    0.000250618    0.006390708
      4        7          -0.011056416   -0.010978930   -0.006853760
      5        6           0.016272245    0.025685982    0.007040612
      6        6           0.003992061   -0.012445115    0.003606987
      7        6          -0.005118662   -0.017313711   -0.005206933
      8        6           0.021808612   -0.005186152    0.014788119
      9        6          -0.010491781    0.023348528   -0.005797493
     10        6          -0.013596749   -0.021119471   -0.010561332
     11        6          -0.005500230    0.009362206   -0.003230521
     12        6           0.009376801    0.024221467    0.008763990
     13        6          -0.019984316    0.002095738   -0.009232123
     14        6           0.000821675   -0.015856746    0.002823319
     15        1           0.000685499    0.002139531    0.000776455
     16        1          -0.001647594   -0.001812473    0.000055299
     17        1          -0.008237757    0.003647985    0.005864222
     18        1           0.000251674   -0.000979428    0.001325519
     19        1           0.001839235    0.000056750   -0.001824035
     20        1          -0.003735023    0.002624078    0.003262080
     21        1           0.000182875   -0.000201227   -0.003718656
     22        1          -0.000108646    0.003038724   -0.000029280
     23        1           0.000645334    0.000318836    0.000784671
     24        1           0.000059110    0.000825287   -0.000149166
     25        1           0.002316531    0.001818784    0.001693574
     26        1          -0.000484732   -0.002738239   -0.001218757
     27        1           0.000012693   -0.000354139   -0.000256246
     28        1           0.001577306   -0.003043818   -0.000373473
 -------------------------------------------------------------------
 Cartesian Forces:  Max     0.025685982 RMS     0.008673727
 FormGI is forming the generalized inverse of G from B-inverse, IUseBI=4.

 GradGradGradGradGradGradGradGradGradGradGradGradGradGradGradGradGradGrad
 Berny optimization.
 Internal  Forces:  Max     0.022005269 RMS     0.004901870
 Search for a local minimum.
 Step number   1 out of a maximum of  156
 All quantities printed in internal units (Hartrees-Bohrs-Radians)
 Mixed Optimization -- RFO/linear search
 Second derivative matrix not updated -- analytic derivatives used.
 ITU=  0
     Eigenvalues ---    0.00152   0.00211   0.00289   0.00752   0.01527
     Eigenvalues ---    0.01612   0.01731   0.01767   0.01956   0.02030
     Eigenvalues ---    0.02145   0.02267   0.02331   0.02385   0.02509
     Eigenvalues ---    0.02545   0.02650   0.02753   0.02764   0.02824
     Eigenvalues ---    0.03336   0.04226   0.04411   0.04640   0.05342
     Eigenvalues ---    0.07964   0.08592   0.10796   0.11021   0.11238
     Eigenvalues ---    0.11551   0.11862   0.12155   0.12380   0.12398
     Eigenvalues ---    0.12581   0.13816   0.14652   0.16718   0.18214
     Eigenvalues ---    0.18736   0.19144   0.19276   0.19743   0.20315
     Eigenvalues ---    0.20559   0.22156   0.23188   0.24837   0.26047
     Eigenvalues ---    0.29250   0.31485   0.32062   0.32838   0.33154
     Eigenvalues ---    0.33749   0.34362   0.35374   0.35586   0.35658
     Eigenvalues ---    0.35788   0.35906   0.35955   0.36042   0.36820
     Eigenvalues ---    0.37564   0.39545   0.40073   0.43666   0.44022
     Eigenvalues ---    0.44050   0.44067   0.44293   0.45754   0.46854
     Eigenvalues ---    0.48026   0.49108   0.51436
 RFO step:  Lambda=-1.27563614D-02 EMin= 1.52264648D-03
 Linear search not attempted -- first point.
 Iteration  1 RMS(Cart)=  0.10982072 RMS(Int)=  0.00230707
 Iteration  2 RMS(Cart)=  0.00444969 RMS(Int)=  0.00039344
 Iteration  3 RMS(Cart)=  0.00000650 RMS(Int)=  0.00039342
 Iteration  4 RMS(Cart)=  0.00000000 RMS(Int)=  0.00039342
 Variable       Old X    -DE/DX   Delta X   Delta X   Delta X     New X
                                 (Linear)    (Quad)   (Total)
    R1        2.76892   0.00638   0.00000   0.00831   0.00831   2.77723
    R2        1.92841  -0.00174   0.00000  -0.00240  -0.00240   1.92601
    R3        1.92713  -0.00233   0.00000  -0.00343  -0.00343   1.92370
    R4        2.91418  -0.00527   0.00000  -0.01699  -0.01699   2.89719
    R5        2.06972   0.00405   0.00000   0.01258   0.01258   2.08230
    R6        2.07080   0.00073   0.00000   0.00328   0.00328   2.07408
    R7        2.78621   0.00152   0.00000  -0.00002  -0.00002   2.78619
    R8        2.07269   0.00020   0.00000  -0.00188  -0.00188   2.07081
    R9        2.07110  -0.00189   0.00000  -0.00350  -0.00350   2.06759
   R10        2.67816   0.00507   0.00000   0.00194   0.00194   2.68010
   R11        1.92337  -0.00281   0.00000  -0.00305  -0.00305   1.92032
   R12        2.68993   0.00462   0.00000   0.02442   0.02450   2.71444
   R13        2.65446  -0.00974   0.00000  -0.03570  -0.03556   2.61889
   R14        2.67040   0.00469   0.00000   0.01512   0.01511   2.68551
   R15        2.67969   0.01747   0.00000   0.03052   0.03049   2.71018
   R16        2.63879  -0.01256   0.00000  -0.03419  -0.03420   2.60459
   R17        2.05635  -0.00210   0.00000  -0.00733  -0.00733   2.04902
   R18        2.62406   0.02201   0.00000   0.04645   0.04645   2.67051
   R19        2.05323  -0.00050   0.00000  -0.00098  -0.00098   2.05225
   R20        2.63507  -0.01121   0.00000  -0.03290  -0.03288   2.60219
   R21        2.05327  -0.00024   0.00000  -0.00092  -0.00092   2.05234
   R22        2.65594   0.01163   0.00000   0.02933   0.02934   2.68528
   R23        2.05579  -0.00107   0.00000  -0.00179  -0.00179   2.05400
   R24        2.65014   0.01353   0.00000   0.03308   0.03295   2.68309
   R25        2.63075  -0.01013   0.00000  -0.03018  -0.03028   2.60046
   R26        2.05589  -0.00097   0.00000  -0.00289  -0.00289   2.05300
   R27        2.63023   0.01767   0.00000   0.03800   0.03804   2.66826
   R28        2.05339  -0.00039   0.00000  -0.00085  -0.00085   2.05255
   R29        2.05350  -0.00015   0.00000   0.00025   0.00025   2.05376
    A1        1.90609  -0.00058   0.00000  -0.00667  -0.00668   1.89940
    A2        1.90232   0.00005   0.00000   0.00122   0.00120   1.90352
    A3        1.84714  -0.00065   0.00000  -0.01202  -0.01206   1.83508
    A4        1.96219  -0.00878   0.00000  -0.04045  -0.04055   1.92164
    A5        1.89480   0.01066   0.00000   0.08057   0.08056   1.97536
    A6        1.89526   0.00132   0.00000  -0.00515  -0.00617   1.88909
    A7        1.92449  -0.00282   0.00000  -0.01690  -0.01628   1.90821
    A8        1.91336   0.00146   0.00000  -0.00952  -0.01016   1.90320
    A9        1.87125  -0.00140   0.00000  -0.00630  -0.00691   1.86434
   A10        1.96699   0.00811   0.00000   0.02859   0.02838   1.99537
   A11        1.90039  -0.00371   0.00000  -0.00257  -0.00313   1.89726
   A12        1.92069  -0.00007   0.00000  -0.00477  -0.00462   1.91607
   A13        1.86618   0.00101   0.00000   0.01961   0.01934   1.88552
   A14        1.94924  -0.00736   0.00000  -0.05039  -0.05019   1.89905
   A15        1.85553   0.00172   0.00000   0.01035   0.01054   1.86607
   A16        1.99859   0.01435   0.00000   0.05656   0.05667   2.05525
   A17        1.92911  -0.00476   0.00000  -0.02299  -0.02288   1.90623
   A18        1.93415  -0.00464   0.00000  -0.01788  -0.01769   1.91646
   A19        2.13138  -0.01297   0.00000  -0.04410  -0.04514   2.08624
   A20        2.06509   0.01506   0.00000   0.05252   0.05141   2.11650
   A21        2.08489  -0.00192   0.00000  -0.00393  -0.00454   2.08034
   A22        2.15083  -0.00386   0.00000  -0.01209  -0.01215   2.13869
   A23        2.07900  -0.00009   0.00000  -0.00293  -0.00280   2.07620
   A24        2.05304   0.00395   0.00000   0.01492   0.01485   2.06788
   A25        2.12598  -0.00329   0.00000  -0.01207  -0.01211   2.11388
   A26        2.08870  -0.00062   0.00000  -0.01367  -0.01366   2.07504
   A27        2.06834   0.00391   0.00000   0.02565   0.02566   2.09400
   A28        2.09120   0.00331   0.00000   0.00901   0.00899   2.10019
   A29        2.09260  -0.00258   0.00000  -0.00046  -0.00045   2.09216
   A30        2.09935  -0.00073   0.00000  -0.00856  -0.00855   2.09080
   A31        2.09042   0.00207   0.00000   0.00435   0.00436   2.09478
   A32        2.09691  -0.00023   0.00000  -0.00510  -0.00511   2.09181
   A33        2.09578  -0.00184   0.00000   0.00069   0.00068   2.09646
   A34        2.11191  -0.00080   0.00000   0.00226   0.00228   2.11419
   A35        2.07094   0.00372   0.00000   0.02735   0.02734   2.09828
   A36        2.10031  -0.00291   0.00000  -0.02964  -0.02965   2.07066
   A37        2.09336  -0.00525   0.00000  -0.01888  -0.01887   2.07450
   A38        2.09046  -0.00109   0.00000  -0.00146  -0.00155   2.08891
   A39        2.09934   0.00634   0.00000   0.02026   0.02028   2.11962
   A40        2.10896  -0.00395   0.00000  -0.01167  -0.01181   2.09715
   A41        2.10085  -0.00094   0.00000  -0.02068  -0.02061   2.08025
   A42        2.07333   0.00488   0.00000   0.03231   0.03237   2.10570
   A43        2.09231   0.00315   0.00000   0.01198   0.01199   2.10431
   A44        2.09501  -0.00165   0.00000   0.00281   0.00274   2.09775
   A45        2.09585  -0.00150   0.00000  -0.01487  -0.01494   2.08091
   A46        2.11052   0.00388   0.00000   0.00740   0.00768   2.11820
   A47        2.10024  -0.00535   0.00000  -0.01907  -0.01922   2.08102
   A48        2.07234   0.00147   0.00000   0.01168   0.01155   2.08389
    D1        1.08846   0.00114   0.00000   0.04516   0.04474   1.13320
    D2       -1.04549   0.00303   0.00000   0.03675   0.03724  -1.00825
    D3       -3.07450  -0.00179   0.00000   0.00344   0.00334  -3.07116
    D4        3.09879   0.00008   0.00000   0.02788   0.02748   3.12627
    D5        0.96483   0.00197   0.00000   0.01947   0.01998   0.98481
    D6       -1.06418  -0.00285   0.00000  -0.01384  -0.01392  -1.07809
    D7        3.02387  -0.00024   0.00000   0.00916   0.00931   3.03318
    D8        0.95630  -0.00404   0.00000  -0.03120  -0.03110   0.92520
    D9       -1.07105  -0.00394   0.00000  -0.03950  -0.03939  -1.11044
   D10       -1.14224   0.00540   0.00000   0.07266   0.07271  -1.06954
   D11        3.07337   0.00159   0.00000   0.03230   0.03230   3.10567
   D12        1.04602   0.00169   0.00000   0.02400   0.02401   1.07003
   D13        0.91401   0.00289   0.00000   0.04910   0.04899   0.96300
   D14       -1.15356  -0.00092   0.00000   0.00874   0.00858  -1.14499
   D15        3.10228  -0.00082   0.00000   0.00043   0.00029   3.10256
   D16        1.27178   0.00034   0.00000  -0.02416  -0.02446   1.24733
   D17       -0.92741  -0.00079   0.00000  -0.02562  -0.02583  -0.95323
   D18       -2.92392   0.00120   0.00000   0.00230   0.00254  -2.92138
   D19        1.16008   0.00007   0.00000   0.00084   0.00117   1.16125
   D20       -0.90090  -0.00005   0.00000  -0.00049  -0.00057  -0.90147
   D21       -3.10009  -0.00118   0.00000  -0.00196  -0.00194  -3.10202
   D22        1.28555  -0.00069   0.00000  -0.00338  -0.00329   1.28226
   D23       -1.79077  -0.00361   0.00000  -0.08360  -0.08371  -1.87448
   D24       -2.80107   0.00042   0.00000  -0.00441  -0.00429  -2.80536
   D25        0.40580  -0.00250   0.00000  -0.08463  -0.08472   0.32108
   D26        0.11672  -0.00283   0.00000  -0.05163  -0.04987   0.06685
   D27       -3.05268  -0.00274   0.00000  -0.05559  -0.05360  -3.10628
   D28       -3.09087   0.00073   0.00000   0.03150   0.03096  -3.05990
   D29        0.02292   0.00082   0.00000   0.02753   0.02723   0.05015
   D30        3.06314   0.00218   0.00000   0.06736   0.06930   3.13244
   D31       -0.06355   0.00190   0.00000   0.06634   0.06786   0.00430
   D32       -0.01497  -0.00020   0.00000  -0.00904  -0.00929  -0.02425
   D33        3.14153  -0.00049   0.00000  -0.01007  -0.01073   3.13080
   D34       -3.13951   0.00020   0.00000   0.00507   0.00514  -3.13437
   D35        0.02157   0.00011   0.00000   0.01035   0.01040   0.03197
   D36        0.02951   0.00016   0.00000   0.00924   0.00912   0.03862
   D37       -3.09260   0.00008   0.00000   0.01452   0.01438  -3.07822
   D38        3.13619  -0.00029   0.00000  -0.01015  -0.01020   3.12600
   D39       -0.01288  -0.00068   0.00000  -0.02221  -0.02185  -0.03473
   D40       -0.03165  -0.00032   0.00000  -0.01431  -0.01419  -0.04585
   D41        3.10246  -0.00071   0.00000  -0.02637  -0.02585   3.07661
   D42       -0.00877   0.00016   0.00000   0.00339   0.00347  -0.00530
   D43        3.14155   0.00005   0.00000   0.00423   0.00427  -3.13736
   D44        3.11356   0.00019   0.00000  -0.00225  -0.00228   3.11128
   D45       -0.01931   0.00009   0.00000  -0.00141  -0.00148  -0.02078
   D46       -0.01026  -0.00033   0.00000  -0.01074  -0.01075  -0.02100
   D47       -3.13880  -0.00019   0.00000  -0.00560  -0.00571   3.13867
   D48        3.12257  -0.00024   0.00000  -0.01154  -0.01151   3.11107
   D49       -0.00597  -0.00009   0.00000  -0.00640  -0.00647  -0.01244
   D50        0.00761   0.00010   0.00000   0.00532   0.00514   0.01275
   D51       -3.12581   0.00025   0.00000   0.00884   0.00867  -3.11714
   D52        3.13616  -0.00003   0.00000   0.00015   0.00005   3.13622
   D53        0.00274   0.00012   0.00000   0.00366   0.00358   0.00632
   D54        0.01392   0.00010   0.00000   0.00713   0.00702   0.02094
   D55       -3.12015   0.00052   0.00000   0.01934   0.01899  -3.10116
   D56       -3.13598  -0.00002   0.00000   0.00382   0.00381  -3.13217
   D57        0.01313   0.00040   0.00000   0.01603   0.01578   0.02891
   D58       -0.00552  -0.00015   0.00000  -0.00192  -0.00198  -0.00750
   D59       -3.13646   0.00003   0.00000   0.00195   0.00176  -3.13470
   D60        3.12857  -0.00060   0.00000  -0.01419  -0.01412   3.11445
   D61       -0.00237  -0.00041   0.00000  -0.01031  -0.01038  -0.01275
   D62        0.01385   0.00083   0.00000   0.02101   0.02074   0.03459
   D63       -3.13413   0.00010   0.00000   0.00437   0.00437  -3.12976
   D64       -3.13823   0.00062   0.00000   0.01688   0.01662  -3.12161
   D65       -0.00303  -0.00012   0.00000   0.00024   0.00025  -0.00278
   D66       -0.00346  -0.00069   0.00000  -0.01548  -0.01528  -0.01874
   D67        3.12347  -0.00047   0.00000  -0.01473  -0.01409   3.10938
   D68       -3.13866   0.00004   0.00000   0.00110   0.00088  -3.13778
   D69       -0.01173   0.00027   0.00000   0.00185   0.00206  -0.00967
         Item               Value     Threshold  Converged?
 Maximum Force            0.022005     0.000450     NO 
 RMS     Force            0.004902     0.000300     NO 
 Maximum Displacement     0.517657     0.001800     NO 
 RMS     Displacement     0.110013     0.001200     NO 
 Predicted change in Energy=-6.975422D-03
 GradGradGradGradGradGradGradGradGradGradGradGradGradGradGradGradGradGrad

                          Input orientation:                          
 ---------------------------------------------------------------------
 Center     Atomic      Atomic             Coordinates (Angstroms)
 Number     Number       Type             X           Y           Z
 ---------------------------------------------------------------------
      1          7           0        4.005234   -0.606072   -0.946585
      2          6           0        2.989533    0.036100   -0.100521
      3          6           0        2.001173   -1.012080    0.423821
      4          7           0        1.025880   -0.492524    1.399880
      5          6           0        0.003445    0.364991    0.919543
      6          6           0       -1.079615   -0.184842    0.152753
      7          6           0       -1.217723   -1.579245   -0.084155
      8          6           0       -2.264465   -2.074484   -0.831654
      9          6           0       -3.230713   -1.198098   -1.375133
     10          6           0       -3.143589    0.155641   -1.138529
     11          6           0       -2.083522    0.699403   -0.364068
     12          6           0       -2.013779    2.087809   -0.075313
     13          6           0       -0.992731    2.581397    0.704107
     14          6           0        0.018250    1.724031    1.190462
     15          1           0        3.550059   -0.987395   -1.774946
     16          1           0        4.643589    0.105011   -1.297511
     17          1           0        2.434063    0.833830   -0.619438
     18          1           0        3.498669    0.505761    0.750846
     19          1           0        2.566286   -1.818170    0.905169
     20          1           0        1.457775   -1.460173   -0.413459
     21          1           0        1.523602   -0.041414    2.162384
     22          1           0       -0.495379   -2.259093    0.353708
     23          1           0       -2.352639   -3.144230   -0.996783
     24          1           0       -4.050804   -1.596521   -1.965238
     25          1           0       -3.897605    0.830151   -1.535916
     26          1           0       -2.782089    2.749385   -0.465540
     27          1           0       -0.944989    3.641779    0.934453
     28          1           0        0.832086    2.139050    1.779160
 ---------------------------------------------------------------------
                    Distance matrix (angstroms):
                    1          2          3          4          5
     1  N    0.000000
     2  C    1.469646   0.000000
     3  C    2.461528   1.533125   0.000000
     4  N    3.794119   2.527168   1.474390   0.000000
     5  C    4.521030   3.172604   2.476486   1.418249   0.000000
     6  C    5.219355   4.083004   3.201414   2.466394   1.436419
     7  C    5.382391   4.506729   3.307719   2.901220   2.505737
     8  C    6.440386   5.709082   4.571716   4.278868   3.763130
     9  C    7.272763   6.468334   5.535655   5.130021   4.262460
    10  C    7.191850   6.221489   5.502098   4.924236   3.766073
    11  C    6.254322   5.123018   4.498297   3.768366   2.472837
    12  C    6.651663   5.407705   5.096890   4.251334   2.833202
    13  C    6.153405   4.794203   4.685627   3.742711   2.439515
    14  C    5.088457   3.652981   3.464971   2.443827   1.385859
    15  H    1.019203   2.040939   2.689654   4.086062   4.654857
    16  H    1.017980   2.042899   3.345630   4.552009   5.149160
    17  H    2.156135   1.101904   2.164063   2.796398   2.914820
    18  H    2.091424   1.097555   2.157147   2.744541   3.502123
    19  H    2.639839   2.151481   1.095823   2.091632   3.366683
    20  H    2.739208   2.164034   1.094123   2.100256   2.687600
    21  H    4.017839   2.697351   2.047650   1.016190   2.005168
    22  H    4.967772   4.197481   2.791545   2.555282   2.730350
    23  H    6.845971   6.281448   5.051718   4.918326   4.640913
    24  H    8.180366   7.463843   6.532656   6.189955   5.348497
    25  H    8.053875   7.079798   6.483052   5.882947   4.632908
    26  H    7.586715   6.388018   6.149730   5.337640   3.919565
    27  H    6.788759   5.436226   5.531638   4.603631   3.411318
    28  H    5.003424   3.551081   3.623993   2.665819   2.138427
                    6          7          8          9         10
     6  C    0.000000
     7  C    1.421112   0.000000
     8  C    2.437966   1.378291   0.000000
     9  C    2.826367   2.421575   1.413173   0.000000
    10  C    2.458318   2.798301   2.416710   1.377019   0.000000
    11  C    1.434163   2.453609   2.818834   2.436968   1.420988
    12  C    2.467715   3.752475   4.237874   3.737331   2.477937
    13  C    2.821988   4.240628   5.064889   4.859670   3.729047
    14  C    2.434325   3.750188   4.871186   5.067235   4.228625
    15  H    5.078779   5.093212   5.990013   6.795816   6.820299
    16  H    5.911205   6.218033   7.258680   7.981776   7.788965
    17  H    3.738971   4.409649   5.529872   6.065435   5.642659
    18  H    4.668546   5.223871   6.509660   7.259993   6.914615
    19  H    4.065278   3.918491   5.139884   6.260149   6.377719
    20  H    2.895758   2.698317   3.795700   4.793269   4.930429
    21  H    3.291797   3.863512   5.238997   6.037836   5.719924
    22  H    2.164309   1.084297   2.137483   3.405387   3.882103
    23  H    3.420527   2.137780   1.086001   2.168316   3.396298
    24  H    3.912377   3.400753   2.168978   1.086054   2.139289
    25  H    3.438442   3.885172   3.405882   2.141119   1.086932
    26  H    3.448245   4.618412   4.865356   4.075690   2.703905
    27  H    3.907967   5.326447   6.126648   5.829505   4.613486
    28  H    3.420565   4.636742   5.844557   6.131269   5.315337
                   11         12         13         14         15
    11  C    0.000000
    12  C    1.419828   0.000000
    13  C    2.423371   1.376105   0.000000
    14  C    2.807823   2.421500   1.411985   0.000000
    15  H    6.047570   6.580420   6.286408   5.349687   0.000000
    16  H    6.817524   7.053070   6.473566   5.495907   1.617746
    17  H    4.526794   4.653154   4.068007   3.147118   2.428478
    18  H    5.695734   5.794178   4.948042   3.713591   2.934584
    19  H    5.437817   6.098771   5.662439   4.372764   2.973385
    20  H    4.148132   4.975360   4.856771   3.844990   2.540634
    21  H    4.465772   4.696163   3.916330   2.515455   4.528132
    22  H    3.433672   4.624408   4.878574   4.102346   4.744887
    23  H    3.904647   5.323360   6.125780   5.839959   6.332403
    24  H    3.421288   4.614712   5.825136   6.127128   7.627605
    25  H    2.163612   2.695155   4.064832   4.854490   7.669961
    26  H    2.168114   1.086398   2.144318   3.411099   7.468211
    27  H    3.411743   2.139337   1.086162   2.161280   6.998254
    28  H    3.894455   3.397152   2.163646   1.086801   5.458361
                   16         17         18         19         20
    16  H    0.000000
    17  H    2.423419   0.000000
    18  H    2.380590   1.765982   0.000000
    19  H    3.586867   3.061864   2.508747   0.000000
    20  H    3.657972   2.501602   3.063617   1.759470   0.000000
    21  H    4.661183   3.055082   2.488519   2.413430   2.941459
    22  H    5.892750   4.369761   4.873864   3.142023   2.245357
    23  H    7.719794   6.235372   7.114383   5.437985   4.206611
    24  H    8.884455   7.054876   8.294048   7.216248   5.724601
    25  H    8.575235   6.397653   7.748507   7.399620   5.931744
    26  H    7.926259   5.558892   6.779481   7.165649   5.974910
    27  H    6.980157   4.660167   5.441913   6.491607   5.798281
    28  H    5.303845   3.165945   3.291766   4.408049   4.260689
                   21         22         23         24         25
    21  H    0.000000
    22  H    3.502241   0.000000
    23  H    5.884986   2.461039   0.000000
[...]
       /RESON  / : Allow strongly delocalized NBO set

 Analyzing the CI density

 Job title: NULAJYZBOLVQPQ-UHFFFAOYSA-N_conf_2                              

 Storage needed:    237860 in NPA (1073737624 available)
 GSVD:  LWork=       45640 too small for GESVD, short by       18746 words or       18746 for optimal perf.


 NATURAL POPULATIONS:  Natural atomic orbital occupancies 
                                                          
   NAO  Atom  No  lang   Type(AO)    Occupancy
 --------------------------------------------
     1    N    1  S      Cor( 1S)     1.99966
     2    N    1  S      Val( 2S)     1.44536
     3    N    1  S      Ryd( 3S)     0.00050
     4    N    1  S      Ryd( 4S)     0.00001
     5    N    1  px     Val( 2p)     1.46377
     6    N    1  px     Ryd( 3p)     0.00267
     7    N    1  py     Val( 2p)     1.46476
     8    N    1  py     Ryd( 3p)     0.00295
     9    N    1  pz     Val( 2p)     1.52607
    10    N    1  pz     Ryd( 3p)     0.00386
    11    N    1  dxy    Ryd( 3d)     0.00103
    12    N    1  dxz    Ryd( 3d)     0.00127
    13    N    1  dyz    Ryd( 3d)     0.00119
    14    N    1  dx2y2  Ryd( 3d)     0.00043
    15    N    1  dz2    Ryd( 3d)     0.00059

    16    C    2  S      Cor( 1S)     1.99933
    17    C    2  S      Val( 2S)     1.03515
    18    C    2  S      Ryd( 3S)     0.00219
    19    C    2  S      Ryd( 4S)     0.00003
    20    C    2  px     Val( 2p)     1.08821
    21    C    2  px     Ryd( 3p)     0.00309
    22    C    2  py     Val( 2p)     1.06640
    23    C    2  py     Ryd( 3p)     0.00143
    24    C    2  pz     Val( 2p)     1.07338
    25    C    2  pz     Ryd( 3p)     0.00183
    26    C    2  dxy    Ryd( 3d)     0.00151
    27    C    2  dxz    Ryd( 3d)     0.00108
    28    C    2  dyz    Ryd( 3d)     0.00111
    29    C    2  dx2y2  Ryd( 3d)     0.00040
    30    C    2  dz2    Ryd( 3d)     0.00073

    31    C    3  S      Cor( 1S)     1.99929
    32    C    3  S      Val( 2S)     1.03612
    33    C    3  S      Ryd( 3S)     0.00139
    34    C    3  S      Ryd( 4S)     0.00003
    35    C    3  px     Val( 2p)     1.07609
    36    C    3  px     Ryd( 3p)     0.00396
    37    C    3  py     Val( 2p)     1.07831
    38    C    3  py     Ryd( 3p)     0.00145
    39    C    3  pz     Val( 2p)     1.08099
    40    C    3  pz     Ryd( 3p)     0.00440
    41    C    3  dxy    Ryd( 3d)     0.00121
    42    C    3  dxz    Ryd( 3d)     0.00132
    43    C    3  dyz    Ryd( 3d)     0.00104
    44    C    3  dx2y2  Ryd( 3d)     0.00045
    45    C    3  dz2    Ryd( 3d)     0.00052

    46    N    4  S      Cor( 1S)     1.99944
    47    N    4  S      Val( 2S)     1.31590
    48    N    4  S      Ryd( 3S)     0.00072
    49    N    4  S      Ryd( 4S)     0.00002
    50    N    4  px     Val( 2p)     1.31844
    51    N    4  px     Ryd( 3p)     0.00176
    52    N    4  py     Val( 2p)     1.42966
    53    N    4  py     Ryd( 3p)     0.00351
    54    N    4  pz     Val( 2p)     1.42819
    55    N    4  pz     Ryd( 3p)     0.00333
    56    N    4  dxy    Ryd( 3d)     0.00099
    57    N    4  dxz    Ryd( 3d)     0.00086
    58    N    4  dyz    Ryd( 3d)     0.00085
    59    N    4  dx2y2  Ryd( 3d)     0.00045
    60    N    4  dz2    Ryd( 3d)     0.00071

    61    C    5  S      Cor( 1S)     1.99891
    62    C    5  S      Val( 2S)     0.83735
    63    C    5  S      Ryd( 3S)     0.00125
    64    C    5  S      Ryd( 4S)     0.00010
    65    C    5  px     Val( 2p)     0.94796
    66    C    5  px     Ryd( 3p)     0.00477
    67    C    5  py     Val( 2p)     1.06058
    68    C    5  py     Ryd( 3p)     0.00475
    69    C    5  pz     Val( 2p)     0.99589
    70    C    5  pz     Ryd( 3p)     0.00472
    71    C    5  dxy    Ryd( 3d)     0.00105
    72    C    5  dxz    Ryd( 3d)     0.00075
    73    C    5  dyz    Ryd( 3d)     0.00094
    74    C    5  dx2y2  Ryd( 3d)     0.00108
    75    C    5  dz2    Ryd( 3d)     0.00052

    76    C    6  S      Cor( 1S)     1.99898
    77    C    6  S      Val( 2S)     0.86804
    78    C    6  S      Ryd( 3S)     0.00056
    79    C    6  S      Ryd( 4S)     0.00005
    80    C    6  px     Val( 2p)     1.05918
    81    C    6  px     Ryd( 3p)     0.00415
    82    C    6  py     Val( 2p)     1.09583
    83    C    6  py     Ryd( 3p)     0.00491
    84    C    6  pz     Val( 2p)     1.01763
    85    C    6  pz     Ryd( 3p)     0.00152
    86    C    6  dxy    Ryd( 3d)     0.00081
    87    C    6  dxz    Ryd( 3d)     0.00046
    88    C    6  dyz    Ryd( 3d)     0.00090
    89    C    6  dx2y2  Ryd( 3d)     0.00060
    90    C    6  dz2    Ryd( 3d)     0.00043

    91    C    7  S      Cor( 1S)     1.99909
    92    C    7  S      Val( 2S)     0.93635
    93    C    7  S      Ryd( 3S)     0.00077
    94    C    7  S      Ryd( 4S)     0.00004
    95    C    7  px     Val( 2p)     1.16611
    96    C    7  px     Ryd( 3p)     0.00427
    97    C    7  py     Val( 2p)     1.06856
    98    C    7  py     Ryd( 3p)     0.00496
    99    C    7  pz     Val( 2p)     1.15215
   100    C    7  pz     Ryd( 3p)     0.00459
   101    C    7  dxy    Ryd( 3d)     0.00053
   102    C    7  dxz    Ryd( 3d)     0.00050
   103    C    7  dyz    Ryd( 3d)     0.00047
   104    C    7  dx2y2  Ryd( 3d)     0.00062
   105    C    7  dz2    Ryd( 3d)     0.00030

   106    C    8  S      Cor( 1S)     1.99911
   107    C    8  S      Val( 2S)     0.95659
   108    C    8  S      Ryd( 3S)     0.00064
   109    C    8  S      Ryd( 4S)     0.00003
   110    C    8  px     Val( 2p)     1.05659
   111    C    8  px     Ryd( 3p)     0.00429
   112    C    8  py     Val( 2p)     1.18620
   113    C    8  py     Ryd( 3p)     0.00486
   114    C    8  pz     Val( 2p)     1.04815
   115    C    8  pz     Ryd( 3p)     0.00307
   116    C    8  dxy    Ryd( 3d)     0.00054
   117    C    8  dxz    Ryd( 3d)     0.00053
   118    C    8  dyz    Ryd( 3d)     0.00044
   119    C    8  dx2y2  Ryd( 3d)     0.00076
   120    C    8  dz2    Ryd( 3d)     0.00053

   121    C    9  S      Cor( 1S)     1.99911
   122    C    9  S      Val( 2S)     0.95813
   123    C    9  S      Ryd( 3S)     0.00057
   124    C    9  S      Ryd( 4S)     0.00003
   125    C    9  px     Val( 2p)     1.13406
   126    C    9  px     Ryd( 3p)     0.00433
   127    C    9  py     Val( 2p)     1.11008
   128    C    9  py     Ryd( 3p)     0.00470
   129    C    9  pz     Val( 2p)     1.04819
   130    C    9  pz     Ryd( 3p)     0.00248
   131    C    9  dxy    Ryd( 3d)     0.00074
   132    C    9  dxz    Ryd( 3d)     0.00038
   133    C    9  dyz    Ryd( 3d)     0.00065
   134    C    9  dx2y2  Ryd( 3d)     0.00056
   135    C    9  dz2    Ryd( 3d)     0.00052

   136    C   10  S      Cor( 1S)     1.99907
   137    C   10  S      Val( 2S)     0.93884
   138    C   10  S      Ryd( 3S)     0.00069
   139    C   10  S      Ryd( 4S)     0.00004
   140    C   10  px     Val( 2p)     1.14017
   141    C   10  px     Ryd( 3p)     0.00444
   142    C   10  py     Val( 2p)     1.08679
   143    C   10  py     Ryd( 3p)     0.00441
   144    C   10  pz     Val( 2p)     1.14096
   145    C   10  pz     Ryd( 3p)     0.00417
   146    C   10  dxy    Ryd( 3d)     0.00063
   147    C   10  dxz    Ryd( 3d)     0.00041
   148    C   10  dyz    Ryd( 3d)     0.00052
   149    C   10  dx2y2  Ryd( 3d)     0.00053
   150    C   10  dz2    Ryd( 3d)     0.00030

   151    C   11  S      Cor( 1S)     1.99904
   152    C   11  S      Val( 2S)     0.87145
   153    C   11  S      Ryd( 3S)     0.00050
   154    C   11  S      Ryd( 4S)     0.00006
   155    C   11  px     Val( 2p)     1.07360
   156    C   11  px     Ryd( 3p)     0.00452
   157    C   11  py     Val( 2p)     1.08823
   158    C   11  py     Ryd( 3p)     0.00501
   159    C   11  pz     Val( 2p)     1.01532
   160    C   11  pz     Ryd( 3p)     0.00164
   161    C   11  dxy    Ryd( 3d)     0.00065
   162    C   11  dxz    Ryd( 3d)     0.00058
   163    C   11  dyz    Ryd( 3d)     0.00080
   164    C   11  dx2y2  Ryd( 3d)     0.00076
   165    C   11  dz2    Ryd( 3d)     0.00043

   166    C   12  S      Cor( 1S)     1.99905
   167    C   12  S      Val( 2S)     0.95659
   168    C   12  S      Ryd( 3S)     0.00060
   169    C   12  S      Ryd( 4S)     0.00005
   170    C   12  px     Val( 2p)     1.13583
   171    C   12  px     Ryd( 3p)     0.00414
   172    C   12  py     Val( 2p)     1.06909
   173    C   12  py     Ryd( 3p)     0.00424
   174    C   12  pz     Val( 2p)     1.01894
   175    C   12  pz     Ryd( 3p)     0.00309
   176    C   12  dxy    Ryd( 3d)     0.00064
   177    C   12  dxz    Ryd( 3d)     0.00049
   178    C   12  dyz    Ryd( 3d)     0.00058
   179    C   12  dx2y2  Ryd( 3d)     0.00066
   180    C   12  dz2    Ryd( 3d)     0.00035

   181    C   13  S      Cor( 1S)     1.99912
   182    C   13  S      Val( 2S)     0.96136
   183    C   13  S      Ryd( 3S)     0.00065
   184    C   13  S      Ryd( 4S)     0.00003
   185    C   13  px     Val( 2p)     1.04734
   186    C   13  px     Ryd( 3p)     0.00438
   187    C   13  py     Val( 2p)     1.20120
   188    C   13  py     Ryd( 3p)     0.00521
   189    C   13  pz     Val( 2p)     1.04278
   190    C   13  pz     Ryd( 3p)     0.00236
   191    C   13  dxy    Ryd( 3d)     0.00058
   192    C   13  dxz    Ryd( 3d)     0.00050
   193    C   13  dyz    Ryd( 3d)     0.00044
   194    C   13  dx2y2  Ryd( 3d)     0.00073
   195    C   13  dz2    Ryd( 3d)     0.00048

   196    C   14  S      Cor( 1S)     1.99903
   197    C   14  S      Val( 2S)     0.96417
   198    C   14  S      Ryd( 3S)     0.00073
   199    C   14  S      Ryd( 4S)     0.00005
   200    C   14  px     Val( 2p)     1.13656
   201    C   14  px     Ryd( 3p)     0.00415
   202    C   14  py     Val( 2p)     1.09377
   203    C   14  py     Ryd( 3p)     0.00411
   204    C   14  pz     Val( 2p)     1.02725
   205    C   14  pz     Ryd( 3p)     0.00213
   206    C   14  dxy    Ryd( 3d)     0.00064
   207    C   14  dxz    Ryd( 3d)     0.00038
   208    C   14  dyz    Ryd( 3d)     0.00067
   209    C   14  dx2y2  Ryd( 3d)     0.00065
   210    C   14  dz2    Ryd( 3d)     0.00047

   211    H   15  S      Val( 1S)     0.60544
   212    H   15  S      Ryd( 2S)     0.00139
   213    H   15  px     Ryd( 2p)     0.00042
   214    H   15  py     Ryd( 2p)     0.00045
   215    H   15  pz     Ryd( 2p)     0.00054

   216    H   16  S      Val( 1S)     0.59477
   217    H   16  S      Ryd( 2S)     0.00113
   218    H   16  px     Ryd( 2p)     0.00046
   219    H   16  py     Ryd( 2p)     0.00042
   220    H   16  pz     Ryd( 2p)     0.00053

   221    H   17  S      Val( 1S)     0.77751
   222    H   17  S      Ryd( 2S)     0.00198
   223    H   17  px     Ryd( 2p)     0.00019
   224    H   17  py     Ryd( 2p)     0.00016
   225    H   17  pz     Ryd( 2p)     0.00022

   226    H   18  S      Val( 1S)     0.76322
   227    H   18  S      Ryd( 2S)     0.00158
   228    H   18  px     Ryd( 2p)     0.00018
   229    H   18  py     Ryd( 2p)     0.00022
   230    H   18  pz     Ryd( 2p)     0.00014

   231    H   19  S      Val( 1S)     0.74202
   232    H   19  S      Ryd( 2S)     0.00210
   233    H   19  px     Ryd( 2p)     0.00020
   234    H   19  py     Ryd( 2p)     0.00015
   235    H   19  pz     Ryd( 2p)     0.00018

   236    H   20  S      Val( 1S)     0.75017
   237    H   20  S      Ryd( 2S)     0.00214
   238    H   20  px     Ryd( 2p)     0.00017
   239    H   20  py     Ryd( 2p)     0.00024
   240    H   20  pz     Ryd( 2p)     0.00014

   241    H   21  S      Val( 1S)     0.57328
   242    H   21  S      Ryd( 2S)     0.00240
   243    H   21  px     Ryd( 2p)     0.00035
   244    H   21  py     Ryd( 2p)     0.00049
   245    H   21  pz     Ryd( 2p)     0.00042

   246    H   22  S      Val( 1S)     0.76699
   247    H   22  S      Ryd( 2S)     0.00121
   248    H   22  px     Ryd( 2p)     0.00027
   249    H   22  py     Ryd( 2p)     0.00012
   250    H   22  pz     Ryd( 2p)     0.00025

   251    H   23  S      Val( 1S)     0.76537
   252    H   23  S      Ryd( 2S)     0.00078
   253    H   23  px     Ryd( 2p)     0.00008
   254    H   23  py     Ryd( 2p)     0.00040
   255    H   23  pz     Ryd( 2p)     0.00015

   256    H   24  S      Val( 1S)     0.76511
   257    H   24  S      Ryd( 2S)     0.00075
   258    H   24  px     Ryd( 2p)     0.00029
   259    H   24  py     Ryd( 2p)     0.00019
   260    H   24  pz     Ryd( 2p)     0.00015

   261    H   25  S      Val( 1S)     0.77000
   262    H   25  S      Ryd( 2S)     0.00105
   263    H   25  px     Ryd( 2p)     0.00029
   264    H   25  py     Ryd( 2p)     0.00011
   265    H   25  pz     Ryd( 2p)     0.00022

   266    H   26  S      Val( 1S)     0.75448
   267    H   26  S      Ryd( 2S)     0.00119
   268    H   26  px     Ryd( 2p)     0.00030
   269    H   26  py     Ryd( 2p)     0.00012
   270    H   26  pz     Ryd( 2p)     0.00018

   271    H   27  S      Val( 1S)     0.74891
   272    H   27  S      Ryd( 2S)     0.00075
   273    H   27  px     Ryd( 2p)     0.00007
   274    H   27  py     Ryd( 2p)     0.00041
   275    H   27  pz     Ryd( 2p)     0.00013

   276    H   28  S      Val( 1S)     0.74963
   277    H   28  S      Ryd( 2S)     0.00092
   278    H   28  px     Ryd( 2p)     0.00027
   279    H   28  py     Ryd( 2p)     0.00019
   280    H   28  pz     Ryd( 2p)     0.00014

 WARNING:  1 low occupancy (<1.9990e) core orbital  found on  C    5
           1 low occupancy (<1.9990e) core orbital  found on  C    6


 Summary of Natural Population Analysis:                  
                                                          
                                       Natural Population 
                Natural  -----------------------------------------------
    Atom  No    Charge         Core      Valence    Rydberg      Total
 -----------------------------------------------------------------------
      N    1   -0.91414      1.99966     5.89997    0.01451     7.91414
      C    2   -0.27589      1.99933     4.26315    0.01340     6.27589
      C    3   -0.28657      1.99929     4.27151    0.01577     6.28657
      N    4   -0.50484      1.99944     5.49220    0.01320     7.50484
      C    5    0.13936      1.99891     3.84179    0.01993     5.86064
      C    6   -0.05403      1.99898     4.04067    0.01439     6.05403
      C    7   -0.33933      1.99909     4.32318    0.01706     6.33933
      C    8   -0.26233      1.99911     4.24753    0.01569     6.26233
      C    9   -0.26452      1.99911     4.25046    0.01495     6.26452
      C   10   -0.32199      1.99907     4.30676    0.01615     6.32199
      C   11   -0.06260      1.99904     4.04860    0.01496     6.06260
      C   12   -0.19434      1.99905     4.18046    0.01483     6.19434
      C   13   -0.26716      1.99912     4.25268    0.01536     6.26716
      C   14   -0.23478      1.99903     4.22176    0.01399     6.23478
      H   15    0.39177      0.00000     0.60544    0.00280     0.60823
      H   16    0.40270      0.00000     0.59477    0.00254     0.59730
      H   17    0.21995      0.00000     0.77751    0.00254     0.78005
      H   18    0.23465      0.00000     0.76322    0.00213     0.76535
      H   19    0.25536      0.00000     0.74202    0.00263     0.74464
      H   20    0.24713      0.00000     0.75017    0.00270     0.75287
      H   21    0.42307      0.00000     0.57328    0.00365     0.57693
      H   22    0.23115      0.00000     0.76699    0.00186     0.76885
      H   23    0.23322      0.00000     0.76537    0.00141     0.76678
      H   24    0.23351      0.00000     0.76511    0.00138     0.76649
      H   25    0.22832      0.00000     0.77000    0.00168     0.77168
      H   26    0.24374      0.00000     0.75448    0.00178     0.75626
      H   27    0.24973      0.00000     0.74891    0.00136     0.75027
      H   28    0.24885      0.00000     0.74963    0.00153     0.75115
 =======================================================================
   * Total *   -0.00000     27.98823    71.76759    0.24418   100.00000

                                 Natural Population      
 --------------------------------------------------------
   Core                      27.98823 ( 99.9580% of  28)
   Valence                   71.76759 ( 99.6772% of  72)
   Natural Minimal Basis     99.75582 ( 99.7558% of 100)
   Natural Rydberg Basis      0.24418 (  0.2442% of 100)
 --------------------------------------------------------

    Atom  No          Natural Electron Configuration
 ----------------------------------------------------------------------------
      N    1      [core]2S( 1.45)2p( 4.45)3p( 0.01)
      C    2      [core]2S( 1.04)2p( 3.23)3p( 0.01)
      C    3      [core]2S( 1.04)2p( 3.24)3p( 0.01)
      N    4      [core]2S( 1.32)2p( 4.18)3p( 0.01)
      C    5      [core]2S( 0.84)2p( 3.00)3p( 0.01)
      C    6      [core]2S( 0.87)2p( 3.17)3p( 0.01)
      C    7      [core]2S( 0.94)2p( 3.39)3p( 0.01)
      C    8      [core]2S( 0.96)2p( 3.29)3p( 0.01)
      C    9      [core]2S( 0.96)2p( 3.29)3p( 0.01)
      C   10      [core]2S( 0.94)2p( 3.37)3p( 0.01)
      C   11      [core]2S( 0.87)2p( 3.18)3p( 0.01)
      C   12      [core]2S( 0.96)2p( 3.22)3p( 0.01)
      C   13      [core]2S( 0.96)2p( 3.29)3p( 0.01)
      C   14      [core]2S( 0.96)2p( 3.26)3p( 0.01)
      H   15            1S( 0.61)
      H   16            1S( 0.59)
      H   17            1S( 0.78)
      H   18            1S( 0.76)
      H   19            1S( 0.74)
      H   20            1S( 0.75)
      H   21            1S( 0.57)
      H   22            1S( 0.77)
      H   23            1S( 0.77)
      H   24            1S( 0.77)
      H   25            1S( 0.77)
      H   26            1S( 0.75)
      H   27            1S( 0.75)
      H   28            1S( 0.75)


 NBO analysis skipped by request.
 1\1\GINC-CN13\SP\RB3LYP TD-FC\6-31G(d,p)\C12H14N2\QDUEZ\11-Jul-2024\0\
 \# TD(NStates=10, Root=1) B3LYP/6-31G** SCRF=(Solvent=water) volume po
 p=NPA density=current Geom=AllCheck Guess=Read\\NULAJYZBOLVQPQ-UHFFFAO
 YSA-N_conf_2\\0,1\N,0,3.9426847361,-0.6859777962,-1.0171933537\C,0,3.0
 014270386,-0.0023110279,-0.1185159334\C,0,2.0099664791,-1.016128464,0.
 4673491527\N,0,1.0379267337,-0.4403924813,1.416119696\C,0,0.0129286504
 ,0.398950001,0.9153184986\C,0,-1.0627643942,-0.1647310491,0.1427868291
 \C,0,-1.1875146897,-1.5612743507,-0.0950451576\C,0,-2.2234912109,-2.06
 65472287,-0.8510696166\C,0,-3.1933926025,-1.1981201868,-1.4063871945\C
 ,0,-3.1253436888,0.1549525352,-1.1611248678\C,0,-2.0797412765,0.708805
 4075,-0.3713525883\C,0,-2.046153047,2.0943969669,-0.0552329327\C,0,-1.
 0464131473,2.5938689866,0.7473175814\C,0,-0.0139950454,1.7518618569,1.
 218383249\H,0,3.4505436685,-0.9584798636,-1.8668990685\H,0,4.652569147
 1,-0.0234395889,-1.3224855074\H,0,2.439200272,0.8163386191,-0.59636823
 6\H,0,3.5780761982,0.4461990014,0.7003132705\H,0,2.5679485024,-1.80283
 42825,0.9863893549\H,0,1.4619614105,-1.4983595751,-0.3468980648\H,0,1.
 5417319789,0.0389042299,2.1571919853\H,0,-0.468729784,-2.2362494435,0.
 3548559989\H,0,-2.3035994574,-3.1374867885,-1.0124431191\H,0,-4.000896
 3018,-1.6043323575,-2.0083702683\H,0,-3.8828776538,0.8246049086,-1.559
 9660874\H,0,-2.8267380726,2.7429382026,-0.4426775208\H,0,-1.0258485359
 ,3.6491780463,1.0036731653\H,0,0.7905340922,2.1756657224,1.8138279863\
 \Version=EM64L-G16RevA.03\State=1-A\HF=-575.238504\RMSD=3.675e-09\Dipo
 le=2.396657,1.1003968,0.5293243\Quadrupole=0.0193988,-0.5324362,0.5130
 375,1.5308525,0.859724,1.3872719\PG=C01 [X(C12H14N2)]\\@


 REALITY IS FOR PEOPLE WHO CAN'T FACE SCIENCE FICTION.
 Job cpu time:       0 days  1 hours 33 minutes 53.0 seconds.
 Elapsed time:       0 days  0 hours 32 minutes 14.5 seconds.
 File lengths (MBytes):  RWF=    663 Int=      0 D2E=      0 Chk=     42 Scr=      1
 Normal termination of Gaussian 16 at Thu Jul 11 22:19:09 2024.
