 Entering Gaussian System, Link 0=g16
 Initial command:
 /opt/sw/arch/manual/gaussian/G16_A03/g16/l1.exe "/scratch/1032074.jesse.materianova.be/Gau-73098.inp" -scrdir="/scratch/1032074.jesse.materianova.be/"
 Entering Link 1 = /opt/sw/arch/manual/gaussian/G16_A03/g16/l1.exe PID=     73099.
  
 Copyright (c) 1988,1990,1992,1993,1995,1998,2003,2009,2016,
            Gaussian, Inc.  All Rights Reserved.
  
 This is part of the Gaussian(R) 16 program.  It is based on
 the Gaussian(R) 09 system (copyright 2009, Gaussian, Inc.),
 the Gaussian(R) 03 system (copyright 2003, Gaussian, Inc.),
 the Gaussian(R) 98 system (copyright 1998, Gaussian, Inc.),
 the Gaussian(R) 94 system (copyright 1995, Gaussian, Inc.),
 the Gaussian 92(TM) system (copyright 1992, Gaussian, Inc.),
 the Gaussian 90(TM) system (copyright 1990, Gaussian, Inc.),
 the Gaussian 88(TM) system (copyright 1988, Gaussian, Inc.),
 the Gaussian 86(TM) system (copyright 1986, Carnegie Mellon
 University), and the Gaussian 82(TM) system (copyright 1983,
 Carnegie Mellon University). Gaussian is a federally registered
 trademark of Gaussian, Inc.
  
 This software contains proprietary and confidential information,
 including trade secrets, belonging to Gaussian, Inc.
  
 This software is provided under written license and may be
 used, copied, transmitted, or stored only in accord with that
 written license.
  
 The following legend is applicable only to US Government
 contracts under FAR:
  
                    RESTRICTED RIGHTS LEGEND
  
 Use, reproduction and disclosure by the US Government is
 subject to restrictions as set forth in subparagraphs (a)
 and (c) of the Commercial Computer Software - Restricted
 Rights clause in FAR 52.227-19.
  
 Gaussian, Inc.
 340 Quinnipiac St., Bldg. 40, Wallingford CT 06492
  
  
 ---------------------------------------------------------------
 Warning -- This program may not be used in any manner that
 competes with the business of Gaussian, Inc. or will provide
 assistance to any competitor of Gaussian, Inc.  The licensee
 of this program is prohibited from giving any competitor of
 Gaussian, Inc. access to this program.  By using this program,
 the user acknowledges that Gaussian, Inc. is engaged in the
 business of creating and licensing software in the field of
 computational chemistry and represents and warrants to the
 licensee that it is not a competitor of Gaussian, Inc. and that
 it will not use this program in any manner prohibited above.
 ---------------------------------------------------------------
  

 Cite this work as:
 Gaussian 16, Revision A.03,
 M. J. Frisch, G. W. Trucks, H. B. Schlegel, G. E. Scuseria, 
 M. A. Robb, J. R. Cheeseman, G. Scalmani, V. Barone, 
 G. A. Petersson, H. Nakatsuji, X. Li, M. Caricato, A. V. Marenich, 
 J. Bloino, B. G. Janesko, R. Gomperts, B. Mennucci, H. P. Hratchian, 
 J. V. Ortiz, A. F. Izmaylov, J. L. Sonnenberg, D. Williams-Young, 
 F. Ding, F. Lipparini, F. Egidi, J. Goings, B. Peng, A. Petrone, 
 T. Henderson, D. Ranasinghe, V. G. Zakrzewski, J. Gao, N. Rega, 
 G. Zheng, W. Liang, M. Hada, M. Ehara, K. Toyota, R. Fukuda, 
 J. Hasegawa, M. Ishida, T. Nakajima, Y. Honda, O. Kitao, H. Nakai, 
 T. Vreven, K. Throssell, J. A. Montgomery, Jr., J. E. Peralta, 
 F. Ogliaro, M. J. Bearpark, J. J. Heyd, E. N. Brothers, K. N. Kudin, 
 V. N. Staroverov, T. A. Keith, R. Kobayashi, J. Normand, 
 K. Raghavachari, A. P. Rendell, J. C. Burant, S. S. Iyengar, 
 J. Tomasi, M. Cossi, J. M. Millam, M. Klene, C. Adamo, R. Cammi, 
 J. W. Ochterski, R. L. Martin, K. Morokuma, O. Farkas, 
 J. B. Foresman, and D. J. Fox, Gaussian, Inc., Wallingford CT, 2016.
 
 ******************************************
 Gaussian 16:  EM64L-G16RevA.03 25-Dec-2016
                11-Jul-2024 
 ******************************************
 %nprocshared=4
 Will use up to    4 processors via shared memory.
 %mem=8GB
 %Chk=NULAJYZBOLVQPQ-UHFFFAOYSA-N_conf_0_0.chk
 -------------------------------------------------------
 # opt=CalcFc B3LYP/6-31G** SCRF=(Solvent=water) scf=xqc
 -------------------------------------------------------
 1/10=4,18=20,19=15,26=3,38=1/1,3;
 2/9=110,12=2,17=6,18=5,40=1/2;
 3/5=1,6=6,7=101,11=2,25=1,30=1,70=2201,71=2,72=1,74=-5,140=1/1,2,3;
 4//1;
 5/5=2,8=3,13=1,38=5,53=1/2,8;
 8/6=4,10=90,11=11/1;
 11/6=1,8=1,9=11,15=111,16=1/1,2,10;
 10/6=1,13=1/2;
 6/7=2,8=2,9=2,10=2,28=1/1;
 7/10=1,18=20,25=1/1,2,3,16;
 1/10=4,18=20,19=15,26=3/3(2);
 2/9=110/2;
 99//99;
 2/9=110/2;
 3/5=1,6=6,7=101,11=2,25=1,30=1,70=2205,71=1,72=1,74=-5/1,2,3;
 4/5=5,16=3,69=1/1;
 5/5=2,8=3,13=1,38=5,53=1/2,8;
 7//1,2,3,16;
 1/18=20,19=15,26=3/3(-5);
 2/9=110/2;
 6/7=2,8=2,9=2,10=2,19=2,28=1/1;
 99/9=1/99;
 ----------------------------------
 NULAJYZBOLVQPQ-UHFFFAOYSA-N_conf_0
 ----------------------------------
 Symbolic Z-matrix:
 Charge =  0 Multiplicity = 1
 N                    -4.46292   0.55439  -0.83038 
 C                    -3.50944   0.0365    0.15282 
 C                    -2.08447  -0.10114  -0.41691 
 N                    -1.1829   -0.60958   0.6294 
 C                     0.12008  -0.85864   0.11575 
 C                     1.1615    0.11529   0.14172 
 C                     1.02727   1.40667   0.70741 
 C                     2.08365   2.32136   0.71376 
 C                     3.30442   1.97294   0.15296 
 C                     3.46718   0.71286  -0.41945 
 C                     2.41408  -0.21723  -0.43678 
 C                     2.59987  -1.47348  -1.03364 
 C                     1.56671  -2.4051   -1.07725 
 C                     0.33448  -2.09469  -0.51369 
 H                    -4.53411  -0.10072  -1.60911 
 H                    -5.39024   0.58712  -0.40722 
 H                    -3.49496   0.71157   1.01619 
 H                    -3.85869  -0.93795   0.51384 
 H                    -1.73595   0.87581  -0.77504 
 H                    -2.10849  -0.78863  -1.27201 
 H                    -1.12147   0.05628   1.39576 
 H                     0.08703   1.72423   1.14819 
 H                     1.94772   3.30468   1.15623 
 H                     4.1292    2.68036   0.15578 
 H                     4.42995   0.46071  -0.85923 
 H                     3.55748  -1.73514  -1.47889 
 H                     1.72171  -3.37177  -1.54797 
 H                    -0.4687   -2.82672  -0.54495 
 

 GradGradGradGradGradGradGradGradGradGradGradGradGradGradGradGradGradGrad
 Berny optimization.
 Initialization pass.
                           ----------------------------
                           !    Initial Parameters    !
                           ! (Angstroms and Degrees)  !
 --------------------------                            --------------------------
 ! Name  Definition              Value          Derivative Info.                !
 --------------------------------------------------------------------------------
 ! R1    R(1,2)                  1.4643         calculate D2E/DX2 analytically  !
 ! R2    R(1,15)                 1.0201         calculate D2E/DX2 analytically  !
 ! R3    R(1,16)                 1.0198         calculate D2E/DX2 analytically  !
 ! R4    R(2,3)                  1.5408         calculate D2E/DX2 analytically  !
 ! R5    R(2,17)                 1.0961         calculate D2E/DX2 analytically  !
 ! R6    R(2,18)                 1.0963         calculate D2E/DX2 analytically  !
 ! R7    R(3,4)                  1.4718         calculate D2E/DX2 analytically  !
 ! R8    R(3,19)                 1.0973         calculate D2E/DX2 analytically  !
 ! R9    R(3,20)                 1.0975         calculate D2E/DX2 analytically  !
 ! R10   R(4,5)                  1.4225         calculate D2E/DX2 analytically  !
 ! R11   R(4,21)                 1.0171         calculate D2E/DX2 analytically  !
 ! R12   R(5,6)                  1.4261         calculate D2E/DX2 analytically  !
 ! R13   R(5,14)                 1.4036         calculate D2E/DX2 analytically  !
 ! R14   R(6,7)                  1.4162         calculate D2E/DX2 analytically  !
 ! R15   R(6,11)                 1.4192         calculate D2E/DX2 analytically  !
 ! R16   R(7,8)                  1.3974         calculate D2E/DX2 analytically  !
 ! R17   R(7,22)                 1.0859         calculate D2E/DX2 analytically  !
 ! R18   R(8,9)                  1.3879         calculate D2E/DX2 analytically  !
 ! R19   R(8,23)                 1.0868         calculate D2E/DX2 analytically  !
 ! R20   R(9,10)                 1.3935         calculate D2E/DX2 analytically  !
 ! R21   R(9,24)                 1.0866         calculate D2E/DX2 analytically  !
 ! R22   R(10,11)                1.4051         calculate D2E/DX2 analytically  !
 ! R23   R(10,25)                1.0881         calculate D2E/DX2 analytically  !
 ! R24   R(11,12)                1.4032         calculate D2E/DX2 analytically  !
 ! R25   R(12,13)                1.3918         calculate D2E/DX2 analytically  !
 ! R26   R(12,26)                1.088          calculate D2E/DX2 analytically  !
 ! R27   R(13,14)                1.3901         calculate D2E/DX2 analytically  !
 ! R28   R(13,27)                1.0863         calculate D2E/DX2 analytically  !
 ! R29   R(14,28)                1.0872         calculate D2E/DX2 analytically  !
 ! A1    A(2,1,15)             109.3222         calculate D2E/DX2 analytically  !
 ! A2    A(2,1,16)             108.956          calculate D2E/DX2 analytically  !
 ! A3    A(15,1,16)            105.8966         calculate D2E/DX2 analytically  !
 ! A4    A(1,2,3)              112.6771         calculate D2E/DX2 analytically  !
 ! A5    A(1,2,17)             108.6437         calculate D2E/DX2 analytically  !
 ! A6    A(1,2,18)             109.1502         calculate D2E/DX2 analytically  !
 ! A7    A(3,2,17)             109.5162         calculate D2E/DX2 analytically  !
 ! A8    A(3,2,18)             109.6933         calculate D2E/DX2 analytically  !
 ! A9    A(17,2,18)            106.9936         calculate D2E/DX2 analytically  !
 ! A10   A(2,3,4)              109.5432         calculate D2E/DX2 analytically  !
 ! A11   A(2,3,19)             109.5645         calculate D2E/DX2 analytically  !
 ! A12   A(2,3,20)             108.8944         calculate D2E/DX2 analytically  !
 ! A13   A(4,3,19)             110.1829         calculate D2E/DX2 analytically  !
 ! A14   A(4,3,20)             110.544          calculate D2E/DX2 analytically  !
 ! A15   A(19,3,20)            108.0814         calculate D2E/DX2 analytically  !
 ! A16   A(3,4,5)              111.4002         calculate D2E/DX2 analytically  !
 ! A17   A(3,4,21)             110.2738         calculate D2E/DX2 analytically  !
 ! A18   A(5,4,21)             109.3516         calculate D2E/DX2 analytically  !
 ! A19   A(4,5,6)              122.8704         calculate D2E/DX2 analytically  !
 ! A20   A(4,5,14)             117.1312         calculate D2E/DX2 analytically  !
 ! A21   A(6,5,14)             119.8702         calculate D2E/DX2 analytically  !
 ! A22   A(5,6,7)              124.11           calculate D2E/DX2 analytically  !
 ! A23   A(5,6,11)             118.4954         calculate D2E/DX2 analytically  !
 ! A24   A(7,6,11)             117.3942         calculate D2E/DX2 analytically  !
 ! A25   A(6,7,8)              121.8058         calculate D2E/DX2 analytically  !
 ! A26   A(6,7,22)             120.7217         calculate D2E/DX2 analytically  !
 ! A27   A(8,7,22)             117.4707         calculate D2E/DX2 analytically  !
 ! A28   A(7,8,9)              119.9204         calculate D2E/DX2 analytically  !
 ! A29   A(7,8,23)             119.9702         calculate D2E/DX2 analytically  !
 ! A30   A(9,8,23)             120.1094         calculate D2E/DX2 analytically  !
 ! A31   A(8,9,10)             119.7165         calculate D2E/DX2 analytically  !
 ! A32   A(8,9,24)             120.21           calculate D2E/DX2 analytically  !
 ! A33   A(10,9,24)            120.073          calculate D2E/DX2 analytically  !
 ! A34   A(9,10,11)            121.0688         calculate D2E/DX2 analytically  !
 ! A35   A(9,10,25)            118.6145         calculate D2E/DX2 analytically  !
 ! A36   A(11,10,25)           120.3164         calculate D2E/DX2 analytically  !
 ! A37   A(6,11,10)            120.0898         calculate D2E/DX2 analytically  !
 ! A38   A(6,11,12)            119.9999         calculate D2E/DX2 analytically  !
 ! A39   A(10,11,12)           119.9093         calculate D2E/DX2 analytically  !
 ! A40   A(11,12,13)           120.9507         calculate D2E/DX2 analytically  !
 ! A41   A(11,12,26)           120.3929         calculate D2E/DX2 analytically  !
 ! A42   A(13,12,26)           118.6551         calculate D2E/DX2 analytically  !
 ! A43   A(12,13,14)           119.7244         calculate D2E/DX2 analytically  !
 ! A44   A(12,13,27)           120.2181         calculate D2E/DX2 analytically  !
 ! A45   A(14,13,27)           120.0575         calculate D2E/DX2 analytically  !
 ! A46   A(5,14,13)            120.9221         calculate D2E/DX2 analytically  !
 ! A47   A(5,14,28)            119.5389         calculate D2E/DX2 analytically  !
 ! A48   A(13,14,28)           119.5294         calculate D2E/DX2 analytically  !
 ! D1    D(15,1,2,3)            62.4545         calculate D2E/DX2 analytically  !
 ! D2    D(15,1,2,17)         -176.0058         calculate D2E/DX2 analytically  !
 ! D3    D(15,1,2,18)          -59.6668         calculate D2E/DX2 analytically  !
 ! D4    D(16,1,2,3)           177.7525         calculate D2E/DX2 analytically  !
 ! D5    D(16,1,2,17)          -60.7078         calculate D2E/DX2 analytically  !
 ! D6    D(16,1,2,18)           55.6312         calculate D2E/DX2 analytically  !
 ! D7    D(1,2,3,4)            179.3188         calculate D2E/DX2 analytically  !
 ! D8    D(1,2,3,19)            58.3418         calculate D2E/DX2 analytically  !
 ! D9    D(1,2,3,20)           -59.6783         calculate D2E/DX2 analytically  !
 ! D10   D(17,2,3,4)            58.2756         calculate D2E/DX2 analytically  !
 ! D11   D(17,2,3,19)          -62.7014         calculate D2E/DX2 analytically  !
 ! D12   D(17,2,3,20)          179.2785         calculate D2E/DX2 analytically  !
 ! D13   D(18,2,3,4)           -58.8667         calculate D2E/DX2 analytically  !
 ! D14   D(18,2,3,19)         -179.8437         calculate D2E/DX2 analytically  !
 ! D15   D(18,2,3,20)           62.1362         calculate D2E/DX2 analytically  !
 ! D16   D(2,3,4,5)            175.0837         calculate D2E/DX2 analytically  !
 ! D17   D(2,3,4,21)           -63.3038         calculate D2E/DX2 analytically  !
 ! D18   D(19,3,4,5)           -64.3145         calculate D2E/DX2 analytically  !
 ! D19   D(19,3,4,21)           57.298          calculate D2E/DX2 analytically  !
 ! D20   D(20,3,4,5)            55.0845         calculate D2E/DX2 analytically  !
 ! D21   D(20,3,4,21)          176.697          calculate D2E/DX2 analytically  !
 ! D22   D(3,4,5,6)             91.9291         calculate D2E/DX2 analytically  !
 ! D23   D(3,4,5,14)           -83.9441         calculate D2E/DX2 analytically  !
 ! D24   D(21,4,5,6)           -30.2176         calculate D2E/DX2 analytically  !
 ! D25   D(21,4,5,14)          153.9092         calculate D2E/DX2 analytically  !
 ! D26   D(4,5,6,7)              1.831          calculate D2E/DX2 analytically  !
 ! D27   D(4,5,6,11)          -177.9362         calculate D2E/DX2 analytically  !
 ! D28   D(14,5,6,7)           177.5955         calculate D2E/DX2 analytically  !
 ! D29   D(14,5,6,11)           -2.1718         calculate D2E/DX2 analytically  !
 ! D30   D(4,5,14,13)          178.1614         calculate D2E/DX2 analytically  !
 ! D31   D(4,5,14,28)           -2.9701         calculate D2E/DX2 analytically  !
 ! D32   D(6,5,14,13)            2.1583         calculate D2E/DX2 analytically  !
 ! D33   D(6,5,14,28)         -178.9732         calculate D2E/DX2 analytically  !
 ! D34   D(5,6,7,8)            179.5988         calculate D2E/DX2 analytically  !
 ! D35   D(5,6,7,22)            -0.8909         calculate D2E/DX2 analytically  !
 ! D36   D(11,6,7,8)            -0.6316         calculate D2E/DX2 analytically  !
 ! D37   D(11,6,7,22)          178.8787         calculate D2E/DX2 analytically  !
 ! D38   D(5,6,11,10)         -179.4493         calculate D2E/DX2 analytically  !
 ! D39   D(5,6,11,12)            0.9026         calculate D2E/DX2 analytically  !
 ! D40   D(7,6,11,10)            0.7678         calculate D2E/DX2 analytically  !
 ! D41   D(7,6,11,12)         -178.8803         calculate D2E/DX2 analytically  !
 ! D42   D(6,7,8,9)              0.1057         calculate D2E/DX2 analytically  !
 ! D43   D(6,7,8,23)          -179.9909         calculate D2E/DX2 analytically  !
 ! D44   D(22,7,8,9)          -179.4199         calculate D2E/DX2 analytically  !
 ! D45   D(22,7,8,23)            0.4835         calculate D2E/DX2 analytically  !
 ! D46   D(7,8,9,10)             0.2946         calculate D2E/DX2 analytically  !
 ! D47   D(7,8,9,24)          -179.9686         calculate D2E/DX2 analytically  !
 ! D48   D(23,8,9,10)         -179.6086         calculate D2E/DX2 analytically  !
 ! D49   D(23,8,9,24)            0.1282         calculate D2E/DX2 analytically  !
 ! D50   D(8,9,10,11)           -0.1479         calculate D2E/DX2 analytically  !
 ! D51   D(8,9,10,25)          179.6413         calculate D2E/DX2 analytically  !
 ! D52   D(24,9,10,11)        -179.8851         calculate D2E/DX2 analytically  !
 ! D53   D(24,9,10,25)          -0.0959         calculate D2E/DX2 analytically  !
 ! D54   D(9,10,11,6)           -0.3986         calculate D2E/DX2 analytically  !
 ! D55   D(9,10,11,12)         179.2498         calculate D2E/DX2 analytically  !
 ! D56   D(25,10,11,6)         179.8158         calculate D2E/DX2 analytically  !
 ! D57   D(25,10,11,12)         -0.5358         calculate D2E/DX2 analytically  !
 ! D58   D(6,11,12,13)           0.4272         calculate D2E/DX2 analytically  !
 ! D59   D(6,11,12,26)        -179.9911         calculate D2E/DX2 analytically  !
 ! D60   D(10,11,12,13)       -179.2216         calculate D2E/DX2 analytically  !
 ! D61   D(10,11,12,26)          0.3602         calculate D2E/DX2 analytically  !
 ! D62   D(11,12,13,14)         -0.4928         calculate D2E/DX2 analytically  !
 ! D63   D(11,12,13,27)        179.6067         calculate D2E/DX2 analytically  !
 ! D64   D(26,12,13,14)        179.9184         calculate D2E/DX2 analytically  !
 ! D65   D(26,12,13,27)          0.0179         calculate D2E/DX2 analytically  !
 ! D66   D(12,13,14,5)          -0.8123         calculate D2E/DX2 analytically  !
 ! D67   D(12,13,14,28)       -179.6809         calculate D2E/DX2 analytically  !
 ! D68   D(27,13,14,5)         179.0884         calculate D2E/DX2 analytically  !
 ! D69   D(27,13,14,28)          0.2197         calculate D2E/DX2 analytically  !
 --------------------------------------------------------------------------------
 Trust Radius=3.00D-01 FncErr=1.00D-07 GrdErr=1.00D-06 EigMax=2.50D+02 EigMin=1.00D-04
 Number of steps in this run=    156 maximum allowed number of steps=    168.
 GradGradGradGradGradGradGradGradGradGradGradGradGradGradGradGradGradGrad

                          Input orientation:                          
 ---------------------------------------------------------------------
 Center     Atomic      Atomic             Coordinates (Angstroms)
 Number     Number       Type             X           Y           Z
 ---------------------------------------------------------------------
      1          7           0       -4.462923    0.554395   -0.830382
      2          6           0       -3.509436    0.036504    0.152821
      3          6           0       -2.084466   -0.101145   -0.416906
      4          7           0       -1.182900   -0.609577    0.629397
      5          6           0        0.120080   -0.858638    0.115753
      6          6           0        1.161503    0.115287    0.141716
      7          6           0        1.027271    1.406665    0.707408
      8          6           0        2.083648    2.321356    0.713763
      9          6           0        3.304424    1.972942    0.152964
     10          6           0        3.467180    0.712862   -0.419447
     11          6           0        2.414084   -0.217228   -0.436776
     12          6           0        2.599866   -1.473478   -1.033637
     13          6           0        1.566708   -2.405098   -1.077252
     14          6           0        0.334478   -2.094685   -0.513694
     15          1           0       -4.534106   -0.100718   -1.609110
     16          1           0       -5.390241    0.587120   -0.407223
     17          1           0       -3.494963    0.711571    1.016192
     18          1           0       -3.858694   -0.937949    0.513835
     19          1           0       -1.735946    0.875808   -0.775037
     20          1           0       -2.108487   -0.788630   -1.272011
     21          1           0       -1.121467    0.056282    1.395755
     22          1           0        0.087027    1.724234    1.148189
     23          1           0        1.947719    3.304680    1.156226
     24          1           0        4.129204    2.680361    0.155784
     25          1           0        4.429953    0.460707   -0.859228
     26          1           0        3.557481   -1.735143   -1.478891
     27          1           0        1.721708   -3.371767   -1.547969
     28          1           0       -0.468704   -2.826719   -0.544947
 ---------------------------------------------------------------------
                    Distance matrix (angstroms):
                    1          2          3          4          5
     1  N    0.000000
     2  C    1.464253   0.000000
     3  C    2.501550   1.540803   0.000000
     4  N    3.774168   2.461162   1.471760   0.000000
     5  C    4.888328   3.738455   2.391139   1.422540   0.000000
     6  C    5.724681   4.671617   3.300791   2.501897   1.426102
     7  C    5.764841   4.771438   3.635998   2.992687   2.510906
     8  C    6.954432   6.067767   4.951777   4.389512   3.784914
     9  C    7.956817   7.083678   5.802304   5.199276   4.261371
    10  C    7.942325   7.032647   5.611006   4.946935   3.736192
    11  C    6.931346   5.958196   4.500092   3.772129   2.445230
    12  C    7.350958   6.404007   4.920023   4.221531   2.801511
    13  C    6.721309   5.765565   4.367532   3.700931   2.430541
    14  C    5.489351   4.445435   3.136059   2.411357   1.403561
    15  H    1.020126   2.042836   2.724350   4.062073   5.021060
    16  H    1.019830   2.038199   3.376677   4.495374   5.720784
    17  H    2.090810   1.096054   2.168819   2.690851   4.042881
    18  H    2.097403   1.096298   2.171268   2.698343   3.999425
    19  H    2.746412   2.170396   1.097343   2.117703   2.691959
    20  H    2.746292   2.161863   1.097459   2.122293   2.626272
    21  H    4.045879   2.692151   2.058614   1.017078   2.004227
    22  H    5.097579   4.095575   3.239894   2.707126   2.781770
    23  H    7.253070   6.439592   5.507532   5.039815   4.664340
    24  H    8.906004   8.083242   6.831870   6.266294   5.347821
    25  H    8.893417   8.014868   6.553548   5.904713   4.611536
    26  H    8.365969   7.466092   5.969031   5.308765   3.889328
    27  H    7.360662   6.471002   5.144243   4.561509   3.413063
    28  H    5.240915   4.234499   3.171094   2.608616   2.157900
                    6          7          8          9         10
     6  C    0.000000
     7  C    1.416222   0.000000
     8  C    2.458522   1.397366   0.000000
     9  C    2.836040   2.411121   1.387870   0.000000
    10  C    2.447069   2.775666   2.405323   1.393537   0.000000
    11  C    1.419217   2.422692   2.806659   2.436666   1.405126
    12  C    2.444282   3.714770   4.209590   3.712443   2.430955
    13  C    2.828853   4.243294   5.080780   4.868298   3.710279
    14  C    2.448981   3.772335   4.905881   5.080414   4.207734
    15  H    5.962551   6.210263   7.420030   8.297441   8.130054
    16  H    6.591610   6.564946   7.753915   8.822218   8.858322
    17  H    4.775243   4.585750   5.814101   6.969067   7.108622
    18  H    5.142972   5.422853   6.780447   7.740399   7.567339
    19  H    3.132737   3.180380   4.346887   5.241204   5.217807
    20  H    3.675395   4.309339   5.584738   6.241510   5.836901
    21  H    2.605388   2.629530   3.983520   4.980625   4.978125
    22  H    2.180871   1.085908   2.128797   3.376977   3.860802
    23  H    3.437964   2.156646   1.086820   2.149584   3.392496
    24  H    3.922633   3.398320   2.150471   1.086605   2.154117
    25  H    3.435691   3.863604   3.382524   2.139674   1.088082
    26  H    3.433827   4.588336   4.840981   4.059173   2.668952
    27  H    3.915151   5.329389   6.136618   5.827871   4.583058
    28  H    3.432853   4.661317   5.882306   6.144943   5.294862
                   11         12         13         14         15
    11  C    0.000000
    12  C    1.403183   0.000000
    13  C    2.432084   1.391846   0.000000
    14  C    2.802771   2.405873   1.390088   0.000000
    15  H    7.047360   7.287606   6.543162   5.373914   0.000000
    16  H    7.845721   8.275281   7.602727   6.322644   1.628073
    17  H    6.155536   6.791405   6.302114   4.988010   2.937999
    18  H    6.385205   6.662917   5.841153   4.469513   2.379923
    19  H    4.304868   4.938146   4.665104   3.630260   3.078795
    20  H    4.634411   4.763868   4.019697   2.872091   2.543714
    21  H    3.991628   4.700046   4.404593   3.223730   4.549722
    22  H    3.420026   4.615201   4.918681   4.172197   5.682254
    23  H    3.893455   5.296375   6.142895   5.877442   7.826741
    24  H    3.418886   4.583445   5.826547   6.135895   9.268343
    25  H    2.168362   2.668465   4.056913   4.839663   9.012873
    26  H    2.167355   1.088001   2.138534   3.383581   8.256033
    27  H    3.415443   2.153881   1.086300   2.150597   7.059653
    28  H    3.889937   3.389130   2.145697   1.087176   5.009094
                   16         17         18         19         20
    16  H    0.000000
    17  H    2.373537   0.000000
    18  H    2.349430   1.762264   0.000000
    19  H    3.684088   2.515873   3.075218   0.000000
    20  H    3.662029   3.067375   2.504948   1.776548   0.000000
    21  H    4.664221   2.491377   3.042810   2.400322   2.967333
    22  H    5.806272   3.724723   4.801909   2.782418   4.122151
    23  H    7.979672   6.030474   7.219903   4.816491   6.253346
    24  H    9.763118   7.921134   8.776495   6.206675   7.278824
    25  H    9.831404   8.147665   8.517230   6.180429   6.669516
    26  H    9.306079   7.870757   7.720500   5.944143   5.748207
    27  H    8.219119   7.103677   6.427705   5.531246   4.628083
    28  H    5.991227   4.910692   4.022500   3.920147   2.715018
                   21         22         23         24         25
    21  H    0.000000
    22  H    2.074562   0.000000
    23  H    4.475418   2.441322   0.000000
    24  H    5.999404   4.270625   2.479825   0.000000
    25  H    6.005562   4.948458   4.279221   2.459180   0.000000
    26  H    5.776274   5.559936   5.910583   4.742964   2.442733
    27  H    5.338602   5.992551   7.206851   6.732537   4.743080
    28  H    3.536117   4.887404   6.806405   7.208308   5.907858
                   26         27         28
    26  H    0.000000
    27  H    2.460360   0.000000
    28  H    4.274804   2.470027   0.000000
 Stoichiometry    C12H14N2
 Framework group  C1[X(C12H14N2)]
 Deg. of freedom    78
 Full point group                 C1      NOp   1
 Largest Abelian subgroup         C1      NOp   1
 Largest concise Abelian subgroup C1      NOp   1
                         Standard orientation:                         
 ---------------------------------------------------------------------
 Center     Atomic      Atomic             Coordinates (Angstroms)
 Number     Number       Type             X           Y           Z
 ---------------------------------------------------------------------
      1          7           0       -4.692211   -0.712931    0.903635
      2          6           0       -3.775018   -0.458089   -0.208952
      3          6           0       -2.369922   -0.038182    0.263761
      4          7           0       -1.503242    0.183846   -0.904849
      5          6           0       -0.228126    0.682065   -0.518227
      6          6           0        0.887276   -0.166746   -0.255236
      7          6           0        0.860100   -1.576806   -0.384374
      8          6           0        1.985567   -2.362249   -0.121630
      9          6           0        3.170507   -1.761583    0.279991
     10          6           0        3.228540   -0.376809    0.424836
     11          6           0        2.105039    0.426908    0.167617
     12          6           0        2.186137    1.817531    0.336473
     13          6           0        1.082183    2.632508    0.103377
     14          6           0       -0.117160    2.066039   -0.312595
     15          1           0       -4.821117    0.146189    1.438381
     16          1           0       -5.610684   -0.948878    0.528417
     17          1           0       -3.700399   -1.367099   -0.816789
     18          1           0       -4.197454    0.323257   -0.851537
     19          1           0       -1.948000   -0.822856    0.904407
     20          1           0       -2.454977    0.879238    0.860018
     21          1           0       -1.383300   -0.682310   -1.424306
     22          1           0       -0.048579   -2.088791   -0.686650
     23          1           0        1.931355   -3.442243   -0.230494
     24          1           0        4.048680   -2.367780    0.485048
     25          1           0        4.164861    0.074720    0.746312
     26          1           0        3.116520    2.279379    0.660246
     27          1           0        1.156502    3.707106    0.243959
     28          1           0       -0.975974    2.706140   -0.498769
 ---------------------------------------------------------------------
 Rotational constants (GHZ):           1.1834175           0.4181586           0.3272783
 Standard basis: 6-31G(d,p) (6D, 7F)
 There are   280 symmetry adapted cartesian basis functions of A   symmetry.
 There are   280 symmetry adapted basis functions of A   symmetry.
   280 basis functions,   490 primitive gaussians,   280 cartesian basis functions
    50 alpha electrons       50 beta electrons
       nuclear repulsion energy       827.0320405435 Hartrees.
 NAtoms=   28 NActive=   28 NUniq=   28 SFac= 1.00D+00 NAtFMM=   60 NAOKFM=F Big=F
 Integral buffers will be    131072 words long.
 Raffenetti 2 integral format.
 Two-electron integral symmetry is turned on.
 Force inversion solution in PCM.
 ------------------------------------------------------------------------------
 Polarizable Continuum Model (PCM)
 =================================
 Model                : PCM.
 Atomic radii         : UFF (Universal Force Field).
 Polarization charges : Total charges.
 Charge compensation  : None.
 Solution method      : Matrix inversion.
 Cavity type          : Scaled VdW (van der Waals Surface) (Alpha=1.100).
 Cavity algorithm     : GePol (No added spheres)
                        Default sphere list used, NSphG=   28.
                        Lebedev-Laikov grids with approx.  5.0 points / Ang**2.
                        Smoothing algorithm: York/Karplus (Gamma=1.0000).
                        Polarization charges: spherical gaussians, with
                                              point-specific exponents (IZeta= 3).
                        Self-potential: point-specific (ISelfS= 7).
                        Self-field    : sphere-specific E.n sum rule (ISelfD= 2).
 1st derivatives      : Analytical E(r).r(x)/FMM algorithm (CHGder, D1EAlg=3).
                        Cavity 1st derivative terms included.
 2nd derivatives      : Analytical E(r).r(xy)/FMM algorithm (CHGder, D2EAlg=3).
                        Cavity 2nd derivative terms included.
 Solvent              : Water, Eps=  78.355300 Eps(inf)=   1.777849
 ------------------------------------------------------------------------------
 One-electron integrals computed using PRISM.
 NBasis=   280 RedAO= T EigKep=  2.56D-04  NBF=   280
 NBsUse=   280 1.00D-06 EigRej= -1.00D+00 NBFU=   280
 ExpMin= 1.61D-01 ExpMax= 4.17D+03 ExpMxC= 6.27D+02 IAcc=3 IRadAn=         5 AccDes= 0.00D+00
 Harris functional with IExCor=  402 and IRadAn=       5 diagonalized for initial guess.
 HarFok:  IExCor=  402 AccDes= 0.00D+00 IRadAn=         5 IDoV= 1 UseB2=F ITyADJ=14
 ICtDFT=  3500011 ScaDFX=  1.000000  1.000000  1.000000  1.000000
 FoFCou: FMM=F IPFlag=           0 FMFlag=      100000 FMFlg1=           0
         NFxFlg=           0 DoJE=T BraDBF=F KetDBF=T FulRan=T
         wScrn=  0.000000 ICntrl=       500 IOpCl=  0 I1Cent=   200000004 NGrid=           0
         NMat0=    1 NMatS0=      1 NMatT0=    0 NMatD0=    1 NMtDS0=    0 NMtDT0=    0
 Petite list used in FoFCou.
 Keep R1 ints in memory in canonical form, NReq=784933199.
 Requested convergence on RMS density matrix=1.00D-08 within  32 cycles.
 Requested convergence on MAX density matrix=1.00D-06.
 Requested convergence on             energy=1.00D-06.
 No special actions if energy rises.
 Inv3:  Mode=1 IEnd=    13546875.
 Iteration    1 A*A^-1 deviation from unit magnitude is 8.55D-15 for   1839.
 Iteration    1 A*A^-1 deviation from orthogonality  is 3.53D-15 for   2046    781.
 Iteration    1 A^-1*A deviation from unit magnitude is 8.33D-15 for   1839.
 Iteration    1 A^-1*A deviation from orthogonality  is 3.70D-15 for   1446    631.
 Error on total polarization charges =  0.00999
 SCF Done:  E(RB3LYP) =  -575.230279437     A.U. after   13 cycles
            NFock= 13  Conv=0.26D-08     -V/T= 2.0096
 QCSCF skips out because SCF is already converged.
 DoSCS=F DFT=T ScalE2(SS,OS)=  1.000000  1.000000
 Range of M.O.s used for correlation:     1   280
 NBasis=   280 NAE=    50 NBE=    50 NFC=     0 NFV=     0
 NROrb=    280 NOA=    50 NOB=    50 NVA=   230 NVB=   230

 **** Warning!!: The largest alpha MO coefficient is  0.10214176D+02

 Symmetrizing basis deriv contribution to polar:
 IMax=3 JMax=2 DiffMx= 0.00D+00
 G2DrvN: will do    29 centers at a time, making    1 passes.
 Calling FoFCou, ICntrl=  3107 FMM=F I1Cent=   0 AccDes= 0.00D+00.
 NEqPCM:  Using equilibrium solvation (IEInf=0, Eps=  78.3553, EpsInf=   1.7778)
 G2PCM: DoFxE=T DoFxN=T DoGrad=T DoDP/DQ/DG/TGxP=FFFF NFrqRd=   0 IEInf=0 SqF1=F DoCFld=F IF1Alg=4.
 End of G2Drv F.D. properties file   721 does not exist.
 End of G2Drv F.D. properties file   722 does not exist.
 End of G2Drv F.D. properties file   788 does not exist.
          IDoAtm=1111111111111111111111111111
 NEqPCM:  Using equilibrium solvation (IEInf=0, Eps=  78.3553, EpsInf=   1.7778)
          Differentiating once with respect to nuclear coordinates.
 Keep R1 ints in memory in canonical form, NReq=785254595.
          There are    87 degrees of freedom in the 1st order CPHF.  IDoFFX=6 NUNeed=     0.
     81 vectors produced by pass  0 Test12= 1.32D-14 1.15D-09 XBig12= 1.30D-01 1.45D-01.
 AX will form    81 AO Fock derivatives at one time.
     81 vectors produced by pass  1 Test12= 1.32D-14 1.15D-09 XBig12= 2.30D-02 3.34D-02.
     81 vectors produced by pass  2 Test12= 1.32D-14 1.15D-09 XBig12= 1.98D-04 2.81D-03.
     81 vectors produced by pass  3 Test12= 1.32D-14 1.15D-09 XBig12= 5.18D-07 8.93D-05.
     81 vectors produced by pass  4 Test12= 1.32D-14 1.15D-09 XBig12= 6.00D-10 2.51D-06.
     57 vectors produced by pass  5 Test12= 1.32D-14 1.15D-09 XBig12= 6.28D-13 1.08D-07.
      9 vectors produced by pass  6 Test12= 1.32D-14 1.15D-09 XBig12= 6.95D-16 2.08D-09.
 InvSVY:  IOpt=1 It=  1 EMax= 9.99D-16
 Solved reduced A of dimension   471 with    87 vectors.
 End of Minotr F.D. properties file   721 does not exist.
 End of Minotr F.D. properties file   722 does not exist.
 End of Minotr F.D. properties file   788 does not exist.

 **********************************************************************

            Population analysis using the SCF density.

 **********************************************************************

 Orbital symmetries:
       Occupied  (A) (A) (A) (A) (A) (A) (A) (A) (A) (A) (A) (A)
                 (A) (A) (A) (A) (A) (A) (A) (A) (A) (A) (A) (A)
                 (A) (A) (A) (A) (A) (A) (A) (A) (A) (A) (A) (A)
                 (A) (A) (A) (A) (A) (A) (A) (A) (A) (A) (A) (A)
                 (A) (A)
       Virtual   (A) (A) (A) (A) (A) (A) (A) (A) (A) (A) (A) (A)
                 (A) (A) (A) (A) (A) (A) (A) (A) (A) (A) (A) (A)
                 (A) (A) (A) (A) (A) (A) (A) (A) (A) (A) (A) (A)
                 (A) (A) (A) (A) (A) (A) (A) (A) (A) (A) (A) (A)
                 (A) (A) (A) (A) (A) (A) (A) (A) (A) (A) (A) (A)
                 (A) (A) (A) (A) (A) (A) (A) (A) (A) (A) (A) (A)
                 (A) (A) (A) (A) (A) (A) (A) (A) (A) (A) (A) (A)
                 (A) (A) (A) (A) (A) (A) (A) (A) (A) (A) (A) (A)
                 (A) (A) (A) (A) (A) (A) (A) (A) (A) (A) (A) (A)
                 (A) (A) (A) (A) (A) (A) (A) (A) (A) (A) (A) (A)
                 (A) (A) (A) (A) (A) (A) (A) (A) (A) (A) (A) (A)
                 (A) (A) (A) (A) (A) (A) (A) (A) (A) (A) (A) (A)
                 (A) (A) (A) (A) (A) (A) (A) (A) (A) (A) (A) (A)
                 (A) (A) (A) (A) (A) (A) (A) (A) (A) (A) (A) (A)
                 (A) (A) (A) (A) (A) (A) (A) (A) (A) (A) (A) (A)
                 (A) (A) (A) (A) (A) (A) (A) (A) (A) (A) (A) (A)
                 (A) (A) (A) (A) (A) (A) (A) (A) (A) (A) (A) (A)
                 (A) (A) (A) (A) (A) (A) (A) (A) (A) (A) (A) (A)
                 (A) (A) (A) (A) (A) (A) (A) (A) (A) (A) (A) (A)
                 (A) (A)
 The electronic state is 1-A.
 Alpha  occ. eigenvalues --  -14.33144 -14.30990 -10.22316 -10.21132 -10.20428
 Alpha  occ. eigenvalues --  -10.19939 -10.19641 -10.19483 -10.19171 -10.19105
 Alpha  occ. eigenvalues --  -10.19011 -10.18930 -10.18597 -10.18571  -0.92700
 Alpha  occ. eigenvalues --   -0.87673  -0.86547  -0.81751  -0.76582  -0.74596
 Alpha  occ. eigenvalues --   -0.72091  -0.69019  -0.62722  -0.61394  -0.60271
 Alpha  occ. eigenvalues --   -0.58312  -0.52553  -0.50928  -0.49378  -0.48401
 Alpha  occ. eigenvalues --   -0.47650  -0.46145  -0.44261  -0.42831  -0.42275
 Alpha  occ. eigenvalues --   -0.41647  -0.40251  -0.39722  -0.38895  -0.37905
 Alpha  occ. eigenvalues --   -0.37038  -0.34851  -0.33938  -0.33277  -0.32569
 Alpha  occ. eigenvalues --   -0.28533  -0.25070  -0.24648  -0.23397  -0.20051
 Alpha virt. eigenvalues --   -0.04429  -0.00714   0.03122   0.08341   0.08453
 Alpha virt. eigenvalues --    0.09377   0.10494   0.12230   0.13557   0.14376
 Alpha virt. eigenvalues --    0.16026   0.16445   0.17603   0.18005   0.18686
 Alpha virt. eigenvalues --    0.19334   0.19589   0.20371   0.20833   0.23834
 Alpha virt. eigenvalues --    0.24011   0.26037   0.26427   0.27218   0.28682
 Alpha virt. eigenvalues --    0.31544   0.32248   0.33200   0.36104   0.39971
 Alpha virt. eigenvalues --    0.47071   0.49113   0.49637   0.51141   0.51627
 Alpha virt. eigenvalues --    0.52035   0.53923   0.54724   0.55282   0.55946
 Alpha virt. eigenvalues --    0.56595   0.57394   0.59180   0.59290   0.60133
 Alpha virt. eigenvalues --    0.60521   0.61091   0.61309   0.61785   0.62047
 Alpha virt. eigenvalues --    0.62871   0.64189   0.66046   0.66674   0.68247
 Alpha virt. eigenvalues --    0.69623   0.71131   0.71914   0.73191   0.75113
 Alpha virt. eigenvalues --    0.75990   0.79861   0.81045   0.81761   0.82287
 Alpha virt. eigenvalues --    0.82670   0.82892   0.83978   0.85702   0.86179
 Alpha virt. eigenvalues --    0.87436   0.88433   0.88960   0.90174   0.92250
 Alpha virt. eigenvalues --    0.93013   0.94116   0.94370   0.95477   0.95855
 Alpha virt. eigenvalues --    0.97504   0.99301   0.99805   1.03880   1.05054
 Alpha virt. eigenvalues --    1.06416   1.07290   1.12134   1.14789   1.16647
 Alpha virt. eigenvalues --    1.19365   1.21194   1.21798   1.24215   1.25332
 Alpha virt. eigenvalues --    1.26868   1.28741   1.31261   1.33637   1.35531
 Alpha virt. eigenvalues --    1.36644   1.39024   1.40681   1.41565   1.42018
 Alpha virt. eigenvalues --    1.43013   1.44372   1.45248   1.47752   1.50578
 Alpha virt. eigenvalues --    1.52563   1.60156   1.64529   1.67027   1.70296
 Alpha virt. eigenvalues --    1.73097   1.75838   1.77157   1.78330   1.79669
 Alpha virt. eigenvalues --    1.83292   1.84684   1.85159   1.86779   1.87299
 Alpha virt. eigenvalues --    1.88559   1.89380   1.90360   1.90752   1.94227
 Alpha virt. eigenvalues --    1.94772   1.95343   1.97728   1.98443   1.99428
 Alpha virt. eigenvalues --    1.99987   2.01369   2.03998   2.04706   2.07219
 Alpha virt. eigenvalues --    2.07422   2.08918   2.12160   2.14086   2.19734
 Alpha virt. eigenvalues --    2.20626   2.23019   2.24141   2.26642   2.27157
 Alpha virt. eigenvalues --    2.27903   2.29941   2.30603   2.31963   2.32898
 Alpha virt. eigenvalues --    2.33556   2.34667   2.36484   2.38532   2.38840
 Alpha virt. eigenvalues --    2.40354   2.41624   2.44163   2.44278   2.45747
 Alpha virt. eigenvalues --    2.47040   2.47196   2.48594   2.51080   2.52203
 Alpha virt. eigenvalues --    2.53680   2.57441   2.58531   2.58862   2.59838
 Alpha virt. eigenvalues --    2.61117   2.62688   2.63960   2.64453   2.65062
 Alpha virt. eigenvalues --    2.69308   2.71558   2.72587   2.74896   2.76582
 Alpha virt. eigenvalues --    2.78377   2.79430   2.81320   2.83877   2.85009
 Alpha virt. eigenvalues --    2.88706   2.91384   2.93382   2.97159   2.98580
 Alpha virt. eigenvalues --    3.03293   3.06362   3.11658   3.17674   3.18855
 Alpha virt. eigenvalues --    3.23911   3.24453   3.25134   3.26448   3.29805
 Alpha virt. eigenvalues --    3.32467   3.33517   3.37259   3.40011   3.41847
 Alpha virt. eigenvalues --    3.47388   3.48371   3.51705   3.56923   3.79154
 Alpha virt. eigenvalues --    3.87560   3.98813   4.11367   4.13783   4.14954
 Alpha virt. eigenvalues --    4.15985   4.16932   4.24601   4.36363   4.39148
 Alpha virt. eigenvalues --    4.41809   4.52017   4.63160   4.64966   4.93352
          Condensed to atoms (all electrons):
               1          2          3          4          5          6
     1  N    6.811075   0.284071  -0.044957   0.002278  -0.000054  -0.000000
     2  C    0.284071   4.835638   0.358739  -0.041633   0.003367   0.000063
     3  C   -0.044957   0.358739   4.867854   0.277230  -0.044788  -0.001777
     4  N    0.002278  -0.041633   0.277230   6.950189   0.304481  -0.081854
     5  C   -0.000054   0.003367  -0.044788   0.304481   4.945448   0.383229
     6  C   -0.000000   0.000063  -0.001777  -0.081854   0.383229   4.892300
     7  C    0.000001  -0.000122  -0.000467  -0.013248  -0.100786   0.432909
     8  C    0.000000  -0.000001   0.000028   0.000824   0.007942  -0.012308
     9  C   -0.000000   0.000000   0.000001  -0.000016  -0.000806  -0.037957
    10  C    0.000000  -0.000000  -0.000001  -0.000134   0.013538  -0.023266
    11  C   -0.000000   0.000005  -0.000020   0.006606   0.000853   0.452469
    12  C   -0.000000  -0.000000   0.000032   0.000292  -0.070192  -0.042208
    13  C    0.000000   0.000001  -0.000122   0.005270  -0.005130  -0.041360
    14  C   -0.000001   0.000165  -0.010095  -0.080451   0.511722  -0.026769
    15  H    0.341852  -0.038597  -0.005933  -0.000071  -0.000005   0.000001
    16  H    0.340919  -0.031175   0.005059  -0.000137   0.000002   0.000000
    17  H   -0.040204   0.386667  -0.031663  -0.003548  -0.000121   0.000051
    18  H   -0.050553   0.381225  -0.049472   0.008208   0.000232  -0.000018
    19  H    0.008401  -0.045774   0.367423  -0.054069   0.002280   0.004549
    20  H   -0.002614  -0.030866   0.387264  -0.039205  -0.001384  -0.000505
    21  H   -0.000076  -0.002801  -0.039189   0.343203  -0.034940  -0.010413
    22  H   -0.000005   0.000032   0.000722   0.004679  -0.009160  -0.042485
    23  H   -0.000000  -0.000000  -0.000000   0.000002  -0.000184   0.002671
    24  H    0.000000   0.000000   0.000000   0.000000   0.000015   0.001126
    25  H   -0.000000   0.000000  -0.000000   0.000001  -0.000154   0.004173
    26  H   -0.000000   0.000000   0.000000   0.000006   0.000777   0.004267
    27  H    0.000000  -0.000000  -0.000003  -0.000138   0.003379   0.001395
    28  H    0.000002  -0.000189   0.000198  -0.000745  -0.037789   0.005176
               7          8          9         10         11         12
     1  N    0.000001   0.000000  -0.000000   0.000000  -0.000000  -0.000000
     2  C   -0.000122  -0.000001   0.000000  -0.000000   0.000005  -0.000000
     3  C   -0.000467   0.000028   0.000001  -0.000001  -0.000020   0.000032
     4  N   -0.013248   0.000824  -0.000016  -0.000134   0.006606   0.000292
     5  C   -0.100786   0.007942  -0.000806   0.013538   0.000853  -0.070192
     6  C    0.432909  -0.012308  -0.037957  -0.023266   0.452469  -0.042208
     7  C    5.132632   0.507218  -0.025575  -0.072407  -0.047553   0.016222
     8  C    0.507218   4.854867   0.503841  -0.028379  -0.033032  -0.000561
     9  C   -0.025575   0.503841   4.876882   0.502039  -0.012096   0.008552
    10  C   -0.072407  -0.028379   0.502039   5.062447   0.448257  -0.090627
    11  C   -0.047553  -0.033032  -0.012096   0.448257   4.764435   0.451035
    12  C    0.016222  -0.000561   0.008552  -0.090627   0.451035   5.084244
    13  C   -0.001553   0.000081  -0.000433   0.008195  -0.000246   0.494057
    14  C    0.010420  -0.000306   0.000058  -0.000248  -0.047633  -0.030322
    15  H   -0.000000  -0.000000   0.000000  -0.000000   0.000000   0.000000
    16  H   -0.000000  -0.000000   0.000000  -0.000000   0.000000  -0.000000
    17  H   -0.000044  -0.000000   0.000000  -0.000000   0.000001  -0.000000
    18  H    0.000004  -0.000000   0.000000   0.000000  -0.000001   0.000000
    19  H    0.002523  -0.000224   0.000004   0.000006  -0.000474  -0.000019
    20  H    0.000039   0.000004  -0.000000  -0.000000   0.000016  -0.000002
    21  H    0.005545   0.000068  -0.000002  -0.000004  -0.000026   0.000001
    22  H    0.360296  -0.035026   0.004520   0.000648   0.004782  -0.000184
    23  H   -0.034195   0.371220  -0.039671   0.004308   0.001034   0.000009
    24  H    0.004427  -0.039480   0.368500  -0.033571   0.002659  -0.000213
    25  H    0.000494   0.004708  -0.043231   0.371591  -0.039859  -0.008602
    26  H   -0.000207   0.000014   0.000276  -0.008227  -0.040076   0.370500
    27  H    0.000019  -0.000001   0.000003  -0.000242   0.002278  -0.033068
    28  H   -0.000149   0.000001  -0.000000   0.000009   0.000514   0.004926
              13         14         15         16         17         18
     1  N    0.000000  -0.000001   0.341852   0.340919  -0.040204  -0.050553
     2  C    0.000001   0.000165  -0.038597  -0.031175   0.386667   0.381225
     3  C   -0.000122  -0.010095  -0.005933   0.005059  -0.031663  -0.049472
     4  N    0.005270  -0.080451  -0.000071  -0.000137  -0.003548   0.008208
     5  C   -0.005130   0.511722  -0.000005   0.000002  -0.000121   0.000232
     6  C   -0.041360  -0.026769   0.000001   0.000000   0.000051  -0.000018
     7  C   -0.001553   0.010420  -0.000000  -0.000000  -0.000044   0.000004
     8  C    0.000081  -0.000306  -0.000000  -0.000000  -0.000000  -0.000000
     9  C   -0.000433   0.000058   0.000000   0.000000   0.000000   0.000000
    10  C    0.008195  -0.000248  -0.000000  -0.000000  -0.000000   0.000000
    11  C   -0.000246  -0.047633   0.000000   0.000000   0.000001  -0.000001
    12  C    0.494057  -0.030322   0.000000  -0.000000  -0.000000   0.000000
    13  C    4.898728   0.474558  -0.000000   0.000000  -0.000000   0.000001
    14  C    0.474558   4.949930  -0.000004   0.000000  -0.000024   0.000060
    15  H   -0.000000  -0.000004   0.478351  -0.032322   0.006494  -0.005426
    16  H    0.000000   0.000000  -0.032322   0.469586  -0.004019  -0.003966
    17  H   -0.000000  -0.000024   0.006494  -0.004019   0.626536  -0.048708
    18  H    0.000001   0.000060  -0.005426  -0.003966  -0.048708   0.678204
    19  H    0.000053   0.000663  -0.000676  -0.000163  -0.007896   0.007452
    20  H   -0.000383   0.003886   0.004616  -0.000083   0.005364  -0.008175
    21  H   -0.000202   0.005558   0.000015   0.000001   0.004403  -0.000510
    22  H    0.000003   0.000090   0.000000   0.000000   0.000125  -0.000010
    23  H   -0.000000   0.000002  -0.000000   0.000000  -0.000000  -0.000000
    24  H    0.000004  -0.000001   0.000000  -0.000000  -0.000000  -0.000000
    25  H    0.000327   0.000007  -0.000000   0.000000  -0.000000   0.000000
    26  H   -0.041983   0.004363   0.000000   0.000000   0.000000   0.000000
    27  H    0.364438  -0.033753  -0.000000  -0.000000   0.000000  -0.000000
    28  H   -0.039135   0.361996  -0.000001  -0.000000  -0.000003   0.000126
              19         20         21         22         23         24
     1  N    0.008401  -0.002614  -0.000076  -0.000005  -0.000000   0.000000
     2  C   -0.045774  -0.030866  -0.002801   0.000032  -0.000000   0.000000
     3  C    0.367423   0.387264  -0.039189   0.000722  -0.000000   0.000000
     4  N   -0.054069  -0.039205   0.343203   0.004679   0.000002   0.000000
     5  C    0.002280  -0.001384  -0.034940  -0.009160  -0.000184   0.000015
     6  C    0.004549  -0.000505  -0.010413  -0.042485   0.002671   0.001126
     7  C    0.002523   0.000039   0.005545   0.360296  -0.034195   0.004427
     8  C   -0.000224   0.000004   0.000068  -0.035026   0.371220  -0.039480
     9  C    0.000004  -0.000000  -0.000002   0.004520  -0.039671   0.368500
    10  C    0.000006  -0.000000  -0.000004   0.000648   0.004308  -0.033571
    11  C   -0.000474   0.000016  -0.000026   0.004782   0.001034   0.002659
    12  C   -0.000019  -0.000002   0.000001  -0.000184   0.000009  -0.000213
    13  C    0.000053  -0.000383  -0.000202   0.000003  -0.000000   0.000004
    14  C    0.000663   0.003886   0.005558   0.000090   0.000002  -0.000001
    15  H   -0.000676   0.004616   0.000015   0.000000  -0.000000   0.000000
    16  H   -0.000163  -0.000083   0.000001   0.000000   0.000000  -0.000000
    17  H   -0.007896   0.005364   0.004403   0.000125  -0.000000  -0.000000
    18  H    0.007452  -0.008175  -0.000510  -0.000010  -0.000000  -0.000000
    19  H    0.671975  -0.046837  -0.005599  -0.001006  -0.000003  -0.000000
    20  H   -0.046837   0.604434   0.005803   0.000023   0.000000   0.000000
    21  H   -0.005599   0.005803   0.463560   0.005775   0.000004  -0.000000
    22  H   -0.001006   0.000023   0.005775   0.614701  -0.005531  -0.000208
    23  H   -0.000003   0.000000   0.000004  -0.005531   0.602266  -0.005406
    24  H   -0.000000   0.000000  -0.000000  -0.000208  -0.005406   0.605367
    25  H   -0.000000   0.000000   0.000000   0.000018  -0.000197  -0.005514
    26  H    0.000000  -0.000000  -0.000000   0.000002   0.000000  -0.000013
    27  H   -0.000001   0.000011   0.000004   0.000000  -0.000000  -0.000000
    28  H    0.000265   0.000429  -0.000056  -0.000011  -0.000000   0.000000
              25         26         27         28
     1  N   -0.000000  -0.000000   0.000000   0.000002
     2  C    0.000000   0.000000  -0.000000  -0.000189
     3  C   -0.000000   0.000000  -0.000003   0.000198
     4  N    0.000001   0.000006  -0.000138  -0.000745
     5  C   -0.000154   0.000777   0.003379  -0.037789
     6  C    0.004173   0.004267   0.001395   0.005176
     7  C    0.000494  -0.000207   0.000019  -0.000149
     8  C    0.004708   0.000014  -0.000001   0.000001
     9  C   -0.043231   0.000276   0.000003  -0.000000
    10  C    0.371591  -0.008227  -0.000242   0.000009
    11  C   -0.039859  -0.040076   0.002278   0.000514
    12  C   -0.008602   0.370500  -0.033068   0.004926
    13  C    0.000327  -0.041983   0.364438  -0.039135
    14  C    0.000007   0.004363  -0.033753   0.361996
    15  H   -0.000000   0.000000  -0.000000  -0.000001
    16  H    0.000000   0.000000  -0.000000  -0.000000
    17  H   -0.000000   0.000000   0.000000  -0.000003
    18  H    0.000000   0.000000  -0.000000   0.000126
    19  H   -0.000000   0.000000  -0.000001   0.000265
    20  H    0.000000  -0.000000   0.000011   0.000429
    21  H    0.000000  -0.000000   0.000004  -0.000056
    22  H    0.000018   0.000002   0.000000  -0.000011
    23  H   -0.000197   0.000000  -0.000000  -0.000000
    24  H   -0.005514  -0.000013  -0.000000   0.000000
    25  H    0.607563   0.005481  -0.000011  -0.000000
    26  H    0.005481   0.613355  -0.005218  -0.000198
    27  H   -0.000011  -0.005218   0.604926  -0.005833
    28  H   -0.000000  -0.000198  -0.005833   0.614800
 Mulliken charges:
               1
     1  N   -0.650137
     2  C   -0.058817
     3  C   -0.036063
     4  N   -0.588019
     5  C    0.128230
     6  C    0.136542
     7  C   -0.176445
     8  C   -0.101496
     9  C   -0.104890
    10  C   -0.153932
    11  C    0.086070
    12  C   -0.153874
    13  C   -0.115167
    14  C   -0.093871
    15  H    0.251707
    16  H    0.256297
    17  H    0.106588
    18  H    0.091328
    19  H    0.097147
    20  H    0.118167
    21  H    0.259879
    22  H    0.097209
    23  H    0.103672
    24  H    0.102307
    25  H    0.103205
    26  H    0.096883
    27  H    0.101812
    28  H    0.095666
 Sum of Mulliken charges =  -0.00000
 Mulliken charges with hydrogens summed into heavy atoms:
               1
     1  N   -0.142133
     2  C    0.139098
     3  C    0.179252
     4  N   -0.328140
     5  C    0.128230
     6  C    0.136542
     7  C   -0.079236
     8  C    0.002176
     9  C   -0.002582
    10  C   -0.050727
    11  C    0.086070
    12  C   -0.056990
    13  C   -0.013354
    14  C    0.001795
 APT charges:
               1
     1  N   -1.767878
     2  C   -0.617394
     3  C   -0.467296
     4  N   -0.543363
     5  C   -0.317090
     6  C   -0.405036
     7  C   -0.584902
     8  C   -0.411889
     9  C   -0.457316
    10  C   -0.511362
    11  C   -0.442566
    12  C   -0.500928
    13  C   -0.465664
    14  C   -0.448823
    15  H    0.507608
    16  H    1.097350
    17  H    0.348420
    18  H    0.493084
    19  H    0.162868
    20  H    0.363061
    21  H    0.437635
    22  H    0.329334
    23  H    0.662590
    24  H    0.862044
    25  H    0.736049
    26  H    0.715290
    27  H    0.720072
    28  H    0.506103
 Sum of APT charges =  -0.00000
 APT charges with hydrogens summed into heavy atoms:
               1
     1  N   -0.162921
     2  C    0.224110
     3  C    0.058633
     4  N   -0.105728
     5  C   -0.317090
     6  C   -0.405036
     7  C   -0.255569
     8  C    0.250701
     9  C    0.404728
    10  C    0.224687
    11  C   -0.442566
    12  C    0.214362
    13  C    0.254408
    14  C    0.057280
 Electronic spatial extent (au):  <R**2>=           3382.2477
 Charge=              0.0000 electrons
 Dipole moment (field-independent basis, Debye):
    X=             -0.8412    Y=              0.0106    Z=             -0.1953  Tot=              0.8637
 Quadrupole moment (field-independent basis, Debye-Ang):
   XX=            -67.0268   YY=            -75.6511   ZZ=            -87.6510
   XY=             -3.9209   XZ=              4.2702   YZ=              6.1401
 Traceless Quadrupole moment (field-independent basis, Debye-Ang):
   XX=              9.7495   YY=              1.1252   ZZ=            -10.8747
   XY=             -3.9209   XZ=              4.2702   YZ=              6.1401
 Octapole moment (field-independent basis, Debye-Ang**2):
  XXX=            -65.9100  YYY=              1.6713  ZZZ=             -0.9578  XYY=              9.0446
  XXY=             11.4892  XXZ=              4.7253  XZZ=             -6.1996  YZZ=              0.0781
  YYZ=             -2.7866  XYZ=            -15.0243
 Hexadecapole moment (field-independent basis, Debye-Ang**3):
 XXXX=          -2536.4092 YYYY=          -1027.9769 ZZZZ=           -221.6700 XXXY=            -55.7214
 XXXZ=             53.9942 YYYX=            -22.8220 YYYZ=             18.3001 ZZZX=             -5.9407
 ZZZY=             11.9760 XXYY=           -697.1891 XXZZ=           -602.9248 YYZZ=           -244.2999
 XXYZ=             63.8160 YYXZ=             23.8116 ZZXY=             -8.4315
 N-N= 8.270320405435D+02 E-N=-2.987942442854D+03  KE= 5.697831235014D+02
  Exact polarizability:   0.000   0.000   0.000   0.000   0.000   0.000
 Approx polarizability: 266.196 -23.383 299.938  41.736  15.615 113.312
 D2PCM: PCM CHGder 2nd derivatives, FixD1E=F FixD2E=F DoIter=F DoCFld=F I1PDM=0
 Calling FoFJK, ICntrl=    100147 FMM=F ISym2X=0 I1Cent= 0 IOpClX= 0 NMat=1 NMatS=1 NMatT=0.
 ***** Axes restored to original set *****
 -------------------------------------------------------------------
 Center     Atomic                   Forces (Hartrees/Bohr)
 Number     Number              X              Y              Z
 -------------------------------------------------------------------
      1        7           0.001603354    0.009245934   -0.006702931
      2        6          -0.003736556   -0.006152336   -0.001794735
      3        6          -0.016062383    0.006838682    0.007911080
      4        7           0.004753031   -0.003016589   -0.001756277
      5        6          -0.003691762   -0.019310734   -0.008941570
      6        6          -0.005666722    0.004763433    0.006567679
      7        6           0.004450290    0.015681661    0.004992834
      8        6          -0.026078281   -0.006076522    0.006707896
      9        6           0.017993942   -0.015090070   -0.012391633
     10        6           0.010078624    0.024443913    0.006561176
     11        6           0.010195061   -0.005361136   -0.004628648
     12        6          -0.005071405   -0.024770311   -0.009028831
     13        6           0.020163225    0.006924769   -0.005657797
     14        6          -0.011145139    0.013109053    0.012323245
     15        1          -0.000813992    0.000016294    0.002140667
     16        1           0.002216063   -0.000490676   -0.001367307
     17        1           0.000385893    0.001201569    0.000036110
     18        1           0.007311829   -0.004770551    0.005912733
     19        1          -0.002203810    0.001937837   -0.004857025
     20        1           0.003621361   -0.000504284    0.003211154
     21        1          -0.003723432    0.001579847   -0.001583780
     22        1          -0.000874359   -0.001813289   -0.000467404
     23        1          -0.001221760   -0.000950665   -0.000174721
     24        1           0.000081545   -0.000680188   -0.000241944
     25        1          -0.002128354   -0.002677560   -0.000197481
     26        1           0.000279522    0.003022611    0.001345295
     27        1           0.000298422    0.000344505    0.000127745
     28        1          -0.001014206    0.002554804    0.001954466
 -------------------------------------------------------------------
 Cartesian Forces:  Max     0.026078281 RMS     0.008241251
 FormGI is forming the generalized inverse of G from B-inverse, IUseBI=4.

 GradGradGradGradGradGradGradGradGradGradGradGradGradGradGradGradGradGrad
 Berny optimization.
 Internal  Forces:  Max     0.022348985 RMS     0.004728052
 Search for a local minimum.
 Step number   1 out of a maximum of  156
 All quantities printed in internal units (Hartrees-Bohrs-Radians)
 Mixed Optimization -- RFO/linear search
 Second derivative matrix not updated -- analytic derivatives used.
 ITU=  0
     Eigenvalues ---    0.00171   0.00194   0.00242   0.00308   0.01466
     Eigenvalues ---    0.01490   0.01707   0.01755   0.01880   0.02010
     Eigenvalues ---    0.02232   0.02292   0.02378   0.02441   0.02483
     Eigenvalues ---    0.02565   0.02597   0.02684   0.02744   0.02814
     Eigenvalues ---    0.03304   0.04297   0.04502   0.04622   0.05452
     Eigenvalues ---    0.07764   0.08528   0.10513   0.10961   0.11131
     Eigenvalues ---    0.11608   0.11862   0.12033   0.12330   0.12396
     Eigenvalues ---    0.12613   0.13773   0.14586   0.16662   0.18332
     Eigenvalues ---    0.18619   0.19036   0.19142   0.19831   0.20184
     Eigenvalues ---    0.20462   0.21343   0.22686   0.24368   0.27321
     Eigenvalues ---    0.28694   0.31144   0.31652   0.32229   0.32908
     Eigenvalues ---    0.33039   0.34219   0.35294   0.35635   0.35728
     Eigenvalues ---    0.35819   0.35853   0.36027   0.36052   0.36703
     Eigenvalues ---    0.37423   0.39182   0.40671   0.43610   0.43765
     Eigenvalues ---    0.44082   0.44142   0.44654   0.45568   0.47029
     Eigenvalues ---    0.48128   0.49205   0.51446
 RFO step:  Lambda=-1.16232005D-02 EMin= 1.71190685D-03
 Linear search not attempted -- first point.
 Iteration  1 RMS(Cart)=  0.09597400 RMS(Int)=  0.00302379
 Iteration  2 RMS(Cart)=  0.00584194 RMS(Int)=  0.00028738
 Iteration  3 RMS(Cart)=  0.00001608 RMS(Int)=  0.00028729
 Iteration  4 RMS(Cart)=  0.00000001 RMS(Int)=  0.00028729
 Variable       Old X    -DE/DX   Delta X   Delta X   Delta X     New X
                                 (Linear)    (Quad)   (Total)
    R1        2.76704   0.00513   0.00000   0.00713   0.00713   2.77417
    R2        1.92776  -0.00158   0.00000  -0.00197  -0.00197   1.92578
    R3        1.92720  -0.00260   0.00000  -0.00404  -0.00404   1.92316
    R4        2.91170  -0.00719   0.00000  -0.02565  -0.02565   2.88604
    R5        2.07124   0.00077   0.00000   0.00303   0.00303   2.07427
    R6        2.07170   0.00386   0.00000   0.01062   0.01062   2.08233
    R7        2.78122   0.00405   0.00000   0.00316   0.00316   2.78438
    R8        2.07368   0.00261   0.00000   0.00851   0.00851   2.08218
    R9        2.07390  -0.00226   0.00000  -0.00374  -0.00374   2.07016
   R10        2.68821   0.00753   0.00000   0.00182   0.00182   2.69003
   R11        1.92200  -0.00038   0.00000  -0.00285  -0.00285   1.91914
   R12        2.69494   0.00488   0.00000   0.01979   0.01982   2.71476
   R13        2.65235  -0.01317   0.00000  -0.03638  -0.03633   2.61601
   R14        2.67627   0.00295   0.00000   0.01169   0.01167   2.68794
   R15        2.68193   0.01779   0.00000   0.03225   0.03220   2.71414
   R16        2.64064  -0.01344   0.00000  -0.03731  -0.03732   2.60331
   R17        2.05207   0.00004   0.00000  -0.00098  -0.00098   2.05109
   R18        2.62269   0.02235   0.00000   0.04771   0.04772   2.67041
   R19        2.05379  -0.00078   0.00000  -0.00180  -0.00180   2.05199
   R20        2.63340  -0.01110   0.00000  -0.03258  -0.03256   2.60084
   R21        2.05339  -0.00038   0.00000  -0.00127  -0.00127   2.05211
   R22        2.65530   0.01187   0.00000   0.03015   0.03016   2.68546
   R23        2.05618  -0.00118   0.00000  -0.00226  -0.00226   2.05391
   R24        2.65163   0.01225   0.00000   0.02961   0.02955   2.68119
   R25        2.63021  -0.00983   0.00000  -0.02833  -0.02835   2.60186
   R26        2.05602  -0.00103   0.00000  -0.00287  -0.00287   2.05315
   R27        2.62688   0.01873   0.00000   0.03824   0.03827   2.66516
   R28        2.05281  -0.00032   0.00000  -0.00050  -0.00050   2.05231
   R29        2.05447  -0.00103   0.00000  -0.00241  -0.00241   2.05205
    A1        1.90803  -0.00098   0.00000  -0.00849  -0.00851   1.89953
    A2        1.90164   0.00009   0.00000   0.00204   0.00202   1.90366
    A3        1.84825  -0.00045   0.00000  -0.01126  -0.01129   1.83695
    A4        1.96659  -0.00912   0.00000  -0.04446  -0.04457   1.92201
    A5        1.89619   0.00082   0.00000  -0.00952  -0.01049   1.88570
    A6        1.90503   0.01099   0.00000   0.08044   0.08045   1.98548
    A7        1.91142   0.00241   0.00000  -0.00336  -0.00412   1.90730
    A8        1.91451  -0.00337   0.00000  -0.01705  -0.01629   1.89822
    A9        1.86739  -0.00130   0.00000  -0.00380  -0.00423   1.86316
   A10        1.91189   0.00264   0.00000   0.01635   0.01610   1.92799
   A11        1.91226  -0.00282   0.00000  -0.00714  -0.00771   1.90455
   A12        1.90057   0.00222   0.00000   0.01190   0.01200   1.91257
   A13        1.92305   0.00360   0.00000   0.03578   0.03569   1.95875
   A14        1.92936  -0.00526   0.00000  -0.04205  -0.04187   1.88749
   A15        1.88638  -0.00045   0.00000  -0.01540  -0.01510   1.87127
   A16        1.94430   0.01433   0.00000   0.07290   0.07217   2.01647
   A17        1.92464  -0.00672   0.00000  -0.01865  -0.02013   1.90451
   A18        1.90855  -0.00160   0.00000   0.01608   0.01552   1.92406
   A19        2.14449  -0.00258   0.00000  -0.01131  -0.01183   2.13266
   A20        2.04433   0.00514   0.00000   0.02347   0.02297   2.06730
   A21        2.09213  -0.00245   0.00000  -0.00865  -0.00901   2.08312
   A22        2.16613  -0.00485   0.00000  -0.01825  -0.01825   2.14788
   A23        2.06814   0.00143   0.00000   0.00471   0.00474   2.07288
   A24        2.04892   0.00342   0.00000   0.01355   0.01351   2.06242
   A25        2.12591  -0.00261   0.00000  -0.00915  -0.00919   2.11672
   A26        2.10699  -0.00082   0.00000  -0.01408  -0.01406   2.09293
   A27        2.05025   0.00342   0.00000   0.02319   0.02321   2.07346
   A28        2.09301   0.00352   0.00000   0.00839   0.00837   2.10138
   A29        2.09387  -0.00313   0.00000  -0.00287  -0.00286   2.09101
   A30        2.09630  -0.00039   0.00000  -0.00552  -0.00552   2.09079
   A31        2.08945   0.00177   0.00000   0.00417   0.00419   2.09364
   A32        2.09806  -0.00026   0.00000  -0.00625  -0.00626   2.09180
   A33        2.09567  -0.00152   0.00000   0.00207   0.00206   2.09772
   A34        2.11305  -0.00145   0.00000   0.00144   0.00147   2.11452
   A35        2.07021   0.00403   0.00000   0.02846   0.02844   2.09866
   A36        2.09992  -0.00258   0.00000  -0.02990  -0.02991   2.07000
   A37        2.09596  -0.00466   0.00000  -0.01847  -0.01843   2.07753
   A38        2.09439  -0.00242   0.00000  -0.00577  -0.00584   2.08855
   A39        2.09281   0.00707   0.00000   0.02422   0.02425   2.11706
   A40        2.11099  -0.00392   0.00000  -0.01130  -0.01136   2.09963
   A41        2.10125  -0.00128   0.00000  -0.02272  -0.02270   2.07856
   A42        2.07092   0.00520   0.00000   0.03405   0.03407   2.10500
   A43        2.08958   0.00348   0.00000   0.01237   0.01236   2.10195
   A44        2.09820  -0.00209   0.00000  -0.00024  -0.00030   2.09790
   A45        2.09540  -0.00139   0.00000  -0.01216  -0.01221   2.08319
   A46        2.11049   0.00391   0.00000   0.00918   0.00929   2.11978
   A47        2.08635  -0.00522   0.00000  -0.01687  -0.01692   2.06943
   A48        2.08618   0.00132   0.00000   0.00773   0.00767   2.09385
    D1        1.09004   0.00075   0.00000   0.04843   0.04786   1.13790
    D2       -3.07188  -0.00157   0.00000   0.00854   0.00856  -3.06332
    D3       -1.04138   0.00336   0.00000   0.04285   0.04336  -0.99802
    D4        3.10237  -0.00027   0.00000   0.03150   0.03095   3.13332
    D5       -1.05955  -0.00260   0.00000  -0.00839  -0.00835  -1.06790
    D6        0.97095   0.00233   0.00000   0.02592   0.02645   0.99740
    D7        3.12970  -0.00037   0.00000  -0.00902  -0.00900   3.12070
    D8        1.01826  -0.00469   0.00000  -0.05892  -0.05883   0.95943
    D9       -1.04158  -0.00382   0.00000  -0.04316  -0.04309  -1.08468
   D10        1.01710   0.00296   0.00000   0.03502   0.03484   1.05195
   D11       -1.09435  -0.00137   0.00000  -0.01488  -0.01498  -1.10933
   D12        3.12900  -0.00049   0.00000   0.00088   0.00075   3.12975
   D13       -1.02742   0.00509   0.00000   0.05150   0.05153  -0.97589
   D14       -3.13887   0.00076   0.00000   0.00160   0.00171  -3.13716
   D15        1.08448   0.00164   0.00000   0.01736   0.01744   1.10192
   D16        3.05579  -0.00110   0.00000  -0.03534  -0.03550   3.02029
   D17       -1.10486   0.00193   0.00000   0.02143   0.02099  -1.08387
   D18       -1.12250  -0.00064   0.00000  -0.01123  -0.01072  -1.13322
   D19        1.00004   0.00238   0.00000   0.04555   0.04578   1.04582
   D20        0.96141  -0.00224   0.00000  -0.03416  -0.03409   0.92732
   D21        3.08395   0.00078   0.00000   0.02262   0.02241   3.10635
   D22        1.60447   0.00183   0.00000   0.12989   0.13071   1.73517
   D23       -1.46510   0.00020   0.00000   0.07384   0.07438  -1.39072
   D24       -0.52740   0.00193   0.00000   0.09423   0.09369  -0.43371
   D25        2.68622   0.00029   0.00000   0.03818   0.03736   2.72358
   D26        0.03196  -0.00117   0.00000  -0.04884  -0.04827  -0.01631
   D27       -3.10557  -0.00137   0.00000  -0.05120  -0.05056   3.12705
   D28        3.09963   0.00081   0.00000   0.00996   0.00982   3.10945
   D29       -0.03790   0.00061   0.00000   0.00760   0.00753  -0.03037
   D30        3.10950   0.00044   0.00000   0.02732   0.02784   3.13735
   D31       -0.05184   0.00076   0.00000   0.02982   0.03028  -0.02156
   D32        0.03767  -0.00113   0.00000  -0.02681  -0.02667   0.01099
   D33       -3.12367  -0.00081   0.00000  -0.02430  -0.02424   3.13528
   D34        3.13459  -0.00009   0.00000  -0.00566  -0.00570   3.12889
   D35       -0.01555  -0.00015   0.00000  -0.00992  -0.00987  -0.02542
   D36       -0.01102   0.00009   0.00000  -0.00334  -0.00344  -0.01446
   D37        3.12202   0.00003   0.00000  -0.00760  -0.00761   3.11442
   D38       -3.13198   0.00012   0.00000   0.00721   0.00729  -3.12469
   D39        0.01575   0.00017   0.00000   0.01117   0.01125   0.02700
   D40        0.01340  -0.00004   0.00000   0.00507   0.00519   0.01859
   D41       -3.12205   0.00001   0.00000   0.00904   0.00914  -3.11291
   D42        0.00184  -0.00009   0.00000  -0.00118  -0.00116   0.00068
   D43       -3.14143  -0.00012   0.00000  -0.00339  -0.00336   3.13839
   D44       -3.13147  -0.00001   0.00000   0.00312   0.00313  -3.12833
   D45        0.00844  -0.00004   0.00000   0.00090   0.00093   0.00937
   D46        0.00514   0.00005   0.00000   0.00389   0.00395   0.00909
   D47       -3.14104   0.00007   0.00000   0.00211   0.00215  -3.13889
   D48       -3.13476   0.00008   0.00000   0.00611   0.00615  -3.12861
   D49        0.00224   0.00010   0.00000   0.00433   0.00435   0.00658
   D50       -0.00258   0.00004   0.00000  -0.00197  -0.00196  -0.00454
   D51        3.13533   0.00007   0.00000  -0.00171  -0.00173   3.13360
   D52       -3.13959   0.00002   0.00000  -0.00017  -0.00012  -3.13971
   D53       -0.00167   0.00005   0.00000   0.00009   0.00010  -0.00157
   D54       -0.00696   0.00002   0.00000  -0.00245  -0.00248  -0.00943
   D55        3.12850  -0.00006   0.00000  -0.00652  -0.00661   3.12189
   D56        3.13838  -0.00002   0.00000  -0.00284  -0.00282   3.13556
   D57       -0.00935  -0.00011   0.00000  -0.00691  -0.00695  -0.01630
   D58        0.00746  -0.00045   0.00000  -0.01145  -0.01138  -0.00392
   D59       -3.14144  -0.00010   0.00000  -0.00501  -0.00499   3.13676
   D60       -3.12801  -0.00035   0.00000  -0.00734  -0.00718  -3.13518
   D61        0.00629  -0.00001   0.00000  -0.00090  -0.00079   0.00550
   D62       -0.00860  -0.00014   0.00000  -0.00768  -0.00754  -0.01614
   D63        3.13473   0.00041   0.00000   0.00908   0.00937  -3.13909
   D64        3.14017  -0.00045   0.00000  -0.01378  -0.01379   3.12638
   D65        0.00031   0.00010   0.00000   0.00298   0.00312   0.00343
   D66       -0.01418   0.00085   0.00000   0.02665   0.02689   0.01271
   D67       -3.13602   0.00060   0.00000   0.02442   0.02469  -3.11133
   D68        3.12568   0.00031   0.00000   0.00994   0.01014   3.13582
   D69        0.00384   0.00006   0.00000   0.00771   0.00794   0.01178
         Item               Value     Threshold  Converged?
 Maximum Force            0.022349     0.000450     NO 
 RMS     Force            0.004728     0.000300     NO 
 Maximum Displacement     0.349286     0.001800     NO 
 RMS     Displacement     0.096432     0.001200     NO 
 Predicted change in Energy=-6.414205D-03
 GradGradGradGradGradGradGradGradGradGradGradGradGradGradGradGradGradGrad

                          Input orientation:                          
 ---------------------------------------------------------------------
 Center     Atomic      Atomic             Coordinates (Angstroms)
 Number     Number       Type             X           Y           Z
 ---------------------------------------------------------------------
      1          7           0       -4.544770    0.466342   -0.794805
      2          6           0       -3.558499    0.017385    0.195552
      3          6           0       -2.178670   -0.092838   -0.449698
      4          7           0       -1.177136   -0.515603    0.544887
      5          6           0        0.117899   -0.802182    0.028046
      6          6           0        1.196685    0.143881    0.098557
      7          6           0        1.056332    1.439915    0.667603
      8          6           0        2.120175    2.312976    0.729458
      9          6           0        3.384718    1.936302    0.223532
     10          6           0        3.555446    0.694486   -0.344771
     11          6           0        2.478868   -0.229177   -0.430284
     12          6           0        2.645293   -1.501025   -1.036716
     13          6           0        1.586073   -2.377151   -1.115172
     14          6           0        0.329737   -2.029098   -0.577086
     15          1           0       -4.641961   -0.251824   -1.511267
     16          1           0       -5.458391    0.526621   -0.350549
     17          1           0       -3.523230    0.761511    1.001705
     18          1           0       -3.808337   -0.947757    0.664924
     19          1           0       -1.920780    0.871009   -0.917192
     20          1           0       -2.205235   -0.843268   -1.247338
     21          1           0       -1.116285    0.187423    1.275249
     22          1           0        0.093569    1.760692    1.052646
     23          1           0        1.985415    3.297903    1.166335
     24          1           0        4.217829    2.630621    0.279155
     25          1           0        4.524136    0.402744   -0.742068
     26          1           0        3.618063   -1.771837   -1.437743
     27          1           0        1.715865   -3.351199   -1.577627
     28          1           0       -0.492809   -2.736854   -0.618041
 ---------------------------------------------------------------------
                    Distance matrix (angstroms):
                    1          2          3          4          5
     1  N    0.000000
     2  C    1.468025   0.000000
     3  C    2.455649   1.527228   0.000000
     4  N    3.754990   2.465158   1.473431   0.000000
     5  C    4.901705   3.770364   2.450639   1.423505   0.000000
     6  C    5.819483   4.757855   3.427775   2.503828   1.436589
     7  C    5.870163   4.852122   3.750057   2.971109   2.513302
     8  C    7.082014   6.148344   5.065414   4.348239   3.768991
     9  C    8.128626   7.203560   5.960027   5.188989   4.267272
    10  C    8.115914   7.166493   5.788866   4.965192   3.767723
    11  C    7.067398   6.074724   4.659574   3.794649   2.472363
    12  C    7.458288   6.504698   5.059467   4.252468   2.830163
    13  C    6.765746   5.823952   4.453564   3.722429   2.437829
    14  C    5.480460   4.461327   3.171345   2.412500   1.384335
    15  H    1.019082   2.039508   2.687007   4.037618   5.032756
    16  H    1.017694   2.041357   3.339182   4.496353   5.744916
    17  H    2.087610   1.097657   2.155070   2.709956   4.080559
    18  H    2.161670   1.101920   2.151530   2.669155   3.980217
    19  H    2.657830   2.156153   1.101844   2.147876   2.801651
    20  H    2.719060   2.157307   1.095482   2.091990   2.650518
    21  H    4.014651   2.675644   2.045152   1.015567   2.014458
    22  H    5.157771   4.136584   3.294796   2.655942   2.760203
    23  H    7.382894   6.514538   5.607878   4.993070   4.646936
    24  H    9.089589   8.204100   6.990254   6.250998   5.353188
    25  H    9.069282   8.145957   6.727457   5.916427   4.632477
    26  H    8.488501   7.574431   6.115340   5.338808   3.916621
    27  H    7.374414   6.504647   5.201590   4.573305   3.410157
    28  H    5.168181   4.200740   3.140268   2.598973   2.129166
                    6          7          8          9         10
     6  C    0.000000
     7  C    1.422398   0.000000
     8  C    2.440459   1.377615   0.000000
     9  C    2.831232   2.421772   1.413122   0.000000
    10  C    2.462408   2.797523   2.415260   1.376308   0.000000
    11  C    1.436259   2.452515   2.817127   2.436665   1.421085
    12  C    2.468406   3.752150   4.235767   3.734995   2.475365
    13  C    2.824955   4.246046   5.068059   4.861392   3.729196
    14  C    2.435145   3.756493   4.875072   5.069348   4.228129
    15  H    6.069424   6.330876   7.571362   8.498528   8.333888
    16  H    6.681185   6.656753   7.860798   8.973146   9.015402
    17  H    4.845074   4.641577   5.859110   7.050207   7.205910
    18  H    5.153901   5.419039   6.766372   7.762258   7.611947
    19  H    3.358429   3.420295   4.595654   5.530316   5.508890
    20  H    3.789322   4.417889   5.707781   6.413816   6.030320
    21  H    2.595444   2.580355   3.910311   4.942034   4.970577
    22  H    2.177436   1.085389   2.125229   3.398519   3.882546
    23  H    3.422002   2.136363   1.085865   2.168152   3.395028
    24  H    3.917116   3.400549   2.168830   1.085932   2.139312
    25  H    3.441742   3.884399   3.404909   2.140667   1.086885
    26  H    3.448662   4.616308   4.860672   4.069960   2.698381
    27  H    3.910847   5.332055   6.129354   5.829829   4.612109
    28  H    3.415632   4.636606   5.843306   6.130403   5.313863
                   11         12         13         14         15
    11  C    0.000000
    12  C    1.418822   0.000000
    13  C    2.424861   1.376844   0.000000
    14  C    2.807139   2.419074   1.410340   0.000000
    15  H    7.202447   7.408763   6.592595   5.361826   0.000000
    16  H    7.973561   8.381640   7.657743   6.331307   1.618581
    17  H    6.249579   6.879310   6.359037   5.012528   2.931456
    18  H    6.422210   6.697091   5.857608   4.453711   2.432090
    19  H    4.561183   5.146830   4.784115   3.686613   3.003082
    20  H    4.794321   4.899453   4.091978   2.877762   2.521328
    21  H    4.000940   4.727104   4.426499   3.230339   4.515307
    22  H    3.442138   4.638484   4.903953   4.132107   5.748836
    23  H    3.902945   5.321521   6.129518   5.844461   7.980741
    24  H    3.421364   4.612471   5.826498   6.128898   9.487358
    25  H    2.163250   2.690948   4.061925   4.851191   9.221575
    26  H    2.166227   1.086482   2.144631   3.408812   8.399038
    27  H    3.412564   2.139991   1.086038   2.161107   7.073364
    28  H    3.892887   3.398566   2.167551   1.085900   4.918199
                   16         17         18         19         20
    16  H    0.000000
    17  H    2.372470   0.000000
    18  H    2.434678   1.765306   0.000000
    19  H    3.599220   2.502399   3.061678   0.000000
    20  H    3.641957   3.061147   2.497519   1.768801   0.000000
    21  H    4.648888   2.489536   2.984673   2.433371   2.934549
    22  H    5.857999   3.752624   4.765594   2.954555   4.165937
    23  H    8.086482   6.066758   7.200319   5.048689   6.366841
    24  H    9.922327   7.996226   8.796189   6.496922   7.460150
    25  H    9.990970   8.241938   8.557662   6.464277   6.862381
    26  H    9.425865   7.960328   7.762199   6.159090   5.899941
    27  H    8.247009   7.142510   6.428248   5.611452   4.666244
    28  H    5.948010   4.903629   3.979898   3.891691   2.629465
                   21         22         23         24         25
    21  H    0.000000
    22  H    1.997116   0.000000
[...]

 Job title: NULAJYZBOLVQPQ-UHFFFAOYSA-N_conf_0                              

 Storage needed:    237860 in NPA (1073737624 available)
 GSVD:  LWork=       45640 too small for GESVD, short by       18746 words or       18746 for optimal perf.


 NATURAL POPULATIONS:  Natural atomic orbital occupancies 
                                                          
   NAO  Atom  No  lang   Type(AO)    Occupancy
 --------------------------------------------
     1    N    1  S      Cor( 1S)     1.99968
     2    N    1  S      Val( 2S)     1.44528
     3    N    1  S      Ryd( 3S)     0.00040
     4    N    1  S      Ryd( 4S)     0.00000
     5    N    1  px     Val( 2p)     1.27195
     6    N    1  px     Ryd( 3p)     0.00221
     7    N    1  py     Val( 2p)     1.53096
     8    N    1  py     Ryd( 3p)     0.00329
     9    N    1  pz     Val( 2p)     1.66182
    10    N    1  pz     Ryd( 3p)     0.00428
    11    N    1  dxy    Ryd( 3d)     0.00099
    12    N    1  dxz    Ryd( 3d)     0.00055
    13    N    1  dyz    Ryd( 3d)     0.00120
    14    N    1  dx2y2  Ryd( 3d)     0.00038
    15    N    1  dz2    Ryd( 3d)     0.00143

    16    C    2  S      Cor( 1S)     1.99936
    17    C    2  S      Val( 2S)     1.02685
    18    C    2  S      Ryd( 3S)     0.00227
    19    C    2  S      Ryd( 4S)     0.00003
    20    C    2  px     Val( 2p)     0.89197
    21    C    2  px     Ryd( 3p)     0.00287
    22    C    2  py     Val( 2p)     1.09805
    23    C    2  py     Ryd( 3p)     0.00105
    24    C    2  pz     Val( 2p)     1.24293
    25    C    2  pz     Ryd( 3p)     0.00302
    26    C    2  dxy    Ryd( 3d)     0.00127
    27    C    2  dxz    Ryd( 3d)     0.00084
    28    C    2  dyz    Ryd( 3d)     0.00126
    29    C    2  dx2y2  Ryd( 3d)     0.00075
    30    C    2  dz2    Ryd( 3d)     0.00070

    31    C    3  S      Cor( 1S)     1.99932
    32    C    3  S      Val( 2S)     1.03213
    33    C    3  S      Ryd( 3S)     0.00209
    34    C    3  S      Ryd( 4S)     0.00003
    35    C    3  px     Val( 2p)     0.86321
    36    C    3  px     Ryd( 3p)     0.00406
    37    C    3  py     Val( 2p)     1.13001
    38    C    3  py     Ryd( 3p)     0.00227
    39    C    3  pz     Val( 2p)     1.25466
    40    C    3  pz     Ryd( 3p)     0.00256
    41    C    3  dxy    Ryd( 3d)     0.00096
    42    C    3  dxz    Ryd( 3d)     0.00069
    43    C    3  dyz    Ryd( 3d)     0.00124
    44    C    3  dx2y2  Ryd( 3d)     0.00084
    45    C    3  dz2    Ryd( 3d)     0.00074

    46    N    4  S      Cor( 1S)     1.99939
    47    N    4  S      Val( 2S)     1.28158
    48    N    4  S      Ryd( 3S)     0.00076
    49    N    4  S      Ryd( 4S)     0.00002
    50    N    4  px     Val( 2p)     1.26724
    51    N    4  px     Ryd( 3p)     0.00130
    52    N    4  py     Val( 2p)     1.41171
    53    N    4  py     Ryd( 3p)     0.00246
    54    N    4  pz     Val( 2p)     1.53150
    55    N    4  pz     Ryd( 3p)     0.00430
    56    N    4  dxy    Ryd( 3d)     0.00064
    57    N    4  dxz    Ryd( 3d)     0.00069
    58    N    4  dyz    Ryd( 3d)     0.00091
    59    N    4  dx2y2  Ryd( 3d)     0.00052
    60    N    4  dz2    Ryd( 3d)     0.00057

    61    C    5  S      Cor( 1S)     1.99897
    62    C    5  S      Val( 2S)     0.83308
    63    C    5  S      Ryd( 3S)     0.00116
    64    C    5  S      Ryd( 4S)     0.00011
    65    C    5  px     Val( 2p)     0.94725
    66    C    5  px     Ryd( 3p)     0.00510
    67    C    5  py     Val( 2p)     1.03132
    68    C    5  py     Ryd( 3p)     0.00516
    69    C    5  pz     Val( 2p)     0.98556
    70    C    5  pz     Ryd( 3p)     0.00224
    71    C    5  dxy    Ryd( 3d)     0.00115
    72    C    5  dxz    Ryd( 3d)     0.00103
    73    C    5  dyz    Ryd( 3d)     0.00101
    74    C    5  dx2y2  Ryd( 3d)     0.00092
    75    C    5  dz2    Ryd( 3d)     0.00036

    76    C    6  S      Cor( 1S)     1.99900
    77    C    6  S      Val( 2S)     0.86608
    78    C    6  S      Ryd( 3S)     0.00048
    79    C    6  S      Ryd( 4S)     0.00006
    80    C    6  px     Val( 2p)     1.06316
    81    C    6  px     Ryd( 3p)     0.00481
    82    C    6  py     Val( 2p)     1.10327
    83    C    6  py     Ryd( 3p)     0.00506
    84    C    6  pz     Val( 2p)     1.00701
    85    C    6  pz     Ryd( 3p)     0.00050
    86    C    6  dxy    Ryd( 3d)     0.00074
    87    C    6  dxz    Ryd( 3d)     0.00041
    88    C    6  dyz    Ryd( 3d)     0.00111
    89    C    6  dx2y2  Ryd( 3d)     0.00061
    90    C    6  dz2    Ryd( 3d)     0.00034

    91    C    7  S      Cor( 1S)     1.99909
    92    C    7  S      Val( 2S)     0.93185
    93    C    7  S      Ryd( 3S)     0.00070
    94    C    7  S      Ryd( 4S)     0.00004
    95    C    7  px     Val( 2p)     1.15904
    96    C    7  px     Ryd( 3p)     0.00414
    97    C    7  py     Val( 2p)     1.08407
    98    C    7  py     Ryd( 3p)     0.00456
    99    C    7  pz     Val( 2p)     1.16986
   100    C    7  pz     Ryd( 3p)     0.00568
   101    C    7  dxy    Ryd( 3d)     0.00065
   102    C    7  dxz    Ryd( 3d)     0.00041
   103    C    7  dyz    Ryd( 3d)     0.00035
   104    C    7  dx2y2  Ryd( 3d)     0.00062
   105    C    7  dz2    Ryd( 3d)     0.00036

   106    C    8  S      Cor( 1S)     1.99911
   107    C    8  S      Val( 2S)     0.95441
   108    C    8  S      Ryd( 3S)     0.00066
   109    C    8  S      Ryd( 4S)     0.00003
   110    C    8  px     Val( 2p)     1.06155
   111    C    8  px     Ryd( 3p)     0.00497
   112    C    8  py     Val( 2p)     1.19204
   113    C    8  py     Ryd( 3p)     0.00490
   114    C    8  pz     Val( 2p)     1.04952
   115    C    8  pz     Ryd( 3p)     0.00307
   116    C    8  dxy    Ryd( 3d)     0.00059
   117    C    8  dxz    Ryd( 3d)     0.00082
   118    C    8  dyz    Ryd( 3d)     0.00027
   119    C    8  dx2y2  Ryd( 3d)     0.00074
   120    C    8  dz2    Ryd( 3d)     0.00036

   121    C    9  S      Cor( 1S)     1.99911
   122    C    9  S      Val( 2S)     0.95777
   123    C    9  S      Ryd( 3S)     0.00056
   124    C    9  S      Ryd( 4S)     0.00003
   125    C    9  px     Val( 2p)     1.16840
   126    C    9  px     Ryd( 3p)     0.00491
   127    C    9  py     Val( 2p)     1.09342
   128    C    9  py     Ryd( 3p)     0.00479
   129    C    9  pz     Val( 2p)     1.02367
   130    C    9  pz     Ryd( 3p)     0.00169
   131    C    9  dxy    Ryd( 3d)     0.00065
   132    C    9  dxz    Ryd( 3d)     0.00033
   133    C    9  dyz    Ryd( 3d)     0.00086
   134    C    9  dx2y2  Ryd( 3d)     0.00069
   135    C    9  dz2    Ryd( 3d)     0.00036

   136    C   10  S      Cor( 1S)     1.99908
   137    C   10  S      Val( 2S)     0.93589
   138    C   10  S      Ryd( 3S)     0.00069
   139    C   10  S      Ryd( 4S)     0.00004
   140    C   10  px     Val( 2p)     1.12584
   141    C   10  px     Ryd( 3p)     0.00448
   142    C   10  py     Val( 2p)     1.10953
   143    C   10  py     Ryd( 3p)     0.00440
   144    C   10  pz     Val( 2p)     1.15535
   145    C   10  pz     Ryd( 3p)     0.00481
   146    C   10  dxy    Ryd( 3d)     0.00071
   147    C   10  dxz    Ryd( 3d)     0.00025
   148    C   10  dyz    Ryd( 3d)     0.00044
   149    C   10  dx2y2  Ryd( 3d)     0.00059
   150    C   10  dz2    Ryd( 3d)     0.00036

   151    C   11  S      Cor( 1S)     1.99904
   152    C   11  S      Val( 2S)     0.87048
   153    C   11  S      Ryd( 3S)     0.00050
   154    C   11  S      Ryd( 4S)     0.00006
   155    C   11  px     Val( 2p)     1.09357
   156    C   11  px     Ryd( 3p)     0.00553
   157    C   11  py     Val( 2p)     1.08381
   158    C   11  py     Ryd( 3p)     0.00519
   159    C   11  pz     Val( 2p)     1.00986
   160    C   11  pz     Ryd( 3p)     0.00068
   161    C   11  dxy    Ryd( 3d)     0.00070
   162    C   11  dxz    Ryd( 3d)     0.00086
   163    C   11  dyz    Ryd( 3d)     0.00063
   164    C   11  dx2y2  Ryd( 3d)     0.00070
   165    C   11  dz2    Ryd( 3d)     0.00033

   166    C   12  S      Cor( 1S)     1.99905
   167    C   12  S      Val( 2S)     0.96008
   168    C   12  S      Ryd( 3S)     0.00059
   169    C   12  S      Ryd( 4S)     0.00005
   170    C   12  px     Val( 2p)     1.16156
   171    C   12  px     Ryd( 3p)     0.00433
   172    C   12  py     Val( 2p)     1.09065
   173    C   12  py     Ryd( 3p)     0.00428
   174    C   12  pz     Val( 2p)     0.94007
   175    C   12  pz     Ryd( 3p)     0.00233
   176    C   12  dxy    Ryd( 3d)     0.00075
   177    C   12  dxz    Ryd( 3d)     0.00049
   178    C   12  dyz    Ryd( 3d)     0.00051
   179    C   12  dx2y2  Ryd( 3d)     0.00068
   180    C   12  dz2    Ryd( 3d)     0.00035

   181    C   13  S      Cor( 1S)     1.99914
   182    C   13  S      Val( 2S)     0.96107
   183    C   13  S      Ryd( 3S)     0.00071
   184    C   13  S      Ryd( 4S)     0.00003
   185    C   13  px     Val( 2p)     1.05682
   186    C   13  px     Ryd( 3p)     0.00504
   187    C   13  py     Val( 2p)     1.20297
   188    C   13  py     Ryd( 3p)     0.00535
   189    C   13  pz     Val( 2p)     1.03695
   190    C   13  pz     Ryd( 3p)     0.00179
   191    C   13  dxy    Ryd( 3d)     0.00063
   192    C   13  dxz    Ryd( 3d)     0.00064
   193    C   13  dyz    Ryd( 3d)     0.00034
   194    C   13  dx2y2  Ryd( 3d)     0.00072
   195    C   13  dz2    Ryd( 3d)     0.00036

   196    C   14  S      Cor( 1S)     1.99908
   197    C   14  S      Val( 2S)     0.96244
   198    C   14  S      Ryd( 3S)     0.00067
   199    C   14  S      Ryd( 4S)     0.00004
   200    C   14  px     Val( 2p)     1.18350
   201    C   14  px     Ryd( 3p)     0.00378
   202    C   14  py     Val( 2p)     1.08198
   203    C   14  py     Ryd( 3p)     0.00396
   204    C   14  pz     Val( 2p)     0.98565
   205    C   14  pz     Ryd( 3p)     0.00112
   206    C   14  dxy    Ryd( 3d)     0.00054
   207    C   14  dxz    Ryd( 3d)     0.00036
   208    C   14  dyz    Ryd( 3d)     0.00071
   209    C   14  dx2y2  Ryd( 3d)     0.00077
   210    C   14  dz2    Ryd( 3d)     0.00038

   211    H   15  S      Val( 1S)     0.60686
   212    H   15  S      Ryd( 2S)     0.00137
   213    H   15  px     Ryd( 2p)     0.00029
   214    H   15  py     Ryd( 2p)     0.00045
   215    H   15  pz     Ryd( 2p)     0.00067

   216    H   16  S      Val( 1S)     0.59771
   217    H   16  S      Ryd( 2S)     0.00103
   218    H   16  px     Ryd( 2p)     0.00041
   219    H   16  py     Ryd( 2p)     0.00053
   220    H   16  pz     Ryd( 2p)     0.00047

   221    H   17  S      Val( 1S)     0.76359
   222    H   17  S      Ryd( 2S)     0.00148
   223    H   17  px     Ryd( 2p)     0.00007
   224    H   17  py     Ryd( 2p)     0.00022
   225    H   17  pz     Ryd( 2p)     0.00027

   226    H   18  S      Val( 1S)     0.78006
   227    H   18  S      Ryd( 2S)     0.00242
   228    H   18  px     Ryd( 2p)     0.00008
   229    H   18  py     Ryd( 2p)     0.00017
   230    H   18  pz     Ryd( 2p)     0.00031

   231    H   19  S      Val( 1S)     0.74815
   232    H   19  S      Ryd( 2S)     0.00290
   233    H   19  px     Ryd( 2p)     0.00008
   234    H   19  py     Ryd( 2p)     0.00015
   235    H   19  pz     Ryd( 2p)     0.00031

   236    H   20  S      Val( 1S)     0.74826
   237    H   20  S      Ryd( 2S)     0.00160
   238    H   20  px     Ryd( 2p)     0.00009
   239    H   20  py     Ryd( 2p)     0.00020
   240    H   20  pz     Ryd( 2p)     0.00027

   241    H   21  S      Val( 1S)     0.56217
   242    H   21  S      Ryd( 2S)     0.00381
   243    H   21  px     Ryd( 2p)     0.00019
   244    H   21  py     Ryd( 2p)     0.00053
   245    H   21  pz     Ryd( 2p)     0.00051

   246    H   22  S      Val( 1S)     0.77666
   247    H   22  S      Ryd( 2S)     0.00105
   248    H   22  px     Ryd( 2p)     0.00025
   249    H   22  py     Ryd( 2p)     0.00020
   250    H   22  pz     Ryd( 2p)     0.00022

   251    H   23  S      Val( 1S)     0.76708
   252    H   23  S      Ryd( 2S)     0.00078
   253    H   23  px     Ryd( 2p)     0.00007
   254    H   23  py     Ryd( 2p)     0.00041
   255    H   23  pz     Ryd( 2p)     0.00016

   256    H   24  S      Val( 1S)     0.76613
   257    H   24  S      Ryd( 2S)     0.00076
   258    H   24  px     Ryd( 2p)     0.00035
   259    H   24  py     Ryd( 2p)     0.00013
   260    H   24  pz     Ryd( 2p)     0.00014

   261    H   25  S      Val( 1S)     0.77243
   262    H   25  S      Ryd( 2S)     0.00103
   263    H   25  px     Ryd( 2p)     0.00029
   264    H   25  py     Ryd( 2p)     0.00016
   265    H   25  pz     Ryd( 2p)     0.00019

   266    H   26  S      Val( 1S)     0.75215
   267    H   26  S      Ryd( 2S)     0.00113
   268    H   26  px     Ryd( 2p)     0.00031
   269    H   26  py     Ryd( 2p)     0.00017
   270    H   26  pz     Ryd( 2p)     0.00011

   271    H   27  S      Val( 1S)     0.74837
   272    H   27  S      Ryd( 2S)     0.00075
   273    H   27  px     Ryd( 2p)     0.00006
   274    H   27  py     Ryd( 2p)     0.00041
   275    H   27  pz     Ryd( 2p)     0.00014

   276    H   28  S      Val( 1S)     0.74624
   277    H   28  S      Ryd( 2S)     0.00078
   278    H   28  px     Ryd( 2p)     0.00032
   279    H   28  py     Ryd( 2p)     0.00015
   280    H   28  pz     Ryd( 2p)     0.00013

 WARNING:  1 low occupancy (<1.9990e) core orbital  found on  C    5
           1 low occupancy (<1.9990e) core orbital  found on  C    6


 Summary of Natural Population Analysis:                  
                                                          
                                       Natural Population 
                Natural  -----------------------------------------------
    Atom  No    Charge         Core      Valence    Rydberg      Total
 -----------------------------------------------------------------------
      N    1   -0.92444      1.99968     5.91001    0.01475     7.92444
      C    2   -0.27325      1.99936     4.25981    0.01408     6.27325
      C    3   -0.29483      1.99932     4.28002    0.01549     6.29483
      N    4   -0.50357      1.99939     5.49203    0.01216     7.50357
      C    5    0.18557      1.99897     3.79721    0.01825     5.81443
      C    6   -0.05262      1.99900     4.03952    0.01410     6.05262
      C    7   -0.36142      1.99909     4.34482    0.01751     6.36142
      C    8   -0.27305      1.99911     4.25752    0.01641     6.27305
      C    9   -0.25727      1.99911     4.24327    0.01488     6.25727
      C   10   -0.34247      1.99908     4.32661    0.01678     6.34247
      C   11   -0.07194      1.99904     4.05773    0.01518     6.07194
      C   12   -0.16577      1.99905     4.15236    0.01436     6.16577
      C   13   -0.27255      1.99914     4.25780    0.01561     6.27255
      C   14   -0.22499      1.99908     4.21358    0.01234     6.22499
      H   15    0.39036      0.00000     0.60686    0.00278     0.60964
      H   16    0.39985      0.00000     0.59771    0.00244     0.60015
      H   17    0.23437      0.00000     0.76359    0.00204     0.76563
      H   18    0.21696      0.00000     0.78006    0.00298     0.78304
      H   19    0.24840      0.00000     0.74815    0.00344     0.75160
      H   20    0.24958      0.00000     0.74826    0.00215     0.75042
      H   21    0.43277      0.00000     0.56217    0.00505     0.56723
      H   22    0.22162      0.00000     0.77666    0.00173     0.77838
      H   23    0.23150      0.00000     0.76708    0.00141     0.76850
      H   24    0.23249      0.00000     0.76613    0.00138     0.76751
      H   25    0.22590      0.00000     0.77243    0.00167     0.77410
      H   26    0.24614      0.00000     0.75215    0.00171     0.75386
      H   27    0.25027      0.00000     0.74837    0.00136     0.74973
      H   28    0.25238      0.00000     0.74624    0.00138     0.74762
 =======================================================================
   * Total *    0.00000     27.98841    71.76815    0.24344   100.00000

                                 Natural Population      
 --------------------------------------------------------
   Core                      27.98841 ( 99.9586% of  28)
   Valence                   71.76815 ( 99.6780% of  72)
   Natural Minimal Basis     99.75656 ( 99.7566% of 100)
   Natural Rydberg Basis      0.24344 (  0.2434% of 100)
 --------------------------------------------------------

    Atom  No          Natural Electron Configuration
 ----------------------------------------------------------------------------
      N    1      [core]2S( 1.45)2p( 4.46)3p( 0.01)
      C    2      [core]2S( 1.03)2p( 3.23)3p( 0.01)
      C    3      [core]2S( 1.03)2p( 3.25)3p( 0.01)
      N    4      [core]2S( 1.28)2p( 4.21)3p( 0.01)
      C    5      [core]2S( 0.83)2p( 2.96)3p( 0.01)
      C    6      [core]2S( 0.87)2p( 3.17)3p( 0.01)
      C    7      [core]2S( 0.93)2p( 3.41)3p( 0.01)
      C    8      [core]2S( 0.95)2p( 3.30)3p( 0.01)
      C    9      [core]2S( 0.96)2p( 3.29)3p( 0.01)
      C   10      [core]2S( 0.94)2p( 3.39)3p( 0.01)
      C   11      [core]2S( 0.87)2p( 3.19)3p( 0.01)
      C   12      [core]2S( 0.96)2p( 3.19)3p( 0.01)
      C   13      [core]2S( 0.96)2p( 3.30)3p( 0.01)
      C   14      [core]2S( 0.96)2p( 3.25)3p( 0.01)
      H   15            1S( 0.61)
      H   16            1S( 0.60)
      H   17            1S( 0.76)
      H   18            1S( 0.78)
      H   19            1S( 0.75)
      H   20            1S( 0.75)
      H   21            1S( 0.56)
      H   22            1S( 0.78)
      H   23            1S( 0.77)
      H   24            1S( 0.77)
      H   25            1S( 0.77)
      H   26            1S( 0.75)
      H   27            1S( 0.75)
      H   28            1S( 0.75)


 NBO analysis skipped by request.
 1\1\GINC-CN36\SP\RB3LYP TD-FC\6-31G(d,p)\C12H14N2\QDUEZ\11-Jul-2024\0\
 \# TD(NStates=10, Root=1) B3LYP/6-31G** SCRF=(Solvent=water) volume po
 p=NPA density=current Geom=AllCheck Guess=Read\\NULAJYZBOLVQPQ-UHFFFAO
 YSA-N_conf_0\\0,1\N,0,-4.8349714139,-0.3777130081,-0.4382853303\C,0,-3
 .5987098374,0.2454792,0.0493046429\C,0,-2.3859353388,-0.4959275122,-0.
 514660202\N,0,-1.1519585728,0.1004958451,-0.0216062495\C,0,0.090986084
 8,-0.3995875049,-0.3976932265\C,0,1.2816985876,0.3170043627,0.00061744
 51\C,0,1.2347750564,1.5026228599,0.782186304\C,0,2.3860772786,2.179330
 2675,1.1288637454\C,0,3.6479259941,1.6963703593,0.7130863779\C,0,3.729
 9216331,0.5358496782,-0.024377628\C,0,2.5643418531,-0.1898787688,-0.39
 3840289\C,0,2.6515500037,-1.4037467285,-1.1302588191\C,0,1.5032786758,
 -2.083362746,-1.4617061153\C,0,0.2279687464,-1.5862461505,-1.109627963
 7\H,0,-4.9613745362,-1.2742675975,0.0288760162\H,0,-5.6285370603,0.188
 9865521,-0.1475541759\H,0,-3.5819372521,1.2841142307,-0.3045722573\H,0
 ,-3.5116336512,0.2815103477,1.1473510448\H,0,-2.4426804983,-0.50019415
 69,-1.6148572827\H,0,-2.4240735882,-1.5433348436,-0.1897057026\H,0,-1.
 1909272075,1.1112882289,0.007810631\H,0,0.2820586687,1.8760858946,1.14
 31079463\H,0,2.3230509797,3.0809713031,1.7306064686\H,0,4.5503096773,2
 .2355545761,0.9859628521\H,0,4.6977545388,0.1502551109,-0.3344302574\H
 ,0,3.6290748784,-1.7802841934,-1.4168447894\H,0,1.5630818432,-3.012875
 9322,-2.0211827234\H,0,-0.6511155428,-2.138499674,-1.4192770403\\Versi
 on=EM64L-G16RevA.03\State=1-A\HF=-575.2434463\RMSD=5.013e-09\Dipole=-2
 .8528673,-0.7890762,-0.1599687\Quadrupole=5.6655151,0.2951434,-5.96065
 85,-4.0841506,-7.9780081,1.9803336\PG=C01 [X(C12H14N2)]\\@


 THE REAL VOYAGE OF DISCOVERY CONSISTS NOT IN SEEKING NEW LANDSCAPES 
 BUT IN HAVING NEW EYES.
                                                    -- MARCEL PROUST
 Job cpu time:       0 days  1 hours 34 minutes 39.6 seconds.
 Elapsed time:       0 days  0 hours 28 minutes 39.6 seconds.
 File lengths (MBytes):  RWF=    665 Int=      0 D2E=      0 Chk=     42 Scr=      1
 Normal termination of Gaussian 16 at Thu Jul 11 22:03:50 2024.
