 Entering Gaussian System, Link 0=g16
 Initial command:
 /opt/sw/arch/manual/gaussian/G16_A03/g16/l1.exe "/scratch/1032077.jesse.materianova.be/Gau-22905.inp" -scrdir="/scratch/1032077.jesse.materianova.be/"
 Entering Link 1 = /opt/sw/arch/manual/gaussian/G16_A03/g16/l1.exe PID=     22906.
  
 Copyright (c) 1988,1990,1992,1993,1995,1998,2003,2009,2016,
            Gaussian, Inc.  All Rights Reserved.
  
 This is part of the Gaussian(R) 16 program.  It is based on
 the Gaussian(R) 09 system (copyright 2009, Gaussian, Inc.),
 the Gaussian(R) 03 system (copyright 2003, Gaussian, Inc.),
 the Gaussian(R) 98 system (copyright 1998, Gaussian, Inc.),
 the Gaussian(R) 94 system (copyright 1995, Gaussian, Inc.),
 the Gaussian 92(TM) system (copyright 1992, Gaussian, Inc.),
 the Gaussian 90(TM) system (copyright 1990, Gaussian, Inc.),
 the Gaussian 88(TM) system (copyright 1988, Gaussian, Inc.),
 the Gaussian 86(TM) system (copyright 1986, Carnegie Mellon
 University), and the Gaussian 82(TM) system (copyright 1983,
 Carnegie Mellon University). Gaussian is a federally registered
 trademark of Gaussian, Inc.
  
 This software contains proprietary and confidential information,
 including trade secrets, belonging to Gaussian, Inc.
  
 This software is provided under written license and may be
 used, copied, transmitted, or stored only in accord with that
 written license.
  
 The following legend is applicable only to US Government
 contracts under FAR:
  
                    RESTRICTED RIGHTS LEGEND
  
 Use, reproduction and disclosure by the US Government is
 subject to restrictions as set forth in subparagraphs (a)
 and (c) of the Commercial Computer Software - Restricted
 Rights clause in FAR 52.227-19.
  
 Gaussian, Inc.
 340 Quinnipiac St., Bldg. 40, Wallingford CT 06492
  
  
 ---------------------------------------------------------------
 Warning -- This program may not be used in any manner that
 competes with the business of Gaussian, Inc. or will provide
 assistance to any competitor of Gaussian, Inc.  The licensee
 of this program is prohibited from giving any competitor of
 Gaussian, Inc. access to this program.  By using this program,
 the user acknowledges that Gaussian, Inc. is engaged in the
 business of creating and licensing software in the field of
 computational chemistry and represents and warrants to the
 licensee that it is not a competitor of Gaussian, Inc. and that
 it will not use this program in any manner prohibited above.
 ---------------------------------------------------------------
  

 Cite this work as:
 Gaussian 16, Revision A.03,
 M. J. Frisch, G. W. Trucks, H. B. Schlegel, G. E. Scuseria, 
 M. A. Robb, J. R. Cheeseman, G. Scalmani, V. Barone, 
 G. A. Petersson, H. Nakatsuji, X. Li, M. Caricato, A. V. Marenich, 
 J. Bloino, B. G. Janesko, R. Gomperts, B. Mennucci, H. P. Hratchian, 
 J. V. Ortiz, A. F. Izmaylov, J. L. Sonnenberg, D. Williams-Young, 
 F. Ding, F. Lipparini, F. Egidi, J. Goings, B. Peng, A. Petrone, 
 T. Henderson, D. Ranasinghe, V. G. Zakrzewski, J. Gao, N. Rega, 
 G. Zheng, W. Liang, M. Hada, M. Ehara, K. Toyota, R. Fukuda, 
 J. Hasegawa, M. Ishida, T. Nakajima, Y. Honda, O. Kitao, H. Nakai, 
 T. Vreven, K. Throssell, J. A. Montgomery, Jr., J. E. Peralta, 
 F. Ogliaro, M. J. Bearpark, J. J. Heyd, E. N. Brothers, K. N. Kudin, 
 V. N. Staroverov, T. A. Keith, R. Kobayashi, J. Normand, 
 K. Raghavachari, A. P. Rendell, J. C. Burant, S. S. Iyengar, 
 J. Tomasi, M. Cossi, J. M. Millam, M. Klene, C. Adamo, R. Cammi, 
 J. W. Ochterski, R. L. Martin, K. Morokuma, O. Farkas, 
 J. B. Foresman, and D. J. Fox, Gaussian, Inc., Wallingford CT, 2016.
 
 ******************************************
 Gaussian 16:  EM64L-G16RevA.03 25-Dec-2016
                11-Jul-2024 
 ******************************************
 %nprocshared=4
 Will use up to    4 processors via shared memory.
 %mem=8GB
 %Chk=NULAJYZBOLVQPQ-UHFFFAOYSA-N_conf_3_0.chk
 -------------------------------------------------------
 # opt=CalcFc B3LYP/6-31G** SCRF=(Solvent=water) scf=xqc
 -------------------------------------------------------
 1/10=4,18=20,19=15,26=3,38=1/1,3;
 2/9=110,12=2,17=6,18=5,40=1/2;
 3/5=1,6=6,7=101,11=2,25=1,30=1,70=2201,71=2,72=1,74=-5,140=1/1,2,3;
 4//1;
 5/5=2,8=3,13=1,38=5,53=1/2,8;
 8/6=4,10=90,11=11/1;
 11/6=1,8=1,9=11,15=111,16=1/1,2,10;
 10/6=1,13=1/2;
 6/7=2,8=2,9=2,10=2,28=1/1;
 7/10=1,18=20,25=1/1,2,3,16;
 1/10=4,18=20,19=15,26=3/3(2);
 2/9=110/2;
 99//99;
 2/9=110/2;
 3/5=1,6=6,7=101,11=2,25=1,30=1,70=2205,71=1,72=1,74=-5/1,2,3;
 4/5=5,16=3,69=1/1;
 5/5=2,8=3,13=1,38=5,53=1/2,8;
 7//1,2,3,16;
 1/18=20,19=15,26=3/3(-5);
 2/9=110/2;
 6/7=2,8=2,9=2,10=2,19=2,28=1/1;
 99/9=1/99;
 ----------------------------------
 NULAJYZBOLVQPQ-UHFFFAOYSA-N_conf_3
 ----------------------------------
 Symbolic Z-matrix:
 Charge =  0 Multiplicity = 1
 N                    -4.46826  -0.09689  -1.0175 
 C                    -3.52551  -0.5098    0.0249 
 C                    -2.14669   0.17031  -0.09065 
 N                    -1.26016  -0.30979   0.97798 
 C                     0.01841   0.30887   0.91159 
 C                     1.12325  -0.27383   0.22313 
 C                     1.08166  -1.53349  -0.42302 
 C                     2.1968   -2.06213  -1.07856 
 C                     3.3854   -1.34631  -1.10958 
 C                     3.45772  -0.10021  -0.49004 
 C                     2.34493   0.44662   0.17098 
 C                     2.44086   1.70988   0.77406 
 C                     1.34789   2.27897   1.42107 
 C                     0.14447   1.58574   1.48065 
 H                    -4.06173  -0.26417  -1.93723 
 H                    -4.62318   0.90929  -0.95507 
 H                    -3.40456  -1.59797  -0.02766 
 H                    -3.96512  -0.29068   1.00473 
 H                    -2.27929   1.25722  -0.0193 
 H                    -1.71239  -0.05534  -1.07303 
 H                    -1.15519  -1.32034   0.93726 
 H                     0.17104  -2.1248   -0.42884 
 H                     2.1327   -3.03306  -1.56279 
 H                     4.25602  -1.75358  -1.61654 
 H                     4.39719   0.44743  -0.52913 
 H                     3.37472   2.26716   0.73931 
 H                     1.43409   3.25978   1.88018 
 H                    -0.70506   2.03112   1.99273 
 

 GradGradGradGradGradGradGradGradGradGradGradGradGradGradGradGradGradGrad
 Berny optimization.
 Initialization pass.
                           ----------------------------
                           !    Initial Parameters    !
                           ! (Angstroms and Degrees)  !
 --------------------------                            --------------------------
 ! Name  Definition              Value          Derivative Info.                !
 --------------------------------------------------------------------------------
 ! R1    R(1,2)                  1.4649         calculate D2E/DX2 analytically  !
 ! R2    R(1,15)                 1.0194         calculate D2E/DX2 analytically  !
 ! R3    R(1,16)                 1.0199         calculate D2E/DX2 analytically  !
 ! R4    R(2,3)                  1.5418         calculate D2E/DX2 analytically  !
 ! R5    R(2,17)                 1.0961         calculate D2E/DX2 analytically  !
 ! R6    R(2,18)                 1.0961         calculate D2E/DX2 analytically  !
 ! R7    R(3,4)                  1.4691         calculate D2E/DX2 analytically  !
 ! R8    R(3,19)                 1.0973         calculate D2E/DX2 analytically  !
 ! R9    R(3,20)                 1.0975         calculate D2E/DX2 analytically  !
 ! R10   R(4,5)                  1.4219         calculate D2E/DX2 analytically  !
 ! R11   R(4,21)                 1.0168         calculate D2E/DX2 analytically  !
 ! R12   R(5,6)                  1.4262         calculate D2E/DX2 analytically  !
 ! R13   R(5,14)                 1.4036         calculate D2E/DX2 analytically  !
 ! R14   R(6,7)                  1.4163         calculate D2E/DX2 analytically  !
 ! R15   R(6,11)                 1.4193         calculate D2E/DX2 analytically  !
 ! R16   R(7,8)                  1.3974         calculate D2E/DX2 analytically  !
 ! R17   R(7,22)                 1.0858         calculate D2E/DX2 analytically  !
 ! R18   R(8,9)                  1.3879         calculate D2E/DX2 analytically  !
 ! R19   R(8,23)                 1.0869         calculate D2E/DX2 analytically  !
 ! R20   R(9,10)                 1.3935         calculate D2E/DX2 analytically  !
 ! R21   R(9,24)                 1.0867         calculate D2E/DX2 analytically  !
 ! R22   R(10,11)                1.4051         calculate D2E/DX2 analytically  !
 ! R23   R(10,25)                1.0881         calculate D2E/DX2 analytically  !
 ! R24   R(11,12)                1.4031         calculate D2E/DX2 analytically  !
 ! R25   R(12,13)                1.3918         calculate D2E/DX2 analytically  !
 ! R26   R(12,26)                1.0881         calculate D2E/DX2 analytically  !
 ! R27   R(13,14)                1.3901         calculate D2E/DX2 analytically  !
 ! R28   R(13,27)                1.0864         calculate D2E/DX2 analytically  !
 ! R29   R(14,28)                1.0873         calculate D2E/DX2 analytically  !
 ! A1    A(2,1,15)             109.8231         calculate D2E/DX2 analytically  !
 ! A2    A(2,1,16)             109.4067         calculate D2E/DX2 analytically  !
 ! A3    A(15,1,16)            106.1218         calculate D2E/DX2 analytically  !
 ! A4    A(1,2,3)              113.4456         calculate D2E/DX2 analytically  !
 ! A5    A(1,2,17)             108.4652         calculate D2E/DX2 analytically  !
 ! A6    A(1,2,18)             108.7637         calculate D2E/DX2 analytically  !
 ! A7    A(3,2,17)             109.6116         calculate D2E/DX2 analytically  !
 ! A8    A(3,2,18)             109.7244         calculate D2E/DX2 analytically  !
 ! A9    A(17,2,18)            106.5937         calculate D2E/DX2 analytically  !
 ! A10   A(2,3,4)              109.9371         calculate D2E/DX2 analytically  !
 ! A11   A(2,3,19)             108.9052         calculate D2E/DX2 analytically  !
 ! A12   A(2,3,20)             109.2848         calculate D2E/DX2 analytically  !
 ! A13   A(4,3,19)             110.446          calculate D2E/DX2 analytically  !
 ! A14   A(4,3,20)             110.188          calculate D2E/DX2 analytically  !
 ! A15   A(19,3,20)            108.0388         calculate D2E/DX2 analytically  !
 ! A16   A(3,4,5)              111.4967         calculate D2E/DX2 analytically  !
 ! A17   A(3,4,21)             110.9738         calculate D2E/DX2 analytically  !
 ! A18   A(5,4,21)             109.7372         calculate D2E/DX2 analytically  !
 ! A19   A(4,5,6)              122.7744         calculate D2E/DX2 analytically  !
 ! A20   A(4,5,14)             117.2336         calculate D2E/DX2 analytically  !
 ! A21   A(6,5,14)             119.8542         calculate D2E/DX2 analytically  !
 ! A22   A(5,6,7)              124.1133         calculate D2E/DX2 analytically  !
 ! A23   A(5,6,11)             118.4999         calculate D2E/DX2 analytically  !
 ! A24   A(7,6,11)             117.3863         calculate D2E/DX2 analytically  !
 ! A25   A(6,7,8)              121.8058         calculate D2E/DX2 analytically  !
 ! A26   A(6,7,22)             120.7585         calculate D2E/DX2 analytically  !
 ! A27   A(8,7,22)             117.4352         calculate D2E/DX2 analytically  !
 ! A28   A(7,8,9)              119.921          calculate D2E/DX2 analytically  !
 ! A29   A(7,8,23)             119.9922         calculate D2E/DX2 analytically  !
 ! A30   A(9,8,23)             120.0867         calculate D2E/DX2 analytically  !
 ! A31   A(8,9,10)             119.7177         calculate D2E/DX2 analytically  !
 ! A32   A(8,9,24)             120.2172         calculate D2E/DX2 analytically  !
 ! A33   A(10,9,24)            120.065          calculate D2E/DX2 analytically  !
 ! A34   A(9,10,11)            121.0695         calculate D2E/DX2 analytically  !
 ! A35   A(9,10,25)            118.6121         calculate D2E/DX2 analytically  !
 ! A36   A(11,10,25)           120.3183         calculate D2E/DX2 analytically  !
 ! A37   A(6,11,10)            120.096          calculate D2E/DX2 analytically  !
 ! A38   A(6,11,12)            120.0054         calculate D2E/DX2 analytically  !
 ! A39   A(10,11,12)           119.8977         calculate D2E/DX2 analytically  !
 ! A40   A(11,12,13)           120.9481         calculate D2E/DX2 analytically  !
 ! A41   A(11,12,26)           120.4026         calculate D2E/DX2 analytically  !
 ! A42   A(13,12,26)           118.6485         calculate D2E/DX2 analytically  !
 ! A43   A(12,13,14)           119.7266         calculate D2E/DX2 analytically  !
 ! A44   A(12,13,27)           120.2189         calculate D2E/DX2 analytically  !
 ! A45   A(14,13,27)           120.0543         calculate D2E/DX2 analytically  !
 ! A46   A(5,14,13)            120.933          calculate D2E/DX2 analytically  !
 ! A47   A(5,14,28)            119.5639         calculate D2E/DX2 analytically  !
 ! A48   A(13,14,28)           119.4918         calculate D2E/DX2 analytically  !
 ! D1    D(15,1,2,3)            55.6647         calculate D2E/DX2 analytically  !
 ! D2    D(15,1,2,17)          -66.3759         calculate D2E/DX2 analytically  !
 ! D3    D(15,1,2,18)          178.0662         calculate D2E/DX2 analytically  !
 ! D4    D(16,1,2,3)           -60.4356         calculate D2E/DX2 analytically  !
 ! D5    D(16,1,2,17)          177.5237         calculate D2E/DX2 analytically  !
 ! D6    D(16,1,2,18)           61.9658         calculate D2E/DX2 analytically  !
 ! D7    D(1,2,3,4)           -179.3003         calculate D2E/DX2 analytically  !
 ! D8    D(1,2,3,19)            59.5678         calculate D2E/DX2 analytically  !
 ! D9    D(1,2,3,20)           -58.2465         calculate D2E/DX2 analytically  !
 ! D10   D(17,2,3,4)           -57.8997         calculate D2E/DX2 analytically  !
 ! D11   D(17,2,3,19)         -179.0315         calculate D2E/DX2 analytically  !
 ! D12   D(17,2,3,20)           63.1541         calculate D2E/DX2 analytically  !
 ! D13   D(18,2,3,4)            58.8322         calculate D2E/DX2 analytically  !
 ! D14   D(18,2,3,19)          -62.2997         calculate D2E/DX2 analytically  !
 ! D15   D(18,2,3,20)          179.886          calculate D2E/DX2 analytically  !
 ! D16   D(2,3,4,5)           -179.3363         calculate D2E/DX2 analytically  !
 ! D17   D(2,3,4,21)            58.0015         calculate D2E/DX2 analytically  !
 ! D18   D(19,3,4,5)           -59.1336         calculate D2E/DX2 analytically  !
 ! D19   D(19,3,4,21)          178.2042         calculate D2E/DX2 analytically  !
 ! D20   D(20,3,4,5)            60.1539         calculate D2E/DX2 analytically  !
 ! D21   D(20,3,4,21)          -62.5083         calculate D2E/DX2 analytically  !
 ! D22   D(3,4,5,6)            -93.7723         calculate D2E/DX2 analytically  !
 ! D23   D(3,4,5,14)            81.9478         calculate D2E/DX2 analytically  !
 ! D24   D(21,4,5,6)            29.5961         calculate D2E/DX2 analytically  !
 ! D25   D(21,4,5,14)         -154.6839         calculate D2E/DX2 analytically  !
 ! D26   D(4,5,6,7)             -2.1225         calculate D2E/DX2 analytically  !
 ! D27   D(4,5,6,11)           177.6227         calculate D2E/DX2 analytically  !
 ! D28   D(14,5,6,7)          -177.7345         calculate D2E/DX2 analytically  !
 ! D29   D(14,5,6,11)            2.0107         calculate D2E/DX2 analytically  !
 ! D30   D(4,5,14,13)         -177.9114         calculate D2E/DX2 analytically  !
 ! D31   D(4,5,14,28)            3.3202         calculate D2E/DX2 analytically  !
 ! D32   D(6,5,14,13)           -2.0604         calculate D2E/DX2 analytically  !
 ! D33   D(6,5,14,28)          179.1712         calculate D2E/DX2 analytically  !
 ! D34   D(5,6,7,8)           -179.6673         calculate D2E/DX2 analytically  !
 ! D35   D(5,6,7,22)             0.5893         calculate D2E/DX2 analytically  !
 ! D36   D(11,6,7,8)             0.5849         calculate D2E/DX2 analytically  !
 ! D37   D(11,6,7,22)         -179.1585         calculate D2E/DX2 analytically  !
 ! D38   D(5,6,11,10)          179.5372         calculate D2E/DX2 analytically  !
 ! D39   D(5,6,11,12)           -0.7917         calculate D2E/DX2 analytically  !
 ! D40   D(7,6,11,10)           -0.7004         calculate D2E/DX2 analytically  !
 ! D41   D(7,6,11,12)          178.9707         calculate D2E/DX2 analytically  !
 ! D42   D(6,7,8,9)             -0.1145         calculate D2E/DX2 analytically  !
 ! D43   D(6,7,8,23)           179.8485         calculate D2E/DX2 analytically  !
 ! D44   D(22,7,8,9)           179.637          calculate D2E/DX2 analytically  !
 ! D45   D(22,7,8,23)           -0.4            calculate D2E/DX2 analytically  !
 ! D46   D(7,8,9,10)            -0.2505         calculate D2E/DX2 analytically  !
 ! D47   D(7,8,9,24)           179.8969         calculate D2E/DX2 analytically  !
 ! D48   D(23,8,9,10)          179.7865         calculate D2E/DX2 analytically  !
 ! D49   D(23,8,9,24)           -0.0661         calculate D2E/DX2 analytically  !
 ! D50   D(8,9,10,11)            0.1253         calculate D2E/DX2 analytically  !
 ! D51   D(8,9,10,25)         -179.7344         calculate D2E/DX2 analytically  !
 ! D52   D(24,9,10,11)         179.9781         calculate D2E/DX2 analytically  !
 ! D53   D(24,9,10,25)           0.1185         calculate D2E/DX2 analytically  !
 ! D54   D(9,10,11,6)            0.3642         calculate D2E/DX2 analytically  !
 ! D55   D(9,10,11,12)        -179.3073         calculate D2E/DX2 analytically  !
 ! D56   D(25,10,11,6)        -179.7786         calculate D2E/DX2 analytically  !
 ! D57   D(25,10,11,12)          0.55           calculate D2E/DX2 analytically  !
 ! D58   D(6,11,12,13)          -0.4235         calculate D2E/DX2 analytically  !
 ! D59   D(6,11,12,26)         179.906          calculate D2E/DX2 analytically  !
 ! D60   D(10,11,12,13)        179.2482         calculate D2E/DX2 analytically  !
 ! D61   D(10,11,12,26)         -0.4222         calculate D2E/DX2 analytically  !
 ! D62   D(11,12,13,14)          0.4224         calculate D2E/DX2 analytically  !
 ! D63   D(11,12,13,27)       -179.7244         calculate D2E/DX2 analytically  !
 ! D64   D(26,12,13,14)       -179.9015         calculate D2E/DX2 analytically  !
 ! D65   D(26,12,13,27)         -0.0483         calculate D2E/DX2 analytically  !
 ! D66   D(12,13,14,5)           0.8316         calculate D2E/DX2 analytically  !
 ! D67   D(12,13,14,28)        179.6008         calculate D2E/DX2 analytically  !
 ! D68   D(27,13,14,5)        -179.0218         calculate D2E/DX2 analytically  !
 ! D69   D(27,13,14,28)         -0.2526         calculate D2E/DX2 analytically  !
 --------------------------------------------------------------------------------
 Trust Radius=3.00D-01 FncErr=1.00D-07 GrdErr=1.00D-06 EigMax=2.50D+02 EigMin=1.00D-04
 Number of steps in this run=    156 maximum allowed number of steps=    168.
 GradGradGradGradGradGradGradGradGradGradGradGradGradGradGradGradGradGrad

                          Input orientation:                          
 ---------------------------------------------------------------------
 Center     Atomic      Atomic             Coordinates (Angstroms)
 Number     Number       Type             X           Y           Z
 ---------------------------------------------------------------------
      1          7           0       -4.468260   -0.096886   -1.017499
      2          6           0       -3.525514   -0.509803    0.024896
      3          6           0       -2.146688    0.170307   -0.090647
      4          7           0       -1.260163   -0.309793    0.977982
      5          6           0        0.018415    0.308867    0.911590
      6          6           0        1.123251   -0.273826    0.223128
      7          6           0        1.081664   -1.533494   -0.423021
      8          6           0        2.196802   -2.062134   -1.078563
      9          6           0        3.385403   -1.346315   -1.109581
     10          6           0        3.457715   -0.100207   -0.490038
     11          6           0        2.344933    0.446623    0.170979
     12          6           0        2.440856    1.709878    0.774063
     13          6           0        1.347890    2.278966    1.421070
     14          6           0        0.144469    1.585740    1.480650
     15          1           0       -4.061734   -0.264166   -1.937225
     16          1           0       -4.623180    0.909288   -0.955071
     17          1           0       -3.404562   -1.597966   -0.027657
     18          1           0       -3.965120   -0.290682    1.004735
     19          1           0       -2.279291    1.257221   -0.019302
     20          1           0       -1.712393   -0.055339   -1.073033
     21          1           0       -1.155191   -1.320341    0.937256
     22          1           0        0.171038   -2.124797   -0.428838
     23          1           0        2.132698   -3.033057   -1.562788
     24          1           0        4.256015   -1.753579   -1.616537
     25          1           0        4.397189    0.447434   -0.529134
     26          1           0        3.374715    2.267158    0.739305
     27          1           0        1.434095    3.259784    1.880175
     28          1           0       -0.705056    2.031119    1.992732
 ---------------------------------------------------------------------
                    Distance matrix (angstroms):
                    1          2          3          4          5
     1  N    0.000000
     2  C    1.464875   0.000000
     3  C    2.513989   1.541773   0.000000
     4  N    3.784066   2.465804   1.469146   0.000000
     5  C    4.900639   3.743779   2.389842   1.421939   0.000000
     6  C    5.730223   4.658970   3.314847   2.500353   1.426245
     7  C    5.763584   4.740745   3.665469   2.990720   2.511171
     8  C    6.949027   6.030942   4.982537   4.387561   3.785199
     9  C    7.952960   7.053196   5.826010   5.197459   4.261616
    10  C    7.943507   7.014159   5.625124   4.945441   3.736401
    11  C    6.937398   5.949643   4.507711   3.770960   2.445439
    12  C    7.362742   6.409822   4.915645   4.221161   2.801780
    13  C    6.739354   5.785897   4.352448   3.701343   2.430713
    14  C    5.509015   4.469821   3.117984   2.412201   1.403611
    15  H    1.019383   2.048851   2.695555   4.043428   5.009164
    16  H    1.019943   2.044267   2.725130   4.066047   5.038782
    17  H    2.089134   1.096124   2.170945   2.696135   4.029263
    18  H    2.092877   1.096061   2.172342   2.705156   4.029477
    19  H    2.760722   2.162730   1.097295   2.118662   2.654314
    20  H    2.756740   2.167809   1.097547   2.115637   2.658396
    21  H    4.036624   2.666047   2.064384   1.016801   2.008065
    22  H    5.097257   4.059382   3.279288   2.705868   2.782582
    23  H    7.245073   6.395539   5.544536   5.038173   4.664889
    24  H    8.900363   8.049440   6.857425   6.264525   5.348118
    25  H    8.895559   7.999530   6.564404   5.903425   4.611784
    26  H    8.377787   7.472286   5.964184   5.308459   3.889645
    27  H    7.382516   6.499967   5.123574   4.562331   3.413242
    28  H    5.267979   4.275938   3.143468   2.611079   2.158340
                    6          7          8          9         10
     6  C    0.000000
     7  C    1.416334   0.000000
     8  C    2.458650   1.397401   0.000000
     9  C    2.836138   2.411144   1.387851   0.000000
    10  C    2.447135   2.775684   2.405290   1.393501   0.000000
    11  C    1.419251   2.422715   2.806628   2.436603   1.405080
    12  C    2.444318   3.714818   4.209497   3.712223   2.430712
    13  C    2.828829   4.243395   5.080745   4.868092   3.710009
    14  C    2.448951   3.772522   4.905979   5.080344   4.207569
    15  H    5.617053   5.509859   6.568048   7.570726   7.659200
    16  H    5.984094   6.228604   7.440212   8.321600   8.156973
    17  H    4.724123   4.504075   5.717966   6.880226   7.039029
    18  H    5.148079   5.390092   6.741473   7.721067   7.574240
    19  H    3.739006   4.387151   5.672350   6.328970   5.914173
    20  H    3.125483   3.227105   4.394208   5.258847   5.203068
    21  H    2.607004   2.626653   3.981161   4.980684   4.980441
    22  H    2.181253   1.085777   2.128330   3.376624   3.860693
    23  H    3.438289   2.156949   1.086864   2.149364   3.392354
    24  H    3.922786   3.398444   2.150577   1.086662   2.154048
    25  H    3.435809   3.863683   3.382530   2.139665   1.088141
    26  H    3.433966   4.588468   4.840960   4.059024   2.668818
    27  H    3.915205   5.329581   6.136666   5.827726   4.582848
    28  H    3.433217   4.662048   5.882887   6.145182   5.294843
                   11         12         13         14         15
    11  C    0.000000
    12  C    1.403113   0.000000
    13  C    2.431935   1.391781   0.000000
    14  C    2.802654   2.405841   1.390084   0.000000
    15  H    6.781971   7.316530   6.856361   5.726793   0.000000
    16  H    7.073659   7.316519   6.570825   5.396369   1.629983
    17  H    6.105448   6.764133   6.302000   5.000659   2.420195
    18  H    6.407460   6.715056   5.916460   4.542706   2.943665
    19  H    4.698588   4.807714   4.034238   2.869215   3.028225
    20  H    4.273339   4.876190   4.586378   3.558423   2.511939
    21  H    3.995023   4.705360   4.410725   3.229504   4.222101
    22  H    3.420205   4.615602   4.919377   4.173121   4.863490
    23  H    3.893477   5.296344   6.143038   5.877827   6.795435
    24  H    3.418821   4.583155   5.826292   6.135832   8.456130
    25  H    2.168389   2.668207   4.056604   4.839484   8.604793
    26  H    2.167439   1.088054   2.138449   3.383550   8.298926
    27  H    3.415385   2.153895   1.086376   2.150623   7.562731
    28  H    3.889968   3.388969   2.145416   1.087328   5.655102
                   16         17         18         19         20
    16  H    0.000000
    17  H    2.937933   0.000000
    18  H    2.390358   1.757569   0.000000
    19  H    2.547653   3.068940   2.507324   0.000000
    20  H    3.068730   2.517130   3.073644   1.776101   0.000000
    21  H    4.536419   2.463291   2.993401   2.970257   2.439665
    22  H    5.697993   3.636401   4.746253   4.196412   2.871403
    23  H    7.845590   5.922614   7.162135   6.344641   4.887881
    24  H    9.293466   7.825164   8.752040   7.370638   6.229070
    25  H    9.042223   8.080994   8.533802   6.744707   6.154315
    26  H    8.287403   7.841301   7.777286   5.793379   5.878539
    27  H    7.089007   7.116892   6.521022   4.626825   5.441679
    28  H    5.029885   4.953742   4.122489   2.669347   3.842779
                   21         22         23         24         25
    21  H    0.000000
    22  H    2.066942   0.000000
    23  H    4.471446   2.441083   0.000000
    24  H    5.999225   4.270301   2.479602   0.000000
    25  H    6.008681   4.948412   4.279039   2.459031   0.000000
    26  H    5.781814   5.560339   5.910542   4.742679   2.442496
    27  H    5.345188   5.993377   7.207072   6.732313   4.742786
    28  H    3.542447   4.889088   6.807381   7.208536   5.907688
                   26         27         28
    26  H    0.000000
    27  H    2.460264   0.000000
    28  H    4.274497   2.469464   0.000000
 Stoichiometry    C12H14N2
 Framework group  C1[X(C12H14N2)]
 Deg. of freedom    78
 Full point group                 C1      NOp   1
 Largest Abelian subgroup         C1      NOp   1
 Largest concise Abelian subgroup C1      NOp   1
                         Standard orientation:                         
 ---------------------------------------------------------------------
 Center     Atomic      Atomic             Coordinates (Angstroms)
 Number     Number       Type             X           Y           Z
 ---------------------------------------------------------------------
      1          7           0        4.717415   -0.711311    0.858991
      2          6           0        3.772685   -0.486553   -0.237744
      3          6           0        2.397196    0.026802    0.232957
      4          7           0        1.508360    0.209243   -0.922498
      5          6           0        0.232819    0.697383   -0.526739
      6          6           0       -0.874867   -0.161588   -0.263349
      7          6           0       -0.839450   -1.570183   -0.406904
      8          6           0       -1.957173   -2.365850   -0.141688
      9          6           0       -3.142262   -1.777319    0.277030
     10          6           0       -3.208470   -0.394454    0.435608
     11          6           0       -2.093015    0.419462    0.175705
     12          6           0       -2.182750    1.807853    0.357484
     13          6           0       -1.087002    2.632900    0.121500
     14          6           0        0.113018    2.078806   -0.308925
     15          1           0        4.310056   -1.350509    1.540627
     16          1           0        4.877251    0.166139    1.353781
     17          1           0        3.646415   -1.427552   -0.785527
     18          1           0        4.213378    0.228713   -0.941686
     19          1           0        2.535111    0.976932    0.764264
     20          1           0        1.961782   -0.695347    0.935470
     21          1           0        1.398449   -0.660270   -1.438007
     22          1           0        0.068275   -2.073157   -0.726223
     23          1           0       -1.897825   -3.444177   -0.264009
     24          1           0       -4.014865   -2.391302    0.482999
     25          1           0       -4.145258    0.047566    0.768922
     26          1           0       -3.113875    2.260297    0.692389
     27          1           0       -1.168403    3.705949    0.270338
     28          1           0        0.964721    2.727641   -0.498395
 ---------------------------------------------------------------------
 Rotational constants (GHZ):           1.1701539           0.4223458           0.3297319
 Standard basis: 6-31G(d,p) (6D, 7F)
 There are   280 symmetry adapted cartesian basis functions of A   symmetry.
 There are   280 symmetry adapted basis functions of A   symmetry.
   280 basis functions,   490 primitive gaussians,   280 cartesian basis functions
    50 alpha electrons       50 beta electrons
       nuclear repulsion energy       827.9595298906 Hartrees.
 NAtoms=   28 NActive=   28 NUniq=   28 SFac= 1.00D+00 NAtFMM=   60 NAOKFM=F Big=F
 Integral buffers will be    131072 words long.
 Raffenetti 2 integral format.
 Two-electron integral symmetry is turned on.
 Force inversion solution in PCM.
 ------------------------------------------------------------------------------
 Polarizable Continuum Model (PCM)
 =================================
 Model                : PCM.
 Atomic radii         : UFF (Universal Force Field).
 Polarization charges : Total charges.
 Charge compensation  : None.
 Solution method      : Matrix inversion.
 Cavity type          : Scaled VdW (van der Waals Surface) (Alpha=1.100).
 Cavity algorithm     : GePol (No added spheres)
                        Default sphere list used, NSphG=   28.
                        Lebedev-Laikov grids with approx.  5.0 points / Ang**2.
                        Smoothing algorithm: York/Karplus (Gamma=1.0000).
                        Polarization charges: spherical gaussians, with
                                              point-specific exponents (IZeta= 3).
                        Self-potential: point-specific (ISelfS= 7).
                        Self-field    : sphere-specific E.n sum rule (ISelfD= 2).
 1st derivatives      : Analytical E(r).r(x)/FMM algorithm (CHGder, D1EAlg=3).
                        Cavity 1st derivative terms included.
 2nd derivatives      : Analytical E(r).r(xy)/FMM algorithm (CHGder, D2EAlg=3).
                        Cavity 2nd derivative terms included.
 Solvent              : Water, Eps=  78.355300 Eps(inf)=   1.777849
 ------------------------------------------------------------------------------
 One-electron integrals computed using PRISM.
 NBasis=   280 RedAO= T EigKep=  2.56D-04  NBF=   280
 NBsUse=   280 1.00D-06 EigRej= -1.00D+00 NBFU=   280
 ExpMin= 1.61D-01 ExpMax= 4.17D+03 ExpMxC= 6.27D+02 IAcc=3 IRadAn=         5 AccDes= 0.00D+00
 Harris functional with IExCor=  402 and IRadAn=       5 diagonalized for initial guess.
 HarFok:  IExCor=  402 AccDes= 0.00D+00 IRadAn=         5 IDoV= 1 UseB2=F ITyADJ=14
 ICtDFT=  3500011 ScaDFX=  1.000000  1.000000  1.000000  1.000000
 FoFCou: FMM=F IPFlag=           0 FMFlag=      100000 FMFlg1=           0
         NFxFlg=           0 DoJE=T BraDBF=F KetDBF=T FulRan=T
         wScrn=  0.000000 ICntrl=       500 IOpCl=  0 I1Cent=   200000004 NGrid=           0
         NMat0=    1 NMatS0=      1 NMatT0=    0 NMatD0=    1 NMtDS0=    0 NMtDT0=    0
 Petite list used in FoFCou.
 Keep R1 ints in memory in canonical form, NReq=784933199.
 Requested convergence on RMS density matrix=1.00D-08 within  32 cycles.
 Requested convergence on MAX density matrix=1.00D-06.
 Requested convergence on             energy=1.00D-06.
 No special actions if energy rises.
 Inv3:  Mode=1 IEnd=    13381632.
 Iteration    1 A*A^-1 deviation from unit magnitude is 6.66D-15 for   1323.
 Iteration    1 A*A^-1 deviation from orthogonality  is 5.13D-15 for   1671   1585.
 Iteration    1 A^-1*A deviation from unit magnitude is 7.11D-15 for   1323.
 Iteration    1 A^-1*A deviation from orthogonality  is 3.64D-15 for   1680   1599.
 Error on total polarization charges =  0.01010
 SCF Done:  E(RB3LYP) =  -575.232771744     A.U. after   13 cycles
            NFock= 13  Conv=0.26D-08     -V/T= 2.0096
 QCSCF skips out because SCF is already converged.
 DoSCS=F DFT=T ScalE2(SS,OS)=  1.000000  1.000000
 Range of M.O.s used for correlation:     1   280
 NBasis=   280 NAE=    50 NBE=    50 NFC=     0 NFV=     0
 NROrb=    280 NOA=    50 NOB=    50 NVA=   230 NVB=   230

 **** Warning!!: The largest alpha MO coefficient is  0.10891497D+02

 Symmetrizing basis deriv contribution to polar:
 IMax=3 JMax=2 DiffMx= 0.00D+00
 G2DrvN: will do    29 centers at a time, making    1 passes.
 Calling FoFCou, ICntrl=  3107 FMM=F I1Cent=   0 AccDes= 0.00D+00.
 NEqPCM:  Using equilibrium solvation (IEInf=0, Eps=  78.3553, EpsInf=   1.7778)
 G2PCM: DoFxE=T DoFxN=T DoGrad=T DoDP/DQ/DG/TGxP=FFFF NFrqRd=   0 IEInf=0 SqF1=F DoCFld=F IF1Alg=4.
 End of G2Drv F.D. properties file   721 does not exist.
 End of G2Drv F.D. properties file   722 does not exist.
 End of G2Drv F.D. properties file   788 does not exist.
          IDoAtm=1111111111111111111111111111
 NEqPCM:  Using equilibrium solvation (IEInf=0, Eps=  78.3553, EpsInf=   1.7778)
          Differentiating once with respect to nuclear coordinates.
 Keep R1 ints in memory in canonical form, NReq=785139489.
          There are    87 degrees of freedom in the 1st order CPHF.  IDoFFX=6 NUNeed=     0.
     81 vectors produced by pass  0 Test12= 1.32D-14 1.15D-09 XBig12= 1.30D-01 1.47D-01.
 AX will form    81 AO Fock derivatives at one time.
     81 vectors produced by pass  1 Test12= 1.32D-14 1.15D-09 XBig12= 2.29D-02 3.28D-02.
     81 vectors produced by pass  2 Test12= 1.32D-14 1.15D-09 XBig12= 1.97D-04 2.73D-03.
     81 vectors produced by pass  3 Test12= 1.32D-14 1.15D-09 XBig12= 5.96D-07 9.21D-05.
     81 vectors produced by pass  4 Test12= 1.32D-14 1.15D-09 XBig12= 6.30D-10 3.16D-06.
     57 vectors produced by pass  5 Test12= 1.32D-14 1.15D-09 XBig12= 6.38D-13 1.06D-07.
      9 vectors produced by pass  6 Test12= 1.32D-14 1.15D-09 XBig12= 6.76D-16 2.08D-09.
 InvSVY:  IOpt=1 It=  1 EMax= 6.66D-16
 Solved reduced A of dimension   471 with    87 vectors.
 End of Minotr F.D. properties file   721 does not exist.
 End of Minotr F.D. properties file   722 does not exist.
 End of Minotr F.D. properties file   788 does not exist.

 **********************************************************************

            Population analysis using the SCF density.

 **********************************************************************

 Orbital symmetries:
       Occupied  (A) (A) (A) (A) (A) (A) (A) (A) (A) (A) (A) (A)
                 (A) (A) (A) (A) (A) (A) (A) (A) (A) (A) (A) (A)
                 (A) (A) (A) (A) (A) (A) (A) (A) (A) (A) (A) (A)
                 (A) (A) (A) (A) (A) (A) (A) (A) (A) (A) (A) (A)
                 (A) (A)
       Virtual   (A) (A) (A) (A) (A) (A) (A) (A) (A) (A) (A) (A)
                 (A) (A) (A) (A) (A) (A) (A) (A) (A) (A) (A) (A)
                 (A) (A) (A) (A) (A) (A) (A) (A) (A) (A) (A) (A)
                 (A) (A) (A) (A) (A) (A) (A) (A) (A) (A) (A) (A)
                 (A) (A) (A) (A) (A) (A) (A) (A) (A) (A) (A) (A)
                 (A) (A) (A) (A) (A) (A) (A) (A) (A) (A) (A) (A)
                 (A) (A) (A) (A) (A) (A) (A) (A) (A) (A) (A) (A)
                 (A) (A) (A) (A) (A) (A) (A) (A) (A) (A) (A) (A)
                 (A) (A) (A) (A) (A) (A) (A) (A) (A) (A) (A) (A)
                 (A) (A) (A) (A) (A) (A) (A) (A) (A) (A) (A) (A)
                 (A) (A) (A) (A) (A) (A) (A) (A) (A) (A) (A) (A)
                 (A) (A) (A) (A) (A) (A) (A) (A) (A) (A) (A) (A)
                 (A) (A) (A) (A) (A) (A) (A) (A) (A) (A) (A) (A)
                 (A) (A) (A) (A) (A) (A) (A) (A) (A) (A) (A) (A)
                 (A) (A) (A) (A) (A) (A) (A) (A) (A) (A) (A) (A)
                 (A) (A) (A) (A) (A) (A) (A) (A) (A) (A) (A) (A)
                 (A) (A) (A) (A) (A) (A) (A) (A) (A) (A) (A) (A)
                 (A) (A) (A) (A) (A) (A) (A) (A) (A) (A) (A) (A)
                 (A) (A) (A) (A) (A) (A) (A) (A) (A) (A) (A) (A)
                 (A) (A)
 The electronic state is 1-A.
 Alpha  occ. eigenvalues --  -14.33001 -14.31270 -10.22290 -10.20788 -10.20568
 Alpha  occ. eigenvalues --  -10.19902 -10.19610 -10.19463 -10.19148 -10.19083
 Alpha  occ. eigenvalues --  -10.18993 -10.18902 -10.18535 -10.18521  -0.92643
 Alpha  occ. eigenvalues --   -0.87805  -0.86525  -0.81714  -0.76525  -0.74567
 Alpha  occ. eigenvalues --   -0.71940  -0.68867  -0.62703  -0.61521  -0.60707
 Alpha  occ. eigenvalues --   -0.58253  -0.52613  -0.50889  -0.49676  -0.49207
 Alpha  occ. eigenvalues --   -0.46767  -0.45769  -0.44125  -0.42791  -0.42602
 Alpha  occ. eigenvalues --   -0.41543  -0.40545  -0.39372  -0.38870  -0.37504
 Alpha  occ. eigenvalues --   -0.37116  -0.34706  -0.33874  -0.33429  -0.32766
 Alpha  occ. eigenvalues --   -0.28791  -0.25071  -0.24762  -0.23522  -0.19939
 Alpha virt. eigenvalues --   -0.04380  -0.00688   0.03193   0.08185   0.08594
 Alpha virt. eigenvalues --    0.09491   0.10462   0.12289   0.13513   0.14390
 Alpha virt. eigenvalues --    0.14992   0.16539   0.17651   0.18144   0.19044
 Alpha virt. eigenvalues --    0.19454   0.19589   0.20556   0.21074   0.23777
 Alpha virt. eigenvalues --    0.24334   0.26320   0.26412   0.27615   0.28783
 Alpha virt. eigenvalues --    0.31583   0.32295   0.33463   0.36144   0.40038
 Alpha virt. eigenvalues --    0.47109   0.49214   0.49740   0.51176   0.51539
 Alpha virt. eigenvalues --    0.52254   0.53832   0.54839   0.55242   0.56117
 Alpha virt. eigenvalues --    0.56633   0.57442   0.59168   0.59403   0.60019
 Alpha virt. eigenvalues --    0.60239   0.61017   0.61344   0.61817   0.61929
 Alpha virt. eigenvalues --    0.62844   0.64361   0.65761   0.66272   0.68212
 Alpha virt. eigenvalues --    0.69191   0.70167   0.71700   0.73297   0.75211
 Alpha virt. eigenvalues --    0.76965   0.78556   0.80625   0.81289   0.81956
 Alpha virt. eigenvalues --    0.82509   0.82946   0.83940   0.85710   0.85914
 Alpha virt. eigenvalues --    0.87318   0.88544   0.89771   0.90355   0.92008
 Alpha virt. eigenvalues --    0.92216   0.93063   0.94945   0.95804   0.96039
 Alpha virt. eigenvalues --    0.98060   0.99255   0.99757   1.03652   1.04005
 Alpha virt. eigenvalues --    1.05705   1.07085   1.11836   1.14127   1.16507
 Alpha virt. eigenvalues --    1.19305   1.21310   1.23945   1.24114   1.26696
 Alpha virt. eigenvalues --    1.28555   1.30549   1.31441   1.33673   1.35584
 Alpha virt. eigenvalues --    1.37318   1.39202   1.40709   1.41527   1.42255
 Alpha virt. eigenvalues --    1.43090   1.43819   1.45106   1.47931   1.50639
 Alpha virt. eigenvalues --    1.51921   1.56808   1.64057   1.68145   1.70713
 Alpha virt. eigenvalues --    1.72578   1.74678   1.75944   1.77459   1.80180
 Alpha virt. eigenvalues --    1.83493   1.84588   1.85967   1.86759   1.87313
 Alpha virt. eigenvalues --    1.89319   1.89517   1.90765   1.91935   1.93404
 Alpha virt. eigenvalues --    1.94959   1.95856   1.97991   1.98412   1.99183
 Alpha virt. eigenvalues --    1.99707   2.00447   2.02020   2.04562   2.07369
 Alpha virt. eigenvalues --    2.08613   2.12377   2.13006   2.13617   2.19504
 Alpha virt. eigenvalues --    2.22101   2.23808   2.24187   2.26733   2.27115
 Alpha virt. eigenvalues --    2.28349   2.28920   2.30533   2.31930   2.32479
 Alpha virt. eigenvalues --    2.33702   2.34747   2.35278   2.36294   2.38771
 Alpha virt. eigenvalues --    2.40292   2.41115   2.41830   2.44611   2.44804
 Alpha virt. eigenvalues --    2.46182   2.48209   2.49118   2.50985   2.51967
 Alpha virt. eigenvalues --    2.54127   2.56231   2.58335   2.59248   2.60389
 Alpha virt. eigenvalues --    2.60880   2.63149   2.63520   2.64818   2.68005
 Alpha virt. eigenvalues --    2.69441   2.71633   2.71820   2.74158   2.74903
 Alpha virt. eigenvalues --    2.76684   2.79498   2.82396   2.84267   2.84892
 Alpha virt. eigenvalues --    2.88233   2.91635   2.93742   2.97155   2.98676
 Alpha virt. eigenvalues --    3.03139   3.06080   3.11834   3.17718   3.18831
 Alpha virt. eigenvalues --    3.24034   3.24544   3.25136   3.26495   3.29842
 Alpha virt. eigenvalues --    3.30732   3.34117   3.36030   3.39272   3.42026
 Alpha virt. eigenvalues --    3.45222   3.47981   3.53363   3.58948   3.79181
 Alpha virt. eigenvalues --    3.87582   3.99400   4.11392   4.13820   4.14927
 Alpha virt. eigenvalues --    4.16027   4.17084   4.24870   4.36574   4.39811
 Alpha virt. eigenvalues --    4.41991   4.51998   4.62622   4.64909   4.93360
          Condensed to atoms (all electrons):
               1          2          3          4          5          6
     1  N    6.752810   0.315619  -0.060509   0.003869  -0.000111   0.000001
     2  C    0.315619   4.834553   0.358024  -0.038941   0.003095   0.000105
     3  C   -0.060509   0.358024   4.934480   0.249991  -0.038858  -0.002783
     4  N    0.003869  -0.038941   0.249991   6.977160   0.297773  -0.081359
     5  C   -0.000111   0.003095  -0.038858   0.297773   4.943233   0.385563
     6  C    0.000001   0.000105  -0.002783  -0.081359   0.385563   4.891583
     7  C    0.000001  -0.000150  -0.000202  -0.013600  -0.100772   0.433281
     8  C    0.000000  -0.000002   0.000032   0.000826   0.007873  -0.012467
     9  C   -0.000000   0.000000   0.000001  -0.000016  -0.000802  -0.037926
    10  C    0.000000  -0.000000  -0.000001  -0.000136   0.013542  -0.023090
    11  C   -0.000000   0.000005  -0.000033   0.006643   0.000456   0.451729
    12  C    0.000000  -0.000000   0.000029   0.000303  -0.070093  -0.042532
    13  C   -0.000000   0.000001  -0.000086   0.005172  -0.005300  -0.041347
    14  C   -0.000005   0.000152  -0.009037  -0.079990   0.511601  -0.026508
    15  H    0.347043  -0.045339  -0.003317   0.000015   0.000007  -0.000002
    16  H    0.347119  -0.044838  -0.003077   0.000026   0.000002   0.000001
    17  H   -0.037237   0.387984  -0.046820  -0.001357  -0.000207   0.000050
    18  H   -0.033547   0.380218  -0.045897   0.006909   0.000105  -0.000012
    19  H    0.000231  -0.029679   0.381190  -0.037418  -0.002538  -0.000488
    20  H    0.002744  -0.045501   0.369436  -0.055353   0.002151   0.004975
    21  H   -0.000003  -0.002923  -0.041617   0.345718  -0.035750  -0.010116
    22  H   -0.000005   0.000014   0.000732   0.004779  -0.009257  -0.042415
    23  H    0.000000  -0.000000  -0.000000   0.000002  -0.000184   0.002671
    24  H    0.000000   0.000000   0.000000   0.000000   0.000015   0.001127
    25  H   -0.000000   0.000000  -0.000000   0.000001  -0.000155   0.004173
    26  H   -0.000000  -0.000000   0.000000   0.000006   0.000778   0.004272
    27  H    0.000000  -0.000000  -0.000003  -0.000136   0.003382   0.001393
    28  H    0.000004  -0.000170   0.000048  -0.000833  -0.037572   0.005145
               7          8          9         10         11         12
     1  N    0.000001   0.000000  -0.000000   0.000000  -0.000000   0.000000
     2  C   -0.000150  -0.000002   0.000000  -0.000000   0.000005  -0.000000
     3  C   -0.000202   0.000032   0.000001  -0.000001  -0.000033   0.000029
     4  N   -0.013600   0.000826  -0.000016  -0.000136   0.006643   0.000303
     5  C   -0.100772   0.007873  -0.000802   0.013542   0.000456  -0.070093
     6  C    0.433281  -0.012467  -0.037926  -0.023090   0.451729  -0.042532
     7  C    5.132465   0.507189  -0.025578  -0.072438  -0.047173   0.016210
     8  C    0.507189   4.855317   0.503939  -0.028467  -0.032931  -0.000554
     9  C   -0.025578   0.503939   4.877011   0.501993  -0.012063   0.008560
    10  C   -0.072438  -0.028467   0.501993   5.063093   0.447991  -0.090705
    11  C   -0.047173  -0.032931  -0.012063   0.447991   4.764656   0.451404
    12  C    0.016210  -0.000554   0.008560  -0.090705   0.451404   5.085460
    13  C   -0.001534   0.000081  -0.000434   0.008201  -0.000385   0.494327
    14  C    0.010338  -0.000308   0.000059  -0.000245  -0.047328  -0.030724
    15  H   -0.000000  -0.000000   0.000000   0.000000  -0.000000   0.000000
    16  H   -0.000000  -0.000000   0.000000  -0.000000   0.000000   0.000000
    17  H   -0.000055  -0.000000   0.000000  -0.000000   0.000001   0.000000
    18  H    0.000003  -0.000000   0.000000   0.000000  -0.000000   0.000000
    19  H    0.000033   0.000003  -0.000000  -0.000000   0.000025   0.000003
    20  H    0.002400  -0.000207   0.000003   0.000008  -0.000527  -0.000026
    21  H    0.005322   0.000059  -0.000001  -0.000004  -0.000024   0.000000
    22  H    0.359841  -0.035115   0.004530   0.000641   0.004835  -0.000183
    23  H   -0.034238   0.371185  -0.039708   0.004312   0.001034   0.000009
    24  H    0.004424  -0.039496   0.368423  -0.033584   0.002659  -0.000213
    25  H    0.000495   0.004712  -0.043293   0.371537  -0.039862  -0.008613
    26  H   -0.000208   0.000014   0.000277  -0.008251  -0.040138   0.370448
    27  H    0.000019  -0.000001   0.000003  -0.000242   0.002283  -0.033091
    28  H   -0.000149   0.000001  -0.000000   0.000009   0.000523   0.004915
              13         14         15         16         17         18
     1  N   -0.000000  -0.000005   0.347043   0.347119  -0.037237  -0.033547
     2  C    0.000001   0.000152  -0.045339  -0.044838   0.387984   0.380218
     3  C   -0.000086  -0.009037  -0.003317  -0.003077  -0.046820  -0.045897
     4  N    0.005172  -0.079990   0.000015   0.000026  -0.001357   0.006909
     5  C   -0.005300   0.511601   0.000007   0.000002  -0.000207   0.000105
     6  C   -0.041347  -0.026508  -0.000002   0.000001   0.000050  -0.000012
     7  C   -0.001534   0.010338  -0.000000  -0.000000  -0.000055   0.000003
     8  C    0.000081  -0.000308  -0.000000  -0.000000  -0.000000  -0.000000
     9  C   -0.000434   0.000059   0.000000   0.000000   0.000000   0.000000
    10  C    0.008201  -0.000245   0.000000  -0.000000  -0.000000   0.000000
    11  C   -0.000385  -0.047328  -0.000000   0.000000   0.000001  -0.000000
    12  C    0.494327  -0.030724   0.000000   0.000000   0.000000   0.000000
    13  C    4.897038   0.476223   0.000000  -0.000000  -0.000000   0.000001
    14  C    0.476223   4.950165   0.000001  -0.000005  -0.000021   0.000035
    15  H    0.000000   0.000001   0.475034  -0.033396  -0.004816   0.006394
    16  H   -0.000000  -0.000005  -0.033396   0.475525   0.006398  -0.005820
    17  H   -0.000000  -0.000021  -0.004816   0.006398   0.621278  -0.037852
    18  H    0.000001   0.000035   0.006394  -0.005820  -0.037852   0.618475
    19  H   -0.000382   0.003555  -0.000537   0.004707   0.005473  -0.007008
    20  H    0.000060   0.000652   0.005815  -0.000433  -0.006581   0.006522
    21  H   -0.000201   0.005582   0.000007   0.000019   0.004974  -0.000442
    22  H    0.000003   0.000089  -0.000003   0.000000   0.000184  -0.000012
    23  H   -0.000000   0.000002  -0.000000  -0.000000  -0.000000  -0.000000
    24  H    0.000004  -0.000001   0.000000   0.000000   0.000000  -0.000000
    25  H    0.000327   0.000007   0.000000  -0.000000  -0.000000  -0.000000
    26  H   -0.042059   0.004375   0.000000   0.000000   0.000000   0.000000
    27  H    0.364432  -0.033859  -0.000000  -0.000000   0.000000  -0.000000
    28  H   -0.039158   0.361951   0.000000  -0.000001  -0.000002   0.000080
              19         20         21         22         23         24
     1  N    0.000231   0.002744  -0.000003  -0.000005   0.000000   0.000000
     2  C   -0.029679  -0.045501  -0.002923   0.000014  -0.000000   0.000000
     3  C    0.381190   0.369436  -0.041617   0.000732  -0.000000   0.000000
     4  N   -0.037418  -0.055353   0.345718   0.004779   0.000002   0.000000
     5  C   -0.002538   0.002151  -0.035750  -0.009257  -0.000184   0.000015
     6  C   -0.000488   0.004975  -0.010116  -0.042415   0.002671   0.001127
     7  C    0.000033   0.002400   0.005322   0.359841  -0.034238   0.004424
     8  C    0.000003  -0.000207   0.000059  -0.035115   0.371185  -0.039496
     9  C   -0.000000   0.000003  -0.000001   0.004530  -0.039708   0.368423
    10  C   -0.000000   0.000008  -0.000004   0.000641   0.004312  -0.033584
    11  C    0.000025  -0.000527  -0.000024   0.004835   0.001034   0.002659
    12  C    0.000003  -0.000026   0.000000  -0.000183   0.000009  -0.000213
    13  C   -0.000382   0.000060  -0.000201   0.000003  -0.000000   0.000004
    14  C    0.003555   0.000652   0.005582   0.000089   0.000002  -0.000001
    15  H   -0.000537   0.005815   0.000007  -0.000003  -0.000000   0.000000
    16  H    0.004707  -0.000433   0.000019   0.000000  -0.000000   0.000000
    17  H    0.005473  -0.006581   0.004974   0.000184  -0.000000   0.000000
    18  H   -0.007008   0.006522  -0.000442  -0.000012  -0.000000  -0.000000
    19  H    0.608696  -0.047930   0.005756   0.000031   0.000000   0.000000
    20  H   -0.047930   0.675078  -0.004358  -0.001099  -0.000003  -0.000000
    21  H    0.005756  -0.004358   0.462792   0.006014   0.000004  -0.000000
    22  H    0.000031  -0.001099   0.006014   0.615546  -0.005538  -0.000208
    23  H    0.000000  -0.000003   0.000004  -0.005538   0.602724  -0.005411
    24  H    0.000000  -0.000000  -0.000000  -0.000208  -0.005411   0.605753
    25  H    0.000000  -0.000000   0.000000   0.000018  -0.000198  -0.005519
    26  H   -0.000000   0.000000  -0.000000   0.000002   0.000000  -0.000013
    27  H    0.000010  -0.000001   0.000004   0.000000  -0.000000  -0.000000
    28  H    0.000448   0.000315  -0.000052  -0.000011  -0.000000   0.000000
              25         26         27         28
     1  N   -0.000000  -0.000000   0.000000   0.000004
     2  C    0.000000  -0.000000  -0.000000  -0.000170
     3  C   -0.000000   0.000000  -0.000003   0.000048
     4  N    0.000001   0.000006  -0.000136  -0.000833
     5  C   -0.000155   0.000778   0.003382  -0.037572
     6  C    0.004173   0.004272   0.001393   0.005145
     7  C    0.000495  -0.000208   0.000019  -0.000149
     8  C    0.004712   0.000014  -0.000001   0.000001
     9  C   -0.043293   0.000277   0.000003  -0.000000
    10  C    0.371537  -0.008251  -0.000242   0.000009
    11  C   -0.039862  -0.040138   0.002283   0.000523
    12  C   -0.008613   0.370448  -0.033091   0.004915
    13  C    0.000327  -0.042059   0.364432  -0.039158
    14  C    0.000007   0.004375  -0.033859   0.361951
    15  H    0.000000   0.000000  -0.000000   0.000000
    16  H   -0.000000   0.000000  -0.000000  -0.000001
    17  H   -0.000000   0.000000   0.000000  -0.000002
    18  H   -0.000000   0.000000  -0.000000   0.000080
    19  H    0.000000  -0.000000   0.000010   0.000448
    20  H   -0.000000   0.000000  -0.000001   0.000315
    21  H    0.000000  -0.000000   0.000004  -0.000052
    22  H    0.000018   0.000002   0.000000  -0.000011
    23  H   -0.000198   0.000000  -0.000000  -0.000000
    24  H   -0.005519  -0.000013  -0.000000   0.000000
    25  H    0.607985   0.005491  -0.000011  -0.000000
    26  H    0.005491   0.614210  -0.005233  -0.000199
    27  H   -0.000011  -0.005233   0.605488  -0.005835
    28  H   -0.000000  -0.000199  -0.005835   0.615042
 Mulliken charges:
               1
     1  N   -0.638024
     2  C   -0.072228
     3  C   -0.041723
     4  N   -0.590055
     5  C    0.132021
     6  C    0.134980
     7  C   -0.175925
     8  C   -0.101684
     9  C   -0.104978
    10  C   -0.154165
    11  C    0.086221
    12  C   -0.154933
    13  C   -0.114984
    14  C   -0.096755
    15  H    0.253093
    16  H    0.253773
    17  H    0.108606
    18  H    0.111848
    19  H    0.115817
    20  H    0.091860
    21  H    0.259240
    22  H    0.096584
    23  H    0.103336
    24  H    0.102041
    25  H    0.102906
    26  H    0.096229
    27  H    0.101396
    28  H    0.095500
 Sum of Mulliken charges =  -0.00000
 Mulliken charges with hydrogens summed into heavy atoms:
               1
     1  N   -0.131157
     2  C    0.148226
     3  C    0.165954
     4  N   -0.330815
     5  C    0.132021
     6  C    0.134980
     7  C   -0.079340
     8  C    0.001651
     9  C   -0.002937
    10  C   -0.051258
    11  C    0.086221
    12  C   -0.058703
    13  C   -0.013588
    14  C   -0.001255
 APT charges:
               1
     1  N   -0.779526
     2  C   -0.839177
     3  C   -0.422217
     4  N   -0.526857
     5  C   -0.314392
     6  C   -0.403595
     7  C   -0.584130
     8  C   -0.413762
     9  C   -0.457490
    10  C   -0.511185
    11  C   -0.443843
    12  C   -0.502447
    13  C   -0.464023
    14  C   -0.453057
    15  H    0.292237
    16  H    0.516932
    17  H    0.330187
    18  H    0.492922
    19  H    0.373615
    20  H    0.145580
    21  H    0.436880
    22  H    0.331022
    23  H    0.661558
    24  H    0.858733
    25  H    0.733547
    26  H    0.712720
    27  H    0.720653
    28  H    0.509114
 Sum of APT charges =  -0.00000
 APT charges with hydrogens summed into heavy atoms:
               1
     1  N    0.029644
     2  C   -0.016068
     3  C    0.096978
     4  N   -0.089978
     5  C   -0.314392
     6  C   -0.403595
     7  C   -0.253108
     8  C    0.247796
     9  C    0.401243
    10  C    0.222362
    11  C   -0.443843
    12  C    0.210273
    13  C    0.256630
    14  C    0.056057
 Electronic spatial extent (au):  <R**2>=           3360.1636
 Charge=              0.0000 electrons
 Dipole moment (field-independent basis, Debye):
    X=             -1.0574    Y=             -0.6301    Z=              1.3914  Tot=              1.8577
 Quadrupole moment (field-independent basis, Debye-Ang):
   XX=            -88.1418   YY=            -73.9321   ZZ=            -83.8957
   XY=              3.7462   XZ=              1.5675   YZ=              3.0037
 Traceless Quadrupole moment (field-independent basis, Debye-Ang):
   XX=             -6.1519   YY=              8.0578   ZZ=             -1.9058
   XY=              3.7462   XZ=              1.5675   YZ=              3.0037
 Octapole moment (field-independent basis, Debye-Ang**2):
  XXX=            -98.0809  YYY=             -2.1065  ZZZ=              5.9659  XYY=             -3.4028
  XXY=             24.5240  XXZ=             24.4729  XZZ=             21.6238  YZZ=             -6.0872
  YYZ=              2.3346  XYZ=              2.2680
 Hexadecapole moment (field-independent basis, Debye-Ang**3):
 XXXX=          -3628.0061 YYYY=          -1030.4777 ZZZZ=           -217.9835 XXXY=            193.3634
 XXXZ=             -4.4192 YYYX=             10.9192 YYYZ=             10.5813 ZZZX=             35.1320
 ZZZY=             -0.0071 XXYY=           -681.2517 XXZZ=           -529.6310 YYZZ=           -238.1507
 XXYZ=             15.8843 YYXZ=             -2.7939 ZZXY=            -16.9007
 N-N= 8.279595298906D+02 E-N=-2.989532796080D+03  KE= 5.697894994167D+02
  Exact polarizability:   0.000   0.000   0.000   0.000   0.000   0.000
 Approx polarizability: 265.076  25.133 302.548 -41.861  13.843 115.974
 D2PCM: PCM CHGder 2nd derivatives, FixD1E=F FixD2E=F DoIter=F DoCFld=F I1PDM=0
 Calling FoFJK, ICntrl=    100147 FMM=F ISym2X=0 I1Cent= 0 IOpClX= 0 NMat=1 NMatS=1 NMatT=0.
 ***** Axes restored to original set *****
 -------------------------------------------------------------------
 Center     Atomic                   Forces (Hartrees/Bohr)
 Number     Number              X              Y              Z
 -------------------------------------------------------------------
      1        7          -0.004492714   -0.000804114    0.000079169
      2        6           0.002438953    0.005548729   -0.005022678
      3        6          -0.011556097   -0.012328369    0.003367592
      4        7           0.006994173    0.003952935    0.003712051
      5        6          -0.005530341    0.017771739    0.009284735
      6        6          -0.005153647   -0.008363816   -0.000028328
      7        6           0.005721744   -0.013526396   -0.008618476
      8        6          -0.026253852   -0.002743130    0.007822135
      9        6           0.016873197    0.019981581    0.004655753
     10        6           0.011802139   -0.020014269   -0.014268803
     11        6           0.009719282    0.007507924    0.001662855
     12        6          -0.006580779    0.022434259    0.013268012
     13        6           0.020368230    0.000907052   -0.007951815
     14        6          -0.010171642   -0.018087131   -0.002631651
     15        1           0.000134152    0.000704314    0.001151071
     16        1           0.000945738   -0.001414265   -0.000822447
     17        1           0.000519491   -0.000905329   -0.000388826
     18        1           0.000943144    0.000675829   -0.000050977
     19        1           0.002958058   -0.001923774    0.002067036
     20        1          -0.001387254    0.002162467   -0.005098875
     21        1          -0.003442842    0.000258718   -0.003179831
     22        1          -0.001133906    0.001540967    0.000935199
     23        1          -0.001348438    0.000719412    0.000529294
     24        1          -0.000011601    0.000638191    0.000342360
     25        1          -0.002341227    0.001736498    0.001829083
     26        1           0.000464159   -0.002946492   -0.001524363
     27        1           0.000297599   -0.000320828   -0.000217778
     28        1          -0.000775722   -0.003162702   -0.000901495
 -------------------------------------------------------------------
 Cartesian Forces:  Max     0.026253852 RMS     0.008016826
 FormGI is forming the generalized inverse of G from B-inverse, IUseBI=4.

 GradGradGradGradGradGradGradGradGradGradGradGradGradGradGradGradGradGrad
 Berny optimization.
 Internal  Forces:  Max     0.022336651 RMS     0.004529884
 Search for a local minimum.
 Step number   1 out of a maximum of  156
 All quantities printed in internal units (Hartrees-Bohrs-Radians)
 Mixed Optimization -- RFO/linear search
 Second derivative matrix not updated -- analytic derivatives used.
 ITU=  0
     Eigenvalues ---    0.00080   0.00260   0.00296   0.00354   0.01444
     Eigenvalues ---    0.01481   0.01705   0.01754   0.01877   0.02006
     Eigenvalues ---    0.02233   0.02285   0.02379   0.02399   0.02445
     Eigenvalues ---    0.02510   0.02588   0.02684   0.02743   0.02812
     Eigenvalues ---    0.03245   0.04226   0.04480   0.04597   0.05373
     Eigenvalues ---    0.07844   0.08380   0.10519   0.10980   0.11137
     Eigenvalues ---    0.11613   0.11877   0.12044   0.12330   0.12395
     Eigenvalues ---    0.12613   0.13805   0.14500   0.17075   0.18324
     Eigenvalues ---    0.18713   0.19041   0.19140   0.19828   0.20204
     Eigenvalues ---    0.20462   0.21297   0.22668   0.24667   0.26710
     Eigenvalues ---    0.28733   0.31091   0.31582   0.32845   0.33009
     Eigenvalues ---    0.33340   0.34168   0.35243   0.35618   0.35705
     Eigenvalues ---    0.35794   0.35803   0.36008   0.36041   0.36485
     Eigenvalues ---    0.37389   0.39159   0.40701   0.43629   0.43943
     Eigenvalues ---    0.44138   0.44175   0.44750   0.45574   0.47036
     Eigenvalues ---    0.48140   0.49208   0.51446
 RFO step:  Lambda=-9.75145994D-03 EMin= 8.03143701D-04
 Linear search not attempted -- first point.
 Iteration  1 RMS(Cart)=  0.12915872 RMS(Int)=  0.00403540
 Iteration  2 RMS(Cart)=  0.00895013 RMS(Int)=  0.00024652
 Iteration  3 RMS(Cart)=  0.00003820 RMS(Int)=  0.00024620
 Iteration  4 RMS(Cart)=  0.00000000 RMS(Int)=  0.00024620
 Variable       Old X    -DE/DX   Delta X   Delta X   Delta X     New X
                                 (Linear)    (Quad)   (Total)
    R1        2.76821   0.00148   0.00000   0.00189   0.00189   2.77010
    R2        1.92636  -0.00110   0.00000  -0.00129  -0.00129   1.92507
    R3        1.92741  -0.00159   0.00000  -0.00231  -0.00231   1.92510
    R4        2.91353  -0.00250   0.00000  -0.01520  -0.01520   2.89833
    R5        2.07137   0.00097   0.00000   0.00351   0.00351   2.07489
    R6        2.07126  -0.00029   0.00000   0.00011   0.00011   2.07137
    R7        2.77628   0.00646   0.00000   0.00840   0.00840   2.78469
    R8        2.07359  -0.00213   0.00000  -0.00385  -0.00385   2.06974
    R9        2.07406   0.00357   0.00000   0.01166   0.01166   2.08572
   R10        2.68707   0.00692   0.00000  -0.00126  -0.00126   2.68582
   R11        1.92148  -0.00048   0.00000  -0.00304  -0.00304   1.91844
   R12        2.69521   0.00512   0.00000   0.02044   0.02048   2.71569
   R13        2.65244  -0.01295   0.00000  -0.03535  -0.03528   2.61716
   R14        2.67648   0.00287   0.00000   0.01173   0.01172   2.68820
   R15        2.68200   0.01784   0.00000   0.03258   0.03254   2.71454
   R16        2.64071  -0.01342   0.00000  -0.03761  -0.03763   2.60308
   R17        2.05182   0.00011   0.00000  -0.00075  -0.00075   2.05107
   R18        2.62266   0.02234   0.00000   0.04789   0.04789   2.67055
   R19        2.05388  -0.00080   0.00000  -0.00190  -0.00190   2.05197
   R20        2.63334  -0.01108   0.00000  -0.03286  -0.03284   2.60050
   R21        2.05349  -0.00041   0.00000  -0.00137  -0.00137   2.05212
   R22        2.65522   0.01192   0.00000   0.03050   0.03051   2.68573
   R23        2.05629  -0.00121   0.00000  -0.00236  -0.00236   2.05393
   R24        2.65150   0.01229   0.00000   0.02960   0.02953   2.68103
   R25        2.63009  -0.00973   0.00000  -0.02817  -0.02820   2.60189
   R26        2.05612  -0.00106   0.00000  -0.00303  -0.00303   2.05309
   R27        2.62688   0.01865   0.00000   0.03772   0.03775   2.66463
   R28        2.05295  -0.00036   0.00000  -0.00057  -0.00057   2.05238
   R29        2.05475  -0.00111   0.00000  -0.00269  -0.00269   2.05206
    A1        1.91678  -0.00084   0.00000  -0.00735  -0.00739   1.90939
    A2        1.90951   0.00005   0.00000  -0.00346  -0.00350   1.90601
    A3        1.85218  -0.00034   0.00000  -0.01029  -0.01036   1.84181
    A4        1.98000   0.00634   0.00000   0.02634   0.02636   2.00636
    A5        1.89308  -0.00194   0.00000  -0.00621  -0.00622   1.88686
    A6        1.89828  -0.00140   0.00000  -0.00114  -0.00104   1.89724
    A7        1.91308  -0.00178   0.00000  -0.00539  -0.00545   1.90763
    A8        1.91505  -0.00273   0.00000  -0.01598  -0.01602   1.89903
    A9        1.86041   0.00123   0.00000   0.00106   0.00097   1.86138
   A10        1.91876   0.00497   0.00000   0.01299   0.01274   1.93151
   A11        1.90075   0.00078   0.00000   0.00713   0.00719   1.90795
   A12        1.90738  -0.00296   0.00000   0.00198   0.00150   1.90888
   A13        1.92765  -0.00520   0.00000  -0.03598  -0.03584   1.89180
   A14        1.92314   0.00235   0.00000   0.02913   0.02893   1.95208
   A15        1.88563  -0.00005   0.00000  -0.01567  -0.01547   1.87016
   A16        1.94599   0.01526   0.00000   0.07706   0.07644   2.02243
   A17        1.93686  -0.00762   0.00000  -0.02636  -0.02778   1.90907
   A18        1.91528  -0.00195   0.00000   0.01476   0.01447   1.92974
   A19        2.14282  -0.00224   0.00000  -0.00997  -0.01060   2.13221
   A20        2.04611   0.00490   0.00000   0.02324   0.02263   2.06874
   A21        2.09185  -0.00255   0.00000  -0.00927  -0.00969   2.08216
   A22        2.16619  -0.00485   0.00000  -0.01797  -0.01798   2.14821
   A23        2.06821   0.00146   0.00000   0.00468   0.00473   2.07294
   A24        2.04878   0.00339   0.00000   0.01330   0.01326   2.06203
   A25        2.12591  -0.00255   0.00000  -0.00876  -0.00880   2.11711
   A26        2.10763  -0.00090   0.00000  -0.01410  -0.01408   2.09355
   A27        2.04963   0.00344   0.00000   0.02283   0.02284   2.07247
   A28        2.09302   0.00352   0.00000   0.00835   0.00833   2.10135
   A29        2.09426  -0.00318   0.00000  -0.00323  -0.00322   2.09104
   A30        2.09591  -0.00034   0.00000  -0.00512  -0.00512   2.09079
   A31        2.08947   0.00174   0.00000   0.00397   0.00398   2.09345
   A32        2.09819  -0.00026   0.00000  -0.00636  -0.00637   2.09181
   A33        2.09553  -0.00149   0.00000   0.00238   0.00237   2.09790
   A34        2.11306  -0.00143   0.00000   0.00181   0.00184   2.11490
   A35        2.07017   0.00402   0.00000   0.02889   0.02887   2.09904
   A36        2.09995  -0.00259   0.00000  -0.03070  -0.03071   2.06924
   A37        2.09607  -0.00467   0.00000  -0.01875  -0.01870   2.07737
   A38        2.09449  -0.00239   0.00000  -0.00524  -0.00533   2.08916
   A39        2.09261   0.00706   0.00000   0.02397   0.02400   2.11661
   A40        2.11094  -0.00398   0.00000  -0.01197  -0.01205   2.09889
   A41        2.10142  -0.00127   0.00000  -0.02296  -0.02293   2.07849
   A42        2.07081   0.00526   0.00000   0.03496   0.03499   2.10580
   A43        2.08962   0.00358   0.00000   0.01305   0.01303   2.10265
   A44        2.09822  -0.00213   0.00000  -0.00030  -0.00035   2.09786
   A45        2.09534  -0.00145   0.00000  -0.01279  -0.01284   2.08250
   A46        2.11068   0.00391   0.00000   0.00929   0.00941   2.12009
   A47        2.08678  -0.00521   0.00000  -0.01632  -0.01638   2.07041
   A48        2.08552   0.00130   0.00000   0.00710   0.00703   2.09255
    D1        0.97153  -0.00008   0.00000   0.00386   0.00385   0.97538
    D2       -1.15848  -0.00063   0.00000  -0.00231  -0.00230  -1.16078
    D3        3.10784  -0.00030   0.00000   0.00037   0.00042   3.10826
    D4       -1.05480   0.00078   0.00000   0.02243   0.02238  -1.03242
    D5        3.09837   0.00023   0.00000   0.01626   0.01623   3.11460
    D6        1.08151   0.00056   0.00000   0.01894   0.01895   1.10046
    D7       -3.12938  -0.00229   0.00000  -0.02519  -0.02525   3.12856
    D8        1.03965   0.00055   0.00000   0.00655   0.00651   1.04617
    D9       -1.01659   0.00185   0.00000   0.02018   0.02015  -0.99644
   D10       -1.01054  -0.00175   0.00000  -0.01911  -0.01915  -1.02969
   D11       -3.12469   0.00108   0.00000   0.01263   0.01261  -3.11208
   D12        1.10225   0.00239   0.00000   0.02626   0.02625   1.12849
   D13        1.02682  -0.00287   0.00000  -0.03022  -0.03017   0.99664
   D14       -1.08733  -0.00004   0.00000   0.00152   0.00158  -1.08575
   D15        3.13960   0.00126   0.00000   0.01515   0.01522  -3.12836
   D16       -3.13001   0.00147   0.00000   0.04854   0.04850  -3.08151
   D17        1.01232  -0.00138   0.00000  -0.00619  -0.00575   1.00657
   D18       -1.03208   0.00232   0.00000   0.04285   0.04266  -0.98941
   D19        3.11025  -0.00053   0.00000  -0.01188  -0.01158   3.09867
   D20        1.04988   0.00047   0.00000   0.01918   0.01868   1.06857
   D21       -1.09098  -0.00239   0.00000  -0.03554  -0.03556  -1.12654
   D22       -1.63663  -0.00153   0.00000  -0.15423  -0.15513  -1.79177
   D23        1.43026   0.00010   0.00000  -0.09259  -0.09317   1.33709
   D24        0.51655  -0.00212   0.00000  -0.12434  -0.12376   0.39279
   D25       -2.69974  -0.00049   0.00000  -0.06270  -0.06179  -2.76154
   D26       -0.03705   0.00122   0.00000   0.05507   0.05446   0.01742
   D27        3.10010   0.00141   0.00000   0.05871   0.05802  -3.12507
   D28       -3.10205  -0.00075   0.00000  -0.00946  -0.00929  -3.11134
   D29        0.03509  -0.00056   0.00000  -0.00582  -0.00574   0.02935
   D30       -3.10514  -0.00048   0.00000  -0.03191  -0.03245  -3.13759
   D31        0.05795  -0.00083   0.00000  -0.03562  -0.03608   0.02186
   D32       -0.03596   0.00110   0.00000   0.02776   0.02760  -0.00836
   D33        3.12713   0.00075   0.00000   0.02405   0.02397  -3.13209
   D34       -3.13579   0.00011   0.00000   0.00839   0.00843  -3.12735
   D35        0.01029   0.00026   0.00000   0.01561   0.01553   0.02582
   D36        0.01021  -0.00007   0.00000   0.00481   0.00492   0.01513
   D37       -3.12691   0.00008   0.00000   0.01203   0.01202  -3.11489
   D38        3.13351  -0.00014   0.00000  -0.00989  -0.01000   3.12352
   D39       -0.01382  -0.00020   0.00000  -0.01418  -0.01427  -0.02809
   D40       -0.01222   0.00002   0.00000  -0.00658  -0.00670  -0.01893
   D41        3.12363  -0.00005   0.00000  -0.01086  -0.01097   3.11266
   D42       -0.00200   0.00009   0.00000   0.00095   0.00094  -0.00106
   D43        3.13895   0.00018   0.00000   0.00486   0.00483  -3.13940
   D44        3.13526  -0.00007   0.00000  -0.00613  -0.00617   3.12909
   D45       -0.00698   0.00002   0.00000  -0.00222  -0.00227  -0.00925
   D46       -0.00437  -0.00006   0.00000  -0.00490  -0.00497  -0.00934
   D47        3.13979  -0.00002   0.00000  -0.00149  -0.00154   3.13825
   D48        3.13787  -0.00015   0.00000  -0.00882  -0.00887   3.12900
   D49       -0.00115  -0.00011   0.00000  -0.00541  -0.00544  -0.00660
   D50        0.00219  -0.00003   0.00000   0.00295   0.00292   0.00511
   D51       -3.13696  -0.00003   0.00000   0.00322   0.00325  -3.13370
   D52        3.14121  -0.00006   0.00000  -0.00047  -0.00053   3.14068
   D53        0.00207  -0.00006   0.00000  -0.00019  -0.00020   0.00187
   D54        0.00636  -0.00001   0.00000   0.00279   0.00281   0.00917
   D55       -3.12950   0.00009   0.00000   0.00717   0.00725  -3.12225
   D56       -3.13773   0.00000   0.00000   0.00259   0.00257  -3.13516
   D57        0.00960   0.00010   0.00000   0.00696   0.00700   0.01660
   D58       -0.00739   0.00044   0.00000   0.01299   0.01291   0.00552
   D59        3.13995   0.00015   0.00000   0.00712   0.00708  -3.13615
   D60        3.12847   0.00034   0.00000   0.00857   0.00840   3.13687
   D61       -0.00737   0.00004   0.00000   0.00270   0.00257  -0.00480
   D62        0.00737   0.00016   0.00000   0.00890   0.00875   0.01612
   D63       -3.13678  -0.00036   0.00000  -0.00817  -0.00848   3.13792
   D64       -3.13987   0.00043   0.00000   0.01448   0.01448  -3.12540
   D65       -0.00084  -0.00009   0.00000  -0.00258  -0.00275  -0.00359
   D66        0.01451  -0.00085   0.00000  -0.02912  -0.02938  -0.01487
   D67        3.13463  -0.00058   0.00000  -0.02570  -0.02599   3.10864
   D68       -3.12452  -0.00033   0.00000  -0.01210  -0.01233  -3.13685
   D69       -0.00441  -0.00006   0.00000  -0.00868  -0.00893  -0.01334
         Item               Value     Threshold  Converged?
 Maximum Force            0.022337     0.000450     NO 
 RMS     Force            0.004530     0.000300     NO 
 Maximum Displacement     0.519307     0.001800     NO 
 RMS     Displacement     0.130503     0.001200     NO 
 Predicted change in Energy=-5.395651D-03
 GradGradGradGradGradGradGradGradGradGradGradGradGradGradGradGradGradGrad

                          Input orientation:                          
 ---------------------------------------------------------------------
 Center     Atomic      Atomic             Coordinates (Angstroms)
 Number     Number       Type             X           Y           Z
 ---------------------------------------------------------------------
      1          7           0       -4.646681   -0.093981   -0.855435
      2          6           0       -3.576965   -0.529458    0.047256
      3          6           0       -2.235356    0.188371   -0.145443
      4          7           0       -1.236937   -0.307740    0.818150
      5          6           0        0.028819    0.337976    0.787687
      6          6           0        1.178175   -0.260346    0.166241
      7          6           0        1.139830   -1.526275   -0.481491
      8          6           0        2.268477   -2.073160   -1.051184
      9          6           0        3.499819   -1.381217   -1.005005
     10          6           0        3.572738   -0.148541   -0.397625
     11          6           0        2.427441    0.448109    0.195827
     12          6           0        2.494953    1.729004    0.802099
     13          6           0        1.370998    2.289779    1.366014
     14          6           0        0.146101    1.591284    1.365205
     15          1           0       -4.336539   -0.193856   -1.820626
     16          1           0       -4.811398    0.902659   -0.723652
     17          1           0       -3.433609   -1.609427   -0.089423
     18          1           0       -3.909509   -0.385231    1.081709
     19          1           0       -2.371945    1.262329    0.020534
     20          1           0       -1.898273    0.060504   -1.188617
     21          1           0       -1.128453   -1.310712    0.704579
     22          1           0        0.205690   -2.075513   -0.542856
     23          1           0        2.211163   -3.040384   -1.541369
     24          1           0        4.384749   -1.822029   -1.454273
     25          1           0        4.515446    0.391465   -0.365570
     26          1           0        3.443717    2.258220    0.814382
     27          1           0        1.424544    3.268917    1.832889
     28          1           0       -0.726995    2.029253    1.839622
 ---------------------------------------------------------------------
                    Distance matrix (angstroms):
                    1          2          3          4          5
     1  N    0.000000
     2  C    1.465874   0.000000
     3  C    2.529487   1.533730   0.000000
     4  N    3.804331   2.473695   1.473593   0.000000
     5  C    4.974610   3.781846   2.453487   1.421273   0.000000
     6  C    5.916117   4.764234   3.456976   2.501999   1.437081
     7  C    5.972857   4.849884   3.800634   2.970340   2.514078
     8  C    7.195477   6.144818   5.120489   4.347304   3.769760
     9  C    8.248928   7.205111   6.007885   5.187785   4.268162
    10  C    8.232339   7.173651   5.823320   4.963510   3.768424
    11  C    7.172323   6.085277   4.682478   3.792922   2.473016
    12  C    7.554710   6.522165   5.064307   4.251540   2.831428
    13  C    6.843216   5.845473   4.439166   3.721369   2.438327
    14  C    5.544557   4.482828   3.149850   2.412126   1.384941
    15  H    1.018703   2.044154   2.714278   4.072301   5.112973
    16  H    1.018719   2.041833   2.735056   4.076640   5.102031
    17  H    2.086838   1.097982   2.161256   2.709879   4.068183
    18  H    2.093031   1.096120   2.153535   2.686653   4.014961
    19  H    2.789502   2.159465   1.095258   2.095126   2.684515
    20  H    2.772837   2.166436   1.103715   2.144781   2.774248
    21  H    4.036336   2.652855   2.048175   1.015194   2.016025
    22  H    5.250684   4.128801   3.352882   2.656790   2.761622
    23  H    7.495453   6.506220   5.669655   4.992401   4.647627
    24  H    9.214743   8.204524   7.041344   6.249827   5.354075
    25  H    9.188047   8.155099   6.757442   5.914389   4.632784
    26  H    8.589277   7.592733   6.120245   5.337854   3.917853
    27  H    7.442845   6.529260   5.176720   4.572270   3.410413
    28  H    5.209165   4.228700   3.099110   2.600958   2.130315
                    6          7          8          9         10
     6  C    0.000000
     7  C    1.422534   0.000000
     8  C    2.440733   1.377490   0.000000
     9  C    2.831643   2.421705   1.413195   0.000000
    10  C    2.462596   2.797181   2.415035   1.376124   0.000000
    11  C    1.436471   2.452527   2.817286   2.436889   1.421225
    12  C    2.468955   3.752440   4.235848   3.734817   2.475103
    13  C    2.824849   4.246054   5.067894   4.861051   3.728737
    14  C    2.435410   3.757253   4.875609   5.069624   4.228049
    15  H    5.862092   5.793034   6.910142   7.967658   8.036394
    16  H    6.165993   6.432378   7.686834   8.623896   8.456066
    17  H    4.811854   4.590968   5.801192   6.997343   7.163663
    18  H    5.170900   5.407532   6.750249   7.761734   7.630758
    19  H    3.865633   4.512306   5.814429   6.520559   6.124105
    20  H    3.376850   3.499709   4.683291   5.590319   5.531846
    21  H    2.591063   2.568723   3.899124   4.934425   4.966557
    22  H    2.177929   1.085378   2.124498   3.398075   3.882180
    23  H    3.422222   2.136263   1.085858   2.168215   3.394818
    24  H    3.917529   3.400481   2.168906   1.085936   2.139259
    25  H    3.441666   3.884063   3.404895   2.140742   1.086892
    26  H    3.449050   4.616230   4.860286   4.069253   2.697797
    27  H    3.910769   5.332099   6.129265   5.829594   4.611827
    28  H    3.416451   4.638360   5.844605   6.131001   5.313733
                   11         12         13         14         15
    11  C    0.000000
    12  C    1.418738   0.000000
    13  C    2.424284   1.376860   0.000000
    14  C    2.806921   2.419331   1.410060   0.000000
    15  H    7.087286   7.566066   6.992788   5.781894   0.000000
    16  H    7.311145   7.509563   6.671793   5.423497   1.622094
    17  H    6.218258   6.862054   6.356599   5.017451   2.411677
    18  H    6.452610   6.750208   5.926235   4.520503   2.939818
    19  H    4.871117   4.951296   4.107991   2.873483   3.061041
    20  H    4.558368   5.103654   4.709983   3.611753   2.531654
    21  H    3.999582   4.730587   4.432638   3.237667   4.232711
    22  H    3.442455   4.639395   4.904844   4.133962   5.079879
    23  H    3.903102   5.321601   6.129386   5.845083   7.145145
    24  H    3.421609   4.612199   5.826120   6.129135   8.879528
    25  H    2.162902   2.689769   4.060730   4.850395   8.989851
    26  H    2.166086   1.086449   2.145100   3.409176   8.572533
    27  H    3.412145   2.140008   1.086072   2.160463   7.650428
    28  H    3.892627   3.398169   2.166507   1.085903   5.600753
                   16         17         18         19         20
    16  H    0.000000
    17  H    2.934471   0.000000
    18  H    2.394033   1.759741   0.000000
    19  H    2.575676   3.063691   2.490914   0.000000
    20  H    3.067852   2.520744   3.065637   1.769406   0.000000
    21  H    4.528017   2.456301   2.955167   2.938491   2.461106
    22  H    5.837240   3.696937   4.736152   4.254739   3.066959
    23  H    8.095221   6.001603   7.168891   6.477481   5.160174
    24  H    9.619088   7.939442   8.791490   7.572399   6.564363
    25  H    9.347704   8.201665   8.583574   6.952959   6.474777
    26  H    8.505881   7.941862   7.818518   5.953479   6.113822
    27  H    7.142973   7.148089   6.509162   4.660939   5.519469
    28  H    4.951963   4.928181   4.066025   2.569653   3.797118
                   21         22         23         24         25
    21  H    0.000000
    22  H    1.980140   0.000000
[...]
       /RESON  / : Allow strongly delocalized NBO set

 Analyzing the CI density

 Job title: NULAJYZBOLVQPQ-UHFFFAOYSA-N_conf_3                              

 Storage needed:    237860 in NPA (1073737624 available)
 GSVD:  LWork=       45640 too small for GESVD, short by       18746 words or       18746 for optimal perf.


 NATURAL POPULATIONS:  Natural atomic orbital occupancies 
                                                          
   NAO  Atom  No  lang   Type(AO)    Occupancy
 --------------------------------------------
     1    N    1  S      Cor( 1S)     1.99970
     2    N    1  S      Val( 2S)     1.43832
     3    N    1  S      Ryd( 3S)     0.00019
     4    N    1  S      Ryd( 4S)     0.00001
     5    N    1  px     Val( 2p)     1.45480
     6    N    1  px     Ryd( 3p)     0.00433
     7    N    1  py     Val( 2p)     1.62055
     8    N    1  py     Ryd( 3p)     0.00414
     9    N    1  pz     Val( 2p)     1.38788
    10    N    1  pz     Ryd( 3p)     0.00192
    11    N    1  dxy    Ryd( 3d)     0.00108
    12    N    1  dxz    Ryd( 3d)     0.00030
    13    N    1  dyz    Ryd( 3d)     0.00145
    14    N    1  dx2y2  Ryd( 3d)     0.00127
    15    N    1  dz2    Ryd( 3d)     0.00050

    16    C    2  S      Cor( 1S)     1.99937
    17    C    2  S      Val( 2S)     1.02312
    18    C    2  S      Ryd( 3S)     0.00172
    19    C    2  S      Ryd( 4S)     0.00004
    20    C    2  px     Val( 2p)     0.88690
    21    C    2  px     Ryd( 3p)     0.00552
    22    C    2  py     Val( 2p)     1.10171
    23    C    2  py     Ryd( 3p)     0.00096
    24    C    2  pz     Val( 2p)     1.24996
    25    C    2  pz     Ryd( 3p)     0.00298
    26    C    2  dxy    Ryd( 3d)     0.00124
    27    C    2  dxz    Ryd( 3d)     0.00054
    28    C    2  dyz    Ryd( 3d)     0.00112
    29    C    2  dx2y2  Ryd( 3d)     0.00118
    30    C    2  dz2    Ryd( 3d)     0.00078

    31    C    3  S      Cor( 1S)     1.99932
    32    C    3  S      Val( 2S)     1.03849
    33    C    3  S      Ryd( 3S)     0.00199
    34    C    3  S      Ryd( 4S)     0.00003
    35    C    3  px     Val( 2p)     0.86580
    36    C    3  px     Ryd( 3p)     0.00318
    37    C    3  py     Val( 2p)     1.13529
    38    C    3  py     Ryd( 3p)     0.00236
    39    C    3  pz     Val( 2p)     1.25163
    40    C    3  pz     Ryd( 3p)     0.00256
    41    C    3  dxy    Ryd( 3d)     0.00093
    42    C    3  dxz    Ryd( 3d)     0.00068
    43    C    3  dyz    Ryd( 3d)     0.00124
    44    C    3  dx2y2  Ryd( 3d)     0.00087
    45    C    3  dz2    Ryd( 3d)     0.00073

    46    N    4  S      Cor( 1S)     1.99939
    47    N    4  S      Val( 2S)     1.28145
    48    N    4  S      Ryd( 3S)     0.00094
    49    N    4  S      Ryd( 4S)     0.00002
    50    N    4  px     Val( 2p)     1.26737
    51    N    4  px     Ryd( 3p)     0.00133
    52    N    4  py     Val( 2p)     1.41224
    53    N    4  py     Ryd( 3p)     0.00243
    54    N    4  pz     Val( 2p)     1.53173
    55    N    4  pz     Ryd( 3p)     0.00432
    56    N    4  dxy    Ryd( 3d)     0.00063
    57    N    4  dxz    Ryd( 3d)     0.00069
    58    N    4  dyz    Ryd( 3d)     0.00090
    59    N    4  dx2y2  Ryd( 3d)     0.00052
    60    N    4  dz2    Ryd( 3d)     0.00057

    61    C    5  S      Cor( 1S)     1.99897
    62    C    5  S      Val( 2S)     0.83327
    63    C    5  S      Ryd( 3S)     0.00116
    64    C    5  S      Ryd( 4S)     0.00011
    65    C    5  px     Val( 2p)     0.94784
    66    C    5  px     Ryd( 3p)     0.00511
    67    C    5  py     Val( 2p)     1.03078
    68    C    5  py     Ryd( 3p)     0.00515
    69    C    5  pz     Val( 2p)     0.98513
    70    C    5  pz     Ryd( 3p)     0.00225
    71    C    5  dxy    Ryd( 3d)     0.00115
    72    C    5  dxz    Ryd( 3d)     0.00103
    73    C    5  dyz    Ryd( 3d)     0.00101
    74    C    5  dx2y2  Ryd( 3d)     0.00092
    75    C    5  dz2    Ryd( 3d)     0.00036

    76    C    6  S      Cor( 1S)     1.99900
    77    C    6  S      Val( 2S)     0.86612
    78    C    6  S      Ryd( 3S)     0.00048
    79    C    6  S      Ryd( 4S)     0.00006
    80    C    6  px     Val( 2p)     1.06312
    81    C    6  px     Ryd( 3p)     0.00480
    82    C    6  py     Val( 2p)     1.10336
    83    C    6  py     Ryd( 3p)     0.00506
    84    C    6  pz     Val( 2p)     1.00704
    85    C    6  pz     Ryd( 3p)     0.00050
    86    C    6  dxy    Ryd( 3d)     0.00074
    87    C    6  dxz    Ryd( 3d)     0.00041
    88    C    6  dyz    Ryd( 3d)     0.00111
    89    C    6  dx2y2  Ryd( 3d)     0.00061
    90    C    6  dz2    Ryd( 3d)     0.00034

    91    C    7  S      Cor( 1S)     1.99909
    92    C    7  S      Val( 2S)     0.93193
    93    C    7  S      Ryd( 3S)     0.00070
    94    C    7  S      Ryd( 4S)     0.00004
    95    C    7  px     Val( 2p)     1.15870
    96    C    7  px     Ryd( 3p)     0.00414
    97    C    7  py     Val( 2p)     1.08442
    98    C    7  py     Ryd( 3p)     0.00456
    99    C    7  pz     Val( 2p)     1.16927
   100    C    7  pz     Ryd( 3p)     0.00566
   101    C    7  dxy    Ryd( 3d)     0.00065
   102    C    7  dxz    Ryd( 3d)     0.00041
   103    C    7  dyz    Ryd( 3d)     0.00035
   104    C    7  dx2y2  Ryd( 3d)     0.00062
   105    C    7  dz2    Ryd( 3d)     0.00036

   106    C    8  S      Cor( 1S)     1.99911
   107    C    8  S      Val( 2S)     0.95448
   108    C    8  S      Ryd( 3S)     0.00066
   109    C    8  S      Ryd( 4S)     0.00003
   110    C    8  px     Val( 2p)     1.06161
   111    C    8  px     Ryd( 3p)     0.00497
   112    C    8  py     Val( 2p)     1.19202
   113    C    8  py     Ryd( 3p)     0.00490
   114    C    8  pz     Val( 2p)     1.04919
   115    C    8  pz     Ryd( 3p)     0.00307
   116    C    8  dxy    Ryd( 3d)     0.00059
   117    C    8  dxz    Ryd( 3d)     0.00082
   118    C    8  dyz    Ryd( 3d)     0.00027
   119    C    8  dx2y2  Ryd( 3d)     0.00074
   120    C    8  dz2    Ryd( 3d)     0.00036

   121    C    9  S      Cor( 1S)     1.99911
   122    C    9  S      Val( 2S)     0.95782
   123    C    9  S      Ryd( 3S)     0.00056
   124    C    9  S      Ryd( 4S)     0.00003
   125    C    9  px     Val( 2p)     1.16870
   126    C    9  px     Ryd( 3p)     0.00491
   127    C    9  py     Val( 2p)     1.09306
   128    C    9  py     Ryd( 3p)     0.00479
   129    C    9  pz     Val( 2p)     1.02362
   130    C    9  pz     Ryd( 3p)     0.00169
   131    C    9  dxy    Ryd( 3d)     0.00065
   132    C    9  dxz    Ryd( 3d)     0.00033
   133    C    9  dyz    Ryd( 3d)     0.00086
   134    C    9  dx2y2  Ryd( 3d)     0.00069
   135    C    9  dz2    Ryd( 3d)     0.00036

   136    C   10  S      Cor( 1S)     1.99908
   137    C   10  S      Val( 2S)     0.93596
   138    C   10  S      Ryd( 3S)     0.00069
   139    C   10  S      Ryd( 4S)     0.00004
   140    C   10  px     Val( 2p)     1.12544
   141    C   10  px     Ryd( 3p)     0.00448
   142    C   10  py     Val( 2p)     1.11000
   143    C   10  py     Ryd( 3p)     0.00440
   144    C   10  pz     Val( 2p)     1.15480
   145    C   10  pz     Ryd( 3p)     0.00481
   146    C   10  dxy    Ryd( 3d)     0.00071
   147    C   10  dxz    Ryd( 3d)     0.00025
   148    C   10  dyz    Ryd( 3d)     0.00044
   149    C   10  dx2y2  Ryd( 3d)     0.00059
   150    C   10  dz2    Ryd( 3d)     0.00036

   151    C   11  S      Cor( 1S)     1.99904
   152    C   11  S      Val( 2S)     0.87052
   153    C   11  S      Ryd( 3S)     0.00050
   154    C   11  S      Ryd( 4S)     0.00006
   155    C   11  px     Val( 2p)     1.09360
   156    C   11  px     Ryd( 3p)     0.00553
   157    C   11  py     Val( 2p)     1.08373
   158    C   11  py     Ryd( 3p)     0.00519
   159    C   11  pz     Val( 2p)     1.00983
   160    C   11  pz     Ryd( 3p)     0.00068
   161    C   11  dxy    Ryd( 3d)     0.00070
   162    C   11  dxz    Ryd( 3d)     0.00086
   163    C   11  dyz    Ryd( 3d)     0.00063
   164    C   11  dx2y2  Ryd( 3d)     0.00070
   165    C   11  dz2    Ryd( 3d)     0.00033

   166    C   12  S      Cor( 1S)     1.99905
   167    C   12  S      Val( 2S)     0.96010
   168    C   12  S      Ryd( 3S)     0.00059
   169    C   12  S      Ryd( 4S)     0.00005
   170    C   12  px     Val( 2p)     1.16102
   171    C   12  px     Ryd( 3p)     0.00433
   172    C   12  py     Val( 2p)     1.09106
   173    C   12  py     Ryd( 3p)     0.00428
   174    C   12  pz     Val( 2p)     0.94016
   175    C   12  pz     Ryd( 3p)     0.00234
   176    C   12  dxy    Ryd( 3d)     0.00075
   177    C   12  dxz    Ryd( 3d)     0.00049
   178    C   12  dyz    Ryd( 3d)     0.00051
   179    C   12  dx2y2  Ryd( 3d)     0.00068
   180    C   12  dz2    Ryd( 3d)     0.00035

   181    C   13  S      Cor( 1S)     1.99914
   182    C   13  S      Val( 2S)     0.96113
   183    C   13  S      Ryd( 3S)     0.00070
   184    C   13  S      Ryd( 4S)     0.00003
   185    C   13  px     Val( 2p)     1.05692
   186    C   13  px     Ryd( 3p)     0.00505
   187    C   13  py     Val( 2p)     1.20285
   188    C   13  py     Ryd( 3p)     0.00535
   189    C   13  pz     Val( 2p)     1.03670
   190    C   13  pz     Ryd( 3p)     0.00179
   191    C   13  dxy    Ryd( 3d)     0.00063
   192    C   13  dxz    Ryd( 3d)     0.00064
   193    C   13  dyz    Ryd( 3d)     0.00034
   194    C   13  dx2y2  Ryd( 3d)     0.00072
   195    C   13  dz2    Ryd( 3d)     0.00036

   196    C   14  S      Cor( 1S)     1.99908
   197    C   14  S      Val( 2S)     0.96251
   198    C   14  S      Ryd( 3S)     0.00067
   199    C   14  S      Ryd( 4S)     0.00004
   200    C   14  px     Val( 2p)     1.18376
   201    C   14  px     Ryd( 3p)     0.00380
   202    C   14  py     Val( 2p)     1.08159
   203    C   14  py     Ryd( 3p)     0.00397
   204    C   14  pz     Val( 2p)     0.98580
   205    C   14  pz     Ryd( 3p)     0.00113
   206    C   14  dxy    Ryd( 3d)     0.00054
   207    C   14  dxz    Ryd( 3d)     0.00035
   208    C   14  dyz    Ryd( 3d)     0.00071
   209    C   14  dx2y2  Ryd( 3d)     0.00077
   210    C   14  dz2    Ryd( 3d)     0.00038

   211    H   15  S      Val( 1S)     0.60707
   212    H   15  S      Ryd( 2S)     0.00145
   213    H   15  px     Ryd( 2p)     0.00037
   214    H   15  py     Ryd( 2p)     0.00055
   215    H   15  pz     Ryd( 2p)     0.00050

   216    H   16  S      Val( 1S)     0.60674
   217    H   16  S      Ryd( 2S)     0.00139
   218    H   16  px     Ryd( 2p)     0.00038
   219    H   16  py     Ryd( 2p)     0.00060
   220    H   16  pz     Ryd( 2p)     0.00045

   221    H   17  S      Val( 1S)     0.76536
   222    H   17  S      Ryd( 2S)     0.00154
   223    H   17  px     Ryd( 2p)     0.00007
   224    H   17  py     Ryd( 2p)     0.00024
   225    H   17  pz     Ryd( 2p)     0.00025

   226    H   18  S      Val( 1S)     0.75943
   227    H   18  S      Ryd( 2S)     0.00179
   228    H   18  px     Ryd( 2p)     0.00006
   229    H   18  py     Ryd( 2p)     0.00017
   230    H   18  pz     Ryd( 2p)     0.00031

   231    H   19  S      Val( 1S)     0.74762
   232    H   19  S      Ryd( 2S)     0.00184
   233    H   19  px     Ryd( 2p)     0.00009
   234    H   19  py     Ryd( 2p)     0.00020
   235    H   19  pz     Ryd( 2p)     0.00027

   236    H   20  S      Val( 1S)     0.75281
   237    H   20  S      Ryd( 2S)     0.00251
   238    H   20  px     Ryd( 2p)     0.00008
   239    H   20  py     Ryd( 2p)     0.00016
   240    H   20  pz     Ryd( 2p)     0.00031

   241    H   21  S      Val( 1S)     0.56264
   242    H   21  S      Ryd( 2S)     0.00390
   243    H   21  px     Ryd( 2p)     0.00019
   244    H   21  py     Ryd( 2p)     0.00053
   245    H   21  pz     Ryd( 2p)     0.00052

   246    H   22  S      Val( 1S)     0.77656
   247    H   22  S      Ryd( 2S)     0.00105
   248    H   22  px     Ryd( 2p)     0.00025
   249    H   22  py     Ryd( 2p)     0.00020
   250    H   22  pz     Ryd( 2p)     0.00022

   251    H   23  S      Val( 1S)     0.76699
   252    H   23  S      Ryd( 2S)     0.00078
   253    H   23  px     Ryd( 2p)     0.00007
   254    H   23  py     Ryd( 2p)     0.00041
   255    H   23  pz     Ryd( 2p)     0.00016

   256    H   24  S      Val( 1S)     0.76605
   257    H   24  S      Ryd( 2S)     0.00076
   258    H   24  px     Ryd( 2p)     0.00035
   259    H   24  py     Ryd( 2p)     0.00013
   260    H   24  pz     Ryd( 2p)     0.00014

   261    H   25  S      Val( 1S)     0.77235
   262    H   25  S      Ryd( 2S)     0.00103
   263    H   25  px     Ryd( 2p)     0.00029
   264    H   25  py     Ryd( 2p)     0.00016
   265    H   25  pz     Ryd( 2p)     0.00019

   266    H   26  S      Val( 1S)     0.75211
   267    H   26  S      Ryd( 2S)     0.00113
   268    H   26  px     Ryd( 2p)     0.00030
   269    H   26  py     Ryd( 2p)     0.00017
   270    H   26  pz     Ryd( 2p)     0.00011

   271    H   27  S      Val( 1S)     0.74834
   272    H   27  S      Ryd( 2S)     0.00075
   273    H   27  px     Ryd( 2p)     0.00006
   274    H   27  py     Ryd( 2p)     0.00041
   275    H   27  pz     Ryd( 2p)     0.00014

   276    H   28  S      Val( 1S)     0.74636
   277    H   28  S      Ryd( 2S)     0.00078
   278    H   28  px     Ryd( 2p)     0.00032
   279    H   28  py     Ryd( 2p)     0.00015
   280    H   28  pz     Ryd( 2p)     0.00013

 WARNING:  1 low occupancy (<1.9990e) core orbital  found on  C    5
           1 low occupancy (<1.9990e) core orbital  found on  C    6


 Summary of Natural Population Analysis:                  
                                                          
                                       Natural Population 
                Natural  -----------------------------------------------
    Atom  No    Charge         Core      Valence    Rydberg      Total
 -----------------------------------------------------------------------
      N    1   -0.91643      1.99970     5.90154    0.01518     7.91643
      C    2   -0.27714      1.99937     4.26169    0.01608     6.27714
      C    3   -0.30510      1.99932     4.29121    0.01458     6.30510
      N    4   -0.50452      1.99939     5.49279    0.01235     7.50452
      C    5    0.18574      1.99897     3.79703    0.01826     5.81426
      C    6   -0.05273      1.99900     4.03964    0.01409     6.05273
      C    7   -0.36089      1.99909     4.34431    0.01749     6.36089
      C    8   -0.27281      1.99911     4.25729    0.01641     6.27281
      C    9   -0.25720      1.99911     4.24320    0.01489     6.25720
      C   10   -0.34205      1.99908     4.32620    0.01678     6.34205
      C   11   -0.07189      1.99904     4.05767    0.01518     6.07189
      C   12   -0.16576      1.99905     4.15234    0.01437     6.16576
      C   13   -0.27235      1.99914     4.25760    0.01561     6.27235
      C   14   -0.22510      1.99908     4.21366    0.01236     6.22510
      H   15    0.39005      0.00000     0.60707    0.00288     0.60995
      H   16    0.39045      0.00000     0.60674    0.00281     0.60955
      H   17    0.23254      0.00000     0.76536    0.00210     0.76746
      H   18    0.23824      0.00000     0.75943    0.00233     0.76176
      H   19    0.25000      0.00000     0.74762    0.00239     0.75000
      H   20    0.24413      0.00000     0.75281    0.00306     0.75587
      H   21    0.43222      0.00000     0.56264    0.00514     0.56778
      H   22    0.22172      0.00000     0.77656    0.00172     0.77828
      H   23    0.23160      0.00000     0.76699    0.00141     0.76840
      H   24    0.23257      0.00000     0.76605    0.00138     0.76743
      H   25    0.22598      0.00000     0.77235    0.00167     0.77402
      H   26    0.24617      0.00000     0.75211    0.00172     0.75383
      H   27    0.25030      0.00000     0.74834    0.00136     0.74970
      H   28    0.25226      0.00000     0.74636    0.00139     0.74774
 =======================================================================
   * Total *   -0.00000     27.98843    71.76660    0.24497   100.00000

                                 Natural Population      
 --------------------------------------------------------
   Core                      27.98843 ( 99.9587% of  28)
   Valence                   71.76660 ( 99.6758% of  72)
   Natural Minimal Basis     99.75503 ( 99.7550% of 100)
   Natural Rydberg Basis      0.24497 (  0.2450% of 100)
 --------------------------------------------------------

    Atom  No          Natural Electron Configuration
 ----------------------------------------------------------------------------
      N    1      [core]2S( 1.44)2p( 4.46)3p( 0.01)
      C    2      [core]2S( 1.02)2p( 3.24)3p( 0.01)
      C    3      [core]2S( 1.04)2p( 3.25)3p( 0.01)
      N    4      [core]2S( 1.28)2p( 4.21)3p( 0.01)
      C    5      [core]2S( 0.83)2p( 2.96)3p( 0.01)
      C    6      [core]2S( 0.87)2p( 3.17)3p( 0.01)
      C    7      [core]2S( 0.93)2p( 3.41)3p( 0.01)
      C    8      [core]2S( 0.95)2p( 3.30)3p( 0.01)
      C    9      [core]2S( 0.96)2p( 3.29)3p( 0.01)
      C   10      [core]2S( 0.94)2p( 3.39)3p( 0.01)
      C   11      [core]2S( 0.87)2p( 3.19)3p( 0.01)
      C   12      [core]2S( 0.96)2p( 3.19)3p( 0.01)
      C   13      [core]2S( 0.96)2p( 3.30)3p( 0.01)
      C   14      [core]2S( 0.96)2p( 3.25)3p( 0.01)
      H   15            1S( 0.61)
      H   16            1S( 0.61)
      H   17            1S( 0.77)
      H   18            1S( 0.76)
      H   19            1S( 0.75)
      H   20            1S( 0.75)
      H   21            1S( 0.56)
      H   22            1S( 0.78)
      H   23            1S( 0.77)
      H   24            1S( 0.77)
      H   25            1S( 0.77)
      H   26            1S( 0.75)
      H   27            1S( 0.75)
      H   28            1S( 0.75)


 NBO analysis skipped by request.
 1\1\GINC-CN34\SP\RB3LYP TD-FC\6-31G(d,p)\C12H14N2\QDUEZ\11-Jul-2024\0\
 \# TD(NStates=10, Root=1) B3LYP/6-31G** SCRF=(Solvent=water) volume po
 p=NPA density=current Geom=AllCheck Guess=Read\\NULAJYZBOLVQPQ-UHFFFAO
 YSA-N_conf_3\\0,1\N,0,-4.92945586,-0.0517456401,-0.188151651\C,0,-3.58
 32526329,-0.6245655672,-0.2495144404\C,0,-2.4450057141,0.3606582511,0.
 0522009912\N,0,-1.1544455337,-0.3107145633,-0.0226515119\C,0,0.0340527
 427,0.3769873286,0.2041238419\C,0,1.2893507669,-0.3029041094,-0.023335
 2945\C,0,1.3592631697,-1.6568369161,-0.4484300245\C,0,2.5711666205,-2.
 2742401531,-0.680147144\C,0,3.7790455062,-1.5645747129,-0.4908211909\C
 ,0,3.7468435678,-0.2582504147,-0.0550750865\C,0,2.5159978399,0.4066688
 905,0.1992297454\C,0,2.4839939256,1.7460766718,0.6771816063\C,0,1.2750
 413608,2.3536375293,0.9212470388\C,0,0.0543038646,1.6833512575,0.68011
 2942\H,0,-4.9916308566,0.7350704511,-0.832249033\H,0,-5.0867727089,0.3
 411735883,0.738465142\H,0,-3.4385035098,-1.0478131026,-1.2523207191\H,
 0,-3.5259108624,-1.4612327204,0.4561897192\H,0,-2.5792820817,0.7599711
 058,1.0650952453\H,0,-2.5087547336,1.217789438,-0.6404925899\H,0,-1.10
 22211776,-0.9725213223,-0.7864952822\H,0,0.4486330014,-2.2345753314,-0
 .5682819057\H,0,2.5972599413,-3.3114321852,-1.0004122472\H,0,4.7297223
 875,-2.0549438925,-0.6785006493\H,0,4.6720145415,0.2886880342,0.107485
 017\H,0,3.4199025492,2.2698265752,0.8481549221\H,0,1.2437530766,3.3752
 497807,1.2898991076\H,0,-0.8751091907,2.2112017292,0.8571189719\\Versi
 on=EM64L-G16RevA.03\State=1-A\HF=-575.2445917\RMSD=4.838e-09\Dipole=-2
 .4021456,1.472434,0.1131494\Quadrupole=-2.8412894,3.5038801,-0.6625908
 ,-2.3711915,0.202725,2.4142541\PG=C01 [X(C12H14N2)]\\@


 A leading authority is anyone who has guessed right more than once.
 -- Frank A. Clark
 Job cpu time:       0 days  1 hours 25 minutes 28.0 seconds.
 Elapsed time:       0 days  0 hours 22 minutes  8.0 seconds.
 File lengths (MBytes):  RWF=    665 Int=      0 D2E=      0 Chk=     42 Scr=      1
 Normal termination of Gaussian 16 at Thu Jul 11 22:05:27 2024.
