 Entering Gaussian System, Link 0=g16
 Initial command:
 /opt/sw/arch/manual/gaussian/G16_A03/g16/l1.exe "/scratch/1032075.jesse.materianova.be/Gau-4342.inp" -scrdir="/scratch/1032075.jesse.materianova.be/"
 Entering Link 1 = /opt/sw/arch/manual/gaussian/G16_A03/g16/l1.exe PID=      4343.
  
 Copyright (c) 1988,1990,1992,1993,1995,1998,2003,2009,2016,
            Gaussian, Inc.  All Rights Reserved.
  
 This is part of the Gaussian(R) 16 program.  It is based on
 the Gaussian(R) 09 system (copyright 2009, Gaussian, Inc.),
 the Gaussian(R) 03 system (copyright 2003, Gaussian, Inc.),
 the Gaussian(R) 98 system (copyright 1998, Gaussian, Inc.),
 the Gaussian(R) 94 system (copyright 1995, Gaussian, Inc.),
 the Gaussian 92(TM) system (copyright 1992, Gaussian, Inc.),
 the Gaussian 90(TM) system (copyright 1990, Gaussian, Inc.),
 the Gaussian 88(TM) system (copyright 1988, Gaussian, Inc.),
 the Gaussian 86(TM) system (copyright 1986, Carnegie Mellon
 University), and the Gaussian 82(TM) system (copyright 1983,
 Carnegie Mellon University). Gaussian is a federally registered
 trademark of Gaussian, Inc.
  
 This software contains proprietary and confidential information,
 including trade secrets, belonging to Gaussian, Inc.
  
 This software is provided under written license and may be
 used, copied, transmitted, or stored only in accord with that
 written license.
  
 The following legend is applicable only to US Government
 contracts under FAR:
  
                    RESTRICTED RIGHTS LEGEND
  
 Use, reproduction and disclosure by the US Government is
 subject to restrictions as set forth in subparagraphs (a)
 and (c) of the Commercial Computer Software - Restricted
 Rights clause in FAR 52.227-19.
  
 Gaussian, Inc.
 340 Quinnipiac St., Bldg. 40, Wallingford CT 06492
  
  
 ---------------------------------------------------------------
 Warning -- This program may not be used in any manner that
 competes with the business of Gaussian, Inc. or will provide
 assistance to any competitor of Gaussian, Inc.  The licensee
 of this program is prohibited from giving any competitor of
 Gaussian, Inc. access to this program.  By using this program,
 the user acknowledges that Gaussian, Inc. is engaged in the
 business of creating and licensing software in the field of
 computational chemistry and represents and warrants to the
 licensee that it is not a competitor of Gaussian, Inc. and that
 it will not use this program in any manner prohibited above.
 ---------------------------------------------------------------
  

 Cite this work as:
 Gaussian 16, Revision A.03,
 M. J. Frisch, G. W. Trucks, H. B. Schlegel, G. E. Scuseria, 
 M. A. Robb, J. R. Cheeseman, G. Scalmani, V. Barone, 
 G. A. Petersson, H. Nakatsuji, X. Li, M. Caricato, A. V. Marenich, 
 J. Bloino, B. G. Janesko, R. Gomperts, B. Mennucci, H. P. Hratchian, 
 J. V. Ortiz, A. F. Izmaylov, J. L. Sonnenberg, D. Williams-Young, 
 F. Ding, F. Lipparini, F. Egidi, J. Goings, B. Peng, A. Petrone, 
 T. Henderson, D. Ranasinghe, V. G. Zakrzewski, J. Gao, N. Rega, 
 G. Zheng, W. Liang, M. Hada, M. Ehara, K. Toyota, R. Fukuda, 
 J. Hasegawa, M. Ishida, T. Nakajima, Y. Honda, O. Kitao, H. Nakai, 
 T. Vreven, K. Throssell, J. A. Montgomery, Jr., J. E. Peralta, 
 F. Ogliaro, M. J. Bearpark, J. J. Heyd, E. N. Brothers, K. N. Kudin, 
 V. N. Staroverov, T. A. Keith, R. Kobayashi, J. Normand, 
 K. Raghavachari, A. P. Rendell, J. C. Burant, S. S. Iyengar, 
 J. Tomasi, M. Cossi, J. M. Millam, M. Klene, C. Adamo, R. Cammi, 
 J. W. Ochterski, R. L. Martin, K. Morokuma, O. Farkas, 
 J. B. Foresman, and D. J. Fox, Gaussian, Inc., Wallingford CT, 2016.
 
 ******************************************
 Gaussian 16:  EM64L-G16RevA.03 25-Dec-2016
                11-Jul-2024 
 ******************************************
 %nprocshared=4
 Will use up to    4 processors via shared memory.
 %mem=8GB
 %Chk=NULAJYZBOLVQPQ-UHFFFAOYSA-N_conf_1_0.chk
 -------------------------------------------------------
 # opt=CalcFc B3LYP/6-31G** SCRF=(Solvent=water) scf=xqc
 -------------------------------------------------------
 1/10=4,18=20,19=15,26=3,38=1/1,3;
 2/9=110,12=2,17=6,18=5,40=1/2;
 3/5=1,6=6,7=101,11=2,25=1,30=1,70=2201,71=2,72=1,74=-5,140=1/1,2,3;
 4//1;
 5/5=2,8=3,13=1,38=5,53=1/2,8;
 8/6=4,10=90,11=11/1;
 11/6=1,8=1,9=11,15=111,16=1/1,2,10;
 10/6=1,13=1/2;
 6/7=2,8=2,9=2,10=2,28=1/1;
 7/10=1,18=20,25=1/1,2,3,16;
 1/10=4,18=20,19=15,26=3/3(2);
 2/9=110/2;
 99//99;
 2/9=110/2;
 3/5=1,6=6,7=101,11=2,25=1,30=1,70=2205,71=1,72=1,74=-5/1,2,3;
 4/5=5,16=3,69=1/1;
 5/5=2,8=3,13=1,38=5,53=1/2,8;
 7//1,2,3,16;
 1/18=20,19=15,26=3/3(-5);
 2/9=110/2;
 6/7=2,8=2,9=2,10=2,19=2,28=1/1;
 99/9=1/99;
 ----------------------------------
 NULAJYZBOLVQPQ-UHFFFAOYSA-N_conf_1
 ----------------------------------
 Symbolic Z-matrix:
 Charge =  0 Multiplicity = 1
 N                    -3.74306   1.52287  -0.39293 
 C                    -3.65223   0.16922   0.17079 
 C                    -2.2066   -0.29952   0.43513 
 N                    -1.38559  -0.1284   -0.7764 
 C                    -0.08552  -0.67864  -0.60197 
 C                     1.02494   0.08994  -0.14335 
 C                     0.96882   1.47621   0.14173 
 C                     2.0904    2.18358   0.58262 
 C                     3.30046   1.52583   0.7535 
 C                     3.38807   0.1606    0.48844 
 C                     2.26923  -0.56565   0.04694 
 C                     2.38209  -1.94236  -0.19948 
 C                     1.28459  -2.68611  -0.62302 
 C                     0.05908  -2.05858  -0.81402 
 H                    -3.16799   2.16088   0.15315 
 H                    -3.34372   1.49875  -1.33177 
 H                    -4.13985  -0.52263  -0.52539 
 H                    -4.21776   0.13638   1.10803 
 H                    -2.23624  -1.351     0.74575 
 H                    -1.78176   0.28713   1.25942 
 H                    -1.30755   0.85646  -1.01019 
 H                     0.04191   2.02945   0.0274 
 H                     2.01488   3.24762   0.79091 
 H                     4.17615   2.07133   1.09477 
 H                     4.34457  -0.33784   0.6325 
 H                     3.33323  -2.45116  -0.05685 
 H                     1.38421  -3.75238  -0.80571 
 H                    -0.79477  -2.642    -1.15 
 

 GradGradGradGradGradGradGradGradGradGradGradGradGradGradGradGradGradGrad
 Berny optimization.
 Initialization pass.
                           ----------------------------
                           !    Initial Parameters    !
                           ! (Angstroms and Degrees)  !
 --------------------------                            --------------------------
 ! Name  Definition              Value          Derivative Info.                !
 --------------------------------------------------------------------------------
 ! R1    R(1,2)                  1.4691         calculate D2E/DX2 analytically  !
 ! R2    R(1,15)                 1.0178         calculate D2E/DX2 analytically  !
 ! R3    R(1,16)                 1.0205         calculate D2E/DX2 analytically  !
 ! R4    R(2,3)                  1.5425         calculate D2E/DX2 analytically  !
 ! R5    R(2,17)                 1.0959         calculate D2E/DX2 analytically  !
 ! R6    R(2,18)                 1.0951         calculate D2E/DX2 analytically  !
 ! R7    R(3,4)                  1.4735         calculate D2E/DX2 analytically  !
 ! R8    R(3,19)                 1.0968         calculate D2E/DX2 analytically  !
 ! R9    R(3,20)                 1.0973         calculate D2E/DX2 analytically  !
 ! R10   R(4,5)                  1.4224         calculate D2E/DX2 analytically  !
 ! R11   R(4,21)                 1.0152         calculate D2E/DX2 analytically  !
 ! R12   R(5,6)                  1.4262         calculate D2E/DX2 analytically  !
 ! R13   R(5,14)                 1.4036         calculate D2E/DX2 analytically  !
 ! R14   R(6,7)                  1.4164         calculate D2E/DX2 analytically  !
 ! R15   R(6,11)                 1.4192         calculate D2E/DX2 analytically  !
 ! R16   R(7,8)                  1.3974         calculate D2E/DX2 analytically  !
 ! R17   R(7,22)                 1.0855         calculate D2E/DX2 analytically  !
 ! R18   R(8,9)                  1.3878         calculate D2E/DX2 analytically  !
 ! R19   R(8,23)                 1.0869         calculate D2E/DX2 analytically  !
 ! R20   R(9,10)                 1.3935         calculate D2E/DX2 analytically  !
 ! R21   R(9,24)                 1.0867         calculate D2E/DX2 analytically  !
 ! R22   R(10,11)                1.4051         calculate D2E/DX2 analytically  !
 ! R23   R(10,25)                1.0882         calculate D2E/DX2 analytically  !
 ! R24   R(11,12)                1.4031         calculate D2E/DX2 analytically  !
 ! R25   R(12,13)                1.3918         calculate D2E/DX2 analytically  !
 ! R26   R(12,26)                1.0881         calculate D2E/DX2 analytically  !
 ! R27   R(13,14)                1.39           calculate D2E/DX2 analytically  !
 ! R28   R(13,27)                1.0864         calculate D2E/DX2 analytically  !
 ! R29   R(14,28)                1.0874         calculate D2E/DX2 analytically  !
 ! A1    A(2,1,15)             109.6801         calculate D2E/DX2 analytically  !
 ! A2    A(2,1,16)             107.88           calculate D2E/DX2 analytically  !
 ! A3    A(15,1,16)            106.6961         calculate D2E/DX2 analytically  !
 ! A4    A(1,2,3)              113.8081         calculate D2E/DX2 analytically  !
 ! A5    A(1,2,17)             108.0835         calculate D2E/DX2 analytically  !
 ! A6    A(1,2,18)             108.9099         calculate D2E/DX2 analytically  !
 ! A7    A(3,2,17)             109.5124         calculate D2E/DX2 analytically  !
 ! A8    A(3,2,18)             109.1586         calculate D2E/DX2 analytically  !
 ! A9    A(17,2,18)            107.155          calculate D2E/DX2 analytically  !
 ! A10   A(2,3,4)              110.2426         calculate D2E/DX2 analytically  !
 ! A11   A(2,3,19)             108.3323         calculate D2E/DX2 analytically  !
 ! A12   A(2,3,20)             109.2149         calculate D2E/DX2 analytically  !
 ! A13   A(4,3,19)             111.0541         calculate D2E/DX2 analytically  !
 ! A14   A(4,3,20)             109.8662         calculate D2E/DX2 analytically  !
 ! A15   A(19,3,20)            108.0745         calculate D2E/DX2 analytically  !
 ! A16   A(3,4,5)              111.3157         calculate D2E/DX2 analytically  !
 ! A17   A(3,4,21)             110.1714         calculate D2E/DX2 analytically  !
 ! A18   A(5,4,21)             109.4657         calculate D2E/DX2 analytically  !
 ! A19   A(4,5,6)              122.8591         calculate D2E/DX2 analytically  !
 ! A20   A(4,5,14)             117.1257         calculate D2E/DX2 analytically  !
 ! A21   A(6,5,14)             119.8786         calculate D2E/DX2 analytically  !
 ! A22   A(5,6,7)              124.1453         calculate D2E/DX2 analytically  !
 ! A23   A(5,6,11)             118.4761         calculate D2E/DX2 analytically  !
 ! A24   A(7,6,11)             117.3783         calculate D2E/DX2 analytically  !
 ! A25   A(6,7,8)              121.8123         calculate D2E/DX2 analytically  !
 ! A26   A(6,7,22)             120.7613         calculate D2E/DX2 analytically  !
 ! A27   A(8,7,22)             117.426          calculate D2E/DX2 analytically  !
 ! A28   A(7,8,9)              119.9172         calculate D2E/DX2 analytically  !
 ! A29   A(7,8,23)             120.0179         calculate D2E/DX2 analytically  !
 ! A30   A(9,8,23)             120.0648         calculate D2E/DX2 analytically  !
 ! A31   A(8,9,10)             119.7182         calculate D2E/DX2 analytically  !
 ! A32   A(8,9,24)             120.223          calculate D2E/DX2 analytically  !
 ! A33   A(10,9,24)            120.0586         calculate D2E/DX2 analytically  !
 ! A34   A(9,10,11)            121.072          calculate D2E/DX2 analytically  !
 ! A35   A(9,10,25)            118.6108         calculate D2E/DX2 analytically  !
 ! A36   A(11,10,25)           120.3171         calculate D2E/DX2 analytically  !
 ! A37   A(6,11,10)            120.099          calculate D2E/DX2 analytically  !
 ! A38   A(6,11,12)            120.0134         calculate D2E/DX2 analytically  !
 ! A39   A(10,11,12)           119.8869         calculate D2E/DX2 analytically  !
 ! A40   A(11,12,13)           120.9532         calculate D2E/DX2 analytically  !
 ! A41   A(11,12,26)           120.4044         calculate D2E/DX2 analytically  !
 ! A42   A(13,12,26)           118.6416         calculate D2E/DX2 analytically  !
 ! A43   A(12,13,14)           119.7225         calculate D2E/DX2 analytically  !
 ! A44   A(12,13,27)           120.222          calculate D2E/DX2 analytically  !
 ! A45   A(14,13,27)           120.0554         calculate D2E/DX2 analytically  !
 ! A46   A(5,14,13)            120.9252         calculate D2E/DX2 analytically  !
 ! A47   A(5,14,28)            119.5565         calculate D2E/DX2 analytically  !
 ! A48   A(13,14,28)           119.5087         calculate D2E/DX2 analytically  !
 ! D1    D(15,1,2,3)           -48.8464         calculate D2E/DX2 analytically  !
 ! D2    D(15,1,2,17)         -170.725          calculate D2E/DX2 analytically  !
 ! D3    D(15,1,2,18)           73.1809         calculate D2E/DX2 analytically  !
 ! D4    D(16,1,2,3)            67.0017         calculate D2E/DX2 analytically  !
 ! D5    D(16,1,2,17)          -54.8769         calculate D2E/DX2 analytically  !
 ! D6    D(16,1,2,18)         -170.971          calculate D2E/DX2 analytically  !
 ! D7    D(1,2,3,4)            -52.0648         calculate D2E/DX2 analytically  !
 ! D8    D(1,2,3,19)          -173.7708         calculate D2E/DX2 analytically  !
 ! D9    D(1,2,3,20)            68.7385         calculate D2E/DX2 analytically  !
 ! D10   D(17,2,3,4)            69.0195         calculate D2E/DX2 analytically  !
 ! D11   D(17,2,3,19)          -52.6865         calculate D2E/DX2 analytically  !
 ! D12   D(17,2,3,20)         -170.1772         calculate D2E/DX2 analytically  !
 ! D13   D(18,2,3,4)          -173.9546         calculate D2E/DX2 analytically  !
 ! D14   D(18,2,3,19)           64.3394         calculate D2E/DX2 analytically  !
 ! D15   D(18,2,3,20)          -53.1513         calculate D2E/DX2 analytically  !
 ! D16   D(2,3,4,5)           -174.0411         calculate D2E/DX2 analytically  !
 ! D17   D(2,3,4,21)            64.3289         calculate D2E/DX2 analytically  !
 ! D18   D(19,3,4,5)           -53.9636         calculate D2E/DX2 analytically  !
 ! D19   D(19,3,4,21)         -175.5936         calculate D2E/DX2 analytically  !
 ! D20   D(20,3,4,5)            65.5464         calculate D2E/DX2 analytically  !
 ! D21   D(20,3,4,21)          -56.0836         calculate D2E/DX2 analytically  !
 ! D22   D(3,4,5,6)            -92.5477         calculate D2E/DX2 analytically  !
 ! D23   D(3,4,5,14)            83.1913         calculate D2E/DX2 analytically  !
 ! D24   D(21,4,5,6)            29.492          calculate D2E/DX2 analytically  !
 ! D25   D(21,4,5,14)         -154.7691         calculate D2E/DX2 analytically  !
 ! D26   D(4,5,6,7)             -2.2182         calculate D2E/DX2 analytically  !
 ! D27   D(4,5,6,11)           177.5873         calculate D2E/DX2 analytically  !
 ! D28   D(14,5,6,7)          -177.8443         calculate D2E/DX2 analytically  !
 ! D29   D(14,5,6,11)            1.9612         calculate D2E/DX2 analytically  !
 ! D30   D(4,5,14,13)         -177.882          calculate D2E/DX2 analytically  !
 ! D31   D(4,5,14,28)            3.2514         calculate D2E/DX2 analytically  !
 ! D32   D(6,5,14,13)           -2.0098         calculate D2E/DX2 analytically  !
 ! D33   D(6,5,14,28)          179.1236         calculate D2E/DX2 analytically  !
 ! D34   D(5,6,7,8)           -179.6611         calculate D2E/DX2 analytically  !
 ! D35   D(5,6,7,22)             0.5852         calculate D2E/DX2 analytically  !
 ! D36   D(11,6,7,8)             0.5314         calculate D2E/DX2 analytically  !
 ! D37   D(11,6,7,22)         -179.2223         calculate D2E/DX2 analytically  !
 ! D38   D(5,6,11,10)          179.5395         calculate D2E/DX2 analytically  !
 ! D39   D(5,6,11,12)           -0.7746         calculate D2E/DX2 analytically  !
 ! D40   D(7,6,11,10)           -0.6418         calculate D2E/DX2 analytically  !
 ! D41   D(7,6,11,12)          179.0441         calculate D2E/DX2 analytically  !
 ! D42   D(6,7,8,9)             -0.0988         calculate D2E/DX2 analytically  !
 ! D43   D(6,7,8,23)           179.8739         calculate D2E/DX2 analytically  !
 ! D44   D(22,7,8,9)           179.6628         calculate D2E/DX2 analytically  !
 ! D45   D(22,7,8,23)           -0.3645         calculate D2E/DX2 analytically  !
 ! D46   D(7,8,9,10)            -0.2328         calculate D2E/DX2 analytically  !
 ! D47   D(7,8,9,24)           179.9127         calculate D2E/DX2 analytically  !
 ! D48   D(23,8,9,10)          179.7946         calculate D2E/DX2 analytically  !
 ! D49   D(23,8,9,24)           -0.06           calculate D2E/DX2 analytically  !
 ! D50   D(8,9,10,11)            0.1136         calculate D2E/DX2 analytically  !
 ! D51   D(8,9,10,25)         -179.7461         calculate D2E/DX2 analytically  !
 ! D52   D(24,9,10,11)         179.9684         calculate D2E/DX2 analytically  !
 ! D53   D(24,9,10,25)           0.1087         calculate D2E/DX2 analytically  !
 ! D54   D(9,10,11,6)            0.3366         calculate D2E/DX2 analytically  !
 ! D55   D(9,10,11,12)        -179.3497         calculate D2E/DX2 analytically  !
 ! D56   D(25,10,11,6)        -179.8061         calculate D2E/DX2 analytically  !
 ! D57   D(25,10,11,12)          0.5076         calculate D2E/DX2 analytically  !
 ! D58   D(6,11,12,13)          -0.4078         calculate D2E/DX2 analytically  !
 ! D59   D(6,11,12,26)         179.9248         calculate D2E/DX2 analytically  !
 ! D60   D(10,11,12,13)        179.2788         calculate D2E/DX2 analytically  !
 ! D61   D(10,11,12,26)         -0.3886         calculate D2E/DX2 analytically  !
 ! D62   D(11,12,13,14)          0.4069         calculate D2E/DX2 analytically  !
 ! D63   D(11,12,13,27)       -179.7032         calculate D2E/DX2 analytically  !
 ! D64   D(26,12,13,14)       -179.92           calculate D2E/DX2 analytically  !
 ! D65   D(26,12,13,27)         -0.03           calculate D2E/DX2 analytically  !
 ! D66   D(12,13,14,5)           0.8133         calculate D2E/DX2 analytically  !
 ! D67   D(12,13,14,28)        179.6804         calculate D2E/DX2 analytically  !
 ! D68   D(27,13,14,5)        -179.0769         calculate D2E/DX2 analytically  !
 ! D69   D(27,13,14,28)         -0.2098         calculate D2E/DX2 analytically  !
 --------------------------------------------------------------------------------
 Trust Radius=3.00D-01 FncErr=1.00D-07 GrdErr=1.00D-06 EigMax=2.50D+02 EigMin=1.00D-04
 Number of steps in this run=    156 maximum allowed number of steps=    168.
 GradGradGradGradGradGradGradGradGradGradGradGradGradGradGradGradGradGrad

                          Input orientation:                          
 ---------------------------------------------------------------------
 Center     Atomic      Atomic             Coordinates (Angstroms)
 Number     Number       Type             X           Y           Z
 ---------------------------------------------------------------------
      1          7           0       -3.743056    1.522871   -0.392927
      2          6           0       -3.652231    0.169218    0.170787
      3          6           0       -2.206601   -0.299520    0.435127
      4          7           0       -1.385586   -0.128398   -0.776400
      5          6           0       -0.085522   -0.678644   -0.601974
      6          6           0        1.024940    0.089942   -0.143348
      7          6           0        0.968815    1.476215    0.141725
      8          6           0        2.090405    2.183584    0.582621
      9          6           0        3.300456    1.525829    0.753505
     10          6           0        3.388070    0.160603    0.488438
     11          6           0        2.269229   -0.565654    0.046939
     12          6           0        2.382088   -1.942362   -0.199484
     13          6           0        1.284585   -2.686107   -0.623021
     14          6           0        0.059085   -2.058582   -0.814016
     15          1           0       -3.167990    2.160875    0.153147
     16          1           0       -3.343717    1.498755   -1.331768
     17          1           0       -4.139855   -0.522626   -0.525394
     18          1           0       -4.217759    0.136383    1.108033
     19          1           0       -2.236236   -1.351002    0.745750
     20          1           0       -1.781755    0.287134    1.259417
     21          1           0       -1.307549    0.856461   -1.010188
     22          1           0        0.041908    2.029450    0.027402
     23          1           0        2.014885    3.247624    0.790913
     24          1           0        4.176149    2.071335    1.094774
     25          1           0        4.344575   -0.337843    0.632500
     26          1           0        3.333232   -2.451162   -0.056855
     27          1           0        1.384207   -3.752377   -0.805709
     28          1           0       -0.794772   -2.642002   -1.149996
 ---------------------------------------------------------------------
                    Distance matrix (angstroms):
                    1          2          3          4          5
     1  N    0.000000
     2  C    1.469149   0.000000
     3  C    2.523385   1.542542   0.000000
     4  N    2.903689   2.474555   1.473482   0.000000
     5  C    4.274099   3.746658   2.391295   1.422448   0.000000
     6  C    4.984913   4.688379   3.305930   2.501812   1.426250
     7  C    4.742337   4.802412   3.650012   2.993483   2.511599
     8  C    5.951260   6.099602   4.965060   4.390297   3.785534
     9  C    7.136202   7.107729   5.810417   5.199622   4.261675
    10  C    7.313380   7.047469   5.613813   4.946830   3.736198
    11  C    6.379889   5.968171   4.500509   3.771837   2.445140
    12  C    7.040075   6.403818   4.915052   4.221216   2.801443
    13  C    6.560916   5.758053   4.359342   3.700704   2.430545
    14  C    5.240266   4.439234   3.128577   2.411244   1.403603
    15  H    1.017815   2.049756   2.656562   3.046604   4.258484
    16  H    1.020527   2.029907   2.765636   2.605827   3.986163
    17  H    2.087834   1.095944   2.170218   2.793639   4.058056
    18  H    2.097754   1.095139   2.165079   3.412097   4.545742
    19  H    3.438929   2.155619   1.096805   2.129627   2.625643
    20  H    2.846750   2.167418   1.097320   2.115224   2.697167
    21  H    2.599386   2.713769   2.057553   1.015231   2.004129
    22  H    3.841777   4.138561   3.262842   2.709271   2.783186
    23  H    6.126184   6.478993   5.525374   5.041547   4.665557
    24  H    8.076378   8.108967   6.840730   6.266819   5.348194
    25  H    8.362029   8.026157   6.554261   5.904541   4.611489
    26  H    8.122791   7.464243   5.963336   5.308505   3.889326
    27  H    7.368002   6.457412   5.133791   4.561341   3.413129
    28  H    5.158653   4.220486   3.161187   2.608992   2.158273
                    6          7          8          9         10
     6  C    0.000000
     7  C    1.416393   0.000000
     8  C    2.458776   1.397398   0.000000
     9  C    2.836210   2.411075   1.387828   0.000000
    10  C    2.447147   2.775578   2.405256   1.393477   0.000000
    11  C    1.419250   2.422661   2.806642   2.436588   1.405053
    12  C    2.444435   3.714893   4.209536   3.712134   2.430576
    13  C    2.829125   4.243757   5.081024   4.868158   3.709952
    14  C    2.449250   3.773041   4.906406   5.080513   4.207530
    15  H    4.685866   4.193095   5.275953   6.527213   6.862611
    16  H    4.741546   4.557370   5.802030   6.963772   7.100757
    17  H    5.215008   5.526203   6.882398   7.822402   7.626553
    18  H    5.390176   5.443294   6.652820   7.653744   7.631062
    19  H    3.674519   4.316290   5.589251   6.239486   5.829578
    20  H    3.143910   3.198247   4.364424   5.255396   5.228528
    21  H    2.603742   2.625421   3.980501   4.979195   4.977845
    22  H    2.181101   1.085494   2.127995   3.376240   3.860303
    23  H    3.438574   2.157220   1.086863   2.149109   3.392171
    24  H    3.922880   3.398450   2.150635   1.086683   2.153975
    25  H    3.435828   3.863601   3.382508   2.139649   1.088166
    26  H    3.434080   4.588485   4.840911   4.058844   2.668645
    27  H    3.915509   5.329949   6.136922   5.827746   4.582761
    28  H    3.433397   4.662456   5.883238   6.145326   5.294830
                   11         12         13         14         15
    11  C    0.000000
    12  C    1.403135   0.000000
    13  C    2.432014   1.391781   0.000000
    14  C    2.802645   2.405723   1.390007   0.000000
    15  H    6.083469   6.911170   6.627300   5.399373   0.000000
    16  H    6.137408   6.775559   6.279854   4.949926   1.635315
    17  H    6.434732   6.682635   5.840782   4.480353   2.933618
    18  H    6.610581   7.041929   6.421743   5.177213   2.472325
    19  H    4.626481   4.751010   4.006523   2.863920   3.681389
    20  H    4.313679   4.943343   4.667567   3.631832   2.579997
    21  H    3.991650   4.701497   4.406682   3.225468   2.552663
    22  H    3.419928   4.615541   4.919734   4.173762   3.215047
    23  H    3.893491   5.296384   6.143428   5.878501   5.333850
    24  H    3.418773   4.582960   5.826252   6.135952   7.404800
    25  H    2.168372   2.667964   4.056380   4.839295   7.931709
    26  H    2.167491   1.088070   2.138387   3.383409   7.973762
    27  H    3.415477   2.153934   1.086385   2.150572   7.523859
    28  H    3.889985   3.389013   2.145548   1.087352   5.513436
                   16         17         18         19         20
    16  H    0.000000
    17  H    2.317338   0.000000
    18  H    2.927906   1.763078   0.000000
    19  H    3.696445   2.434292   2.503995   0.000000
    20  H    3.259139   3.066251   2.445354   1.775922   0.000000
    21  H    2.159151   3.187297   3.670789   2.969625   2.387491
    22  H    3.686656   4.930093   4.785000   4.139254   2.807004
    23  H    6.023199   7.336775   6.973251   6.262702   4.837197
    24  H    7.922395   8.860559   8.614053   7.276874   6.221504
    25  H    8.145015   8.565069   8.588631   6.659309   6.189955
    26  H    7.861863   7.732129   8.066587   5.733543   5.949280
    27  H    7.085505   6.405086   7.082859   4.613160   5.532243
    28  H    4.865802   4.008923   4.953278   2.708940   3.919088
                   21         22         23         24         25
    21  H    0.000000
    22  H    2.067253   0.000000
    23  H    4.472158   2.441216   0.000000
    24  H    5.998145   4.270010   2.479325   0.000000
    25  H    6.005938   4.948046   4.278799   2.458902   0.000000
    26  H    5.778068   5.560198   5.910407   4.742334   2.442159
    27  H    5.341231   5.993778   7.207425   6.732191   4.742496
    28  H    3.538606   4.889660   6.808010   7.208648   5.907566
                   26         27         28
    26  H    0.000000
    27  H    2.460212   0.000000
    28  H    4.274553   2.469699   0.000000
 Stoichiometry    C12H14N2
 Framework group  C1[X(C12H14N2)]
 Deg. of freedom    78
 Full point group                 C1      NOp   1
 Largest Abelian subgroup         C1      NOp   1
 Largest concise Abelian subgroup C1      NOp   1
                         Standard orientation:                         
 ---------------------------------------------------------------------
 Center     Atomic      Atomic             Coordinates (Angstroms)
 Number     Number       Type             X           Y           Z
 ---------------------------------------------------------------------
      1          7           0        4.095530   -1.225897   -0.338767
      2          6           0        3.865642   -0.043865    0.502868
      3          6           0        2.374371    0.269916    0.741802
      4          7           0        1.654680    0.333654   -0.542383
      5          6           0        0.308447    0.755381   -0.360275
      6          6           0       -0.771277   -0.158932   -0.180237
      7          6           0       -0.632620   -1.568253   -0.207793
      8          6           0       -1.726713   -2.419646   -0.032264
      9          6           0       -2.991117   -1.887536    0.177995
     10          6           0       -3.160935   -0.505013    0.217622
     11          6           0       -2.070933    0.364722    0.045486
     12          6           0       -2.268015    1.752729    0.103643
     13          6           0       -1.201787    2.634162   -0.048954
     14          6           0        0.077148    2.136894   -0.270695
     15          1           0        3.532663   -2.003039    0.000613
     16          1           0        3.761873   -1.010812   -1.278920
     17          1           0        4.347989    0.814919    0.022322
     18          1           0        4.360518   -0.193857    1.468233
     19          1           0        2.304331    1.222768    1.280456
     20          1           0        1.937761   -0.512307    1.375528
     21          1           0        1.666283   -0.574697   -0.995657
     22          1           0        0.338426   -2.027642   -0.363770
     23          1           0       -1.587280   -3.497148   -0.060883
     24          1           0       -3.845639   -2.545004    0.313675
     25          1           0       -4.159438   -0.107333    0.387757
     26          1           0       -3.261852    2.161103    0.275149
     27          1           0       -1.367145    3.706631    0.002988
     28          1           0        0.906769    2.828777   -0.394630
 ---------------------------------------------------------------------
 Rotational constants (GHZ):           1.1510066           0.4676275           0.3456365
 Standard basis: 6-31G(d,p) (6D, 7F)
 There are   280 symmetry adapted cartesian basis functions of A   symmetry.
 There are   280 symmetry adapted basis functions of A   symmetry.
   280 basis functions,   490 primitive gaussians,   280 cartesian basis functions
    50 alpha electrons       50 beta electrons
       nuclear repulsion energy       836.1452606139 Hartrees.
 NAtoms=   28 NActive=   28 NUniq=   28 SFac= 1.00D+00 NAtFMM=   60 NAOKFM=F Big=F
 Integral buffers will be    131072 words long.
 Raffenetti 2 integral format.
 Two-electron integral symmetry is turned on.
 Force inversion solution in PCM.
 ------------------------------------------------------------------------------
 Polarizable Continuum Model (PCM)
 =================================
 Model                : PCM.
 Atomic radii         : UFF (Universal Force Field).
 Polarization charges : Total charges.
 Charge compensation  : None.
 Solution method      : Matrix inversion.
 Cavity type          : Scaled VdW (van der Waals Surface) (Alpha=1.100).
 Cavity algorithm     : GePol (No added spheres)
                        Default sphere list used, NSphG=   28.
                        Lebedev-Laikov grids with approx.  5.0 points / Ang**2.
                        Smoothing algorithm: York/Karplus (Gamma=1.0000).
                        Polarization charges: spherical gaussians, with
                                              point-specific exponents (IZeta= 3).
                        Self-potential: point-specific (ISelfS= 7).
                        Self-field    : sphere-specific E.n sum rule (ISelfD= 2).
 1st derivatives      : Analytical E(r).r(x)/FMM algorithm (CHGder, D1EAlg=3).
                        Cavity 1st derivative terms included.
 2nd derivatives      : Analytical E(r).r(xy)/FMM algorithm (CHGder, D2EAlg=3).
                        Cavity 2nd derivative terms included.
 Solvent              : Water, Eps=  78.355300 Eps(inf)=   1.777849
 ------------------------------------------------------------------------------
 One-electron integrals computed using PRISM.
 NBasis=   280 RedAO= T EigKep=  2.56D-04  NBF=   280
 NBsUse=   280 1.00D-06 EigRej= -1.00D+00 NBFU=   280
 ExpMin= 1.61D-01 ExpMax= 4.17D+03 ExpMxC= 6.27D+02 IAcc=3 IRadAn=         5 AccDes= 0.00D+00
 Harris functional with IExCor=  402 and IRadAn=       5 diagonalized for initial guess.
 HarFok:  IExCor=  402 AccDes= 0.00D+00 IRadAn=         5 IDoV= 1 UseB2=F ITyADJ=14
 ICtDFT=  3500011 ScaDFX=  1.000000  1.000000  1.000000  1.000000
 FoFCou: FMM=F IPFlag=           0 FMFlag=      100000 FMFlg1=           0
         NFxFlg=           0 DoJE=T BraDBF=F KetDBF=T FulRan=T
         wScrn=  0.000000 ICntrl=       500 IOpCl=  0 I1Cent=   200000004 NGrid=           0
         NMat0=    1 NMatS0=      1 NMatT0=    0 NMatD0=    1 NMtDS0=    0 NMtDT0=    0
 Petite list used in FoFCou.
 Keep R1 ints in memory in canonical form, NReq=784933199.
 Requested convergence on RMS density matrix=1.00D-08 within  32 cycles.
 Requested convergence on MAX density matrix=1.00D-06.
 Requested convergence on             energy=1.00D-06.
 No special actions if energy rises.
 Inv3:  Mode=1 IEnd=    12979200.
 Iteration    1 A*A^-1 deviation from unit magnitude is 9.10D-15 for    201.
 Iteration    1 A*A^-1 deviation from orthogonality  is 3.88D-15 for   1231    422.
 Iteration    1 A^-1*A deviation from unit magnitude is 9.10D-15 for    201.
 Iteration    1 A^-1*A deviation from orthogonality  is 5.20D-15 for   1444    643.
 Error on total polarization charges =  0.01018
 SCF Done:  E(RB3LYP) =  -575.231847063     A.U. after   13 cycles
            NFock= 13  Conv=0.25D-08     -V/T= 2.0096
 QCSCF skips out because SCF is already converged.
 DoSCS=F DFT=T ScalE2(SS,OS)=  1.000000  1.000000
 Range of M.O.s used for correlation:     1   280
 NBasis=   280 NAE=    50 NBE=    50 NFC=     0 NFV=     0
 NROrb=    280 NOA=    50 NOB=    50 NVA=   230 NVB=   230

 **** Warning!!: The largest alpha MO coefficient is  0.10964032D+02

 Symmetrizing basis deriv contribution to polar:
 IMax=3 JMax=2 DiffMx= 0.00D+00
 G2DrvN: will do    29 centers at a time, making    1 passes.
 Calling FoFCou, ICntrl=  3107 FMM=F I1Cent=   0 AccDes= 0.00D+00.
 NEqPCM:  Using equilibrium solvation (IEInf=0, Eps=  78.3553, EpsInf=   1.7778)
 G2PCM: DoFxE=T DoFxN=T DoGrad=T DoDP/DQ/DG/TGxP=FFFF NFrqRd=   0 IEInf=0 SqF1=F DoCFld=F IF1Alg=4.
 End of G2Drv F.D. properties file   721 does not exist.
 End of G2Drv F.D. properties file   722 does not exist.
 End of G2Drv F.D. properties file   788 does not exist.
          IDoAtm=1111111111111111111111111111
 NEqPCM:  Using equilibrium solvation (IEInf=0, Eps=  78.3553, EpsInf=   1.7778)
          Differentiating once with respect to nuclear coordinates.
 Keep R1 ints in memory in canonical form, NReq=784944751.
          There are    87 degrees of freedom in the 1st order CPHF.  IDoFFX=6 NUNeed=     0.
     81 vectors produced by pass  0 Test12= 1.32D-14 1.15D-09 XBig12= 1.30D-01 1.55D-01.
 AX will form    81 AO Fock derivatives at one time.
     81 vectors produced by pass  1 Test12= 1.32D-14 1.15D-09 XBig12= 2.10D-02 3.07D-02.
     81 vectors produced by pass  2 Test12= 1.32D-14 1.15D-09 XBig12= 2.31D-04 2.61D-03.
     81 vectors produced by pass  3 Test12= 1.32D-14 1.15D-09 XBig12= 8.20D-07 1.12D-04.
     81 vectors produced by pass  4 Test12= 1.32D-14 1.15D-09 XBig12= 9.22D-10 3.12D-06.
     52 vectors produced by pass  5 Test12= 1.32D-14 1.15D-09 XBig12= 8.27D-13 1.16D-07.
      9 vectors produced by pass  6 Test12= 1.32D-14 1.15D-09 XBig12= 7.99D-16 2.39D-09.
 InvSVY:  IOpt=1 It=  1 EMax= 6.66D-16
 Solved reduced A of dimension   466 with    87 vectors.
 End of Minotr F.D. properties file   721 does not exist.
 End of Minotr F.D. properties file   722 does not exist.
 End of Minotr F.D. properties file   788 does not exist.

 **********************************************************************

            Population analysis using the SCF density.

 **********************************************************************

 Orbital symmetries:
       Occupied  (A) (A) (A) (A) (A) (A) (A) (A) (A) (A) (A) (A)
                 (A) (A) (A) (A) (A) (A) (A) (A) (A) (A) (A) (A)
                 (A) (A) (A) (A) (A) (A) (A) (A) (A) (A) (A) (A)
                 (A) (A) (A) (A) (A) (A) (A) (A) (A) (A) (A) (A)
                 (A) (A)
       Virtual   (A) (A) (A) (A) (A) (A) (A) (A) (A) (A) (A) (A)
                 (A) (A) (A) (A) (A) (A) (A) (A) (A) (A) (A) (A)
                 (A) (A) (A) (A) (A) (A) (A) (A) (A) (A) (A) (A)
                 (A) (A) (A) (A) (A) (A) (A) (A) (A) (A) (A) (A)
                 (A) (A) (A) (A) (A) (A) (A) (A) (A) (A) (A) (A)
                 (A) (A) (A) (A) (A) (A) (A) (A) (A) (A) (A) (A)
                 (A) (A) (A) (A) (A) (A) (A) (A) (A) (A) (A) (A)
                 (A) (A) (A) (A) (A) (A) (A) (A) (A) (A) (A) (A)
                 (A) (A) (A) (A) (A) (A) (A) (A) (A) (A) (A) (A)
                 (A) (A) (A) (A) (A) (A) (A) (A) (A) (A) (A) (A)
                 (A) (A) (A) (A) (A) (A) (A) (A) (A) (A) (A) (A)
                 (A) (A) (A) (A) (A) (A) (A) (A) (A) (A) (A) (A)
                 (A) (A) (A) (A) (A) (A) (A) (A) (A) (A) (A) (A)
                 (A) (A) (A) (A) (A) (A) (A) (A) (A) (A) (A) (A)
                 (A) (A) (A) (A) (A) (A) (A) (A) (A) (A) (A) (A)
                 (A) (A) (A) (A) (A) (A) (A) (A) (A) (A) (A) (A)
                 (A) (A) (A) (A) (A) (A) (A) (A) (A) (A) (A) (A)
                 (A) (A) (A) (A) (A) (A) (A) (A) (A) (A) (A) (A)
                 (A) (A) (A) (A) (A) (A) (A) (A) (A) (A) (A) (A)
                 (A) (A)
 The electronic state is 1-A.
 Alpha  occ. eigenvalues --  -14.33107 -14.31490 -10.22343 -10.20872 -10.20582
 Alpha  occ. eigenvalues --  -10.19948 -10.19639 -10.19496 -10.19175 -10.19105
 Alpha  occ. eigenvalues --  -10.19012 -10.18922 -10.18575 -10.18548  -0.92878
 Alpha  occ. eigenvalues --   -0.87965  -0.86350  -0.81713  -0.76469  -0.74596
 Alpha  occ. eigenvalues --   -0.72033  -0.69509  -0.62821  -0.61320  -0.60431
 Alpha  occ. eigenvalues --   -0.58147  -0.52747  -0.51058  -0.49970  -0.49001
 Alpha  occ. eigenvalues --   -0.47030  -0.45243  -0.44544  -0.43357  -0.42557
 Alpha  occ. eigenvalues --   -0.41631  -0.40186  -0.39315  -0.38525  -0.37498
 Alpha  occ. eigenvalues --   -0.37137  -0.35443  -0.33898  -0.33389  -0.32745
 Alpha  occ. eigenvalues --   -0.28770  -0.25215  -0.24904  -0.23664  -0.20033
 Alpha virt. eigenvalues --   -0.04417  -0.00715   0.03127   0.06552   0.09360
 Alpha virt. eigenvalues --    0.10281   0.11424   0.12483   0.13271   0.14243
 Alpha virt. eigenvalues --    0.15399   0.16666   0.17363   0.17639   0.18378
 Alpha virt. eigenvalues --    0.18673   0.19620   0.20465   0.21744   0.23686
 Alpha virt. eigenvalues --    0.25565   0.26037   0.26733   0.27177   0.28209
 Alpha virt. eigenvalues --    0.31565   0.32194   0.33373   0.35968   0.39849
 Alpha virt. eigenvalues --    0.47079   0.49560   0.49791   0.51133   0.51952
 Alpha virt. eigenvalues --    0.52521   0.53903   0.54942   0.55373   0.55780
 Alpha virt. eigenvalues --    0.57285   0.58013   0.58306   0.59347   0.59526
 Alpha virt. eigenvalues --    0.60173   0.60848   0.61258   0.61719   0.61890
 Alpha virt. eigenvalues --    0.62652   0.62960   0.64627   0.66457   0.68168
 Alpha virt. eigenvalues --    0.68968   0.69729   0.72908   0.73259   0.75152
 Alpha virt. eigenvalues --    0.76761   0.79239   0.80967   0.81180   0.82050
 Alpha virt. eigenvalues --    0.82362   0.83359   0.83927   0.84232   0.86290
 Alpha virt. eigenvalues --    0.87557   0.88044   0.88699   0.90311   0.91608
 Alpha virt. eigenvalues --    0.92597   0.93957   0.94708   0.95965   0.96702
 Alpha virt. eigenvalues --    0.99146   1.00066   1.00341   1.04287   1.04823
 Alpha virt. eigenvalues --    1.05347   1.07489   1.12569   1.14818   1.15303
 Alpha virt. eigenvalues --    1.19153   1.21262   1.23321   1.25386   1.25629
 Alpha virt. eigenvalues --    1.26938   1.29441   1.33276   1.33668   1.35587
 Alpha virt. eigenvalues --    1.37873   1.38963   1.40712   1.41515   1.42916
 Alpha virt. eigenvalues --    1.44201   1.44286   1.45596   1.47118   1.49953
 Alpha virt. eigenvalues --    1.51888   1.56134   1.56774   1.66941   1.71497
 Alpha virt. eigenvalues --    1.74281   1.75738   1.76373   1.78356   1.81353
 Alpha virt. eigenvalues --    1.82240   1.84715   1.85942   1.86815   1.88020
 Alpha virt. eigenvalues --    1.89511   1.90141   1.90763   1.93273   1.94486
 Alpha virt. eigenvalues --    1.95219   1.95679   1.98144   1.98350   1.99448
 Alpha virt. eigenvalues --    2.00188   2.00546   2.02012   2.04550   2.05696
 Alpha virt. eigenvalues --    2.08212   2.11721   2.12845   2.15028   2.17818
 Alpha virt. eigenvalues --    2.20279   2.23233   2.24595   2.25856   2.26720
 Alpha virt. eigenvalues --    2.27947   2.29703   2.30699   2.31284   2.32206
 Alpha virt. eigenvalues --    2.33419   2.33653   2.35625   2.36734   2.38713
 Alpha virt. eigenvalues --    2.40350   2.41757   2.44313   2.44521   2.46015
 Alpha virt. eigenvalues --    2.46565   2.46847   2.50198   2.50939   2.51679
 Alpha virt. eigenvalues --    2.54335   2.55448   2.57014   2.58988   2.59726
 Alpha virt. eigenvalues --    2.60889   2.62374   2.63555   2.64416   2.66063
 Alpha virt. eigenvalues --    2.67869   2.71167   2.71895   2.72893   2.75210
 Alpha virt. eigenvalues --    2.76225   2.80026   2.81613   2.83741   2.85755
 Alpha virt. eigenvalues --    2.86734   2.91423   2.94434   2.97580   2.98977
 Alpha virt. eigenvalues --    3.03331   3.06244   3.11726   3.17811   3.18839
 Alpha virt. eigenvalues --    3.23715   3.24466   3.25052   3.26453   3.29992
 Alpha virt. eigenvalues --    3.31914   3.34171   3.37034   3.39753   3.41822
 Alpha virt. eigenvalues --    3.46435   3.48085   3.52449   3.58191   3.79170
 Alpha virt. eigenvalues --    3.87593   3.97458   4.11370   4.13564   4.14261
 Alpha virt. eigenvalues --    4.15997   4.16586   4.23921   4.36660   4.41465
 Alpha virt. eigenvalues --    4.43536   4.51982   4.62751   4.64831   4.93337
          Condensed to atoms (all electrons):
               1          2          3          4          5          6
     1  N    6.761636   0.324899  -0.062408  -0.012502   0.000559   0.000106
     2  C    0.324899   4.826898   0.351607  -0.045592   0.003894   0.000051
     3  C   -0.062408   0.351607   4.928406   0.288763  -0.046209  -0.001371
     4  N   -0.012502  -0.045592   0.288763   6.973801   0.303962  -0.085677
     5  C    0.000559   0.003894  -0.046209   0.303962   4.940864   0.380972
     6  C    0.000106   0.000051  -0.001371  -0.085677   0.380972   4.896960
     7  C   -0.000260  -0.000064  -0.000586  -0.012149  -0.101170   0.432000
     8  C   -0.000002  -0.000001   0.000005   0.000897   0.008232  -0.011459
     9  C    0.000000   0.000000   0.000002  -0.000021  -0.000876  -0.038278
    10  C   -0.000000  -0.000000  -0.000003  -0.000126   0.013623  -0.023207
    11  C    0.000000   0.000005  -0.000013   0.006587   0.000925   0.453135
    12  C    0.000000  -0.000000   0.000031   0.000288  -0.070094  -0.042110
    13  C   -0.000000   0.000003  -0.000125   0.005352  -0.005794  -0.041605
    14  C   -0.000048   0.000081  -0.010127  -0.078771   0.511909  -0.026822
    15  H    0.346614  -0.046359  -0.001785  -0.001381  -0.000047   0.000008
    16  H    0.344399  -0.040749  -0.007040   0.007327   0.000226   0.000047
    17  H   -0.039813   0.383661  -0.042670   0.001869   0.000026   0.000003
    18  H   -0.040608   0.381361  -0.044334   0.003780  -0.000056   0.000011
    19  H    0.004919  -0.022935   0.368149  -0.039181   0.000087  -0.000229
    20  H   -0.004471  -0.041700   0.371172  -0.060059   0.001141   0.005154
    21  H    0.014358  -0.006276  -0.041272   0.326602  -0.031392  -0.008850
    22  H    0.000457  -0.000079   0.000725   0.003213  -0.009169  -0.041778
    23  H   -0.000000   0.000000  -0.000001   0.000004  -0.000181   0.002691
    24  H    0.000000  -0.000000   0.000000   0.000000   0.000014   0.001111
    25  H   -0.000000   0.000000  -0.000000   0.000001  -0.000151   0.004193
    26  H    0.000000   0.000000   0.000000   0.000005   0.000780   0.004269
    27  H    0.000000  -0.000000  -0.000003  -0.000140   0.003387   0.001397
    28  H   -0.000001  -0.000172   0.000156  -0.000871  -0.037522   0.005269
               7          8          9         10         11         12
     1  N   -0.000260  -0.000002   0.000000  -0.000000   0.000000   0.000000
     2  C   -0.000064  -0.000001   0.000000  -0.000000   0.000005  -0.000000
     3  C   -0.000586   0.000005   0.000002  -0.000003  -0.000013   0.000031
     4  N   -0.012149   0.000897  -0.000021  -0.000126   0.006587   0.000288
     5  C   -0.101170   0.008232  -0.000876   0.013623   0.000925  -0.070094
     6  C    0.432000  -0.011459  -0.038278  -0.023207   0.453135  -0.042110
     7  C    5.137447   0.504238  -0.024417  -0.073051  -0.047163   0.016205
     8  C    0.504238   4.858509   0.502951  -0.027778  -0.033437  -0.000581
     9  C   -0.024417   0.502951   4.877353   0.501442  -0.011806   0.008597
    10  C   -0.073051  -0.027778   0.501442   5.062821   0.448299  -0.090536
    11  C   -0.047163  -0.033437  -0.011806   0.448299   4.762706   0.451367
    12  C    0.016205  -0.000581   0.008597  -0.090536   0.451367   5.084545
    13  C   -0.001517   0.000081  -0.000434   0.008180  -0.000427   0.494400
    14  C    0.010336  -0.000301   0.000058  -0.000229  -0.047442  -0.030900
    15  H   -0.000121  -0.000003   0.000000  -0.000000   0.000000  -0.000000
    16  H   -0.000040  -0.000001   0.000000   0.000000  -0.000000  -0.000000
    17  H   -0.000002  -0.000000   0.000000   0.000000  -0.000000   0.000000
    18  H   -0.000003  -0.000000   0.000000   0.000000  -0.000000  -0.000000
    19  H   -0.000005   0.000002  -0.000000  -0.000000   0.000011   0.000002
    20  H    0.001974  -0.000232   0.000005   0.000004  -0.000414  -0.000021
    21  H    0.004608  -0.000072   0.000003  -0.000008   0.000015   0.000001
    22  H    0.360124  -0.035695   0.004528   0.000652   0.004682  -0.000185
    23  H   -0.034373   0.371307  -0.039660   0.004325   0.001030   0.000009
    24  H    0.004487  -0.039556   0.368511  -0.033636   0.002678  -0.000212
    25  H    0.000473   0.004742  -0.043320   0.371656  -0.039916  -0.008630
    26  H   -0.000208   0.000014   0.000278  -0.008234  -0.040096   0.370490
    27  H    0.000019  -0.000001   0.000003  -0.000241   0.002285  -0.033104
    28  H   -0.000149   0.000001  -0.000000   0.000009   0.000511   0.004926
              13         14         15         16         17         18
     1  N   -0.000000  -0.000048   0.346614   0.344399  -0.039813  -0.040608
     2  C    0.000003   0.000081  -0.046359  -0.040749   0.383661   0.381361
     3  C   -0.000125  -0.010127  -0.001785  -0.007040  -0.042670  -0.044334
     4  N    0.005352  -0.078771  -0.001381   0.007327   0.001869   0.003780
     5  C   -0.005794   0.511909  -0.000047   0.000226   0.000026  -0.000056
     6  C   -0.041605  -0.026822   0.000008   0.000047   0.000003   0.000011
     7  C   -0.001517   0.010336  -0.000121  -0.000040  -0.000002  -0.000003
     8  C    0.000081  -0.000301  -0.000003  -0.000001  -0.000000  -0.000000
     9  C   -0.000434   0.000058   0.000000   0.000000   0.000000   0.000000
    10  C    0.008180  -0.000229  -0.000000   0.000000   0.000000   0.000000
    11  C   -0.000427  -0.047442   0.000000  -0.000000  -0.000000  -0.000000
    12  C    0.494400  -0.030900  -0.000000  -0.000000   0.000000  -0.000000
    13  C    4.897902   0.476002  -0.000000   0.000000   0.000001   0.000000
    14  C    0.476002   4.950090  -0.000001  -0.000022   0.000031  -0.000018
    15  H   -0.000000  -0.000001   0.472184  -0.034080   0.006367  -0.003061
    16  H    0.000000  -0.000022  -0.034080   0.470387  -0.005880   0.006410
    17  H    0.000001   0.000031   0.006367  -0.005880   0.615315  -0.032296
    18  H    0.000000  -0.000018  -0.003061   0.006410  -0.032296   0.622116
    19  H   -0.000409   0.002828   0.000022  -0.000136  -0.004678   0.000431
    20  H    0.000057   0.000579   0.004400   0.000632   0.006195  -0.001359
    21  H   -0.000217   0.005007   0.001827   0.002812  -0.000070   0.000156
    22  H    0.000005   0.000064   0.000651  -0.000080   0.000001  -0.000004
    23  H   -0.000000   0.000002  -0.000001  -0.000000  -0.000000  -0.000000
    24  H    0.000004  -0.000001  -0.000000   0.000000   0.000000   0.000000
    25  H    0.000329   0.000006   0.000000  -0.000000  -0.000000  -0.000000
    26  H   -0.042004   0.004363   0.000000  -0.000000  -0.000000  -0.000000
    27  H    0.364326  -0.033723   0.000000  -0.000000  -0.000000   0.000000
    28  H   -0.039213   0.361696   0.000000   0.000006   0.000102   0.000007
              19         20         21         22         23         24
     1  N    0.004919  -0.004471   0.014358   0.000457  -0.000000   0.000000
     2  C   -0.022935  -0.041700  -0.006276  -0.000079   0.000000  -0.000000
     3  C    0.368149   0.371172  -0.041272   0.000725  -0.000001   0.000000
     4  N   -0.039181  -0.060059   0.326602   0.003213   0.000004   0.000000
     5  C    0.000087   0.001141  -0.031392  -0.009169  -0.000181   0.000014
     6  C   -0.000229   0.005154  -0.008850  -0.041778   0.002691   0.001111
     7  C   -0.000005   0.001974   0.004608   0.360124  -0.034373   0.004487
     8  C    0.000002  -0.000232  -0.000072  -0.035695   0.371307  -0.039556
     9  C   -0.000000   0.000005   0.000003   0.004528  -0.039660   0.368511
    10  C   -0.000000   0.000004  -0.000008   0.000652   0.004325  -0.033636
    11  C    0.000011  -0.000414   0.000015   0.004682   0.001030   0.002678
    12  C    0.000002  -0.000021   0.000001  -0.000185   0.000009  -0.000212
    13  C   -0.000409   0.000057  -0.000217   0.000005  -0.000000   0.000004
    14  C    0.002828   0.000579   0.005007   0.000064   0.000002  -0.000001
    15  H    0.000022   0.004400   0.001827   0.000651  -0.000001  -0.000000
    16  H   -0.000136   0.000632   0.002812  -0.000080  -0.000000   0.000000
    17  H   -0.004678   0.006195  -0.000070   0.000001  -0.000000   0.000000
    18  H    0.000431  -0.001359   0.000156  -0.000004  -0.000000   0.000000
    19  H    0.608232  -0.041678   0.006626   0.000025   0.000000   0.000000
    20  H   -0.041678   0.669434  -0.005574  -0.000543  -0.000004  -0.000000
    21  H    0.006626  -0.005574   0.475443   0.006772   0.000002  -0.000000
    22  H    0.000025  -0.000543   0.006772   0.613753  -0.005558  -0.000207
    23  H    0.000000  -0.000004   0.000002  -0.005558   0.602380  -0.005425
    24  H    0.000000  -0.000000  -0.000000  -0.000207  -0.005425   0.605516
    25  H   -0.000000  -0.000000   0.000000   0.000018  -0.000197  -0.005528
    26  H   -0.000000   0.000000  -0.000000   0.000002   0.000000  -0.000013
    27  H    0.000011  -0.000001   0.000004   0.000000  -0.000000  -0.000000
    28  H    0.000640   0.000255  -0.000031  -0.000010  -0.000000   0.000000
              25         26         27         28
     1  N   -0.000000   0.000000   0.000000  -0.000001
     2  C    0.000000   0.000000  -0.000000  -0.000172
     3  C   -0.000000   0.000000  -0.000003   0.000156
     4  N    0.000001   0.000005  -0.000140  -0.000871
     5  C   -0.000151   0.000780   0.003387  -0.037522
     6  C    0.004193   0.004269   0.001397   0.005269
     7  C    0.000473  -0.000208   0.000019  -0.000149
     8  C    0.004742   0.000014  -0.000001   0.000001
     9  C   -0.043320   0.000278   0.000003  -0.000000
    10  C    0.371656  -0.008234  -0.000241   0.000009
    11  C   -0.039916  -0.040096   0.002285   0.000511
    12  C   -0.008630   0.370490  -0.033104   0.004926
    13  C    0.000329  -0.042004   0.364326  -0.039213
    14  C    0.000006   0.004363  -0.033723   0.361696
    15  H    0.000000   0.000000   0.000000   0.000000
    16  H   -0.000000  -0.000000  -0.000000   0.000006
    17  H   -0.000000  -0.000000  -0.000000   0.000102
    18  H   -0.000000  -0.000000   0.000000   0.000007
    19  H   -0.000000  -0.000000   0.000011   0.000640
    20  H   -0.000000   0.000000  -0.000001   0.000255
    21  H    0.000000  -0.000000   0.000004  -0.000031
    22  H    0.000018   0.000002   0.000000  -0.000010
    23  H   -0.000197   0.000000  -0.000000  -0.000000
    24  H   -0.005528  -0.000013  -0.000000   0.000000
    25  H    0.607702   0.005481  -0.000011  -0.000000
    26  H    0.005481   0.613592  -0.005226  -0.000199
    27  H   -0.000011  -0.005226   0.605175  -0.005843
    28  H   -0.000000  -0.000199  -0.005843   0.614936
 Mulliken charges:
               1
     1  N   -0.637832
     2  C   -0.068530
     3  C   -0.051070
     4  N   -0.585981
     5  C    0.132059
     6  C    0.134009
     7  C   -0.176634
     8  C   -0.101860
     9  C   -0.104920
    10  C   -0.153962
    11  C    0.086477
    12  C   -0.154489
    13  C   -0.114897
    14  C   -0.094651
    15  H    0.254765
    16  H    0.255781
    17  H    0.111839
    18  H    0.107466
    19  H    0.117266
    20  H    0.095051
    21  H    0.249529
    22  H    0.097634
    23  H    0.103648
    24  H    0.102258
    25  H    0.103155
    26  H    0.096706
    27  H    0.101685
    28  H    0.095498
 Sum of Mulliken charges =  -0.00000
 Mulliken charges with hydrogens summed into heavy atoms:
               1
     1  N   -0.127287
     2  C    0.150774
     3  C    0.161247
     4  N   -0.336452
     5  C    0.132059
     6  C    0.134009
     7  C   -0.078999
     8  C    0.001788
     9  C   -0.002662
    10  C   -0.050807
    11  C    0.086477
    12  C   -0.057782
    13  C   -0.013211
    14  C    0.000847
 APT charges:
               1
     1  N   -0.305594
     2  C   -1.154147
     3  C   -0.459317
     4  N   -0.481393
     5  C   -0.332700
     6  C   -0.406234
     7  C   -0.580403
     8  C   -0.417467
     9  C   -0.461248
    10  C   -0.507623
    11  C   -0.443722
    12  C   -0.506429
    13  C   -0.459355
    14  C   -0.442520
    15  H    0.182858
    16  H    0.191031
    17  H    0.501195
    18  H    0.602475
    19  H    0.401390
    20  H    0.174769
    21  H    0.375696
    22  H    0.323973
    23  H    0.649600
    24  H    0.849032
    25  H    0.735324
    26  H    0.716741
    27  H    0.734131
    28  H    0.519935
 Sum of APT charges =  -0.00000
 APT charges with hydrogens summed into heavy atoms:
               1
     1  N    0.068295
     2  C   -0.050477
     3  C    0.116842
     4  N   -0.105696
     5  C   -0.332700
     6  C   -0.406234
     7  C   -0.256430
     8  C    0.232133
     9  C    0.387783
    10  C    0.227701
    11  C   -0.443722
    12  C    0.210312
    13  C    0.274776
    14  C    0.077415
 Electronic spatial extent (au):  <R**2>=           3184.2987
 Charge=             -0.0000 electrons
 Dipole moment (field-independent basis, Debye):
    X=             -1.4252    Y=             -0.8327    Z=              0.7263  Tot=              1.8034
 Quadrupole moment (field-independent basis, Debye-Ang):
   XX=            -88.6330   YY=            -73.8093   ZZ=            -85.0593
   XY=              2.5370   XZ=              0.7726   YZ=              1.7207
 Traceless Quadrupole moment (field-independent basis, Debye-Ang):
   XX=             -6.1325   YY=              8.6912   ZZ=             -2.5587
   XY=              2.5370   XZ=              0.7726   YZ=              1.7207
 Octapole moment (field-independent basis, Debye-Ang**2):
  XXX=            -96.3720  YYY=             -4.5523  ZZZ=             -2.1865  XYY=             -7.0313
  XXY=             21.5695  XXZ=             15.6637  XZZ=             18.6148  YZZ=             -4.1496
  YYZ=              1.0431  XYZ=              1.5467
 Hexadecapole moment (field-independent basis, Debye-Ang**3):
 XXXX=          -3263.6368 YYYY=          -1083.5024 ZZZZ=           -172.6751 XXXY=            159.9182
 XXXZ=             18.2757 YYYX=              3.6513 YYYZ=              1.5288 ZZZX=             -5.9837
 ZZZY=              6.9928 XXYY=           -672.5581 XXZZ=           -511.8296 YYZZ=           -248.9581
 XXYZ=             -6.1926 YYXZ=             -3.6421 ZZXY=            -12.5007
 N-N= 8.361452606139D+02 E-N=-3.005756494675D+03  KE= 5.697894220280D+02
  Exact polarizability:   0.000   0.000   0.000   0.000   0.000   0.000
 Approx polarizability: 270.950  18.359 307.522 -24.417   1.020 105.961
 D2PCM: PCM CHGder 2nd derivatives, FixD1E=F FixD2E=F DoIter=F DoCFld=F I1PDM=0
 Calling FoFJK, ICntrl=    100147 FMM=F ISym2X=0 I1Cent= 0 IOpClX= 0 NMat=1 NMatS=1 NMatT=0.
 ***** Axes restored to original set *****
 -------------------------------------------------------------------
 Center     Atomic                   Forces (Hartrees/Bohr)
 Number     Number              X              Y              Z
 -------------------------------------------------------------------
      1        7          -0.003515231   -0.002447722   -0.003851459
      2        6           0.005935686    0.002146028   -0.000025558
      3        6          -0.014379848    0.006296422   -0.001646431
      4        7           0.004781978   -0.006485668    0.000278218
      5        6          -0.005123146   -0.020427113   -0.003606898
      6        6          -0.005570469    0.007915250   -0.002202002
      7        6           0.005683074    0.015378216    0.004339042
      8        6          -0.026640945    0.000004465   -0.007139918
      9        6           0.017359327   -0.020216179    0.000195918
     10        6           0.011741775    0.023373694    0.007888045
     11        6           0.009932399   -0.007578056   -0.000001148
     12        6          -0.006427689   -0.025251577   -0.006467336
     13        6           0.020757050    0.001565936    0.006927551
     14        6          -0.010453719    0.018056713   -0.001868619
     15        1          -0.000058654    0.001342915    0.000315872
     16        1          -0.001377716    0.002981919    0.002048586
     17        1           0.000354042    0.000539400   -0.000328647
     18        1           0.000341150   -0.000470616    0.001143208
     19        1           0.004676595    0.001273869   -0.003128734
     20        1          -0.000160945   -0.000381417    0.005414117
     21        1          -0.002625311    0.000699343    0.002895897
     22        1          -0.001295370   -0.001550729   -0.000357733
     23        1          -0.001387710   -0.000870419   -0.000296226
     24        1          -0.000035198   -0.000708498   -0.000168499
     25        1          -0.002370873   -0.002191972   -0.001208389
     26        1           0.000407012    0.003269325    0.000654076
     27        1           0.000312851    0.000392157    0.000106422
     28        1          -0.000860117    0.003344315    0.000090646
 -------------------------------------------------------------------
 Cartesian Forces:  Max     0.026640945 RMS     0.008006322
 FormGI is forming the generalized inverse of G from B-inverse, IUseBI=4.

 GradGradGradGradGradGradGradGradGradGradGradGradGradGradGradGradGradGrad
 Berny optimization.
 Internal  Forces:  Max     0.022406660 RMS     0.004695079
 Search for a local minimum.
 Step number   1 out of a maximum of  156
 All quantities printed in internal units (Hartrees-Bohrs-Radians)
 Mixed Optimization -- RFO/linear search
 Second derivative matrix not updated -- analytic derivatives used.
 ITU=  0
     Eigenvalues ---    0.00205   0.00257   0.00369   0.00661   0.01460
     Eigenvalues ---    0.01495   0.01703   0.01759   0.01878   0.02014
     Eigenvalues ---    0.02234   0.02300   0.02384   0.02443   0.02493
     Eigenvalues ---    0.02584   0.02684   0.02698   0.02757   0.02826
     Eigenvalues ---    0.03502   0.04402   0.04545   0.04651   0.05706
     Eigenvalues ---    0.07867   0.08413   0.10536   0.10982   0.11154
     Eigenvalues ---    0.11611   0.11772   0.11978   0.12322   0.12394
     Eigenvalues ---    0.12630   0.13027   0.14713   0.18330   0.18630
     Eigenvalues ---    0.19061   0.19152   0.19838   0.20217   0.20477
     Eigenvalues ---    0.21166   0.22761   0.23422   0.24519   0.28858
     Eigenvalues ---    0.30465   0.31254   0.32110   0.33082   0.33287
     Eigenvalues ---    0.33796   0.34181   0.35244   0.35615   0.35737
     Eigenvalues ---    0.35806   0.35811   0.36005   0.36054   0.36758
     Eigenvalues ---    0.37826   0.39369   0.40811   0.43840   0.43919
     Eigenvalues ---    0.44161   0.44584   0.45369   0.45624   0.47238
     Eigenvalues ---    0.48164   0.49231   0.51453
 RFO step:  Lambda=-1.06765959D-02 EMin= 2.04711156D-03
 Linear search not attempted -- first point.
 Iteration  1 RMS(Cart)=  0.09952192 RMS(Int)=  0.00402286
 Iteration  2 RMS(Cart)=  0.00594138 RMS(Int)=  0.00022603
 Iteration  3 RMS(Cart)=  0.00002509 RMS(Int)=  0.00022568
 Iteration  4 RMS(Cart)=  0.00000000 RMS(Int)=  0.00022568
 Variable       Old X    -DE/DX   Delta X   Delta X   Delta X     New X
                                 (Linear)    (Quad)   (Total)
    R1        2.77629   0.00261   0.00000  -0.00137  -0.00137   2.77492
    R2        1.92339   0.00098   0.00000   0.00249   0.00249   1.92588
    R3        1.92852  -0.00250   0.00000  -0.00549  -0.00549   1.92303
    R4        2.91498  -0.00021   0.00000  -0.01642  -0.01642   2.89856
    R5        2.07103  -0.00029   0.00000  -0.00032  -0.00032   2.07071
    R6        2.06951   0.00082   0.00000   0.00298   0.00298   2.07250
    R7        2.78448   0.00321   0.00000   0.00080   0.00080   2.78528
    R8        2.07266  -0.00223   0.00000  -0.00417  -0.00417   2.06849
    R9        2.07363   0.00380   0.00000   0.01249   0.01249   2.08612
   R10        2.68804   0.00725   0.00000   0.00103   0.00103   2.68907
   R11        1.91851  -0.00019   0.00000  -0.00080  -0.00080   1.91771
   R12        2.69522   0.00481   0.00000   0.01957   0.01960   2.71483
   R13        2.65243  -0.01307   0.00000  -0.03670  -0.03664   2.61579
   R14        2.67660   0.00293   0.00000   0.01155   0.01153   2.68812
   R15        2.68199   0.01787   0.00000   0.03203   0.03199   2.71398
   R16        2.64070  -0.01350   0.00000  -0.03753  -0.03754   2.60316
   R17        2.05129   0.00035   0.00000   0.00018   0.00018   2.05147
   R18        2.62261   0.02241   0.00000   0.04793   0.04794   2.67055
   R19        2.05387  -0.00081   0.00000  -0.00191  -0.00191   2.05197
   R20        2.63329  -0.01109   0.00000  -0.03248  -0.03246   2.60083
   R21        2.05353  -0.00044   0.00000  -0.00143  -0.00143   2.05210
   R22        2.65517   0.01195   0.00000   0.03040   0.03041   2.68557
   R23        2.05633  -0.00124   0.00000  -0.00241  -0.00241   2.05393
   R24        2.65154   0.01225   0.00000   0.02979   0.02973   2.68127
   R25        2.63008  -0.00974   0.00000  -0.02813  -0.02815   2.60193
   R26        2.05615  -0.00109   0.00000  -0.00306  -0.00306   2.05309
   R27        2.62673   0.01872   0.00000   0.03860   0.03863   2.66536
   R28        2.05297  -0.00037   0.00000  -0.00065  -0.00065   2.05232
   R29        2.05480  -0.00115   0.00000  -0.00273  -0.00273   2.05207
    A1        1.91428   0.00085   0.00000   0.00809   0.00792   1.92220
    A2        1.88286   0.00491   0.00000   0.03287   0.03271   1.91557
    A3        1.86220  -0.00170   0.00000  -0.00488  -0.00522   1.85697
    A4        1.98633   0.01209   0.00000   0.03995   0.03997   2.02630
    A5        1.88641  -0.00352   0.00000  -0.00669  -0.00681   1.87960
    A6        1.90084  -0.00367   0.00000  -0.01003  -0.00985   1.89098
    A7        1.91135  -0.00322   0.00000  -0.00695  -0.00712   1.90423
    A8        1.90518  -0.00403   0.00000  -0.01919  -0.01916   1.88602
    A9        1.87021   0.00186   0.00000   0.00105   0.00088   1.87109
   A10        1.92410   0.00539   0.00000   0.01336   0.01311   1.93721
   A11        1.89075   0.00212   0.00000   0.01667   0.01675   1.90751
   A12        1.90616  -0.00258   0.00000   0.00363   0.00312   1.90928
   A13        1.93826  -0.00723   0.00000  -0.04711  -0.04696   1.89130
   A14        1.91753   0.00246   0.00000   0.02900   0.02876   1.94628
   A15        1.88626  -0.00026   0.00000  -0.01574  -0.01558   1.87068
   A16        1.94283   0.01525   0.00000   0.07448   0.07399   2.01682
   A17        1.92285  -0.00689   0.00000  -0.02356  -0.02468   1.89817
   A18        1.91054  -0.00225   0.00000   0.00987   0.00963   1.92016
   A19        2.14430  -0.00273   0.00000  -0.01394  -0.01452   2.12978
   A20        2.04423   0.00536   0.00000   0.02641   0.02585   2.07008
   A21        2.09228  -0.00252   0.00000  -0.00867  -0.00905   2.08323
   A22        2.16674  -0.00495   0.00000  -0.01985  -0.01986   2.14689
   A23        2.06780   0.00150   0.00000   0.00552   0.00557   2.07337
   A24        2.04864   0.00345   0.00000   0.01434   0.01429   2.06293
   A25        2.12602  -0.00262   0.00000  -0.00957  -0.00961   2.11641
   A26        2.10768  -0.00074   0.00000  -0.01434  -0.01433   2.09335
   A27        2.04947   0.00336   0.00000   0.02387   0.02388   2.07335
   A28        2.09295   0.00356   0.00000   0.00839   0.00838   2.10133
   A29        2.09471  -0.00325   0.00000  -0.00346  -0.00346   2.09125
   A30        2.09553  -0.00031   0.00000  -0.00493  -0.00493   2.09060
   A31        2.08948   0.00176   0.00000   0.00437   0.00439   2.09386
   A32        2.09829  -0.00028   0.00000  -0.00661  -0.00662   2.09167
   A33        2.09542  -0.00148   0.00000   0.00223   0.00222   2.09764
   A34        2.11310  -0.00145   0.00000   0.00133   0.00136   2.11446
   A35        2.07015   0.00403   0.00000   0.02863   0.02861   2.09876
   A36        2.09993  -0.00258   0.00000  -0.02996  -0.02997   2.06995
   A37        2.09612  -0.00470   0.00000  -0.01894  -0.01890   2.07722
   A38        2.09463  -0.00242   0.00000  -0.00646  -0.00654   2.08809
   A39        2.09242   0.00713   0.00000   0.02538   0.02541   2.11783
   A40        2.11103  -0.00397   0.00000  -0.01138  -0.01144   2.09959
   A41        2.10145  -0.00128   0.00000  -0.02290  -0.02288   2.07858
   A42        2.07069   0.00525   0.00000   0.03431   0.03433   2.10502
   A43        2.08955   0.00350   0.00000   0.01290   0.01289   2.10244
   A44        2.09827  -0.00211   0.00000  -0.00055  -0.00061   2.09766
   A45        2.09536  -0.00139   0.00000  -0.01237  -0.01242   2.08294
   A46        2.11054   0.00394   0.00000   0.00856   0.00868   2.11922
   A47        2.08666  -0.00530   0.00000  -0.01676  -0.01682   2.06983
   A48        2.08582   0.00136   0.00000   0.00825   0.00818   2.09400
    D1       -0.85253  -0.00045   0.00000  -0.01335  -0.01342  -0.86595
    D2       -2.97971  -0.00177   0.00000  -0.02596  -0.02607  -3.00578
    D3        1.27725  -0.00011   0.00000  -0.01824  -0.01834   1.25891
    D4        1.16940   0.00069   0.00000   0.00335   0.00346   1.17286
    D5       -0.95778  -0.00062   0.00000  -0.00926  -0.00918  -0.96696
    D6       -2.98401   0.00103   0.00000  -0.00154  -0.00145  -2.98546
    D7       -0.90870  -0.00380   0.00000  -0.06082  -0.06091  -0.96961
    D8       -3.03287   0.00043   0.00000  -0.02169  -0.02174  -3.05462
    D9        1.19971   0.00097   0.00000  -0.01430  -0.01435   1.18536
   D10        1.20462  -0.00245   0.00000  -0.04735  -0.04740   1.15722
   D11       -0.91955   0.00177   0.00000  -0.00821  -0.00823  -0.92778
   D12       -2.97015   0.00232   0.00000  -0.00083  -0.00084  -2.97099
   D13       -3.03608  -0.00437   0.00000  -0.06109  -0.06103  -3.09711
   D14        1.12293  -0.00014   0.00000  -0.02196  -0.02186   1.10108
   D15       -0.92767   0.00040   0.00000  -0.01457  -0.01447  -0.94213
   D16       -3.03759   0.00152   0.00000   0.02317   0.02321  -3.01438
   D17        1.12275  -0.00115   0.00000  -0.02324  -0.02285   1.09990
   D18       -0.94184   0.00303   0.00000   0.02227   0.02214  -0.91970
   D19       -3.06469   0.00035   0.00000  -0.02413  -0.02392  -3.08861
   D20        1.14400  -0.00028   0.00000  -0.00838  -0.00880   1.13520
   D21       -0.97884  -0.00295   0.00000  -0.05479  -0.05486  -1.03371
   D22       -1.61526  -0.00179   0.00000  -0.12287  -0.12359  -1.73886
   D23        1.45196  -0.00003   0.00000  -0.06401  -0.06444   1.38752
   D24        0.51473  -0.00193   0.00000  -0.09661  -0.09618   0.41855
   D25       -2.70123  -0.00018   0.00000  -0.03775  -0.03703  -2.73826
   D26       -0.03872   0.00136   0.00000   0.05593   0.05524   0.01652
   D27        3.09948   0.00154   0.00000   0.05679   0.05603  -3.12767
   D28       -3.10397  -0.00077   0.00000  -0.00591  -0.00577  -3.10974
   D29        0.03423  -0.00059   0.00000  -0.00505  -0.00498   0.02925
   D30       -3.10463  -0.00058   0.00000  -0.03176  -0.03241  -3.13704
   D31        0.05675  -0.00090   0.00000  -0.03418  -0.03473   0.02201
   D32       -0.03508   0.00110   0.00000   0.02496   0.02483  -0.01025
   D33        3.12630   0.00078   0.00000   0.02254   0.02251  -3.13438
   D34       -3.13568   0.00010   0.00000   0.00592   0.00599  -3.12968
   D35        0.01021   0.00029   0.00000   0.01528   0.01519   0.02540
   D36        0.00928  -0.00008   0.00000   0.00508   0.00522   0.01449
   D37       -3.12802   0.00011   0.00000   0.01444   0.01441  -3.11361
   D38        3.13356  -0.00013   0.00000  -0.00801  -0.00811   3.12545
   D39       -0.01352  -0.00018   0.00000  -0.01264  -0.01273  -0.02625
   D40       -0.01120   0.00002   0.00000  -0.00727  -0.00742  -0.01862
   D41        3.12491  -0.00002   0.00000  -0.01190  -0.01204   3.11287
   D42       -0.00172   0.00009   0.00000   0.00099   0.00098  -0.00075
   D43        3.13939   0.00018   0.00000   0.00508   0.00505  -3.13874
   D44        3.13571  -0.00011   0.00000  -0.00816  -0.00820   3.12750
   D45       -0.00636  -0.00002   0.00000  -0.00406  -0.00413  -0.01049
   D46       -0.00406  -0.00005   0.00000  -0.00484  -0.00493  -0.00899
   D47        3.14007  -0.00002   0.00000  -0.00136  -0.00141   3.13866
   D48        3.13801  -0.00014   0.00000  -0.00894  -0.00900   3.12901
   D49       -0.00105  -0.00012   0.00000  -0.00545  -0.00548  -0.00653
   D50        0.00198  -0.00004   0.00000   0.00248   0.00245   0.00443
   D51       -3.13716  -0.00005   0.00000   0.00323   0.00328  -3.13388
   D52        3.14104  -0.00006   0.00000  -0.00102  -0.00109   3.13995
   D53        0.00190  -0.00007   0.00000  -0.00026  -0.00027   0.00163
   D54        0.00587  -0.00001   0.00000   0.00359   0.00362   0.00950
   D55       -3.13024   0.00007   0.00000   0.00832   0.00843  -3.12181
   D56       -3.13821   0.00002   0.00000   0.00291   0.00289  -3.13532
   D57        0.00886   0.00009   0.00000   0.00763   0.00770   0.01656
   D58       -0.00712   0.00044   0.00000   0.01113   0.01106   0.00394
   D59        3.14028   0.00013   0.00000   0.00588   0.00585  -3.13706
   D60        3.12900   0.00036   0.00000   0.00637   0.00618   3.13519
   D61       -0.00678   0.00004   0.00000   0.00112   0.00097  -0.00581
   D62        0.00710   0.00013   0.00000   0.00872   0.00860   0.01570
   D63       -3.13641  -0.00038   0.00000  -0.00772  -0.00800   3.13877
   D64       -3.14020   0.00042   0.00000   0.01371   0.01371  -3.12649
   D65       -0.00052  -0.00009   0.00000  -0.00273  -0.00290  -0.00343
   D66        0.01419  -0.00083   0.00000  -0.02661  -0.02686  -0.01267
   D67        3.13601  -0.00058   0.00000  -0.02447  -0.02479   3.11123
   D68       -3.12548  -0.00032   0.00000  -0.01021  -0.01041  -3.13589
   D69       -0.00366  -0.00007   0.00000  -0.00807  -0.00833  -0.01199
         Item               Value     Threshold  Converged?
 Maximum Force            0.022407     0.000450     NO 
 RMS     Force            0.004695     0.000300     NO 
 Maximum Displacement     0.385069     0.001800     NO 
 RMS     Displacement     0.100958     0.001200     NO 
 Predicted change in Energy=-5.840902D-03
 GradGradGradGradGradGradGradGradGradGradGradGradGradGradGradGradGradGrad

                          Input orientation:                          
 ---------------------------------------------------------------------
 Center     Atomic      Atomic             Coordinates (Angstroms)
 Number     Number       Type             X           Y           Z
 ---------------------------------------------------------------------
      1          7           0       -3.790675    1.578418   -0.385238
      2          6           0       -3.702265    0.183558    0.065111
      3          6           0       -2.300597   -0.319215    0.432878
      4          7           0       -1.361045   -0.129905   -0.686855
      5          6           0       -0.072908   -0.708685   -0.511859
      6          6           0        1.062790    0.069754   -0.101845
      7          6           0        0.987397    1.462387    0.178114
      8          6           0        2.102892    2.177086    0.555573
      9          6           0        3.356573    1.535790    0.674508
     10          6           0        3.465555    0.187103    0.422768
     11          6           0        2.334852   -0.582378    0.036682
     12          6           0        2.437719   -1.977443   -0.200781
     13          6           0        1.326567   -2.703570   -0.566685
     14          6           0        0.078084   -2.067522   -0.728218
     15          1           0       -3.302483    2.189586    0.268043
     16          1           0       -3.319586    1.681017   -1.281399
     17          1           0       -4.113409   -0.449537   -0.729163
     18          1           0       -4.348077    0.062751    0.943246
     19          1           0       -2.349139   -1.387723    0.665416
     20          1           0       -1.953322    0.197478    1.344515
     21          1           0       -1.272937    0.863503   -0.874510
     22          1           0        0.034871    1.978387    0.107793
     23          1           0        2.018078    3.238915    0.766296
     24          1           0        4.230615    2.108441    0.970062
     25          1           0        4.426105   -0.312157    0.519813
     26          1           0        3.403465   -2.462497   -0.089286
     27          1           0        1.407884   -3.770837   -0.750558
     28          1           0       -0.787005   -2.642704   -1.044420
 ---------------------------------------------------------------------
                    Distance matrix (angstroms):
                    1          2          3          4          5
     1  N    0.000000
     2  C    1.468423   0.000000
     3  C    2.547676   1.533853   0.000000
     4  N    2.985371   2.478915   1.473905   0.000000
     5  C    4.366768   3.781696   2.450880   1.422993   0.000000
     6  C    5.090432   4.769337   3.427769   2.501415   1.436624
     7  C    4.812567   4.862212   3.748322   2.966268   2.512740
     8  C    5.998138   6.157479   5.063328   4.343351   3.768447
     9  C    7.225513   7.212981   5.958440   5.184956   4.266904
    10  C    7.432462   7.176738   5.788348   4.962643   3.767848
    11  C    6.509158   6.085577   4.659787   3.793138   2.472682
    12  C    7.174333   6.514600   5.059929   4.252091   2.830152
    13  C    6.674916   5.832994   4.454278   3.723097   2.437438
    14  C    5.327083   4.470768   3.172199   2.413952   1.384214
    15  H    1.019134   2.055518   2.706478   3.171915   4.408897
    16  H    1.017623   2.049857   2.824537   2.732910   4.104118
    17  H    2.082077   1.095774   2.157222   2.771184   4.054630
    18  H    2.091127   1.096718   2.144422   3.408328   4.581432
    19  H    3.461198   2.158759   1.094596   2.094534   2.651094
    20  H    2.876613   2.166996   1.103927   2.141129   2.793423
    21  H    2.662610   2.691996   2.040629   1.014808   2.010811
    22  H    3.877868   4.146012   3.292274   2.650461   2.759699
    23  H    6.150195   6.522974   5.605570   4.987892   4.646445
    24  H    8.152230   8.213081   6.988477   6.246778   5.352812
    25  H    8.479909   8.156156   6.727268   5.914421   4.632785
    26  H    8.256648   7.583986   6.115770   5.338412   3.916580
    27  H    7.468133   6.512770   5.202600   4.574650   3.409765
    28  H    5.222492   4.209222   3.141969   2.602217   2.129316
                    6          7          8          9         10
     6  C    0.000000
     7  C    1.422493   0.000000
     8  C    2.440258   1.377534   0.000000
     9  C    2.830799   2.421733   1.413196   0.000000
    10  C    2.462167   2.797762   2.415475   1.376302   0.000000
    11  C    1.436178   2.452896   2.817392   2.436672   1.421144
    12  C    2.468043   3.752256   4.236071   3.735402   2.475989
    13  C    2.824355   4.245581   5.067835   4.861446   3.729648
    14  C    2.435147   3.756135   4.874902   5.069516   4.228837
    15  H    4.866838   4.352008   5.413031   6.703409   7.059760
    16  H    4.815883   4.552810   5.746635   6.958287   7.153607
    17  H    5.239869   5.522393   6.869650   7.855727   7.692395
    18  H    5.510875   5.568814   6.799684   7.848802   7.831935
    19  H    3.788692   4.415095   5.704429   6.411097   6.029064
    20  H    3.347417   3.407097   4.581937   5.516790   5.496722
    21  H    2.585086   2.564330   3.894466   4.927859   4.959209
    22  H    2.177945   1.085590   2.125253   3.398641   3.882975
    23  H    3.421962   2.136426   1.085853   2.168094   3.395108
    24  H    3.916675   3.400446   2.168806   1.085924   2.139250
    25  H    3.441541   3.884646   3.405133   2.140733   1.086892
    26  H    3.448365   4.616666   4.861386   4.070857   2.699340
    27  H    3.910251   5.331592   6.129177   5.829965   4.612591
    28  H    3.415790   4.636255   5.843104   6.130560   5.314576
                   11         12         13         14         15
    11  C    0.000000
    12  C    1.418865   0.000000
    13  C    2.424902   1.376882   0.000000
    14  C    2.807798   2.419541   1.410446   0.000000
    15  H    6.286243   7.108716   6.787330   5.526639   0.000000
    16  H    6.231610   6.906418   6.428231   5.089372   1.630861
    17  H    6.494939   6.747663   5.890704   4.492938   2.935471
    18  H    6.774924   7.177619   6.491071   5.188714   2.464263
    19  H    4.794128   4.900211   4.093939   2.880235   3.723427
    20  H    4.550499   5.138040   4.777702   3.681448   2.635814
    21  H    3.992115   4.721637   4.424498   3.230722   2.680108
    22  H    3.442744   4.638694   4.903480   4.131605   3.347868
    23  H    3.903199   5.321816   6.129287   5.844264   5.445890
    24  H    3.421348   4.613004   5.826709   6.129139   7.566173
    25  H    2.163278   2.691861   4.062816   4.852234   8.127310
    26  H    2.166253   1.086451   2.144653   3.409164   8.169413
    27  H    3.412520   2.139878   1.086039   2.161053   7.664969
    28  H    3.893549   3.398991   2.167746   1.085908   5.603678
                   16         17         18         19         20
    16  H    0.000000
    17  H    2.339739   0.000000
    18  H    2.936941   1.764784   0.000000
    19  H    3.761518   2.436738   2.485321   0.000000
    20  H    3.311040   3.063453   2.431876   1.769382   0.000000
    21  H    2.241129   3.132647   3.660864   2.932166   2.414659
    22  H    3.642892   4.878887   4.855706   4.162349   2.941773
    23  H    5.925433   7.310008   7.116689   6.363061   5.035543
    24  H    7.890330   8.891195   8.819270   7.457153   6.483291
    25  H    8.198343   8.631461   8.792390   6.861630   6.452670
    26  H    7.986818   7.807999   8.217628   5.900607   6.150319
    27  H    7.235570   6.443304   7.120144   4.668986   5.606653
    28  H    5.016441   3.996790   4.894030   2.634156   3.890236
                   21         22         23         24         25
    21  H    0.000000
    22  H    1.979457   0.000000
[...]


 NATURAL POPULATIONS:  Natural atomic orbital occupancies 
                                                          
   NAO  Atom  No  lang   Type(AO)    Occupancy
 --------------------------------------------
     1    N    1  S      Cor( 1S)     1.99970
     2    N    1  S      Val( 2S)     1.43010
     3    N    1  S      Ryd( 3S)     0.00031
     4    N    1  S      Ryd( 4S)     0.00001
     5    N    1  px     Val( 2p)     1.73844
     6    N    1  px     Ryd( 3p)     0.00525
     7    N    1  py     Val( 2p)     1.40054
     8    N    1  py     Ryd( 3p)     0.00311
     9    N    1  pz     Val( 2p)     1.33639
    10    N    1  pz     Ryd( 3p)     0.00205
    11    N    1  dxy    Ryd( 3d)     0.00140
    12    N    1  dxz    Ryd( 3d)     0.00066
    13    N    1  dyz    Ryd( 3d)     0.00054
    14    N    1  dx2y2  Ryd( 3d)     0.00092
    15    N    1  dz2    Ryd( 3d)     0.00088

    16    C    2  S      Cor( 1S)     1.99936
    17    C    2  S      Val( 2S)     1.02423
    18    C    2  S      Ryd( 3S)     0.00155
    19    C    2  S      Ryd( 4S)     0.00004
    20    C    2  px     Val( 2p)     1.13062
    21    C    2  px     Ryd( 3p)     0.00361
    22    C    2  py     Val( 2p)     1.02050
    23    C    2  py     Ryd( 3p)     0.00469
    24    C    2  pz     Val( 2p)     1.09166
    25    C    2  pz     Ryd( 3p)     0.00212
    26    C    2  dxy    Ryd( 3d)     0.00146
    27    C    2  dxz    Ryd( 3d)     0.00044
    28    C    2  dyz    Ryd( 3d)     0.00123
    29    C    2  dx2y2  Ryd( 3d)     0.00054
    30    C    2  dz2    Ryd( 3d)     0.00113

    31    C    3  S      Cor( 1S)     1.99931
    32    C    3  S      Val( 2S)     1.03579
    33    C    3  S      Ryd( 3S)     0.00181
    34    C    3  S      Ryd( 4S)     0.00003
    35    C    3  px     Val( 2p)     0.89429
    36    C    3  px     Ryd( 3p)     0.00274
    37    C    3  py     Val( 2p)     1.11024
    38    C    3  py     Ryd( 3p)     0.00214
    39    C    3  pz     Val( 2p)     1.25257
    40    C    3  pz     Ryd( 3p)     0.00278
    41    C    3  dxy    Ryd( 3d)     0.00105
    42    C    3  dxz    Ryd( 3d)     0.00063
    43    C    3  dyz    Ryd( 3d)     0.00118
    44    C    3  dx2y2  Ryd( 3d)     0.00082
    45    C    3  dz2    Ryd( 3d)     0.00081

    46    N    4  S      Cor( 1S)     1.99938
    47    N    4  S      Val( 2S)     1.28514
    48    N    4  S      Ryd( 3S)     0.00086
    49    N    4  S      Ryd( 4S)     0.00002
    50    N    4  px     Val( 2p)     1.26757
    51    N    4  px     Ryd( 3p)     0.00156
    52    N    4  py     Val( 2p)     1.40787
    53    N    4  py     Ryd( 3p)     0.00233
    54    N    4  pz     Val( 2p)     1.53515
    55    N    4  pz     Ryd( 3p)     0.00440
    56    N    4  dxy    Ryd( 3d)     0.00057
    57    N    4  dxz    Ryd( 3d)     0.00074
    58    N    4  dyz    Ryd( 3d)     0.00089
    59    N    4  dx2y2  Ryd( 3d)     0.00057
    60    N    4  dz2    Ryd( 3d)     0.00064

    61    C    5  S      Cor( 1S)     1.99897
    62    C    5  S      Val( 2S)     0.83332
    63    C    5  S      Ryd( 3S)     0.00114
    64    C    5  S      Ryd( 4S)     0.00011
    65    C    5  px     Val( 2p)     0.92803
    66    C    5  px     Ryd( 3p)     0.00499
    67    C    5  py     Val( 2p)     1.05265
    68    C    5  py     Ryd( 3p)     0.00511
    69    C    5  pz     Val( 2p)     0.98411
    70    C    5  pz     Ryd( 3p)     0.00238
    71    C    5  dxy    Ryd( 3d)     0.00108
    72    C    5  dxz    Ryd( 3d)     0.00108
    73    C    5  dyz    Ryd( 3d)     0.00095
    74    C    5  dx2y2  Ryd( 3d)     0.00099
    75    C    5  dz2    Ryd( 3d)     0.00037

    76    C    6  S      Cor( 1S)     1.99900
    77    C    6  S      Val( 2S)     0.86615
    78    C    6  S      Ryd( 3S)     0.00048
    79    C    6  S      Ryd( 4S)     0.00006
    80    C    6  px     Val( 2p)     1.06596
    81    C    6  px     Ryd( 3p)     0.00489
    82    C    6  py     Val( 2p)     1.09978
    83    C    6  py     Ryd( 3p)     0.00495
    84    C    6  pz     Val( 2p)     1.00774
    85    C    6  pz     Ryd( 3p)     0.00054
    86    C    6  dxy    Ryd( 3d)     0.00078
    87    C    6  dxz    Ryd( 3d)     0.00039
    88    C    6  dyz    Ryd( 3d)     0.00110
    89    C    6  dx2y2  Ryd( 3d)     0.00058
    90    C    6  dz2    Ryd( 3d)     0.00036

    91    C    7  S      Cor( 1S)     1.99909
    92    C    7  S      Val( 2S)     0.93212
    93    C    7  S      Ryd( 3S)     0.00070
    94    C    7  S      Ryd( 4S)     0.00004
    95    C    7  px     Val( 2p)     1.17086
    96    C    7  px     Ryd( 3p)     0.00414
    97    C    7  py     Val( 2p)     1.07225
    98    C    7  py     Ryd( 3p)     0.00463
    99    C    7  pz     Val( 2p)     1.16847
   100    C    7  pz     Ryd( 3p)     0.00557
   101    C    7  dxy    Ryd( 3d)     0.00061
   102    C    7  dxz    Ryd( 3d)     0.00039
   103    C    7  dyz    Ryd( 3d)     0.00039
   104    C    7  dx2y2  Ryd( 3d)     0.00065
   105    C    7  dz2    Ryd( 3d)     0.00035

   106    C    8  S      Cor( 1S)     1.99911
   107    C    8  S      Val( 2S)     0.95444
   108    C    8  S      Ryd( 3S)     0.00066
   109    C    8  S      Ryd( 4S)     0.00003
   110    C    8  px     Val( 2p)     1.06028
   111    C    8  px     Ryd( 3p)     0.00496
   112    C    8  py     Val( 2p)     1.19233
   113    C    8  py     Ryd( 3p)     0.00489
   114    C    8  pz     Val( 2p)     1.05061
   115    C    8  pz     Ryd( 3p)     0.00310
   116    C    8  dxy    Ryd( 3d)     0.00061
   117    C    8  dxz    Ryd( 3d)     0.00079
   118    C    8  dyz    Ryd( 3d)     0.00029
   119    C    8  dx2y2  Ryd( 3d)     0.00073
   120    C    8  dz2    Ryd( 3d)     0.00037

   121    C    9  S      Cor( 1S)     1.99911
   122    C    9  S      Val( 2S)     0.95789
   123    C    9  S      Ryd( 3S)     0.00056
   124    C    9  S      Ryd( 4S)     0.00003
   125    C    9  px     Val( 2p)     1.15437
   126    C    9  px     Ryd( 3p)     0.00487
   127    C    9  py     Val( 2p)     1.10683
   128    C    9  py     Ryd( 3p)     0.00479
   129    C    9  pz     Val( 2p)     1.02378
   130    C    9  pz     Ryd( 3p)     0.00171
   131    C    9  dxy    Ryd( 3d)     0.00070
   132    C    9  dxz    Ryd( 3d)     0.00038
   133    C    9  dyz    Ryd( 3d)     0.00079
   134    C    9  dx2y2  Ryd( 3d)     0.00065
   135    C    9  dz2    Ryd( 3d)     0.00038

   136    C   10  S      Cor( 1S)     1.99908
   137    C   10  S      Val( 2S)     0.93608
   138    C   10  S      Ryd( 3S)     0.00069
   139    C   10  S      Ryd( 4S)     0.00004
   140    C   10  px     Val( 2p)     1.14225
   141    C   10  px     Ryd( 3p)     0.00447
   142    C   10  py     Val( 2p)     1.09281
   143    C   10  py     Ryd( 3p)     0.00442
   144    C   10  pz     Val( 2p)     1.15420
   145    C   10  pz     Ryd( 3p)     0.00477
   146    C   10  dxy    Ryd( 3d)     0.00070
   147    C   10  dxz    Ryd( 3d)     0.00025
   148    C   10  dyz    Ryd( 3d)     0.00045
   149    C   10  dx2y2  Ryd( 3d)     0.00059
   150    C   10  dz2    Ryd( 3d)     0.00035

   151    C   11  S      Cor( 1S)     1.99904
   152    C   11  S      Val( 2S)     0.87046
   153    C   11  S      Ryd( 3S)     0.00050
   154    C   11  S      Ryd( 4S)     0.00006
   155    C   11  px     Val( 2p)     1.08952
   156    C   11  px     Ryd( 3p)     0.00552
   157    C   11  py     Val( 2p)     1.08715
   158    C   11  py     Ryd( 3p)     0.00515
   159    C   11  pz     Val( 2p)     1.01058
   160    C   11  pz     Ryd( 3p)     0.00074
   161    C   11  dxy    Ryd( 3d)     0.00067
   162    C   11  dxz    Ryd( 3d)     0.00077
   163    C   11  dyz    Ryd( 3d)     0.00071
   164    C   11  dx2y2  Ryd( 3d)     0.00073
   165    C   11  dz2    Ryd( 3d)     0.00033

   166    C   12  S      Cor( 1S)     1.99905
   167    C   12  S      Val( 2S)     0.95991
   168    C   12  S      Ryd( 3S)     0.00059
   169    C   12  S      Ryd( 4S)     0.00005
   170    C   12  px     Val( 2p)     1.17421
   171    C   12  px     Ryd( 3p)     0.00439
   172    C   12  py     Val( 2p)     1.07581
   173    C   12  py     Ryd( 3p)     0.00421
   174    C   12  pz     Val( 2p)     0.94357
   175    C   12  pz     Ryd( 3p)     0.00237
   176    C   12  dxy    Ryd( 3d)     0.00072
   177    C   12  dxz    Ryd( 3d)     0.00045
   178    C   12  dyz    Ryd( 3d)     0.00056
   179    C   12  dx2y2  Ryd( 3d)     0.00070
   180    C   12  dz2    Ryd( 3d)     0.00034

   181    C   13  S      Cor( 1S)     1.99914
   182    C   13  S      Val( 2S)     0.96104
   183    C   13  S      Ryd( 3S)     0.00070
   184    C   13  S      Ryd( 4S)     0.00003
   185    C   13  px     Val( 2p)     1.05368
   186    C   13  px     Ryd( 3p)     0.00500
   187    C   13  py     Val( 2p)     1.20524
   188    C   13  py     Ryd( 3p)     0.00536
   189    C   13  pz     Val( 2p)     1.03794
   190    C   13  pz     Ryd( 3p)     0.00184
   191    C   13  dxy    Ryd( 3d)     0.00064
   192    C   13  dxz    Ryd( 3d)     0.00062
   193    C   13  dyz    Ryd( 3d)     0.00036
   194    C   13  dx2y2  Ryd( 3d)     0.00071
   195    C   13  dz2    Ryd( 3d)     0.00036

   196    C   14  S      Cor( 1S)     1.99907
   197    C   14  S      Val( 2S)     0.96246
   198    C   14  S      Ryd( 3S)     0.00067
   199    C   14  S      Ryd( 4S)     0.00004
   200    C   14  px     Val( 2p)     1.16876
   201    C   14  px     Ryd( 3p)     0.00373
   202    C   14  py     Val( 2p)     1.09568
   203    C   14  py     Ryd( 3p)     0.00402
   204    C   14  pz     Val( 2p)     0.98681
   205    C   14  pz     Ryd( 3p)     0.00114
   206    C   14  dxy    Ryd( 3d)     0.00059
   207    C   14  dxz    Ryd( 3d)     0.00039
   208    C   14  dyz    Ryd( 3d)     0.00068
   209    C   14  dx2y2  Ryd( 3d)     0.00072
   210    C   14  dz2    Ryd( 3d)     0.00038

   211    H   15  S      Val( 1S)     0.60446
   212    H   15  S      Ryd( 2S)     0.00141
   213    H   15  px     Ryd( 2p)     0.00050
   214    H   15  py     Ryd( 2p)     0.00033
   215    H   15  pz     Ryd( 2p)     0.00056

   216    H   16  S      Val( 1S)     0.60800
   217    H   16  S      Ryd( 2S)     0.00117
   218    H   16  px     Ryd( 2p)     0.00066
   219    H   16  py     Ryd( 2p)     0.00049
   220    H   16  pz     Ryd( 2p)     0.00028

   221    H   17  S      Val( 1S)     0.75632
   222    H   17  S      Ryd( 2S)     0.00177
   223    H   17  px     Ryd( 2p)     0.00009
   224    H   17  py     Ryd( 2p)     0.00011
   225    H   17  pz     Ryd( 2p)     0.00034

   226    H   18  S      Val( 1S)     0.75222
   227    H   18  S      Ryd( 2S)     0.00131
   228    H   18  px     Ryd( 2p)     0.00032
   229    H   18  py     Ryd( 2p)     0.00016
   230    H   18  pz     Ryd( 2p)     0.00006

   231    H   19  S      Val( 1S)     0.74119
   232    H   19  S      Ryd( 2S)     0.00168
   233    H   19  px     Ryd( 2p)     0.00008
   234    H   19  py     Ryd( 2p)     0.00023
   235    H   19  pz     Ryd( 2p)     0.00024

   236    H   20  S      Val( 1S)     0.75184
   237    H   20  S      Ryd( 2S)     0.00245
   238    H   20  px     Ryd( 2p)     0.00008
   239    H   20  py     Ryd( 2p)     0.00014
   240    H   20  pz     Ryd( 2p)     0.00033

   241    H   21  S      Val( 1S)     0.57126
   242    H   21  S      Ryd( 2S)     0.00564
   243    H   21  px     Ryd( 2p)     0.00021
   244    H   21  py     Ryd( 2p)     0.00053
   245    H   21  pz     Ryd( 2p)     0.00052

   246    H   22  S      Val( 1S)     0.77612
   247    H   22  S      Ryd( 2S)     0.00109
   248    H   22  px     Ryd( 2p)     0.00029
   249    H   22  py     Ryd( 2p)     0.00016
   250    H   22  pz     Ryd( 2p)     0.00022

   251    H   23  S      Val( 1S)     0.76702
   252    H   23  S      Ryd( 2S)     0.00078
   253    H   23  px     Ryd( 2p)     0.00006
   254    H   23  py     Ryd( 2p)     0.00041
   255    H   23  pz     Ryd( 2p)     0.00016

   256    H   24  S      Val( 1S)     0.76599
   257    H   24  S      Ryd( 2S)     0.00076
   258    H   24  px     Ryd( 2p)     0.00031
   259    H   24  py     Ryd( 2p)     0.00017
   260    H   24  pz     Ryd( 2p)     0.00014

   261    H   25  S      Val( 1S)     0.77227
   262    H   25  S      Ryd( 2S)     0.00104
   263    H   25  px     Ryd( 2p)     0.00032
   264    H   25  py     Ryd( 2p)     0.00012
   265    H   25  pz     Ryd( 2p)     0.00019

   266    H   26  S      Val( 1S)     0.75232
   267    H   26  S      Ryd( 2S)     0.00113
   268    H   26  px     Ryd( 2p)     0.00034
   269    H   26  py     Ryd( 2p)     0.00013
   270    H   26  pz     Ryd( 2p)     0.00012

   271    H   27  S      Val( 1S)     0.74852
   272    H   27  S      Ryd( 2S)     0.00075
   273    H   27  px     Ryd( 2p)     0.00006
   274    H   27  py     Ryd( 2p)     0.00041
   275    H   27  pz     Ryd( 2p)     0.00014

   276    H   28  S      Val( 1S)     0.74658
   277    H   28  S      Ryd( 2S)     0.00080
   278    H   28  px     Ryd( 2p)     0.00029
   279    H   28  py     Ryd( 2p)     0.00019
   280    H   28  pz     Ryd( 2p)     0.00013

 WARNING:  1 low occupancy (<1.9990e) core orbital  found on  C    5
           1 low occupancy (<1.9990e) core orbital  found on  C    6


 Summary of Natural Population Analysis:                  
                                                          
                                       Natural Population 
                Natural  -----------------------------------------------
    Atom  No    Charge         Core      Valence    Rydberg      Total
 -----------------------------------------------------------------------
      N    1   -0.92028      1.99970     5.90546    0.01512     7.92028
      C    2   -0.28315      1.99936     4.26700    0.01679     6.28315
      C    3   -0.30619      1.99931     4.29289    0.01399     6.30619
      N    4   -0.50770      1.99938     5.49572    0.01259     7.50770
      C    5    0.18472      1.99897     3.79812    0.01820     5.81528
      C    6   -0.05273      1.99900     4.03962    0.01410     6.05273
      C    7   -0.36027      1.99909     4.34370    0.01748     6.36027
      C    8   -0.27319      1.99911     4.25766    0.01641     6.27319
      C    9   -0.25684      1.99911     4.24287    0.01487     6.25684
      C   10   -0.34116      1.99908     4.32534    0.01675     6.34116
      C   11   -0.07192      1.99904     4.05771    0.01518     6.07192
      C   12   -0.16694      1.99905     4.15350    0.01439     6.16694
      C   13   -0.27267      1.99914     4.25790    0.01563     6.27267
      C   14   -0.22516      1.99907     4.21372    0.01236     6.22516
      H   15    0.39274      0.00000     0.60446    0.00280     0.60726
      H   16    0.38940      0.00000     0.60800    0.00260     0.61060
      H   17    0.24138      0.00000     0.75632    0.00231     0.75862
      H   18    0.24593      0.00000     0.75222    0.00185     0.75407
      H   19    0.25658      0.00000     0.74119    0.00223     0.74342
      H   20    0.24516      0.00000     0.75184    0.00300     0.75484
      H   21    0.42184      0.00000     0.57126    0.00690     0.57816
      H   22    0.22212      0.00000     0.77612    0.00176     0.77788
      H   23    0.23157      0.00000     0.76702    0.00142     0.76843
      H   24    0.23263      0.00000     0.76599    0.00138     0.76737
      H   25    0.22606      0.00000     0.77227    0.00167     0.77394
      H   26    0.24596      0.00000     0.75232    0.00172     0.75404
      H   27    0.25011      0.00000     0.74852    0.00136     0.74989
      H   28    0.25202      0.00000     0.74658    0.00140     0.74798
 =======================================================================
   * Total *   -0.00000     27.98841    71.76532    0.24627   100.00000

                                 Natural Population      
 --------------------------------------------------------
   Core                      27.98841 ( 99.9586% of  28)
   Valence                   71.76532 ( 99.6741% of  72)
   Natural Minimal Basis     99.75373 ( 99.7537% of 100)
   Natural Rydberg Basis      0.24627 (  0.2463% of 100)
 --------------------------------------------------------

    Atom  No          Natural Electron Configuration
 ----------------------------------------------------------------------------
      N    1      [core]2S( 1.43)2p( 4.48)3p( 0.01)
      C    2      [core]2S( 1.02)2p( 3.24)3p( 0.01)
      C    3      [core]2S( 1.04)2p( 3.26)3p( 0.01)
      N    4      [core]2S( 1.29)2p( 4.21)3p( 0.01)
      C    5      [core]2S( 0.83)2p( 2.96)3p( 0.01)
      C    6      [core]2S( 0.87)2p( 3.17)3p( 0.01)
      C    7      [core]2S( 0.93)2p( 3.41)3p( 0.01)
      C    8      [core]2S( 0.95)2p( 3.30)3p( 0.01)
      C    9      [core]2S( 0.96)2p( 3.28)3p( 0.01)
      C   10      [core]2S( 0.94)2p( 3.39)3p( 0.01)
      C   11      [core]2S( 0.87)2p( 3.19)3p( 0.01)
      C   12      [core]2S( 0.96)2p( 3.19)3p( 0.01)
      C   13      [core]2S( 0.96)2p( 3.30)3p( 0.01)
      C   14      [core]2S( 0.96)2p( 3.25)3p( 0.01)
      H   15            1S( 0.60)
      H   16            1S( 0.61)
      H   17            1S( 0.76)
      H   18            1S( 0.75)
      H   19            1S( 0.74)
      H   20            1S( 0.75)
      H   21            1S( 0.57)2S( 0.01)
      H   22            1S( 0.78)
      H   23            1S( 0.77)
      H   24            1S( 0.77)
      H   25            1S( 0.77)
      H   26            1S( 0.75)
      H   27            1S( 0.75)
      H   28            1S( 0.75)


 NBO analysis skipped by request.
 1\1\GINC-CN11\SP\RB3LYP TD-FC\6-31G(d,p)\C12H14N2\QDUEZ\11-Jul-2024\0\
 \# TD(NStates=10, Root=1) B3LYP/6-31G** SCRF=(Solvent=water) volume po
 p=NPA density=current Geom=AllCheck Guess=Read\\NULAJYZBOLVQPQ-UHFFFAO
 YSA-N_conf_1\\0,1\N,0,-3.895369088,1.4247329629,0.5128257633\C,0,-3.72
 1240394,0.353032229,-0.4724661541\C,0,-2.5474746318,-0.6121225162,-0.2
 514936577\N,0,-1.269926803,0.0847060351,-0.3082086252\C,0,-0.067916668
 3,-0.6011794567,-0.1458083393\C,0,1.1585126751,0.1578031034,-0.0497250
 864\C,0,1.1880267464,1.5756611639,-0.1366710839\C,0,2.3703791539,2.276
 8246063,-0.0182531585\C,0,3.5881370806,1.5891182829,0.1879437885\C,0,3
 .5974087694,0.2131195103,0.2513955141\C,0,2.3984985437,-0.5410451678,0
 .127425383\C,0,2.41198982,-1.9630182223,0.1644331846\C,0,1.233986602,-
 2.6591797356,0.0319629746\C,0,-0.0024755617,-1.9895373292,-0.113095697
 4\H,0,-3.8450660637,1.0493981821,1.4580364457\H,0,-3.1575151565,2.1199
 105681,0.4338804209\H,0,-3.6237914516,0.8169610025,-1.4602882163\H,0,-
 4.6374929339,-0.2487114608,-0.4917817699\H,0,-2.5721865739,-1.37216647
 15,-1.0411447582\H,0,-2.6841985539,-1.1426434322,0.7072986682\H,0,-1.2
 952259601,0.963662047,0.1932814824\H,0,0.2724071791,2.1248749874,-0.32
 96216069\H,0,2.3665721096,3.3600908245,-0.0927464907\H,0,4.5149412263,
 2.1470278088,0.2840381234\H,0,4.5319982188,-0.3232851258,0.3938303011\
 H,0,3.3583592783,-2.4803462343,0.2920877017\H,0,1.237784388,-3.7454457
 376,0.0557713188\H,0,-0.9091219508,-2.5782424244,-0.1829064256\\Versio
 n=EM64L-G16RevA.03\State=1-A\HF=-575.244361\RMSD=4.558e-09\Dipole=-2.2
 689022,-1.1732766,0.2794128\Quadrupole=-2.4370057,4.1874439,-1.7504382
 ,0.7888326,-0.5084496,0.3970261\PG=C01 [X(C12H14N2)]\\@


 THE TEST OF A FIRST RATE INTELLIGENCE IS THE ABILITY TO HOLD TWO OPPOSED
 IDEAS IN THE MIND AT THE SAME TIME, AND STILL RETAIN THE ABILITY TO FUNCTION.
 ONE SHOULD, FOR EXAMPLE, BE ABLE TO SEE THAT THINGS ARE HOPELESS AND YET BE
 DETERMINED TO MAKE THEM OTHERWISE.

                                                       -- F. SCOTT FITZGERALD
 Job cpu time:       0 days  1 hours 20 minutes 24.8 seconds.
 Elapsed time:       0 days  0 hours 20 minutes 32.1 seconds.
 File lengths (MBytes):  RWF=    662 Int=      0 D2E=      0 Chk=     42 Scr=      1
 Normal termination of Gaussian 16 at Thu Jul 11 22:04:29 2024.
