 Entering Gaussian System, Link 0=g16
 Initial command:
 /opt/sw/arch/manual/gaussian/G16_A03/g16/l1.exe "/scratch/1380816/Gau-26269.inp" -scrdir="/scratch/1380816/"
 Entering Link 1 = /opt/sw/arch/manual/gaussian/G16_A03/g16/l1.exe PID=     26271.
  
 Copyright (c) 1988,1990,1992,1993,1995,1998,2003,2009,2016,
            Gaussian, Inc.  All Rights Reserved.
  
 This is part of the Gaussian(R) 16 program.  It is based on
 the Gaussian(R) 09 system (copyright 2009, Gaussian, Inc.),
 the Gaussian(R) 03 system (copyright 2003, Gaussian, Inc.),
 the Gaussian(R) 98 system (copyright 1998, Gaussian, Inc.),
 the Gaussian(R) 94 system (copyright 1995, Gaussian, Inc.),
 the Gaussian 92(TM) system (copyright 1992, Gaussian, Inc.),
 the Gaussian 90(TM) system (copyright 1990, Gaussian, Inc.),
 the Gaussian 88(TM) system (copyright 1988, Gaussian, Inc.),
 the Gaussian 86(TM) system (copyright 1986, Carnegie Mellon
 University), and the Gaussian 82(TM) system (copyright 1983,
 Carnegie Mellon University). Gaussian is a federally registered
 trademark of Gaussian, Inc.
  
 This software contains proprietary and confidential information,
 including trade secrets, belonging to Gaussian, Inc.
  
 This software is provided under written license and may be
 used, copied, transmitted, or stored only in accord with that
 written license.
  
 The following legend is applicable only to US Government
 contracts under FAR:
  
                    RESTRICTED RIGHTS LEGEND
  
 Use, reproduction and disclosure by the US Government is
 subject to restrictions as set forth in subparagraphs (a)
 and (c) of the Commercial Computer Software - Restricted
 Rights clause in FAR 52.227-19.
  
 Gaussian, Inc.
 340 Quinnipiac St., Bldg. 40, Wallingford CT 06492
  
  
 ---------------------------------------------------------------
 Warning -- This program may not be used in any manner that
 competes with the business of Gaussian, Inc. or will provide
 assistance to any competitor of Gaussian, Inc.  The licensee
 of this program is prohibited from giving any competitor of
 Gaussian, Inc. access to this program.  By using this program,
 the user acknowledges that Gaussian, Inc. is engaged in the
 business of creating and licensing software in the field of
 computational chemistry and represents and warrants to the
 licensee that it is not a competitor of Gaussian, Inc. and that
 it will not use this program in any manner prohibited above.
 ---------------------------------------------------------------
  

 Cite this work as:
 Gaussian 16, Revision A.03,
 M. J. Frisch, G. W. Trucks, H. B. Schlegel, G. E. Scuseria, 
 M. A. Robb, J. R. Cheeseman, G. Scalmani, V. Barone, 
 G. A. Petersson, H. Nakatsuji, X. Li, M. Caricato, A. V. Marenich, 
 J. Bloino, B. G. Janesko, R. Gomperts, B. Mennucci, H. P. Hratchian, 
 J. V. Ortiz, A. F. Izmaylov, J. L. Sonnenberg, D. Williams-Young, 
 F. Ding, F. Lipparini, F. Egidi, J. Goings, B. Peng, A. Petrone, 
 T. Henderson, D. Ranasinghe, V. G. Zakrzewski, J. Gao, N. Rega, 
 G. Zheng, W. Liang, M. Hada, M. Ehara, K. Toyota, R. Fukuda, 
 J. Hasegawa, M. Ishida, T. Nakajima, Y. Honda, O. Kitao, H. Nakai, 
 T. Vreven, K. Throssell, J. A. Montgomery, Jr., J. E. Peralta, 
 F. Ogliaro, M. J. Bearpark, J. J. Heyd, E. N. Brothers, K. N. Kudin, 
 V. N. Staroverov, T. A. Keith, R. Kobayashi, J. Normand, 
 K. Raghavachari, A. P. Rendell, J. C. Burant, S. S. Iyengar, 
 J. Tomasi, M. Cossi, J. M. Millam, M. Klene, C. Adamo, R. Cammi, 
 J. W. Ochterski, R. L. Martin, K. Morokuma, O. Farkas, 
 J. B. Foresman, and D. J. Fox, Gaussian, Inc., Wallingford CT, 2016.
 
 ******************************************
 Gaussian 16:  ES64L-G16RevA.03 25-Dec-2016
                17-Jul-2024 
 ******************************************
 %nprocshared=3
 Will use up to    3 processors via shared memory.
 %mem=6GB
 %Chk=FDLQZKYLHJJBHD-UHFFFAOYSA-N_conf_1_0.chk
 -------------------------------------------------------
 # opt=CalcFc B3LYP/6-31G** SCRF=(Solvent=water) scf=xqc
 -------------------------------------------------------
 1/10=4,18=20,19=15,26=3,38=1/1,3;
 2/9=110,12=2,17=6,18=5,40=1/2;
 3/5=1,6=6,7=101,11=2,25=1,30=1,70=2201,71=2,72=1,74=-5,140=1/1,2,3;
 4//1;
 5/5=2,8=3,13=1,38=5,53=1/2,8;
 8/6=4,10=90,11=11/1;
 11/6=1,8=1,9=11,15=111,16=1/1,2,10;
 10/6=1,13=1/2;
 6/7=2,8=2,9=2,10=2,28=1/1;
 7/10=1,18=20,25=1/1,2,3,16;
 1/10=4,18=20,19=15,26=3/3(2);
 2/9=110/2;
 99//99;
 2/9=110/2;
 3/5=1,6=6,7=101,11=2,25=1,30=1,70=2205,71=1,72=1,74=-5/1,2,3;
 4/5=5,16=3,69=1/1;
 5/5=2,8=3,13=1,38=5,53=1/2,8;
 7//1,2,3,16;
 1/18=20,19=15,26=3/3(-5);
 2/9=110/2;
 6/7=2,8=2,9=2,10=2,19=2,28=1/1;
 99/9=1/99;
 ----------------------------------
 FDLQZKYLHJJBHD-UHFFFAOYSA-N_conf_1
 ----------------------------------
 Symbolic Z-matrix:
 Charge =  0 Multiplicity = 1
 N                     3.43115  -0.2904    0.47713 
 C                     2.22303  -0.05324   1.25774 
 C                     1.05105   0.28445   0.37192 
 C                     1.05307   1.46287  -0.38727 
 C                    -0.03151   1.78477  -1.2026 
 C                    -1.13135   0.9305   -1.27128 
 C                    -1.15325  -0.25934  -0.53141 
 C                    -2.35177  -1.17099  -0.58668 
 N                    -3.33649  -0.8113    0.42698 
 C                    -0.05964  -0.5695    0.29321 
 H                     4.16408  -0.63601   1.0926 
 H                     3.24507  -1.0317   -0.19691 
 H                     2.00322  -0.94339   1.85829 
 H                     2.39179   0.77035   1.96073 
 H                     1.91165   2.13062  -0.34691 
 H                    -0.01655   2.70161  -1.786 
 H                    -1.9716    1.19569  -1.9091 
 H                    -2.03972  -2.21166  -0.44183 
 H                    -2.81363  -1.12585  -1.57967 
 H                    -3.60762   0.16088   0.28318 
 H                    -2.88435  -0.83082   1.34014 
 H                    -0.07662  -1.48751   0.87774 
 

 GradGradGradGradGradGradGradGradGradGradGradGradGradGradGradGradGradGrad
 Berny optimization.
 Initialization pass.
                           ----------------------------
                           !    Initial Parameters    !
                           ! (Angstroms and Degrees)  !
 --------------------------                            --------------------------
 ! Name  Definition              Value          Derivative Info.                !
 --------------------------------------------------------------------------------
 ! R1    R(1,2)                  1.4578         calculate D2E/DX2 analytically  !
 ! R2    R(1,11)                 1.0176         calculate D2E/DX2 analytically  !
 ! R3    R(1,12)                 1.0191         calculate D2E/DX2 analytically  !
 ! R4    R(2,3)                  1.5074         calculate D2E/DX2 analytically  !
 ! R5    R(2,13)                 1.0961         calculate D2E/DX2 analytically  !
 ! R6    R(2,14)                 1.0959         calculate D2E/DX2 analytically  !
 ! R7    R(3,4)                  1.4018         calculate D2E/DX2 analytically  !
 ! R8    R(3,10)                 1.4032         calculate D2E/DX2 analytically  !
 ! R9    R(4,5)                  1.3945         calculate D2E/DX2 analytically  !
 ! R10   R(4,15)                 1.0884         calculate D2E/DX2 analytically  !
 ! R11   R(5,6)                  1.3943         calculate D2E/DX2 analytically  !
 ! R12   R(5,16)                 1.0868         calculate D2E/DX2 analytically  !
 ! R13   R(6,7)                  1.4013         calculate D2E/DX2 analytically  !
 ! R14   R(6,17)                 1.0877         calculate D2E/DX2 analytically  !
 ! R15   R(7,8)                  1.5069         calculate D2E/DX2 analytically  !
 ! R16   R(7,10)                 1.4043         calculate D2E/DX2 analytically  !
 ! R17   R(8,9)                  1.4583         calculate D2E/DX2 analytically  !
 ! R18   R(8,18)                 1.0961         calculate D2E/DX2 analytically  !
 ! R19   R(8,19)                 1.0961         calculate D2E/DX2 analytically  !
 ! R20   R(9,20)                 1.0195         calculate D2E/DX2 analytically  !
 ! R21   R(9,21)                 1.0192         calculate D2E/DX2 analytically  !
 ! R22   R(10,22)                1.0884         calculate D2E/DX2 analytically  !
 ! A1    A(2,1,11)             109.1654         calculate D2E/DX2 analytically  !
 ! A2    A(2,1,12)             108.7353         calculate D2E/DX2 analytically  !
 ! A3    A(11,1,12)            106.5304         calculate D2E/DX2 analytically  !
 ! A4    A(1,2,3)              111.475          calculate D2E/DX2 analytically  !
 ! A5    A(1,2,13)             109.1156         calculate D2E/DX2 analytically  !
 ! A6    A(1,2,14)             109.7634         calculate D2E/DX2 analytically  !
 ! A7    A(3,2,13)             110.3652         calculate D2E/DX2 analytically  !
 ! A8    A(3,2,14)             109.1674         calculate D2E/DX2 analytically  !
 ! A9    A(13,2,14)            106.8432         calculate D2E/DX2 analytically  !
 ! A10   A(2,3,4)              120.3625         calculate D2E/DX2 analytically  !
 ! A11   A(2,3,10)             120.7989         calculate D2E/DX2 analytically  !
 ! A12   A(4,3,10)             118.8385         calculate D2E/DX2 analytically  !
 ! A13   A(3,4,5)              120.6358         calculate D2E/DX2 analytically  !
 ! A14   A(3,4,15)             119.7874         calculate D2E/DX2 analytically  !
 ! A15   A(5,4,15)             119.5753         calculate D2E/DX2 analytically  !
 ! A16   A(4,5,6)              120.0562         calculate D2E/DX2 analytically  !
 ! A17   A(4,5,16)             119.8596         calculate D2E/DX2 analytically  !
 ! A18   A(6,5,16)             120.0841         calculate D2E/DX2 analytically  !
 ! A19   A(5,6,7)              120.434          calculate D2E/DX2 analytically  !
 ! A20   A(5,6,17)             119.2643         calculate D2E/DX2 analytically  !
 ! A21   A(7,6,17)             120.3012         calculate D2E/DX2 analytically  !
 ! A22   A(6,7,8)              120.4491         calculate D2E/DX2 analytically  !
 ! A23   A(6,7,10)             119.0387         calculate D2E/DX2 analytically  !
 ! A24   A(8,7,10)             120.4843         calculate D2E/DX2 analytically  !
 ! A25   A(7,8,9)              111.2457         calculate D2E/DX2 analytically  !
 ! A26   A(7,8,18)             110.0685         calculate D2E/DX2 analytically  !
 ! A27   A(7,8,19)             110.0881         calculate D2E/DX2 analytically  !
 ! A28   A(9,8,18)             109.5467         calculate D2E/DX2 analytically  !
 ! A29   A(9,8,19)             109.5746         calculate D2E/DX2 analytically  !
 ! A30   A(18,8,19)            106.1881         calculate D2E/DX2 analytically  !
 ! A31   A(8,9,20)             108.4668         calculate D2E/DX2 analytically  !
 ! A32   A(8,9,21)             108.5736         calculate D2E/DX2 analytically  !
 ! A33   A(20,9,21)            105.2269         calculate D2E/DX2 analytically  !
 ! A34   A(3,10,7)             120.9918         calculate D2E/DX2 analytically  !
 ! A35   A(3,10,22)            119.7024         calculate D2E/DX2 analytically  !
 ! A36   A(7,10,22)            119.3058         calculate D2E/DX2 analytically  !
 ! D1    D(11,1,2,3)          -172.4328         calculate D2E/DX2 analytically  !
 ! D2    D(11,1,2,13)          -50.2828         calculate D2E/DX2 analytically  !
 ! D3    D(11,1,2,14)           66.4856         calculate D2E/DX2 analytically  !
 ! D4    D(12,1,2,3)           -56.5867         calculate D2E/DX2 analytically  !
 ! D5    D(12,1,2,13)           65.5632         calculate D2E/DX2 analytically  !
 ! D6    D(12,1,2,14)         -177.6683         calculate D2E/DX2 analytically  !
 ! D7    D(1,2,3,4)            -64.9885         calculate D2E/DX2 analytically  !
 ! D8    D(1,2,3,10)           115.1313         calculate D2E/DX2 analytically  !
 ! D9    D(13,2,3,4)           173.5851         calculate D2E/DX2 analytically  !
 ! D10   D(13,2,3,10)           -6.2951         calculate D2E/DX2 analytically  !
 ! D11   D(14,2,3,4)            56.4402         calculate D2E/DX2 analytically  !
 ! D12   D(14,2,3,10)         -123.4401         calculate D2E/DX2 analytically  !
 ! D13   D(2,3,4,5)           -179.6199         calculate D2E/DX2 analytically  !
 ! D14   D(2,3,4,15)             0.8328         calculate D2E/DX2 analytically  !
 ! D15   D(10,3,4,5)             0.2627         calculate D2E/DX2 analytically  !
 ! D16   D(10,3,4,15)         -179.2847         calculate D2E/DX2 analytically  !
 ! D17   D(2,3,10,7)          -179.9554         calculate D2E/DX2 analytically  !
 ! D18   D(2,3,10,22)           -0.0333         calculate D2E/DX2 analytically  !
 ! D19   D(4,3,10,7)             0.1626         calculate D2E/DX2 analytically  !
 ! D20   D(4,3,10,22)         -179.9153         calculate D2E/DX2 analytically  !
 ! D21   D(3,4,5,6)             -0.1324         calculate D2E/DX2 analytically  !
 ! D22   D(3,4,5,16)          -179.9894         calculate D2E/DX2 analytically  !
 ! D23   D(15,4,5,6)           179.4158         calculate D2E/DX2 analytically  !
 ! D24   D(15,4,5,16)           -0.4411         calculate D2E/DX2 analytically  !
 ! D25   D(4,5,6,7)             -0.4272         calculate D2E/DX2 analytically  !
 ! D26   D(4,5,6,17)           179.8169         calculate D2E/DX2 analytically  !
 ! D27   D(16,5,6,7)           179.4294         calculate D2E/DX2 analytically  !
 ! D28   D(16,5,6,17)           -0.3265         calculate D2E/DX2 analytically  !
 ! D29   D(5,6,7,8)            178.9277         calculate D2E/DX2 analytically  !
 ! D30   D(5,6,7,10)             0.8388         calculate D2E/DX2 analytically  !
 ! D31   D(17,6,7,8)            -1.3189         calculate D2E/DX2 analytically  !
 ! D32   D(17,6,7,10)         -179.4078         calculate D2E/DX2 analytically  !
 ! D33   D(6,7,8,9)            -88.8936         calculate D2E/DX2 analytically  !
 ! D34   D(6,7,8,18)           149.4912         calculate D2E/DX2 analytically  !
 ! D35   D(6,7,8,19)            32.7704         calculate D2E/DX2 analytically  !
 ! D36   D(10,7,8,9)            89.1676         calculate D2E/DX2 analytically  !
 ! D37   D(10,7,8,18)          -32.4476         calculate D2E/DX2 analytically  !
 ! D38   D(10,7,8,19)         -149.1685         calculate D2E/DX2 analytically  !
 ! D39   D(6,7,10,3)            -0.7083         calculate D2E/DX2 analytically  !
 ! D40   D(6,7,10,22)          179.3693         calculate D2E/DX2 analytically  !
 ! D41   D(8,7,10,3)          -178.7966         calculate D2E/DX2 analytically  !
 ! D42   D(8,7,10,22)            1.281          calculate D2E/DX2 analytically  !
 ! D43   D(7,8,9,20)            57.4989         calculate D2E/DX2 analytically  !
 ! D44   D(7,8,9,21)           -56.3504         calculate D2E/DX2 analytically  !
 ! D45   D(18,8,9,20)          179.4176         calculate D2E/DX2 analytically  !
 ! D46   D(18,8,9,21)           65.5684         calculate D2E/DX2 analytically  !
 ! D47   D(19,8,9,20)          -64.4636         calculate D2E/DX2 analytically  !
 ! D48   D(19,8,9,21)         -178.3128         calculate D2E/DX2 analytically  !
 --------------------------------------------------------------------------------
 Trust Radius=3.00D-01 FncErr=1.00D-07 GrdErr=1.00D-06 EigMax=2.50D+02 EigMin=1.00D-04
 Number of steps in this run=    116 maximum allowed number of steps=    132.
 GradGradGradGradGradGradGradGradGradGradGradGradGradGradGradGradGradGrad

                          Input orientation:                          
 ---------------------------------------------------------------------
 Center     Atomic      Atomic             Coordinates (Angstroms)
 Number     Number       Type             X           Y           Z
 ---------------------------------------------------------------------
      1          7           0        3.431148   -0.290403    0.477132
      2          6           0        2.223031   -0.053244    1.257745
      3          6           0        1.051053    0.284448    0.371917
      4          6           0        1.053067    1.462868   -0.387274
      5          6           0       -0.031509    1.784774   -1.202602
      6          6           0       -1.131355    0.930497   -1.271279
      7          6           0       -1.153247   -0.259343   -0.531413
      8          6           0       -2.351765   -1.170994   -0.586680
      9          7           0       -3.336485   -0.811300    0.426979
     10          6           0       -0.059642   -0.569504    0.293210
     11          1           0        4.164081   -0.636008    1.092598
     12          1           0        3.245066   -1.031702   -0.196911
     13          1           0        2.003222   -0.943388    1.858294
     14          1           0        2.391791    0.770352    1.960728
     15          1           0        1.911646    2.130618   -0.346907
     16          1           0       -0.016552    2.701610   -1.785998
     17          1           0       -1.971605    1.195687   -1.909096
     18          1           0       -2.039724   -2.211663   -0.441830
     19          1           0       -2.813626   -1.125852   -1.579668
     20          1           0       -3.607620    0.160880    0.283176
     21          1           0       -2.884352   -0.830823    1.340144
     22          1           0       -0.076622   -1.487509    0.877735
 ---------------------------------------------------------------------
                    Distance matrix (angstroms):
                    1          2          3          4          5
     1  N    0.000000
     2  C    1.457789   0.000000
     3  C    2.450791   1.507402   0.000000
     4  C    3.078381   2.524579   1.401802   0.000000
     5  C    4.372397   3.809798   2.429408   1.394520   0.000000
     6  C    5.036266   4.314581   2.807200   2.415902   1.394334
     7  C    4.694125   3.826593   2.443492   2.802607   2.426356
     8  C    5.945521   5.057670   3.823138   4.309277   3.807822
     9  N    6.787836   5.672128   4.522631   5.010291   4.507549
    10  C    3.506756   2.531294   1.403236   2.414894   2.789420
    11  H    1.017562   2.033363   3.325292   4.034069   5.360140
    12  H    1.019061   2.029276   2.620974   3.326256   4.436202
    13  H    2.091165   1.096053   2.150239   3.425703   4.577344
    14  H    2.099172   1.095890   2.134948   2.790139   4.111944
    15  H    2.974772   2.727842   2.160017   1.088429   2.151202
    16  H    5.095148   4.676464   3.411605   2.152904   1.086813
    17  H    6.090344   5.402192   3.894847   3.396464   2.147121
    18  H    5.870790   5.071332   4.055325   4.803177   4.536872
    19  H    6.627640   5.879568   4.553392   4.803602   4.044020
    20  H    7.055886   5.915414   4.661156   4.885353   4.199183
    21  H    6.397061   5.166892   4.203416   4.873219   4.630941
    22  H    3.728002   2.736773   2.160402   3.403112   3.877844
                    6          7          8          9         10
     6  C    0.000000
     7  C    1.401285   0.000000
     8  C    2.524745   1.506853   0.000000
     9  N    3.283372   2.447386   1.458272   0.000000
    10  C    2.417890   1.404341   2.527810   3.288474   0.000000
    11  H    6.006954   5.572546   6.749995   7.532083   4.299219
    12  H    4.915033   4.478123   5.612115   6.614728   3.372675
    13  H    4.809495   4.017700   4.999561   5.529790   2.616235
    14  H    4.783729   4.454024   5.723585   6.137357   3.253514
    15  H    3.399207   3.890954   5.397666   6.066025   3.403878
    16  H    2.155124   3.410762   4.678530   5.315990   3.876228
    17  H    1.087730   2.164447   2.737606   3.368700   3.409054
    18  H    3.374358   2.146025   1.096059   2.097007   2.675387
    19  H    2.674642   2.146284   1.096075   2.097369   3.376629
    20  H    3.023330   2.619940   2.026748   1.019474   3.622390
    21  H    3.604826   2.612669   2.027810   1.019154   3.023796
    22  H    3.402569   2.157131   2.724145   3.359635   1.088436
                   11         12         13         14         15
    11  H    0.000000
    12  H    1.632175   0.000000
    13  H    2.313025   2.402882   0.000000
    14  H    2.423327   2.937837   1.760223   0.000000
    15  H    3.847059   3.435226   3.784285   2.721404   0.000000
    16  H    6.074842   5.205859   5.535916   4.854670   2.472845
    17  H    7.071910   5.925073   5.879466   5.847706   4.288842
    18  H    6.582124   5.420451   4.821256   5.856879   5.871775
    19  H    7.487947   6.215193   5.920718   6.574676   5.869625
    20  H    7.854268   6.972233   5.931438   6.259278   5.893994
    21  H    7.055469   6.322393   4.916252   5.548565   5.883695
    22  H    4.330679   3.520828   2.362904   3.516230   4.306252
                   16         17         18         19         20
    16  H    0.000000
    17  H    2.470868   0.000000
    18  H    5.480900   3.710464   0.000000
    19  H    4.745067   2.491399   1.752879   0.000000
    20  H    4.861332   2.924624   2.934773   2.399228   0.000000
    21  H    5.520427   3.936675   2.407394   2.935531   1.619806
    22  H    4.964655   4.307776   2.473746   3.696054   3.941907
                   21         22
    21  H    0.000000
    22  H    2.920343   0.000000
 Stoichiometry    C8H12N2
 Framework group  C1[X(C8H12N2)]
 Deg. of freedom    60
 Full point group                 C1      NOp   1
 Largest Abelian subgroup         C1      NOp   1
 Largest concise Abelian subgroup C1      NOp   1
                         Standard orientation:                         
 ---------------------------------------------------------------------
 Center     Atomic      Atomic             Coordinates (Angstroms)
 Number     Number       Type             X           Y           Z
 ---------------------------------------------------------------------
      1          7           0       -3.419513   -0.617482    0.508698
      2          6           0       -2.402971   -0.876286   -0.503632
      3          6           0       -1.147595   -0.084544   -0.240127
      4          6           0       -1.166217    1.315631   -0.305034
      5          6           0       -0.006400    2.053393   -0.070046
      6          6           0        1.186870    1.400114    0.235730
      7          6           0        1.229668    0.001917    0.318262
      8          6           0        2.524217   -0.705672    0.624968
      9          7           0        3.267062   -1.000641   -0.594758
     10          6           0        0.057962   -0.731709    0.071134
     11          1           0       -4.198382   -1.257737    0.371331
     12          1           0       -3.029073   -0.828453    1.426049
     13          1           0       -2.180268   -1.949308   -0.522555
     14          1           0       -2.791749   -0.615149   -1.494407
     15          1           0       -2.095556    1.834012   -0.533696
     16          1           0       -0.035223    3.138509   -0.123480
     17          1           0        2.084496    1.988117    0.413709
     18          1           0        2.324449   -1.637145    1.166997
     19          1           0        3.140716   -0.090870    1.290795
     20          1           0        3.435238   -0.125572   -1.090034
     21          1           0        2.670599   -1.548176   -1.213720
     22          1           0        0.088714   -1.818430    0.123903
 ---------------------------------------------------------------------
 Rotational constants (GHZ):           2.5375830           0.7893843           0.6501958
 Standard basis: 6-31G(d,p) (6D, 7F)
 There are   210 symmetry adapted cartesian basis functions of A   symmetry.
 There are   210 symmetry adapted basis functions of A   symmetry.
   210 basis functions,   364 primitive gaussians,   210 cartesian basis functions
    37 alpha electrons       37 beta electrons
       nuclear repulsion energy       502.1307398607 Hartrees.
 NAtoms=   22 NActive=   22 NUniq=   22 SFac= 1.00D+00 NAtFMM=   60 NAOKFM=F Big=F
 Integral buffers will be    131072 words long.
 Raffenetti 2 integral format.
 Two-electron integral symmetry is turned on.
 Force inversion solution in PCM.
 ------------------------------------------------------------------------------
 Polarizable Continuum Model (PCM)
 =================================
 Model                : PCM.
 Atomic radii         : UFF (Universal Force Field).
 Polarization charges : Total charges.
 Charge compensation  : None.
 Solution method      : Matrix inversion.
 Cavity type          : Scaled VdW (van der Waals Surface) (Alpha=1.100).
 Cavity algorithm     : GePol (No added spheres)
                        Default sphere list used, NSphG=   22.
                        Lebedev-Laikov grids with approx.  5.0 points / Ang**2.
                        Smoothing algorithm: York/Karplus (Gamma=1.0000).
                        Polarization charges: spherical gaussians, with
                                              point-specific exponents (IZeta= 3).
                        Self-potential: point-specific (ISelfS= 7).
                        Self-field    : sphere-specific E.n sum rule (ISelfD= 2).
 1st derivatives      : Analytical E(r).r(x)/FMM algorithm (CHGder, D1EAlg=3).
                        Cavity 1st derivative terms included.
 2nd derivatives      : Analytical E(r).r(xy)/FMM algorithm (CHGder, D2EAlg=3).
                        Cavity 2nd derivative terms included.
 Solvent              : Water, Eps=  78.355300 Eps(inf)=   1.777849
 ------------------------------------------------------------------------------
 One-electron integrals computed using PRISM.
 NBasis=   210 RedAO= T EigKep=  4.35D-04  NBF=   210
 NBsUse=   210 1.00D-06 EigRej= -1.00D+00 NBFU=   210
 ExpMin= 1.61D-01 ExpMax= 4.17D+03 ExpMxC= 6.27D+02 IAcc=3 IRadAn=         5 AccDes= 0.00D+00
 Harris functional with IExCor=  402 and IRadAn=       5 diagonalized for initial guess.
 HarFok:  IExCor=  402 AccDes= 0.00D+00 IRadAn=         5 IDoV= 1 UseB2=F ITyADJ=14
 ICtDFT=  3500011 ScaDFX=  1.000000  1.000000  1.000000  1.000000
 FoFCou: FMM=F IPFlag=           0 FMFlag=      100000 FMFlg1=           0
         NFxFlg=           0 DoJE=T BraDBF=F KetDBF=T FulRan=T
         wScrn=  0.000000 ICntrl=       500 IOpCl=  0 I1Cent=   200000004 NGrid=           0
         NMat0=    1 NMatS0=      1 NMatT0=    0 NMatD0=    1 NMtDS0=    0 NMtDT0=    0
 Petite list used in FoFCou.
 Keep R1 ints in memory in canonical form, NReq=250131393.
 Requested convergence on RMS density matrix=1.00D-08 within  32 cycles.
 Requested convergence on MAX density matrix=1.00D-06.
 Requested convergence on             energy=1.00D-06.
 No special actions if energy rises.
 Inv3:  Mode=1 IEnd=     8376723.
 Iteration    1 A*A^-1 deviation from unit magnitude is 2.89D-15 for    939.
 Iteration    1 A*A^-1 deviation from orthogonality  is 2.03D-15 for   1344   1125.
 Iteration    1 A^-1*A deviation from unit magnitude is 2.89D-15 for    939.
 Iteration    1 A^-1*A deviation from orthogonality  is 2.06D-15 for   1239    409.
 Error on total polarization charges =  0.00856
 SCF Done:  E(RB3LYP) =  -421.594336726     A.U. after   12 cycles
            NFock= 12  Conv=0.21D-08     -V/T= 2.0096
 QCSCF skips out because SCF is already converged.
 DoSCS=F DFT=T ScalE2(SS,OS)=  1.000000  1.000000
 Range of M.O.s used for correlation:     1   210
 NBasis=   210 NAE=    37 NBE=    37 NFC=     0 NFV=     0
 NROrb=    210 NOA=    37 NOB=    37 NVA=   173 NVB=   173
 Symmetrizing basis deriv contribution to polar:
 IMax=3 JMax=2 DiffMx= 0.00D+00
 G2DrvN: will do    23 centers at a time, making    1 passes.
 Calling FoFCou, ICntrl=  3107 FMM=F I1Cent=   0 AccDes= 0.00D+00.
 NEqPCM:  Using equilibrium solvation (IEInf=0, Eps=  78.3553, EpsInf=   1.7778)
 G2PCM: DoFxE=T DoFxN=T DoGrad=T DoDP/DQ/DG/TGxP=FFFF NFrqRd=   0 IEInf=0 SqF1=F DoCFld=F IF1Alg=4.
 End of G2Drv F.D. properties file   721 does not exist.
 End of G2Drv F.D. properties file   722 does not exist.
 End of G2Drv F.D. properties file   788 does not exist.
          IDoAtm=1111111111111111111111
 NEqPCM:  Using equilibrium solvation (IEInf=0, Eps=  78.3553, EpsInf=   1.7778)
          Differentiating once with respect to nuclear coordinates.
 Keep R1 ints in memory in canonical form, NReq=253101705.
          There are    69 degrees of freedom in the 1st order CPHF.  IDoFFX=6 NUNeed=     0.
     63 vectors produced by pass  0 Test12= 9.28D-15 1.45D-09 XBig12= 1.14D-01 1.08D-01.
 AX will form    63 AO Fock derivatives at one time.
     63 vectors produced by pass  1 Test12= 9.28D-15 1.45D-09 XBig12= 1.97D-02 3.43D-02.
     63 vectors produced by pass  2 Test12= 9.28D-15 1.45D-09 XBig12= 1.43D-04 1.94D-03.
     63 vectors produced by pass  3 Test12= 9.28D-15 1.45D-09 XBig12= 3.37D-07 6.55D-05.
     63 vectors produced by pass  4 Test12= 9.28D-15 1.45D-09 XBig12= 3.74D-10 2.07D-06.
     37 vectors produced by pass  5 Test12= 9.28D-15 1.45D-09 XBig12= 3.35D-13 5.49D-08.
      4 vectors produced by pass  6 Test12= 9.28D-15 1.45D-09 XBig12= 2.81D-16 2.07D-09.
 InvSVY:  IOpt=1 It=  1 EMax= 5.00D-16
 Solved reduced A of dimension   356 with    69 vectors.
 End of Minotr F.D. properties file   721 does not exist.
 End of Minotr F.D. properties file   722 does not exist.
 End of Minotr F.D. properties file   788 does not exist.

 **********************************************************************

            Population analysis using the SCF density.

 **********************************************************************

 Orbital symmetries:
       Occupied  (A) (A) (A) (A) (A) (A) (A) (A) (A) (A) (A) (A)
                 (A) (A) (A) (A) (A) (A) (A) (A) (A) (A) (A) (A)
                 (A) (A) (A) (A) (A) (A) (A) (A) (A) (A) (A) (A)
                 (A)
       Virtual   (A) (A) (A) (A) (A) (A) (A) (A) (A) (A) (A) (A)
                 (A) (A) (A) (A) (A) (A) (A) (A) (A) (A) (A) (A)
                 (A) (A) (A) (A) (A) (A) (A) (A) (A) (A) (A) (A)
                 (A) (A) (A) (A) (A) (A) (A) (A) (A) (A) (A) (A)
                 (A) (A) (A) (A) (A) (A) (A) (A) (A) (A) (A) (A)
                 (A) (A) (A) (A) (A) (A) (A) (A) (A) (A) (A) (A)
                 (A) (A) (A) (A) (A) (A) (A) (A) (A) (A) (A) (A)
                 (A) (A) (A) (A) (A) (A) (A) (A) (A) (A) (A) (A)
                 (A) (A) (A) (A) (A) (A) (A) (A) (A) (A) (A) (A)
                 (A) (A) (A) (A) (A) (A) (A) (A) (A) (A) (A) (A)
                 (A) (A) (A) (A) (A) (A) (A) (A) (A) (A) (A) (A)
                 (A) (A) (A) (A) (A) (A) (A) (A) (A) (A) (A) (A)
                 (A) (A) (A) (A) (A) (A) (A) (A) (A) (A) (A) (A)
                 (A) (A) (A) (A) (A) (A) (A) (A) (A) (A) (A) (A)
                 (A) (A) (A) (A) (A)
 The electronic state is 1-A.
 Alpha  occ. eigenvalues --  -14.31329 -14.30999 -10.20765 -10.20673 -10.19352
 Alpha  occ. eigenvalues --  -10.19074 -10.18816 -10.18629 -10.18566 -10.18487
 Alpha  occ. eigenvalues --   -0.88982  -0.88296  -0.84255  -0.75553  -0.74727
 Alpha  occ. eigenvalues --   -0.65987  -0.65789  -0.59478  -0.56646  -0.50525
 Alpha  occ. eigenvalues --   -0.49414  -0.48111  -0.45953  -0.44491  -0.42719
 Alpha  occ. eigenvalues --   -0.42399  -0.41231  -0.40221  -0.38527  -0.36085
 Alpha  occ. eigenvalues --   -0.35418  -0.34166  -0.32991  -0.25874  -0.24693
 Alpha  occ. eigenvalues --   -0.23565  -0.22433
 Alpha virt. eigenvalues --   -0.00488  -0.00132   0.09376   0.09533   0.11408
 Alpha virt. eigenvalues --    0.12952   0.13574   0.14748   0.15586   0.16103
 Alpha virt. eigenvalues --    0.17125   0.17961   0.18454   0.20361   0.20480
 Alpha virt. eigenvalues --    0.24980   0.25511   0.26416   0.26921   0.32074
 Alpha virt. eigenvalues --    0.33618   0.34775   0.37850   0.44521   0.51901
 Alpha virt. eigenvalues --    0.52157   0.53378   0.54566   0.55833   0.56434
 Alpha virt. eigenvalues --    0.57262   0.58871   0.59353   0.60813   0.61628
 Alpha virt. eigenvalues --    0.61914   0.63473   0.64949   0.67781   0.69476
 Alpha virt. eigenvalues --    0.71194   0.72131   0.72885   0.73554   0.75301
 Alpha virt. eigenvalues --    0.77424   0.79432   0.81520   0.81934   0.82701
 Alpha virt. eigenvalues --    0.83807   0.86197   0.86516   0.87934   0.88518
 Alpha virt. eigenvalues --    0.88828   0.91471   0.92615   0.94469   0.95459
 Alpha virt. eigenvalues --    0.96801   0.98434   1.00794   1.03201   1.05683
 Alpha virt. eigenvalues --    1.06945   1.14692   1.14900   1.15488   1.19909
 Alpha virt. eigenvalues --    1.24645   1.28447   1.29016   1.30927   1.37376
 Alpha virt. eigenvalues --    1.38209   1.39428   1.42057   1.42562   1.43665
 Alpha virt. eigenvalues --    1.48873   1.55504   1.59560   1.60314   1.66831
 Alpha virt. eigenvalues --    1.68533   1.77009   1.78265   1.82040   1.83651
 Alpha virt. eigenvalues --    1.83980   1.86001   1.87098   1.88886   1.90289
 Alpha virt. eigenvalues --    1.93340   1.93722   1.96547   1.97679   1.98526
 Alpha virt. eigenvalues --    1.99553   2.03363   2.06328   2.07271   2.10863
 Alpha virt. eigenvalues --    2.14513   2.16781   2.17430   2.18839   2.21536
 Alpha virt. eigenvalues --    2.24171   2.24913   2.26912   2.27268   2.29132
 Alpha virt. eigenvalues --    2.30854   2.33371   2.34337   2.34834   2.40342
 Alpha virt. eigenvalues --    2.41043   2.41378   2.42761   2.44809   2.45749
 Alpha virt. eigenvalues --    2.51633   2.52721   2.53014   2.55548   2.58489
 Alpha virt. eigenvalues --    2.62492   2.64323   2.64557   2.66544   2.67896
 Alpha virt. eigenvalues --    2.70575   2.71538   2.73723   2.77632   2.79117
 Alpha virt. eigenvalues --    2.82362   2.85054   2.87238   2.90172   2.93331
 Alpha virt. eigenvalues --    2.97148   2.97666   3.06368   3.06707   3.20142
 Alpha virt. eigenvalues --    3.24323   3.26742   3.27417   3.30366   3.32401
 Alpha virt. eigenvalues --    3.33059   3.39054   3.40973   3.43207   3.47071
 Alpha virt. eigenvalues --    3.55303   3.58568   3.83597   3.96759   3.98264
 Alpha virt. eigenvalues --    4.14858   4.17501   4.20965   4.42244   4.45859
 Alpha virt. eigenvalues --    4.53138   4.59737   4.84671
          Condensed to atoms (all electrons):
               1          2          3          4          5          6
     1  N    6.823053   0.287041  -0.062792   0.005207   0.000064   0.000018
     2  C    0.287041   4.888845   0.367625  -0.064761   0.005544   0.000574
     3  C   -0.062792   0.367625   4.765798   0.523191  -0.020879  -0.037739
     4  C    0.005207  -0.064761   0.523191   4.928326   0.519142  -0.045908
     5  C    0.000064   0.005544  -0.020879   0.519142   4.866744   0.517829
     6  C    0.000018   0.000574  -0.037739  -0.045908   0.517829   4.910051
     7  C   -0.000160   0.006381  -0.023901  -0.038690  -0.023063   0.542086
     8  C    0.000001  -0.000170   0.005265   0.000635   0.005627  -0.053032
     9  N   -0.000000   0.000003  -0.000073   0.000017  -0.000054  -0.003170
    10  C   -0.000634  -0.046415   0.525916  -0.048020  -0.049557  -0.043587
    11  H    0.335989  -0.031359   0.005653   0.000051   0.000007  -0.000000
    12  H    0.335750  -0.039738  -0.001301  -0.000660  -0.000083  -0.000017
    13  H   -0.051516   0.377792  -0.039386   0.007436  -0.000179  -0.000003
    14  H   -0.044741   0.372934  -0.022354  -0.008985  -0.000113   0.000025
    15  H    0.005785  -0.009235  -0.047103   0.371828  -0.043320   0.004938
    16  H   -0.000001  -0.000177   0.003417  -0.037343   0.366079  -0.036896
    17  H    0.000000   0.000009   0.000509   0.004714  -0.041818   0.370193
    18  H   -0.000000  -0.000003   0.000082   0.000008  -0.000254   0.004589
    19  H   -0.000000   0.000002  -0.000218  -0.000004   0.000149  -0.005505
    20  H   -0.000000  -0.000000   0.000004  -0.000012  -0.000164   0.005109
    21  H    0.000000   0.000002  -0.000173  -0.000013  -0.000004  -0.000112
    22  H    0.000013  -0.009907  -0.041480   0.006133   0.000089   0.005646
               7          8          9         10         11         12
     1  N   -0.000160   0.000001  -0.000000  -0.000634   0.335989   0.335750
     2  C    0.006381  -0.000170   0.000003  -0.046415  -0.031359  -0.039738
     3  C   -0.023901   0.005265  -0.000073   0.525916   0.005653  -0.001301
     4  C   -0.038690   0.000635   0.000017  -0.048020   0.000051  -0.000660
     5  C   -0.023063   0.005627  -0.000054  -0.049557   0.000007  -0.000083
     6  C    0.542086  -0.053032  -0.003170  -0.043587  -0.000000  -0.000017
     7  C    4.829474   0.352954  -0.081088   0.505568   0.000006  -0.000088
     8  C    0.352954   4.897604   0.319411  -0.046274  -0.000000  -0.000000
     9  N   -0.081088   0.319411   6.774397  -0.003466  -0.000000   0.000000
    10  C    0.505568  -0.046274  -0.003466   4.999981  -0.000024   0.002403
    11  H    0.000006  -0.000000  -0.000000  -0.000024   0.474050  -0.030527
    12  H   -0.000088  -0.000000   0.000000   0.002403  -0.030527   0.481678
    13  H    0.000241  -0.000002   0.000000  -0.008653  -0.005446  -0.004429
    14  H   -0.000264   0.000002  -0.000000   0.002870  -0.002448   0.007063
    15  H    0.000487   0.000007   0.000000   0.005575  -0.000182  -0.000025
    16  H    0.003667  -0.000173   0.000003   0.001138  -0.000000   0.000001
    17  H   -0.046116  -0.008230   0.000551   0.005410   0.000000  -0.000000
    18  H   -0.038990   0.376277  -0.037807  -0.005778   0.000000   0.000000
    19  H   -0.038536   0.377153  -0.037455   0.004130   0.000000  -0.000000
    20  H   -0.000509  -0.045953   0.342942  -0.000159   0.000000   0.000000
    21  H   -0.000384  -0.046236   0.343105   0.005037   0.000000  -0.000000
    22  H   -0.048769  -0.008115   0.000585   0.365902  -0.000034   0.000049
              13         14         15         16         17         18
     1  N   -0.051516  -0.044741   0.005785  -0.000001   0.000000  -0.000000
     2  C    0.377792   0.372934  -0.009235  -0.000177   0.000009  -0.000003
     3  C   -0.039386  -0.022354  -0.047103   0.003417   0.000509   0.000082
     4  C    0.007436  -0.008985   0.371828  -0.037343   0.004714   0.000008
     5  C   -0.000179  -0.000113  -0.043320   0.366079  -0.041818  -0.000254
     6  C   -0.000003   0.000025   0.004938  -0.036896   0.370193   0.004589
     7  C    0.000241  -0.000264   0.000487   0.003667  -0.046116  -0.038990
     8  C   -0.000002   0.000002   0.000007  -0.000173  -0.008230   0.376277
     9  N    0.000000  -0.000000   0.000000   0.000003   0.000551  -0.037807
    10  C   -0.008653   0.002870   0.005575   0.001138   0.005410  -0.005778
    11  H   -0.005446  -0.002448  -0.000182  -0.000000   0.000000   0.000000
    12  H   -0.004429   0.007063  -0.000025   0.000001  -0.000000   0.000000
    13  H    0.673547  -0.048694   0.000277   0.000003  -0.000000  -0.000001
    14  H   -0.048694   0.628598   0.001610  -0.000001  -0.000000   0.000000
    15  H    0.000277   0.001610   0.623291  -0.005663  -0.000185  -0.000000
    16  H    0.000003  -0.000001  -0.005663   0.612477  -0.005527   0.000003
    17  H   -0.000000  -0.000000  -0.000185  -0.005527   0.620989   0.000122
    18  H   -0.000001   0.000000  -0.000000   0.000003   0.000122   0.617838
    19  H    0.000000  -0.000000  -0.000000  -0.000002   0.004887  -0.035535
    20  H   -0.000000   0.000000  -0.000000   0.000003   0.000916   0.006842
    21  H   -0.000000  -0.000000  -0.000000   0.000000   0.000047  -0.005282
    22  H    0.007428   0.000057  -0.000161   0.000019  -0.000162   0.005192
              19         20         21         22
     1  N   -0.000000  -0.000000   0.000000   0.000013
     2  C    0.000002  -0.000000   0.000002  -0.009907
     3  C   -0.000218   0.000004  -0.000173  -0.041480
     4  C   -0.000004  -0.000012  -0.000013   0.006133
     5  C    0.000149  -0.000164  -0.000004   0.000089
     6  C   -0.005505   0.005109  -0.000112   0.005646
     7  C   -0.038536  -0.000509  -0.000384  -0.048769
     8  C    0.377153  -0.045953  -0.046236  -0.008115
     9  N   -0.037455   0.342942   0.343105   0.000585
    10  C    0.004130  -0.000159   0.005037   0.365902
    11  H    0.000000   0.000000   0.000000  -0.000034
    12  H   -0.000000   0.000000  -0.000000   0.000049
    13  H    0.000000  -0.000000  -0.000000   0.007428
    14  H   -0.000000   0.000000  -0.000000   0.000057
    15  H   -0.000000  -0.000000  -0.000000  -0.000161
    16  H   -0.000002   0.000003   0.000000   0.000019
    17  H    0.004887   0.000916   0.000047  -0.000162
    18  H   -0.035535   0.006842  -0.005282   0.005192
    19  H    0.616452  -0.005566   0.006817   0.000094
    20  H   -0.005566   0.479129  -0.033575   0.000046
    21  H    0.006817  -0.033575   0.478991   0.000914
    22  H    0.000094   0.000046   0.000914   0.625459
 Mulliken charges:
               1
     1  N   -0.633078
     2  C   -0.104987
     3  C    0.099941
     4  C   -0.122292
     5  C   -0.101785
     6  C   -0.135090
     7  C    0.099694
     8  C   -0.126750
     9  N   -0.617902
    10  C   -0.171362
    11  H    0.254266
    12  H    0.249923
    13  H    0.091586
    14  H    0.114441
    15  H    0.092077
    16  H    0.098975
    17  H    0.093692
    18  H    0.112696
    19  H    0.113138
    20  H    0.250949
    21  H    0.250866
    22  H    0.091002
 Sum of Mulliken charges =  -0.00000
 Mulliken charges with hydrogens summed into heavy atoms:
               1
     1  N   -0.128888
     2  C    0.101040
     3  C    0.099941
     4  C   -0.030214
     5  C   -0.002811
     6  C   -0.041398
     7  C    0.099694
     8  C    0.099084
     9  N   -0.116087
    10  C   -0.080360
 APT charges:
               1
     1  N   -1.351205
     2  C   -0.550454
     3  C   -0.150181
     4  C   -0.503055
     5  C   -0.475496
     6  C   -0.511722
     7  C   -0.041604
     8  C   -0.793394
     9  N   -0.681019
    10  C   -0.543788
    11  H    0.899650
    12  H    0.303318
    13  H    0.358625
    14  H    0.445979
    15  H    0.536592
    16  H    0.612463
    17  H    0.553215
    18  H    0.363917
    19  H    0.490990
    20  H    0.407109
    21  H    0.251438
    22  H    0.378623
 Sum of APT charges =  -0.00000
 APT charges with hydrogens summed into heavy atoms:
               1
     1  N   -0.148237
     2  C    0.254150
     3  C   -0.150181
     4  C    0.033537
     5  C    0.136967
     6  C    0.041493
     7  C   -0.041604
     8  C    0.061513
     9  N   -0.022473
    10  C   -0.165165
 Electronic spatial extent (au):  <R**2>=           1799.1120
 Charge=             -0.0000 electrons
 Dipole moment (field-independent basis, Debye):
    X=             -1.0043    Y=             -0.9471    Z=             -0.3260  Tot=              1.4184
 Quadrupole moment (field-independent basis, Debye-Ang):
   XX=            -66.5047   YY=            -55.0124   ZZ=            -58.8484
   XY=             11.2882   XZ=              0.4295   YZ=             -1.3734
 Traceless Quadrupole moment (field-independent basis, Debye-Ang):
   XX=             -6.3828   YY=              5.1094   ZZ=              1.2734
   XY=             11.2882   XZ=              0.4295   YZ=             -1.3734
 Octapole moment (field-independent basis, Debye-Ang**2):
  XXX=            -47.2818  YYY=              0.4745  ZZZ=             -0.4412  XYY=            -12.0195
  XXY=              0.5926  XXZ=             -0.5927  XZZ=              0.3829  YZZ=             -7.4313
  YYZ=              0.0566  XYZ=              3.8158
 Hexadecapole moment (field-independent basis, Debye-Ang**3):
 XXXX=          -1845.7878 YYYY=           -497.3177 ZZZZ=           -147.5266 XXXY=            215.2214
 XXXZ=              9.0370 YYYX=             17.9245 YYYZ=             -2.3898 ZZZX=            -23.0853
 ZZZY=             -0.1318 XXYY=           -360.0331 XXZZ=           -273.8304 YYZZ=           -117.1612
 XXYZ=            -22.4792 YYXZ=             -2.6587 ZZXY=              2.9285
 N-N= 5.021307398607D+02 E-N=-1.982206334750D+03  KE= 4.176053196128D+02
  Exact polarizability:   0.000   0.000   0.000   0.000   0.000   0.000
 Approx polarizability: 175.457   2.644 166.100  16.774  -2.556  87.754
 D2PCM: PCM CHGder 2nd derivatives, FixD1E=F FixD2E=F DoIter=F DoCFld=F I1PDM=0
 Calling FoFJK, ICntrl=    100147 FMM=F ISym2X=0 I1Cent= 0 IOpClX= 0 NMat=1 NMatS=1 NMatT=0.
 ***** Axes restored to original set *****
 -------------------------------------------------------------------
 Center     Atomic                   Forces (Hartrees/Bohr)
 Number     Number              X              Y              Z
 -------------------------------------------------------------------
      1        7           0.010010870    0.006909402   -0.009513872
      2        6          -0.001797139   -0.008207431    0.004897224
      3        6          -0.005600309   -0.001381070    0.001375244
      4        6           0.001600464    0.001775896   -0.001237043
      5        6           0.001485384    0.000661472    0.001305468
      6        6           0.000763976   -0.000155920   -0.000303816
      7        6           0.007829428   -0.000666802   -0.005772294
      8        6           0.005593956    0.000502315   -0.002655244
      9        7          -0.013452460   -0.003017149    0.005555674
     10        6           0.001591477    0.005639323   -0.003674818
     11        1           0.000369671   -0.000488061   -0.000601410
     12        1           0.001006444   -0.000396900    0.001909105
     13        1          -0.008985131    0.000520772    0.004690634
     14        1           0.003090847    0.000904042   -0.000107588
     15        1          -0.000515468   -0.001531366    0.000760721
     16        1          -0.000164813   -0.000168161    0.000187056
     17        1          -0.000387235   -0.001792227   -0.000087249
     18        1          -0.000990954    0.000044892    0.002113992
     19        1          -0.001751158    0.001211923    0.001103432
     20        1           0.000033306   -0.000634106    0.000771354
     21        1          -0.000577061    0.000324698   -0.000233396
     22        1           0.000845905   -0.000055543   -0.000483175
 -------------------------------------------------------------------
 Cartesian Forces:  Max     0.013452460 RMS     0.003737961
 FormGI is forming the generalized inverse of G from B-inverse, IUseBI=4.

 GradGradGradGradGradGradGradGradGradGradGradGradGradGradGradGradGradGrad
 Berny optimization.
 Internal  Forces:  Max     0.016444845 RMS     0.003290069
 Search for a local minimum.
 Step number   1 out of a maximum of  116
 All quantities printed in internal units (Hartrees-Bohrs-Radians)
 Mixed Optimization -- RFO/linear search
 Second derivative matrix not updated -- analytic derivatives used.
 ITU=  0
     Eigenvalues ---   -0.00025   0.00122   0.00263   0.00310   0.01602
     Eigenvalues ---    0.01656   0.01733   0.02001   0.02154   0.02408
     Eigenvalues ---    0.02502   0.02578   0.02803   0.03312   0.03602
     Eigenvalues ---    0.05435   0.05451   0.05908   0.05959   0.08833
     Eigenvalues ---    0.09029   0.11044   0.11849   0.11988   0.12394
     Eigenvalues ---    0.12646   0.12798   0.15063   0.15315   0.17271
     Eigenvalues ---    0.17605   0.18272   0.19147   0.19253   0.19400
     Eigenvalues ---    0.20262   0.22065   0.22895   0.29061   0.30421
     Eigenvalues ---    0.31538   0.32169   0.32944   0.33138   0.33262
     Eigenvalues ---    0.35384   0.35571   0.35682   0.35900   0.38244
     Eigenvalues ---    0.38354   0.41256   0.41556   0.44039   0.44071
     Eigenvalues ---    0.44221   0.44675   0.46515   0.46613   0.50406
 RFO step:  Lambda=-5.09467839D-03 EMin=-2.52635465D-04
 Linear search not attempted -- first point.
 Iteration  1 RMS(Cart)=  0.11893881 RMS(Int)=  0.04889481
 Iteration  2 RMS(Cart)=  0.10307763 RMS(Int)=  0.00694571
 Iteration  3 RMS(Cart)=  0.01091955 RMS(Int)=  0.00026562
 Iteration  4 RMS(Cart)=  0.00011637 RMS(Int)=  0.00025907
 Iteration  5 RMS(Cart)=  0.00000004 RMS(Int)=  0.00025907
 Variable       Old X    -DE/DX   Delta X   Delta X   Delta X     New X
                                 (Linear)    (Quad)   (Total)
    R1        2.75482   0.01285   0.00000   0.02235   0.02235   2.77717
    R2        1.92291   0.00007   0.00000   0.00109   0.00109   1.92401
    R3        1.92575  -0.00116   0.00000  -0.00092  -0.00092   1.92483
    R4        2.84858   0.00379   0.00000   0.01668   0.01668   2.86526
    R5        2.07124   0.00395   0.00000   0.01025   0.01025   2.08149
    R6        2.07093   0.00109   0.00000   0.00578   0.00578   2.07671
    R7        2.64902  -0.00052   0.00000   0.00296   0.00298   2.65201
    R8        2.65173  -0.00284   0.00000  -0.00993  -0.00992   2.64181
    R9        2.63526   0.00017   0.00000  -0.00167  -0.00167   2.63360
   R10        2.05683  -0.00132   0.00000  -0.00598  -0.00598   2.05085
   R11        2.63491   0.00258   0.00000   0.00640   0.00638   2.64129
   R12        2.05378  -0.00024   0.00000  -0.00032  -0.00032   2.05346
   R13        2.64804  -0.00079   0.00000  -0.00306  -0.00309   2.64496
   R14        2.05551  -0.00009   0.00000  -0.00022  -0.00022   2.05529
   R15        2.84754   0.00957   0.00000   0.02166   0.02166   2.86920
   R16        2.65382  -0.00090   0.00000  -0.00177  -0.00178   2.65205
   R17        2.75573   0.01286   0.00000   0.03227   0.03227   2.78800
   R18        2.07125  -0.00005   0.00000  -0.00054  -0.00054   2.07071
   R19        2.07128  -0.00021   0.00000  -0.00077  -0.00077   2.07051
   R20        1.92653  -0.00072   0.00000  -0.00002  -0.00002   1.92651
   R21        1.92592  -0.00047   0.00000   0.00059   0.00059   1.92652
   R22        2.05685  -0.00023   0.00000   0.00020   0.00020   2.05705
    A1        1.90530   0.00090   0.00000  -0.00247  -0.00248   1.90282
    A2        1.89779   0.00001   0.00000  -0.00057  -0.00058   1.89721
    A3        1.85931  -0.00108   0.00000  -0.01289  -0.01292   1.84639
    A4        1.94561  -0.00186   0.00000   0.00505   0.00446   1.95007
    A5        1.90443   0.00990   0.00000   0.08119   0.08146   1.98589
    A6        1.91573  -0.00431   0.00000  -0.04646  -0.04616   1.86958
    A7        1.92624  -0.00515   0.00000  -0.02701  -0.02810   1.89813
    A8        1.90533   0.00235   0.00000  -0.00147  -0.00195   1.90338
    A9        1.86477  -0.00094   0.00000  -0.01259  -0.01204   1.85273
   A10        2.10072  -0.00030   0.00000  -0.00008  -0.00022   2.10050
   A11        2.10834   0.00078   0.00000   0.00371   0.00357   2.11191
   A12        2.07412  -0.00048   0.00000  -0.00368  -0.00377   2.07036
   A13        2.10549  -0.00109   0.00000  -0.00464  -0.00464   2.10085
   A14        2.09068  -0.00069   0.00000  -0.01105  -0.01109   2.07959
   A15        2.08698   0.00179   0.00000   0.01558   0.01553   2.10251
   A16        2.09538   0.00035   0.00000   0.00399   0.00398   2.09936
   A17        2.09194  -0.00005   0.00000   0.00007   0.00007   2.09202
   A18        2.09586  -0.00029   0.00000  -0.00406  -0.00406   2.09180
   A19        2.10197   0.00023   0.00000   0.00002  -0.00003   2.10194
   A20        2.08156   0.00160   0.00000   0.01088   0.01090   2.09246
   A21        2.09965  -0.00182   0.00000  -0.01092  -0.01090   2.08875
   A22        2.10223   0.00165   0.00000   0.00700   0.00702   2.10926
   A23        2.07762  -0.00260   0.00000  -0.00905  -0.00909   2.06852
   A24        2.10285   0.00093   0.00000   0.00207   0.00208   2.10493
   A25        1.94160   0.01644   0.00000   0.06559   0.06583   2.00743
   A26        1.92106  -0.00372   0.00000  -0.00789  -0.00751   1.91355
   A27        1.92140  -0.00381   0.00000  -0.00867  -0.00826   1.91314
   A28        1.91195  -0.00625   0.00000  -0.03295  -0.03325   1.87870
   A29        1.91244  -0.00631   0.00000  -0.03380  -0.03407   1.87837
   A30        1.85333   0.00287   0.00000   0.01459   0.01395   1.86728
   A31        1.89310   0.00091   0.00000  -0.00007  -0.00007   1.89304
   A32        1.89497   0.00065   0.00000  -0.00095  -0.00095   1.89401
   A33        1.83656  -0.00064   0.00000  -0.00659  -0.00660   1.82996
   A34        2.11170   0.00360   0.00000   0.01358   0.01358   2.12529
   A35        2.08920  -0.00239   0.00000  -0.01061  -0.01062   2.07858
   A36        2.08228  -0.00121   0.00000  -0.00297  -0.00298   2.07930
    D1       -3.00952  -0.00010   0.00000  -0.11324  -0.11359  -3.12311
    D2       -0.87760  -0.00105   0.00000  -0.08852  -0.08769  -0.96529
    D3        1.16039   0.00107   0.00000  -0.08329  -0.08380   1.07659
    D4       -0.98762  -0.00090   0.00000  -0.13025  -0.13058  -1.11821
    D5        1.14429  -0.00184   0.00000  -0.10553  -0.10468   1.03961
    D6       -3.10090   0.00028   0.00000  -0.10030  -0.10079   3.08150
    D7       -1.13426   0.00459   0.00000   0.43006   0.42979  -0.70447
    D8        2.00942   0.00420   0.00000   0.45928   0.45909   2.46851
    D9        3.02963  -0.00317   0.00000   0.34218   0.34251  -2.91104
   D10       -0.10987  -0.00357   0.00000   0.37140   0.37181   0.26194
   D11        0.98507  -0.00043   0.00000   0.37404   0.37386   1.35892
   D12       -2.15444  -0.00083   0.00000   0.40326   0.40315  -1.75129
   D13       -3.13496  -0.00040   0.00000   0.02873   0.02865  -3.10631
   D14        0.01453  -0.00029   0.00000   0.04375   0.04360   0.05813
   D15        0.00458  -0.00002   0.00000   0.00008   0.00005   0.00464
   D16       -3.12911   0.00010   0.00000   0.01510   0.01500  -3.11411
   D17       -3.14081   0.00004   0.00000  -0.04269  -0.04279   3.09958
   D18       -0.00058   0.00018   0.00000  -0.04691  -0.04693  -0.04751
   D19        0.00284  -0.00035   0.00000  -0.01391  -0.01399  -0.01116
   D20       -3.14011  -0.00021   0.00000  -0.01813  -0.01813   3.12494
   D21       -0.00231   0.00004   0.00000   0.00517   0.00516   0.00285
   D22       -3.14141   0.00010   0.00000   0.00729   0.00737  -3.13404
   D23        3.13140  -0.00009   0.00000  -0.00994  -0.01011   3.12129
   D24       -0.00770  -0.00003   0.00000  -0.00782  -0.00790  -0.01560
   D25       -0.00746   0.00030   0.00000   0.00332   0.00336  -0.00410
   D26        3.13840   0.00011   0.00000   0.00769   0.00780  -3.13699
   D27        3.13163   0.00025   0.00000   0.00120   0.00116   3.13279
   D28       -0.00570   0.00005   0.00000   0.00557   0.00560  -0.00010
   D29        3.12288  -0.00092   0.00000  -0.01644  -0.01637   3.10651
   D30        0.01464  -0.00069   0.00000  -0.01690  -0.01681  -0.00217
   D31       -0.02302  -0.00071   0.00000  -0.02080  -0.02075  -0.04376
   D32       -3.13126  -0.00049   0.00000  -0.02127  -0.02119   3.13074
   D33       -1.55149   0.00019   0.00000  -0.00569  -0.00567  -1.55716
   D34        2.60911  -0.00036   0.00000  -0.00250  -0.00263   2.60648
   D35        0.57195   0.00061   0.00000  -0.01045  -0.01030   0.56165
   D36        1.55627  -0.00011   0.00000  -0.00543  -0.00543   1.55083
   D37       -0.56632  -0.00066   0.00000  -0.00224  -0.00240  -0.56871
   D38       -2.60348   0.00031   0.00000  -0.01019  -0.01007  -2.61355
   D39       -0.01236   0.00069   0.00000   0.02225   0.02230   0.00994
   D40        3.13058   0.00056   0.00000   0.02646   0.02644  -3.12616
   D41       -3.12059   0.00091   0.00000   0.02168   0.02176  -3.09883
   D42        0.02236   0.00077   0.00000   0.02590   0.02590   0.04826
   D43        1.00354  -0.00005   0.00000  -0.00933  -0.00934   0.99421
   D44       -0.98350  -0.00011   0.00000  -0.00107  -0.00108  -0.98458
   D45        3.13143   0.00187   0.00000   0.00166   0.00115   3.13258
   D46        1.14438   0.00181   0.00000   0.00992   0.00941   1.15379
   D47       -1.12510  -0.00183   0.00000  -0.01881  -0.01829  -1.14339
   D48       -3.11215  -0.00189   0.00000  -0.01055  -0.01003  -3.12218
         Item               Value     Threshold  Converged?
 Maximum Force            0.016445     0.000450     NO 
 RMS     Force            0.003290     0.000300     NO 
 Maximum Displacement     0.911653     0.001800     NO 
 RMS     Displacement     0.219893     0.001200     NO 
 Predicted change in Energy=-3.238059D-03
 GradGradGradGradGradGradGradGradGradGradGradGradGradGradGradGradGradGrad

                          Input orientation:                          
 ---------------------------------------------------------------------
 Center     Atomic      Atomic             Coordinates (Angstroms)
 Number     Number       Type             X           Y           Z
 ---------------------------------------------------------------------
      1          7           0        3.516617    0.054142    0.595369
      2          6           0        2.217313   -0.208096    1.230045
      3          6           0        1.062851    0.162982    0.319844
      4          6           0        1.119945    1.329536   -0.458213
      5          6           0        0.041884    1.693112   -1.263090
      6          6           0       -1.108726    0.900460   -1.300451
      7          6           0       -1.189526   -0.268458   -0.534861
      8          6           0       -2.451651   -1.112443   -0.533220
      9          7           0       -3.450171   -0.739654    0.486898
     10          6           0       -0.091669   -0.623364    0.264069
     11          1           0        4.259742   -0.225090    1.232867
     12          1           0        3.609561   -0.549276   -0.219948
     13          1           0        2.086755   -1.250679    1.560537
     14          1           0        2.170643    0.408695    2.138381
     15          1           0        2.022023    1.932667   -0.441282
     16          1           0        0.097681    2.594363   -1.867593
     17          1           0       -1.944589    1.187971   -1.934146
     18          1           0       -2.190820   -2.164690   -0.373663
     19          1           0       -2.938318   -1.048261   -1.512770
     20          1           0       -3.695676    0.240998    0.355154
     21          1           0       -3.005860   -0.776854    1.403696
     22          1           0       -0.138007   -1.538060    0.852378
 ---------------------------------------------------------------------
                    Distance matrix (angstroms):
                    1          2          3          4          5
     1  N    0.000000
     2  C    1.469617   0.000000
     3  C    2.471584   1.516228   0.000000
     4  C    2.912165   2.533524   1.403381   0.000000
     5  C    4.267770   3.816124   2.426798   1.393639   0.000000
     6  C    5.069929   4.323753   2.808020   2.420835   1.397711
     7  C    4.850698   3.837328   2.447420   2.809468   2.427848
     8  C    6.185051   5.072097   3.834860   4.327261   3.823816
     9  N    7.012703   5.740661   4.605434   5.104972   4.601658
    10  C    3.686259   2.537115   1.397987   2.409049   2.777789
    11  H    1.018140   2.042502   3.347286   3.890365   5.263043
    12  H    1.018574   2.038930   2.698966   3.128081   4.341056
    13  H    2.163010   1.101476   2.141527   3.415784   4.562924
    14  H    2.078037   1.098947   2.143514   2.948595   4.213235
    15  H    2.614826   2.722929   2.152001   1.085264   2.157244
    16  H    4.920166   4.684227   3.409992   2.152014   1.086642
    17  H    6.124442   5.411334   3.895609   3.404378   2.156748
    18  H    6.199764   5.082497   4.060220   4.814346   4.545183
    19  H    6.879370   5.899952   4.564531   4.820322   4.056978
    20  H    7.218711   5.994211   4.759298   5.003667   4.323969
    21  H    6.624700   5.256917   4.314213   4.992579   4.743546
    22  H    3.994676   2.731111   2.149232   3.394583   3.866269
                    6          7          8          9         10
     6  C    0.000000
     7  C    1.399652   0.000000
     8  C    2.538479   1.518313   0.000000
     9  N    3.371492   2.525180   1.475348   0.000000
    10  C    2.409184   1.403402   2.538579   3.367894   0.000000
    11  H    6.041937   5.728984   6.996374   7.762989   4.475709
    12  H    5.052866   4.817599   6.095374   7.097583   3.733479
    13  H    4.798307   4.011168   5.000005   5.663161   2.611491
    14  H    4.777202   4.346895   5.551299   5.969896   3.113880
    15  H    3.406642   3.894580   5.412477   6.160172   3.390945
    16  H    2.155545   3.410105   4.692553   5.408008   3.864402
    17  H    1.087611   2.156224   2.740732   3.441506   3.397998
    18  H    3.380090   2.150412   1.095771   2.087404   2.681198
    19  H    2.681418   2.150040   1.095665   2.087079   3.382470
    20  H    3.141374   2.707852   2.041718   1.019465   3.707329
    21  H    3.704715   2.704726   2.042403   1.019468   3.132861
    22  H    3.394606   2.154533   2.730197   3.426581   1.088542
                   11         12         13         14         15
    11  H    0.000000
    12  H    1.624346   0.000000
    13  H    2.425092   2.445615   0.000000
    14  H    2.363466   2.924022   1.759109   0.000000
    15  H    3.530734   2.954541   3.761006   2.999873   0.000000
    16  H    5.906346   4.993046   5.522032   5.012199   2.485014
    17  H    7.107773   6.066720   5.866136   5.841907   4.303165
    18  H    6.924791   6.023090   4.782697   5.652879   5.877155
    19  H    7.747787   6.692914   5.893857   6.446325   5.885491
    20  H    8.017250   7.370330   6.092172   6.133655   6.015658
    21  H    7.288525   6.815556   5.117014   5.361107   6.002087
    22  H    4.605307   4.021423   2.352370   3.282305   4.287801
                   16         17         18         19         20
    16  H    0.000000
    17  H    2.480572   0.000000
    18  H    5.487955   3.706220   0.000000
    19  H    4.755197   2.483100   1.761458   0.000000
    20  H    4.986831   3.033802   2.929694   2.392680   0.000000
    21  H    5.630133   4.015970   2.397788   2.929846   1.615955
    22  H    4.952849   4.296475   2.471817   3.698049   4.008652
                   21         22
    21  H    0.000000
    22  H    3.017941   0.000000
 Stoichiometry    C8H12N2
 Framework group  C1[X(C8H12N2)]
 Deg. of freedom    60
 Full point group                 C1      NOp   1
 Largest Abelian subgroup         C1      NOp   1
 Largest concise Abelian subgroup C1      NOp   1
                         Standard orientation:                         
 ---------------------------------------------------------------------
 Center     Atomic      Atomic             Coordinates (Angstroms)
 Number     Number       Type             X           Y           Z
 ---------------------------------------------------------------------
      1          7           0       -3.562145   -0.453700    0.249129
      2          6           0       -2.352861   -1.063617   -0.321317
      3          6           0       -1.133301   -0.185166   -0.121458
      4          6           0       -1.228201    1.206192   -0.278289
      5          6           0       -0.098633    2.009965   -0.135973
      6          6           0        1.141178    1.437123    0.161209
      7          6           0        1.261522    0.052178    0.323909
      8          6           0        2.611441   -0.584731    0.602014
      9          7           0        3.380309   -0.966415   -0.597907
     10          6           0        0.112318   -0.741195    0.184539
     11          1           0       -4.349631   -1.083432    0.108022
     12          1           0       -3.444997   -0.378156    1.258120
     13          1           0       -2.133916   -2.068546    0.072928
     14          1           0       -2.531469   -1.189918   -1.398272
     15          1           0       -2.195808    1.649514   -0.490420
     16          1           0       -0.182863    3.087083   -0.252213
     17          1           0        2.017699    2.070870    0.275110
     18          1           0        2.475080   -1.486286    1.209729
     19          1           0        3.230075    0.105001    1.186861
     20          1           0        3.507145   -0.137272   -1.177341
     21          1           0        2.809127   -1.594616   -1.162203
     22          1           0        0.191625   -1.817937    0.323320
 ---------------------------------------------------------------------
 Rotational constants (GHZ):           2.6928862           0.7575207           0.6271508
 Standard basis: 6-31G(d,p) (6D, 7F)
 There are   210 symmetry adapted cartesian basis functions of A   symmetry.
 There are   210 symmetry adapted basis functions of A   symmetry.
   210 basis functions,   364 primitive gaussians,   210 cartesian basis functions
    37 alpha electrons       37 beta electrons
       nuclear repulsion energy       499.5658857680 Hartrees.
 NAtoms=   22 NActive=   22 NUniq=   22 SFac= 1.00D+00 NAtFMM=   60 NAOKFM=F Big=F
 Integral buffers will be    131072 words long.
 Raffenetti 2 integral format.
 Two-electron integral symmetry is turned on.
 ------------------------------------------------------------------------------
 Polarizable Continuum Model (PCM)
 =================================
 Model                : PCM.
 Atomic radii         : UFF (Universal Force Field).
 Polarization charges : Total charges.
 Charge compensation  : None.
 Solution method      : Matrix inversion.
 Cavity type          : Scaled VdW (van der Waals Surface) (Alpha=1.100).
 Cavity algorithm     : GePol (No added spheres)
                        Default sphere list used, NSphG=   22.
                        Lebedev-Laikov grids with approx.  5.0 points / Ang**2.
                        Smoothing algorithm: York/Karplus (Gamma=1.0000).
                        Polarization charges: spherical gaussians, with
                                              point-specific exponents (IZeta= 3).
                        Self-potential: point-specific (ISelfS= 7).
                        Self-field    : sphere-specific E.n sum rule (ISelfD= 2).
 1st derivatives      : Analytical E(r).r(x)/FMM algorithm (CHGder, D1EAlg=3).
                        Cavity 1st derivative terms included.
 Solvent              : Water, Eps=  78.355300 Eps(inf)=   1.777849
 ------------------------------------------------------------------------------
 One-electron integrals computed using PRISM.
 NBasis=   210 RedAO= T EigKep=  4.29D-04  NBF=   210
 NBsUse=   210 1.00D-06 EigRej= -1.00D+00 NBFU=   210
 Initial guess from the checkpoint file:  "FDLQZKYLHJJBHD-UHFFFAOYSA-N_conf_1_0.chk"
 B after Tr=     0.000000    0.000000    0.000000
         Rot=    0.999416    0.032561    0.003526   -0.009778 Ang=   3.92 deg.
 ExpMin= 1.61D-01 ExpMax= 4.17D+03 ExpMxC= 6.27D+02 IAcc=2 IRadAn=         4 AccDes= 0.00D+00
 Harris functional with IExCor=  402 and IRadAn=       4 diagonalized for initial guess.
 HarFok:  IExCor=  402 AccDes= 0.00D+00 IRadAn=         4 IDoV= 1 UseB2=F ITyADJ=14
 ICtDFT=  3500011 ScaDFX=  1.000000  1.000000  1.000000  1.000000
 FoFCou: FMM=F IPFlag=           0 FMFlag=      100000 FMFlg1=           0
         NFxFlg=           0 DoJE=T BraDBF=F KetDBF=T FulRan=T
         wScrn=  0.000000 ICntrl=       500 IOpCl=  0 I1Cent=   200000004 NGrid=           0
         NMat0=    1 NMatS0=      1 NMatT0=    0 NMatD0=    1 NMtDS0=    0 NMtDT0=    0
 Petite list used in FoFCou.
 Keep R1 ints in memory in canonical form, NReq=250131393.
 Requested convergence on RMS density matrix=1.00D-08 within  32 cycles.
 Requested convergence on MAX density matrix=1.00D-06.
 Requested convergence on             energy=1.00D-06.
 No special actions if energy rises.
 Inv3:  Mode=1 IEnd=     8906187.
 Iteration    1 A*A^-1 deviation from unit magnitude is 3.11D-15 for    554.
 Iteration    1 A*A^-1 deviation from orthogonality  is 1.67D-15 for   1519    956.
 Iteration    1 A^-1*A deviation from unit magnitude is 3.55D-15 for    554.
 Iteration    1 A^-1*A deviation from orthogonality  is 1.41D-15 for   1700      2.
 Error on total polarization charges =  0.00856
 SCF Done:  E(RB3LYP) =  -421.597255561     A.U. after   12 cycles
            NFock= 12  Conv=0.59D-08     -V/T= 2.0098
 QCSCF skips out because SCF is already converged.
 D1PCM: PCM CHGder 1st derivatives, ID1Alg=3 FixD1E=F DoIter=F DoCFld=F I1PDM=0.
 Calling FoFJK, ICntrl=      2127 FMM=F ISym2X=0 I1Cent= 0 IOpClX= 0 NMat=1 NMatS=1 NMatT=0.
 ***** Axes restored to original set *****
 -------------------------------------------------------------------
 Center     Atomic                   Forces (Hartrees/Bohr)
 Number     Number              X              Y              Z
 -------------------------------------------------------------------
      1        7           0.000636146    0.000037430   -0.000699920
      2        6           0.000051096   -0.001121286    0.000155622
      3        6           0.000474046    0.003091617    0.000111026
      4        6           0.000124168   -0.000501329   -0.000375712
      5        6          -0.001044333   -0.000354140   -0.000300424
      6        6           0.000402260    0.000904770   -0.000393842
      7        6           0.001127240   -0.000814869    0.000003404
      8        6           0.000550581    0.000207612    0.000029670
      9        7          -0.001168867   -0.000061453    0.000580610
     10        6          -0.000479101   -0.000201532   -0.000105002
     11        1          -0.000145638    0.000226139    0.000073162
     12        1           0.000505370   -0.000289539    0.000168136
     13        1          -0.000385475   -0.000304686    0.000102092
     14        1          -0.000230415   -0.000328262    0.000094730
     15        1          -0.000209986   -0.000045547    0.000531994
     16        1          -0.000025766   -0.000017712   -0.000049650
     17        1          -0.000016701   -0.000129122   -0.000059913
     18        1          -0.000002899   -0.000005402   -0.000025730
     19        1           0.000006746   -0.000042719   -0.000007261
     20        1          -0.000000208   -0.000017683    0.000082044
     21        1          -0.000057263    0.000006532   -0.000019608
     22        1          -0.000111001   -0.000238817    0.000104574
 -------------------------------------------------------------------
 Cartesian Forces:  Max     0.003091617 RMS     0.000556079

 GradGradGradGradGradGradGradGradGradGradGradGradGradGradGradGradGradGrad
 Berny optimization.
 Using GEDIIS/GDIIS optimizer.
 FormGI is forming the generalized inverse of G from B-inverse, IUseBI=4.
 Internal  Forces:  Max     0.002221413 RMS     0.000436808
 Search for a local minimum.
 Step number   2 out of a maximum of  116
 All quantities printed in internal units (Hartrees-Bohrs-Radians)
 Mixed Optimization -- En-DIIS/RFO-DIIS
 Update second derivatives using D2CorX and points    1    2
 DE= -2.92D-03 DEPred=-3.24D-03 R= 9.01D-01
 TightC=F SS=  1.41D+00  RLast= 1.03D+00 DXNew= 5.0454D-01 3.0774D+00
 Trust test= 9.01D-01 RLast= 1.03D+00 DXMaxT set to 5.05D-01
 ITU=  1  0
 Use linear search instead of GDIIS.
     Eigenvalues ---   -0.00035   0.00122   0.00266   0.00310   0.01603
     Eigenvalues ---    0.01641   0.01733   0.02001   0.02156   0.02411
     Eigenvalues ---    0.02500   0.02580   0.02804   0.03310   0.03602
     Eigenvalues ---    0.05434   0.05448   0.05905   0.05939   0.08797
     Eigenvalues ---    0.08974   0.11044   0.11850   0.11937   0.12243
     Eigenvalues ---    0.12386   0.12650   0.14992   0.15143   0.17104
     Eigenvalues ---    0.17637   0.18495   0.19140   0.19260   0.19569
     Eigenvalues ---    0.20386   0.20921   0.22865   0.29104   0.30180
     Eigenvalues ---    0.31514   0.32168   0.32785   0.33079   0.33139
     Eigenvalues ---    0.35327   0.35571   0.35670   0.35900   0.36248
     Eigenvalues ---    0.38258   0.41265   0.41553   0.44037   0.44074
     Eigenvalues ---    0.44221   0.44676   0.46531   0.46620   0.50403
 RFO step:  Lambda=-3.95879977D-04 EMin=-3.47308152D-04
 Quartic linear search produced a step of  0.05480.
 Iteration  1 RMS(Cart)=  0.10841907 RMS(Int)=  0.04601895
 Iteration  2 RMS(Cart)=  0.09729024 RMS(Int)=  0.00593847
 Iteration  3 RMS(Cart)=  0.00749058 RMS(Int)=  0.00013395
 Iteration  4 RMS(Cart)=  0.00002372 RMS(Int)=  0.00013234
 Iteration  5 RMS(Cart)=  0.00000000 RMS(Int)=  0.00013234
 Variable       Old X    -DE/DX   Delta X   Delta X   Delta X     New X
                                 (Linear)    (Quad)   (Total)
    R1        2.77717   0.00107   0.00122   0.01216   0.01339   2.79056
    R2        1.92401  -0.00012   0.00006   0.00142   0.00148   1.92549
    R3        1.92483   0.00008  -0.00005   0.00111   0.00106   1.92588
    R4        2.86526   0.00070   0.00091   0.00145   0.00237   2.86762
    R5        2.08149   0.00036   0.00056   0.00249   0.00305   2.08453
    R6        2.07671  -0.00009   0.00032  -0.00301  -0.00270   2.07401
    R7        2.65201  -0.00031   0.00016  -0.00399  -0.00376   2.64825
    R8        2.64181   0.00051  -0.00054   0.00320   0.00272   2.64453
    R9        2.63360   0.00083  -0.00009   0.00367   0.00359   2.63718
   R10        2.05085  -0.00019  -0.00033   0.00095   0.00062   2.05147
   R11        2.64129  -0.00050   0.00035  -0.00209  -0.00181   2.63948
   R12        2.05346   0.00001  -0.00002  -0.00026  -0.00028   2.05318
   R13        2.64496   0.00051  -0.00017   0.00295   0.00271   2.64767
   R14        2.05529   0.00001  -0.00001  -0.00005  -0.00006   2.05522
   R15        2.86920   0.00051   0.00119   0.00443   0.00562   2.87482
   R16        2.65205  -0.00064  -0.00010  -0.00413  -0.00423   2.64782
   R17        2.78800   0.00126   0.00177   0.00762   0.00939   2.79739
   R18        2.07071   0.00000  -0.00003  -0.00019  -0.00022   2.07049
   R19        2.07051   0.00000  -0.00004   0.00006   0.00001   2.07052
   R20        1.92651  -0.00003  -0.00000  -0.00004  -0.00005   1.92646
   R21        1.92652  -0.00004   0.00003   0.00006   0.00009   1.92661
   R22        2.05705   0.00026   0.00001   0.00109   0.00110   2.05815
    A1        1.90282  -0.00025  -0.00014  -0.00881  -0.00897   1.89385
    A2        1.89721   0.00052  -0.00003  -0.00105  -0.00111   1.89611
    A3        1.84639  -0.00018  -0.00071  -0.00880  -0.00956   1.83683
    A4        1.95007   0.00094   0.00024  -0.00754  -0.00733   1.94274
    A5        1.98589  -0.00008   0.00446   0.00711   0.01157   1.99746
    A6        1.86958  -0.00000  -0.00253  -0.00262  -0.00513   1.86445
    A7        1.89813  -0.00041  -0.00154  -0.00548  -0.00706   1.89107
    A8        1.90338  -0.00048  -0.00011   0.00542   0.00527   1.90865
    A9        1.85273  -0.00004  -0.00066   0.00396   0.00334   1.85607
   A10        2.10050   0.00222  -0.00001   0.01680   0.01618   2.11668
   A11        2.11191  -0.00206   0.00020  -0.01414  -0.01453   2.09738
   A12        2.07036  -0.00015  -0.00021  -0.00108  -0.00154   2.06882
   A13        2.10085  -0.00010  -0.00025  -0.00036  -0.00050   2.10035
   A14        2.07959  -0.00025  -0.00061   0.00224   0.00149   2.08109
   A15        2.10251   0.00034   0.00085  -0.00149  -0.00077   2.10174
   A16        2.09936   0.00010   0.00022   0.00006   0.00030   2.09966
   A17        2.09202  -0.00001   0.00000   0.00006   0.00005   2.09207
   A18        2.09180  -0.00010  -0.00022  -0.00012  -0.00035   2.09145
   A19        2.10194  -0.00011  -0.00000   0.00095   0.00089   2.10283
   A20        2.09246   0.00015   0.00060   0.00196   0.00258   2.09504
   A21        2.08875  -0.00004  -0.00060  -0.00287  -0.00344   2.08531
   A22        2.10926   0.00003   0.00038   0.00028   0.00065   2.10991
   A23        2.06852   0.00003  -0.00050  -0.00260  -0.00310   2.06542
   A24        2.10493  -0.00006   0.00011   0.00217   0.00227   2.10721
   A25        2.00743   0.00121   0.00361   0.01581   0.01944   2.02688
   A26        1.91355  -0.00033  -0.00041  -0.00258  -0.00295   1.91059
   A27        1.91314  -0.00034  -0.00045  -0.00280  -0.00321   1.90993
   A28        1.87870  -0.00034  -0.00182  -0.00596  -0.00782   1.87088
   A29        1.87837  -0.00037  -0.00187  -0.00637  -0.00827   1.87010
   A30        1.86728   0.00010   0.00076   0.00095   0.00164   1.86892
   A31        1.89304   0.00010  -0.00000   0.00063   0.00063   1.89366
   A32        1.89401   0.00006  -0.00005  -0.00030  -0.00035   1.89367
   A33        1.82996  -0.00006  -0.00036  -0.00096  -0.00133   1.82863
   A34        2.12529   0.00022   0.00074   0.00307   0.00396   2.12924
   A35        2.07858   0.00000  -0.00058  -0.00181  -0.00246   2.07612
   A36        2.07930  -0.00022  -0.00016  -0.00125  -0.00148   2.07782
    D1       -3.12311  -0.00026  -0.00623  -0.02381  -0.03005   3.13002
    D2       -0.96529  -0.00011  -0.00481  -0.03166  -0.03645  -1.00174
    D3        1.07659  -0.00021  -0.00459  -0.02442  -0.02907   1.04753
    D4       -1.11821  -0.00033  -0.00716  -0.03949  -0.04662  -1.16483
    D5        1.03961  -0.00018  -0.00574  -0.04733  -0.05302   0.98659
    D6        3.08150  -0.00028  -0.00552  -0.04010  -0.04564   3.03586
    D7       -0.70447   0.00009   0.02355  -0.37646  -0.35288  -1.05735
    D8        2.46851  -0.00012   0.02516  -0.43607  -0.41092   2.05759
    D9       -2.91104  -0.00018   0.01877  -0.37616  -0.35736   3.01478
   D10        0.26194  -0.00039   0.02038  -0.43576  -0.41540  -0.15347
   D11        1.35892   0.00035   0.02049  -0.38080  -0.36031   0.99862
   D12       -1.75129   0.00014   0.02209  -0.44041  -0.41835  -2.16963
   D13       -3.10631  -0.00026   0.00157  -0.06158  -0.06047   3.11641
   D14        0.05813  -0.00036   0.00239  -0.08127  -0.07926  -0.02113
   D15        0.00464  -0.00009   0.00000  -0.00361  -0.00359   0.00105
   D16       -3.11411  -0.00019   0.00082  -0.02330  -0.02238  -3.13649
   D17        3.09958   0.00031  -0.00235   0.06374   0.06089  -3.12272
   D18       -0.04751   0.00024  -0.00257   0.06626   0.06327   0.01576
   D19       -0.01116   0.00005  -0.00077   0.00482   0.00410  -0.00706
   D20        3.12494  -0.00001  -0.00099   0.00733   0.00648   3.13142
   D21        0.00285   0.00004   0.00028  -0.00258  -0.00237   0.00048
   D22       -3.13404   0.00003   0.00040  -0.00297  -0.00255  -3.13659
   D23        3.12129   0.00013  -0.00055   0.01742   0.01668   3.13797
   D24       -0.01560   0.00013  -0.00043   0.01702   0.01650   0.00089
   D25       -0.00410   0.00005   0.00018   0.00770   0.00795   0.00385
   D26       -3.13699   0.00002   0.00043   0.00218   0.00265  -3.13434
   D27        3.13279   0.00006   0.00006   0.00810   0.00813   3.14093
   D28       -0.00010   0.00003   0.00031   0.00257   0.00284   0.00273
   D29        3.10651  -0.00011  -0.00090  -0.01197  -0.01289   3.09362
   D30       -0.00217  -0.00009  -0.00092  -0.00643  -0.00733  -0.00950
   D31       -0.04376  -0.00008  -0.00114  -0.00643  -0.00759  -0.05135
   D32        3.13074  -0.00006  -0.00116  -0.00089  -0.00203   3.12871
   D33       -1.55716   0.00005  -0.00031   0.02586   0.02559  -1.53157
   D34        2.60648  -0.00012  -0.00014   0.02451   0.02439   2.63087
   D35        0.56165   0.00016  -0.00056   0.02650   0.02598   0.58763
   D36        1.55083   0.00002  -0.00030   0.02012   0.01979   1.57063
   D37       -0.56871  -0.00014  -0.00013   0.01877   0.01859  -0.55012
   D38       -2.61355   0.00013  -0.00055   0.02076   0.02019  -2.59336
   D39        0.00994   0.00003   0.00122   0.00016   0.00130   0.01124
   D40       -3.12616   0.00010   0.00145  -0.00236  -0.00107  -3.12723
   D41       -3.09883   0.00006   0.00119   0.00572   0.00688  -3.09194
   D42        0.04826   0.00012   0.00142   0.00320   0.00451   0.05277
   D43        0.99421  -0.00003  -0.00051  -0.00328  -0.00379   0.99042
   D44       -0.98458  -0.00004  -0.00006  -0.00232  -0.00238  -0.98696
   D45        3.13258   0.00012   0.00006  -0.00045  -0.00045   3.13213
   D46        1.15379   0.00011   0.00052   0.00050   0.00096   1.15476
   D47       -1.14339  -0.00012  -0.00100  -0.00550  -0.00644  -1.14983
   D48       -3.12218  -0.00013  -0.00055  -0.00454  -0.00503  -3.12721
         Item               Value     Threshold  Converged?
 Maximum Force            0.002221     0.000450     NO 
[...]
     4  C   -0.000002   0.000005  -0.000002   0.006857
     5  C    0.000051  -0.000303   0.000016   0.000080
     6  C   -0.004305   0.005765  -0.000643   0.006187
     7  C   -0.037983   0.002062   0.001131  -0.049140
     8  C    0.373736  -0.036938  -0.038374  -0.009541
     9  N   -0.043179   0.326585   0.329500   0.000145
    10  C    0.004064  -0.000968   0.005311   0.365586
    11  H    0.000000  -0.000000   0.000000  -0.000014
    12  H    0.000000  -0.000000   0.000000  -0.000012
    13  H   -0.000000   0.000000  -0.000002   0.008243
    14  H    0.000000  -0.000000   0.000002   0.000336
    15  H   -0.000000  -0.000000  -0.000000  -0.000167
    16  H   -0.000002   0.000002   0.000000   0.000019
    17  H    0.005112   0.000865   0.000047  -0.000178
    18  H   -0.033633   0.007204  -0.005137   0.005931
    19  H    0.618271  -0.005256   0.007011   0.000108
    20  H   -0.005256   0.466139  -0.031144   0.000052
    21  H    0.007011  -0.031144   0.464505   0.000720
    22  H    0.000108   0.000052   0.000720   0.648096
 Mulliken charges:
               1
     1  N   -0.613661
     2  C   -0.111002
     3  C    0.087526
     4  C   -0.116653
     5  C   -0.137484
     6  C   -0.141690
     7  C    0.095514
     8  C   -0.132793
     9  N   -0.568121
    10  C   -0.202342
    11  H    0.258776
    12  H    0.258118
    13  H    0.103989
    14  H    0.126124
    15  H    0.088845
    16  H    0.081587
    17  H    0.085164
    18  H    0.115249
    19  H    0.116202
    20  H    0.265891
    21  H    0.267306
    22  H    0.073454
 Sum of Mulliken charges =  -0.00000
 Mulliken charges with hydrogens summed into heavy atoms:
               1
     1  N   -0.096767
     2  C    0.119112
     3  C    0.087526
     4  C   -0.027808
     5  C   -0.055898
     6  C   -0.056525
     7  C    0.095514
     8  C    0.098658
     9  N   -0.034923
    10  C   -0.128888
 Electronic spatial extent (au):  <R**2>=           1846.2049
 Charge=             -0.0000 electrons
 Dipole moment (field-independent basis, Debye):
    X=             -0.7168    Y=             -2.0634    Z=             -0.2129  Tot=              2.1948
 Quadrupole moment (field-independent basis, Debye-Ang):
   XX=            -57.0546   YY=            -57.1742   ZZ=            -59.0067
   XY=              9.3513   XZ=             -4.1398   YZ=              0.1886
 Traceless Quadrupole moment (field-independent basis, Debye-Ang):
   XX=              0.6905   YY=              0.5710   ZZ=             -1.2615
   XY=              9.3513   XZ=             -4.1398   YZ=              0.1886
 Octapole moment (field-independent basis, Debye-Ang**2):
  XXX=            -53.8324  YYY=             -6.5087  ZZZ=             -2.6634  XYY=             -6.5998
  XXY=             -8.7618  XXZ=              4.1804  XZZ=              0.7912  YZZ=             -7.3230
  YYZ=             -2.3881  XYZ=              1.4572
 Hexadecapole moment (field-independent basis, Debye-Ang**3):
 XXXX=          -1776.1718 YYYY=           -505.5979 ZZZZ=           -129.5308 XXXY=            194.5719
 XXXZ=            -55.7956 YYYX=              7.1487 YYYZ=             -0.1394 ZZZX=            -26.3664
 ZZZY=              5.3135 XXYY=           -369.1472 XXZZ=           -273.8376 YYZZ=           -113.5204
 XXYZ=             -2.6605 YYXZ=             -1.8858 ZZXY=             -1.4547
 N-N= 4.991330206762D+02 E-N=-1.976394542924D+03  KE= 4.176961394136D+02
 Evaluate density.
 Using the total density.
 Monte-Carlo method of calculating molar volume:
 based on  0.001 e/bohr**3 density envelope.
 Number of points per bohr**3 =   20 CutOff= 1.00D-04
 Using the CI density.
 There are       376 points.  Will hold       376 in memory.
 LenV=   805181594 MDV=   805306368.
 Box volume = 6692.055 fraction occupied=0.199
 Integrated density= 2.7101886074850387D+02 error= 1.9701886074850387D+02
 Molar volume = 1334.851 bohr**3/mol (119.121 cm**3/mol)
 Recommended a0 for SCRF calculation =  4.48 angstrom (  8.46 bohr)
 ******************************Gaussian NBO Version 3.1******************************
             N A T U R A L   A T O M I C   O R B I T A L   A N D
          N A T U R A L   B O N D   O R B I T A L   A N A L Y S I S
 ******************************Gaussian NBO Version 3.1******************************
       /RESON  / : Allow strongly delocalized NBO set

 Analyzing the CI density

 Job title: FDLQZKYLHJJBHD-UHFFFAOYSA-N_conf_1                              

 Storage needed:    133984 in NPA ( 805303728 available)
 GSVD:  LWork=       24900 too small for GESVD, short by       12636 words or       12636 for optimal perf.


 NATURAL POPULATIONS:  Natural atomic orbital occupancies 
                                                          
   NAO  Atom  No  lang   Type(AO)    Occupancy
 --------------------------------------------
     1    N    1  S      Cor( 1S)     1.99965
     2    N    1  S      Val( 2S)     1.44472
     3    N    1  S      Ryd( 3S)     0.00060
     4    N    1  S      Ryd( 4S)     0.00001
     5    N    1  px     Val( 2p)     1.30465
     6    N    1  px     Ryd( 3p)     0.00214
     7    N    1  py     Val( 2p)     1.70002
     8    N    1  py     Ryd( 3p)     0.00461
     9    N    1  pz     Val( 2p)     1.43161
    10    N    1  pz     Ryd( 3p)     0.00261
    11    N    1  dxy    Ryd( 3d)     0.00140
    12    N    1  dxz    Ryd( 3d)     0.00011
    13    N    1  dyz    Ryd( 3d)     0.00081
    14    N    1  dx2y2  Ryd( 3d)     0.00080
    15    N    1  dz2    Ryd( 3d)     0.00128

    16    C    2  S      Cor( 1S)     1.99929
    17    C    2  S      Val( 2S)     1.02064
    18    C    2  S      Ryd( 3S)     0.00193
    19    C    2  S      Ryd( 4S)     0.00004
    20    C    2  px     Val( 2p)     0.92899
    21    C    2  px     Ryd( 3p)     0.00317
    22    C    2  py     Val( 2p)     1.12832
    23    C    2  py     Ryd( 3p)     0.00308
    24    C    2  pz     Val( 2p)     1.18828
    25    C    2  pz     Ryd( 3p)     0.00132
    26    C    2  dxy    Ryd( 3d)     0.00135
    27    C    2  dxz    Ryd( 3d)     0.00089
    28    C    2  dyz    Ryd( 3d)     0.00058
    29    C    2  dx2y2  Ryd( 3d)     0.00101
    30    C    2  dz2    Ryd( 3d)     0.00119

    31    C    3  S      Cor( 1S)     1.99905
    32    C    3  S      Val( 2S)     0.89116
    33    C    3  S      Ryd( 3S)     0.00092
    34    C    3  S      Ryd( 4S)     0.00005
    35    C    3  px     Val( 2p)     1.06317
    36    C    3  px     Ryd( 3p)     0.00563
    37    C    3  py     Val( 2p)     1.07581
    38    C    3  py     Ryd( 3p)     0.00474
    39    C    3  pz     Val( 2p)     1.01182
    40    C    3  pz     Ryd( 3p)     0.00407
    41    C    3  dxy    Ryd( 3d)     0.00071
    42    C    3  dxz    Ryd( 3d)     0.00062
    43    C    3  dyz    Ryd( 3d)     0.00064
    44    C    3  dx2y2  Ryd( 3d)     0.00071
    45    C    3  dz2    Ryd( 3d)     0.00042

    46    C    4  S      Cor( 1S)     1.99907
    47    C    4  S      Val( 2S)     0.96240
    48    C    4  S      Ryd( 3S)     0.00060
    49    C    4  S      Ryd( 4S)     0.00004
    50    C    4  px     Val( 2p)     1.16752
    51    C    4  px     Ryd( 3p)     0.00441
    52    C    4  py     Val( 2p)     1.07971
    53    C    4  py     Ryd( 3p)     0.00466
    54    C    4  pz     Val( 2p)     0.99237
    55    C    4  pz     Ryd( 3p)     0.00376
    56    C    4  dxy    Ryd( 3d)     0.00069
    57    C    4  dxz    Ryd( 3d)     0.00046
    58    C    4  dyz    Ryd( 3d)     0.00071
    59    C    4  dx2y2  Ryd( 3d)     0.00072
    60    C    4  dz2    Ryd( 3d)     0.00035

    61    C    5  S      Cor( 1S)     1.99915
    62    C    5  S      Val( 2S)     0.96151
    63    C    5  S      Ryd( 3S)     0.00068
    64    C    5  S      Ryd( 4S)     0.00003
    65    C    5  px     Val( 2p)     1.05480
    66    C    5  px     Ryd( 3p)     0.00557
    67    C    5  py     Val( 2p)     1.19098
    68    C    5  py     Ryd( 3p)     0.00477
    69    C    5  pz     Val( 2p)     1.07135
    70    C    5  pz     Ryd( 3p)     0.00563
    71    C    5  dxy    Ryd( 3d)     0.00064
    72    C    5  dxz    Ryd( 3d)     0.00057
    73    C    5  dyz    Ryd( 3d)     0.00035
    74    C    5  dx2y2  Ryd( 3d)     0.00070
    75    C    5  dz2    Ryd( 3d)     0.00039

    76    C    6  S      Cor( 1S)     1.99906
    77    C    6  S      Val( 2S)     0.96057
    78    C    6  S      Ryd( 3S)     0.00060
    79    C    6  S      Ryd( 4S)     0.00004
    80    C    6  px     Val( 2p)     1.15146
    81    C    6  px     Ryd( 3p)     0.00449
    82    C    6  py     Val( 2p)     1.10026
    83    C    6  py     Ryd( 3p)     0.00445
    84    C    6  pz     Val( 2p)     1.01527
    85    C    6  pz     Ryd( 3p)     0.00447
    86    C    6  dxy    Ryd( 3d)     0.00074
    87    C    6  dxz    Ryd( 3d)     0.00048
    88    C    6  dyz    Ryd( 3d)     0.00058
    89    C    6  dx2y2  Ryd( 3d)     0.00066
    90    C    6  dz2    Ryd( 3d)     0.00041

    91    C    7  S      Cor( 1S)     1.99904
    92    C    7  S      Val( 2S)     0.89571
    93    C    7  S      Ryd( 3S)     0.00081
    94    C    7  S      Ryd( 4S)     0.00005
    95    C    7  px     Val( 2p)     1.05286
    96    C    7  px     Ryd( 3p)     0.00470
    97    C    7  py     Val( 2p)     1.07710
    98    C    7  py     Ryd( 3p)     0.00480
    99    C    7  pz     Val( 2p)     1.01191
   100    C    7  pz     Ryd( 3p)     0.00358
   101    C    7  dxy    Ryd( 3d)     0.00075
   102    C    7  dxz    Ryd( 3d)     0.00055
   103    C    7  dyz    Ryd( 3d)     0.00081
   104    C    7  dx2y2  Ryd( 3d)     0.00079
   105    C    7  dz2    Ryd( 3d)     0.00035

   106    C    8  S      Cor( 1S)     1.99929
   107    C    8  S      Val( 2S)     1.02126
   108    C    8  S      Ryd( 3S)     0.00116
   109    C    8  S      Ryd( 4S)     0.00004
   110    C    8  px     Val( 2p)     1.04345
   111    C    8  px     Ryd( 3p)     0.00479
   112    C    8  py     Val( 2p)     1.21281
   113    C    8  py     Ryd( 3p)     0.00548
   114    C    8  pz     Val( 2p)     1.00165
   115    C    8  pz     Ryd( 3p)     0.00118
   116    C    8  dxy    Ryd( 3d)     0.00088
   117    C    8  dxz    Ryd( 3d)     0.00137
   118    C    8  dyz    Ryd( 3d)     0.00114
   119    C    8  dx2y2  Ryd( 3d)     0.00075
   120    C    8  dz2    Ryd( 3d)     0.00084

   121    N    9  S      Cor( 1S)     1.99968
   122    N    9  S      Val( 2S)     1.45738
   123    N    9  S      Ryd( 3S)     0.00048
   124    N    9  S      Ryd( 4S)     0.00001
   125    N    9  px     Val( 2p)     1.58699
   126    N    9  px     Ryd( 3p)     0.00463
   127    N    9  py     Val( 2p)     1.43904
   128    N    9  py     Ryd( 3p)     0.00238
   129    N    9  pz     Val( 2p)     1.32360
   130    N    9  pz     Ryd( 3p)     0.00204
   131    N    9  dxy    Ryd( 3d)     0.00098
   132    N    9  dxz    Ryd( 3d)     0.00124
   133    N    9  dyz    Ryd( 3d)     0.00096
   134    N    9  dx2y2  Ryd( 3d)     0.00098
   135    N    9  dz2    Ryd( 3d)     0.00032

   136    C   10  S      Cor( 1S)     1.99901
   137    C   10  S      Val( 2S)     0.94479
   138    C   10  S      Ryd( 3S)     0.00060
   139    C   10  S      Ryd( 4S)     0.00005
   140    C   10  px     Val( 2p)     1.06009
   141    C   10  px     Ryd( 3p)     0.00366
   142    C   10  py     Val( 2p)     1.18918
   143    C   10  py     Ryd( 3p)     0.00449
   144    C   10  pz     Val( 2p)     1.07526
   145    C   10  pz     Ryd( 3p)     0.00603
   146    C   10  dxy    Ryd( 3d)     0.00063
   147    C   10  dxz    Ryd( 3d)     0.00061
   148    C   10  dyz    Ryd( 3d)     0.00034
   149    C   10  dx2y2  Ryd( 3d)     0.00073
   150    C   10  dz2    Ryd( 3d)     0.00038

   151    H   11  S      Val( 1S)     0.60209
   152    H   11  S      Ryd( 2S)     0.00194
   153    H   11  px     Ryd( 2p)     0.00045
   154    H   11  py     Ryd( 2p)     0.00060
   155    H   11  pz     Ryd( 2p)     0.00034

   156    H   12  S      Val( 1S)     0.60515
   157    H   12  S      Ryd( 2S)     0.00214
   158    H   12  px     Ryd( 2p)     0.00027
   159    H   12  py     Ryd( 2p)     0.00049
   160    H   12  pz     Ryd( 2p)     0.00063

   161    H   13  S      Val( 1S)     0.77218
   162    H   13  S      Ryd( 2S)     0.00216
   163    H   13  px     Ryd( 2p)     0.00009
   164    H   13  py     Ryd( 2p)     0.00032
   165    H   13  pz     Ryd( 2p)     0.00014

   166    H   14  S      Val( 1S)     0.75267
   167    H   14  S      Ryd( 2S)     0.00256
   168    H   14  px     Ryd( 2p)     0.00010
   169    H   14  py     Ryd( 2p)     0.00011
   170    H   14  pz     Ryd( 2p)     0.00039

   171    H   15  S      Val( 1S)     0.75703
   172    H   15  S      Ryd( 2S)     0.00161
   173    H   15  px     Ryd( 2p)     0.00037
   174    H   15  py     Ryd( 2p)     0.00011
   175    H   15  pz     Ryd( 2p)     0.00016

   176    H   16  S      Val( 1S)     0.76537
   177    H   16  S      Ryd( 2S)     0.00083
   178    H   16  px     Ryd( 2p)     0.00007
   179    H   16  py     Ryd( 2p)     0.00040
   180    H   16  pz     Ryd( 2p)     0.00018

   181    H   17  S      Val( 1S)     0.76605
   182    H   17  S      Ryd( 2S)     0.00111
   183    H   17  px     Ryd( 2p)     0.00029
   184    H   17  py     Ryd( 2p)     0.00018
   185    H   17  pz     Ryd( 2p)     0.00017

   186    H   18  S      Val( 1S)     0.76049
   187    H   18  S      Ryd( 2S)     0.00206
   188    H   18  px     Ryd( 2p)     0.00009
   189    H   18  py     Ryd( 2p)     0.00028
   190    H   18  pz     Ryd( 2p)     0.00017

   191    H   19  S      Val( 1S)     0.75973
   192    H   19  S      Ryd( 2S)     0.00183
   193    H   19  px     Ryd( 2p)     0.00018
   194    H   19  py     Ryd( 2p)     0.00019
   195    H   19  pz     Ryd( 2p)     0.00017

   196    H   20  S      Val( 1S)     0.60335
   197    H   20  S      Ryd( 2S)     0.00232
   198    H   20  px     Ryd( 2p)     0.00045
   199    H   20  py     Ryd( 2p)     0.00054
   200    H   20  pz     Ryd( 2p)     0.00041

   201    H   21  S      Val( 1S)     0.60320
   202    H   21  S      Ryd( 2S)     0.00201
   203    H   21  px     Ryd( 2p)     0.00054
   204    H   21  py     Ryd( 2p)     0.00044
   205    H   21  pz     Ryd( 2p)     0.00042

   206    H   22  S      Val( 1S)     0.77118
   207    H   22  S      Ryd( 2S)     0.00134
   208    H   22  px     Ryd( 2p)     0.00006
   209    H   22  py     Ryd( 2p)     0.00039
   210    H   22  pz     Ryd( 2p)     0.00020


 Summary of Natural Population Analysis:                  
                                                          
                                       Natural Population 
                Natural  -----------------------------------------------
    Atom  No    Charge         Core      Valence    Rydberg      Total
 -----------------------------------------------------------------------
      N    1   -0.89503      1.99965     5.88101    0.01437     7.89503
      C    2   -0.28008      1.99929     4.26623    0.01456     6.28008
      C    3   -0.05952      1.99905     4.04196    0.01851     6.05952
      C    4   -0.21746      1.99907     4.20200    0.01639     6.21746
      C    5   -0.29712      1.99915     4.27863    0.01934     6.29712
      C    6   -0.24353      1.99906     4.22755    0.01691     6.24353
      C    7   -0.05382      1.99904     4.03758    0.01720     6.05382
      C    8   -0.29609      1.99929     4.27918    0.01763     6.29609
      N    9   -0.82071      1.99968     5.80702    0.01401     7.82071
      C   10   -0.28584      1.99901     4.26931    0.01752     6.28584
      H   11    0.39459      0.00000     0.60209    0.00332     0.60541
      H   12    0.39132      0.00000     0.60515    0.00353     0.60868
      H   13    0.22511      0.00000     0.77218    0.00272     0.77489
      H   14    0.24417      0.00000     0.75267    0.00316     0.75583
      H   15    0.24072      0.00000     0.75703    0.00225     0.75928
      H   16    0.23315      0.00000     0.76537    0.00148     0.76685
      H   17    0.23221      0.00000     0.76605    0.00174     0.76779
      H   18    0.23690      0.00000     0.76049    0.00260     0.76310
      H   19    0.23790      0.00000     0.75973    0.00237     0.76210
      H   20    0.39293      0.00000     0.60335    0.00372     0.60707
      H   21    0.39339      0.00000     0.60320    0.00341     0.60661
      H   22    0.22683      0.00000     0.77118    0.00199     0.77317
 =======================================================================
   * Total *    0.00000     19.99229    53.80896    0.19875    74.00000

                                 Natural Population      
 --------------------------------------------------------
   Core                      19.99229 ( 99.9614% of  20)
   Valence                   53.80896 ( 99.6462% of  54)
   Natural Minimal Basis     73.80125 ( 99.7314% of  74)
   Natural Rydberg Basis      0.19875 (  0.2686% of  74)
 --------------------------------------------------------

    Atom  No          Natural Electron Configuration
 ----------------------------------------------------------------------------
      N    1      [core]2S( 1.44)2p( 4.44)3p( 0.01)
      C    2      [core]2S( 1.02)2p( 3.25)3p( 0.01)3d( 0.01)
      C    3      [core]2S( 0.89)2p( 3.15)3p( 0.01)
      C    4      [core]2S( 0.96)2p( 3.24)3p( 0.01)
      C    5      [core]2S( 0.96)2p( 3.32)3p( 0.02)
      C    6      [core]2S( 0.96)2p( 3.27)3p( 0.01)
      C    7      [core]2S( 0.90)2p( 3.14)3p( 0.01)
      C    8      [core]2S( 1.02)2p( 3.26)3p( 0.01)
      N    9      [core]2S( 1.46)2p( 4.35)3p( 0.01)
      C   10      [core]2S( 0.94)2p( 3.32)3p( 0.01)
      H   11            1S( 0.60)
      H   12            1S( 0.61)
      H   13            1S( 0.77)
      H   14            1S( 0.75)
      H   15            1S( 0.76)
      H   16            1S( 0.77)
      H   17            1S( 0.77)
      H   18            1S( 0.76)
      H   19            1S( 0.76)
      H   20            1S( 0.60)
      H   21            1S( 0.60)
      H   22            1S( 0.77)


 NBO analysis skipped by request.
 1\1\GINC-DRG2-W002\SP\RB3LYP TD-FC\6-31G(d,p)\C8H12N2\QDUEZ\17-Jul-202
 4\0\\# TD(NStates=10, Root=1) B3LYP/6-31G** SCRF=(Solvent=water) volum
 e pop=NPA density=current Geom=AllCheck Guess=Read\\FDLQZKYLHJJBHD-UHF
 FFAOYSA-N_conf_1\\0,1\N,0,3.5280931134,0.0745855841,0.6048496237\C,0,2
 .2244074557,-0.2415650613,1.2057111785\C,0,1.0672814306,0.1596410126,0
 .3088366465\C,0,1.1193298696,1.3287314858,-0.4624101318\C,0,0.03477666
 67,1.6958446362,-1.2600530851\C,0,-1.1152844263,0.904895558,-1.2946737
 058\C,0,-1.1925326877,-0.2671739359,-0.5306949023\C,0,-2.4574828733,-1
 .1079739181,-0.5215928469\N,0,-3.4661234365,-0.7218335945,0.4862825503
 \C,0,-0.0902891815,-0.6258680972,0.2572874753\H,0,4.2622388944,-0.1594
 732429,1.2698821513\H,0,3.6793450218,-0.5330653806,-0.1984763061\H,0,2
 .1041857158,-1.3025829482,1.4780650445\H,0,2.1576089332,0.3212201207,2
 .1470363497\H,0,2.0198741106,1.9335897229,-0.441943731\H,0,0.088106643
 2,2.599225053,-1.8616837748\H,0,-1.9541260567,1.1930359809,-1.92414992
 27\H,0,-2.1989452455,-2.1580557547,-0.3451460808\H,0,-2.9382239884,-1.
 0585563393,-1.5050237305\H,0,-3.7097976623,0.2573217157,0.3405677146\H
 ,0,-3.0289902232,-0.7473993565,1.4069637528\H,0,-0.1334520737,-1.54454
 32406,0.8403657308\\Version=ES64L-G16RevA.03\State=1-A\HF=-421.5973755
 \RMSD=1.937e-09\Dipole=0.261262,-0.5267315,0.6323759\Quadrupole=1.7084
 674,-2.1903097,0.4818423,-6.7998999,2.4714058,-1.473089\PG=C01 [X(C8H1
 2N2)]\\@


 THERE'S NOTHING WRONG WITH FOLLOWING A TRAIN OF THOUGHT...
 AS LONG AS IT ULTIMATELY PULLS INTO THE STATION.
 Job cpu time:       0 days  0 hours 21 minutes 52.7 seconds.
 Elapsed time:       0 days  0 hours  7 minutes 24.9 seconds.
 File lengths (MBytes):  RWF=    410 Int=      0 D2E=      0 Chk=     26 Scr=      1
 Normal termination of Gaussian 16 at Wed Jul 17 17:21:48 2024.
