 Entering Gaussian System, Link 0=g16
 Initial command:
 /opt/sw/arch/manual/gaussian/G16_A03/g16/l1.exe "/scratch/1032069.jesse.materianova.be/Gau-8165.inp" -scrdir="/scratch/1032069.jesse.materianova.be/"
 Entering Link 1 = /opt/sw/arch/manual/gaussian/G16_A03/g16/l1.exe PID=      8166.
  
 Copyright (c) 1988,1990,1992,1993,1995,1998,2003,2009,2016,
            Gaussian, Inc.  All Rights Reserved.
  
 This is part of the Gaussian(R) 16 program.  It is based on
 the Gaussian(R) 09 system (copyright 2009, Gaussian, Inc.),
 the Gaussian(R) 03 system (copyright 2003, Gaussian, Inc.),
 the Gaussian(R) 98 system (copyright 1998, Gaussian, Inc.),
 the Gaussian(R) 94 system (copyright 1995, Gaussian, Inc.),
 the Gaussian 92(TM) system (copyright 1992, Gaussian, Inc.),
 the Gaussian 90(TM) system (copyright 1990, Gaussian, Inc.),
 the Gaussian 88(TM) system (copyright 1988, Gaussian, Inc.),
 the Gaussian 86(TM) system (copyright 1986, Carnegie Mellon
 University), and the Gaussian 82(TM) system (copyright 1983,
 Carnegie Mellon University). Gaussian is a federally registered
 trademark of Gaussian, Inc.
  
 This software contains proprietary and confidential information,
 including trade secrets, belonging to Gaussian, Inc.
  
 This software is provided under written license and may be
 used, copied, transmitted, or stored only in accord with that
 written license.
  
 The following legend is applicable only to US Government
 contracts under FAR:
  
                    RESTRICTED RIGHTS LEGEND
  
 Use, reproduction and disclosure by the US Government is
 subject to restrictions as set forth in subparagraphs (a)
 and (c) of the Commercial Computer Software - Restricted
 Rights clause in FAR 52.227-19.
  
 Gaussian, Inc.
 340 Quinnipiac St., Bldg. 40, Wallingford CT 06492
  
  
 ---------------------------------------------------------------
 Warning -- This program may not be used in any manner that
 competes with the business of Gaussian, Inc. or will provide
 assistance to any competitor of Gaussian, Inc.  The licensee
 of this program is prohibited from giving any competitor of
 Gaussian, Inc. access to this program.  By using this program,
 the user acknowledges that Gaussian, Inc. is engaged in the
 business of creating and licensing software in the field of
 computational chemistry and represents and warrants to the
 licensee that it is not a competitor of Gaussian, Inc. and that
 it will not use this program in any manner prohibited above.
 ---------------------------------------------------------------
  

 Cite this work as:
 Gaussian 16, Revision A.03,
 M. J. Frisch, G. W. Trucks, H. B. Schlegel, G. E. Scuseria, 
 M. A. Robb, J. R. Cheeseman, G. Scalmani, V. Barone, 
 G. A. Petersson, H. Nakatsuji, X. Li, M. Caricato, A. V. Marenich, 
 J. Bloino, B. G. Janesko, R. Gomperts, B. Mennucci, H. P. Hratchian, 
 J. V. Ortiz, A. F. Izmaylov, J. L. Sonnenberg, D. Williams-Young, 
 F. Ding, F. Lipparini, F. Egidi, J. Goings, B. Peng, A. Petrone, 
 T. Henderson, D. Ranasinghe, V. G. Zakrzewski, J. Gao, N. Rega, 
 G. Zheng, W. Liang, M. Hada, M. Ehara, K. Toyota, R. Fukuda, 
 J. Hasegawa, M. Ishida, T. Nakajima, Y. Honda, O. Kitao, H. Nakai, 
 T. Vreven, K. Throssell, J. A. Montgomery, Jr., J. E. Peralta, 
 F. Ogliaro, M. J. Bearpark, J. J. Heyd, E. N. Brothers, K. N. Kudin, 
 V. N. Staroverov, T. A. Keith, R. Kobayashi, J. Normand, 
 K. Raghavachari, A. P. Rendell, J. C. Burant, S. S. Iyengar, 
 J. Tomasi, M. Cossi, J. M. Millam, M. Klene, C. Adamo, R. Cammi, 
 J. W. Ochterski, R. L. Martin, K. Morokuma, O. Farkas, 
 J. B. Foresman, and D. J. Fox, Gaussian, Inc., Wallingford CT, 2016.
 
 ******************************************
 Gaussian 16:  EM64L-G16RevA.03 25-Dec-2016
                11-Jul-2024 
 ******************************************
 %nprocshared=4
 Will use up to    4 processors via shared memory.
 %mem=8GB
 %Chk=KWYHDKDOAIKMQN-UHFFFAOYSA-N_conf_1_0.chk
 -------------------------------------------------------
 # opt=CalcFc B3LYP/6-31G** SCRF=(Solvent=water) scf=xqc
 -------------------------------------------------------
 1/10=4,18=20,19=15,26=3,38=1/1,3;
 2/9=110,12=2,17=6,18=5,40=1/2;
 3/5=1,6=6,7=101,11=2,25=1,30=1,70=2201,71=2,72=1,74=-5,140=1/1,2,3;
 4//1;
 5/5=2,8=3,13=1,38=5,53=1/2,8;
 8/6=4,10=90,11=11/1;
 11/6=1,8=1,9=11,15=111,16=1/1,2,10;
 10/6=1,13=1/2;
 6/7=2,8=2,9=2,10=2,28=1/1;
 7/10=1,18=20,25=1/1,2,3,16;
 1/10=4,18=20,19=15,26=3/3(2);
 2/9=110/2;
 99//99;
 2/9=110/2;
 3/5=1,6=6,7=101,11=2,25=1,30=1,70=2205,71=1,72=1,74=-5/1,2,3;
 4/5=5,16=3,69=1/1;
 5/5=2,8=3,13=1,38=5,53=1/2,8;
 7//1,2,3,16;
 1/18=20,19=15,26=3/3(-5);
 2/9=110/2;
 6/7=2,8=2,9=2,10=2,19=2,28=1/1;
 99/9=1/99;
 ----------------------------------
 KWYHDKDOAIKMQN-UHFFFAOYSA-N_conf_1
 ----------------------------------
 Symbolic Z-matrix:
 Charge =  0 Multiplicity = 1
 C                    -2.14877   1.54186  -0.43408 
 N                    -1.87729   0.28959   0.27584 
 C                    -3.02597  -0.61072   0.13374 
 C                    -0.65587  -0.37703  -0.2305 
 C                     0.65587   0.37703   0.10524 
 N                     1.87729  -0.28961  -0.40106 
 C                     2.14877  -1.54184   0.30892 
 C                     3.02598   0.6107   -0.259 
 H                    -2.23421   1.39431  -1.51671 
 H                    -1.36881   2.28486  -0.2429 
 H                    -3.08263   1.9911   -0.07634 
 H                    -3.93211  -0.14655   0.5392 
 H                    -2.8678   -1.53196   0.70561 
 H                    -3.21365  -0.88017  -0.91206 
 H                    -0.72466  -0.53559  -1.31505 
 H                    -0.60296  -1.36826   0.23454 
 H                     0.72465   0.53563   1.18978 
 H                     0.60297   1.36825  -0.35984 
 H                     3.08263  -1.9911   -0.04879 
 H                     2.2342   -1.39424   1.39154 
 H                     1.36881  -2.28486   0.11777 
 H                     3.93212   0.14651  -0.66442 
 H                     3.21364   0.8802    0.78679 
 H                     2.86781   1.53191  -0.83092 
 

 GradGradGradGradGradGradGradGradGradGradGradGradGradGradGradGradGradGrad
 Berny optimization.
 Initialization pass.
                           ----------------------------
                           !    Initial Parameters    !
                           ! (Angstroms and Degrees)  !
 --------------------------                            --------------------------
 ! Name  Definition              Value          Derivative Info.                !
 --------------------------------------------------------------------------------
 ! R1    R(1,2)                  1.4649         calculate D2E/DX2 analytically  !
 ! R2    R(1,9)                  1.096          calculate D2E/DX2 analytically  !
 ! R3    R(1,10)                 1.094          calculate D2E/DX2 analytically  !
 ! R4    R(1,11)                 1.0963         calculate D2E/DX2 analytically  !
 ! R5    R(2,3)                  1.4664         calculate D2E/DX2 analytically  !
 ! R6    R(2,4)                  1.4808         calculate D2E/DX2 analytically  !
 ! R7    R(3,12)                 1.0959         calculate D2E/DX2 analytically  !
 ! R8    R(3,13)                 1.0958         calculate D2E/DX2 analytically  !
 ! R9    R(3,14)                 1.0961         calculate D2E/DX2 analytically  !
 ! R10   R(4,5)                  1.5498         calculate D2E/DX2 analytically  !
 ! R11   R(4,15)                 1.0982         calculate D2E/DX2 analytically  !
 ! R12   R(4,16)                 1.0962         calculate D2E/DX2 analytically  !
 ! R13   R(5,6)                  1.4808         calculate D2E/DX2 analytically  !
 ! R14   R(5,17)                 1.0982         calculate D2E/DX2 analytically  !
 ! R15   R(5,18)                 1.0962         calculate D2E/DX2 analytically  !
 ! R16   R(6,7)                  1.4649         calculate D2E/DX2 analytically  !
 ! R17   R(6,8)                  1.4664         calculate D2E/DX2 analytically  !
 ! R18   R(7,19)                 1.0963         calculate D2E/DX2 analytically  !
 ! R19   R(7,20)                 1.096          calculate D2E/DX2 analytically  !
 ! R20   R(7,21)                 1.0941         calculate D2E/DX2 analytically  !
 ! R21   R(8,22)                 1.0959         calculate D2E/DX2 analytically  !
 ! R22   R(8,23)                 1.0961         calculate D2E/DX2 analytically  !
 ! R23   R(8,24)                 1.0958         calculate D2E/DX2 analytically  !
 ! A1    A(2,1,9)              112.2152         calculate D2E/DX2 analytically  !
 ! A2    A(2,1,10)             111.3308         calculate D2E/DX2 analytically  !
 ! A3    A(2,1,11)             110.489          calculate D2E/DX2 analytically  !
 ! A4    A(9,1,10)             108.6403         calculate D2E/DX2 analytically  !
 ! A5    A(9,1,11)             108.1261         calculate D2E/DX2 analytically  !
 ! A6    A(10,1,11)            105.7807         calculate D2E/DX2 analytically  !
 ! A7    A(1,2,3)              109.4342         calculate D2E/DX2 analytically  !
 ! A8    A(1,2,4)              111.8393         calculate D2E/DX2 analytically  !
 ! A9    A(3,2,4)              109.6712         calculate D2E/DX2 analytically  !
 ! A10   A(2,3,12)             110.5988         calculate D2E/DX2 analytically  !
 ! A11   A(2,3,13)             110.6422         calculate D2E/DX2 analytically  !
 ! A12   A(2,3,14)             112.1789         calculate D2E/DX2 analytically  !
 ! A13   A(12,3,13)            106.4011         calculate D2E/DX2 analytically  !
 ! A14   A(12,3,14)            108.3936         calculate D2E/DX2 analytically  !
 ! A15   A(13,3,14)            108.419          calculate D2E/DX2 analytically  !
 ! A16   A(2,4,5)              113.8929         calculate D2E/DX2 analytically  !
 ! A17   A(2,4,15)             110.5492         calculate D2E/DX2 analytically  !
 ! A18   A(2,4,16)             107.5675         calculate D2E/DX2 analytically  !
 ! A19   A(5,4,15)             109.7063         calculate D2E/DX2 analytically  !
 ! A20   A(5,4,16)             107.8912         calculate D2E/DX2 analytically  !
 ! A21   A(15,4,16)            106.9432         calculate D2E/DX2 analytically  !
 ! A22   A(4,5,6)              113.8929         calculate D2E/DX2 analytically  !
 ! A23   A(4,5,17)             109.7065         calculate D2E/DX2 analytically  !
 ! A24   A(4,5,18)             107.8909         calculate D2E/DX2 analytically  !
 ! A25   A(6,5,17)             110.5492         calculate D2E/DX2 analytically  !
 ! A26   A(6,5,18)             107.5677         calculate D2E/DX2 analytically  !
 ! A27   A(17,5,18)            106.9432         calculate D2E/DX2 analytically  !
 ! A28   A(5,6,7)              111.8391         calculate D2E/DX2 analytically  !
 ! A29   A(5,6,8)              109.6713         calculate D2E/DX2 analytically  !
 ! A30   A(7,6,8)              109.434          calculate D2E/DX2 analytically  !
 ! A31   A(6,7,19)             110.4889         calculate D2E/DX2 analytically  !
 ! A32   A(6,7,20)             112.2151         calculate D2E/DX2 analytically  !
 ! A33   A(6,7,21)             111.331          calculate D2E/DX2 analytically  !
 ! A34   A(19,7,20)            108.1262         calculate D2E/DX2 analytically  !
 ! A35   A(19,7,21)            105.7806         calculate D2E/DX2 analytically  !
 ! A36   A(20,7,21)            108.6403         calculate D2E/DX2 analytically  !
 ! A37   A(6,8,22)             110.5988         calculate D2E/DX2 analytically  !
 ! A38   A(6,8,23)             112.1788         calculate D2E/DX2 analytically  !
 ! A39   A(6,8,24)             110.6423         calculate D2E/DX2 analytically  !
 ! A40   A(22,8,23)            108.3937         calculate D2E/DX2 analytically  !
 ! A41   A(22,8,24)            106.4011         calculate D2E/DX2 analytically  !
 ! A42   A(23,8,24)            108.419          calculate D2E/DX2 analytically  !
 ! D1    D(9,1,2,3)            -65.2686         calculate D2E/DX2 analytically  !
 ! D2    D(9,1,2,4)             56.4644         calculate D2E/DX2 analytically  !
 ! D3    D(10,1,2,3)           172.7173         calculate D2E/DX2 analytically  !
 ! D4    D(10,1,2,4)           -65.5496         calculate D2E/DX2 analytically  !
 ! D5    D(11,1,2,3)            55.4856         calculate D2E/DX2 analytically  !
 ! D6    D(11,1,2,4)           177.2186         calculate D2E/DX2 analytically  !
 ! D7    D(1,2,3,12)           -59.1181         calculate D2E/DX2 analytically  !
 ! D8    D(1,2,3,13)          -176.759          calculate D2E/DX2 analytically  !
 ! D9    D(1,2,3,14)            62.0299         calculate D2E/DX2 analytically  !
 ! D10   D(4,2,3,12)           177.8531         calculate D2E/DX2 analytically  !
 ! D11   D(4,2,3,13)            60.2122         calculate D2E/DX2 analytically  !
 ! D12   D(4,2,3,14)           -60.9989         calculate D2E/DX2 analytically  !
 ! D13   D(1,2,4,5)             68.9555         calculate D2E/DX2 analytically  !
 ! D14   D(1,2,4,15)           -55.0952         calculate D2E/DX2 analytically  !
 ! D15   D(1,2,4,16)          -171.5269         calculate D2E/DX2 analytically  !
 ! D16   D(3,2,4,5)           -169.448          calculate D2E/DX2 analytically  !
 ! D17   D(3,2,4,15)            66.5014         calculate D2E/DX2 analytically  !
 ! D18   D(3,2,4,16)           -49.9303         calculate D2E/DX2 analytically  !
 ! D19   D(2,4,5,6)            179.9982         calculate D2E/DX2 analytically  !
 ! D20   D(2,4,5,17)            55.4941         calculate D2E/DX2 analytically  !
 ! D21   D(2,4,5,18)           -60.6678         calculate D2E/DX2 analytically  !
 ! D22   D(15,4,5,6)           -55.498          calculate D2E/DX2 analytically  !
 ! D23   D(15,4,5,17)          179.998          calculate D2E/DX2 analytically  !
 ! D24   D(15,4,5,18)           63.8361         calculate D2E/DX2 analytically  !
 ! D25   D(16,4,5,6)            60.664          calculate D2E/DX2 analytically  !
 ! D26   D(16,4,5,17)          -63.8401         calculate D2E/DX2 analytically  !
 ! D27   D(16,4,5,18)          179.9981         calculate D2E/DX2 analytically  !
 ! D28   D(4,5,6,7)            -68.9569         calculate D2E/DX2 analytically  !
 ! D29   D(4,5,6,8)            169.4469         calculate D2E/DX2 analytically  !
 ! D30   D(17,5,6,7)            55.0941         calculate D2E/DX2 analytically  !
 ! D31   D(17,5,6,8)           -66.5021         calculate D2E/DX2 analytically  !
 ! D32   D(18,5,6,7)           171.5258         calculate D2E/DX2 analytically  !
 ! D33   D(18,5,6,8)            49.9297         calculate D2E/DX2 analytically  !
 ! D34   D(5,6,7,19)          -177.2185         calculate D2E/DX2 analytically  !
 ! D35   D(5,6,7,20)           -56.4643         calculate D2E/DX2 analytically  !
 ! D36   D(5,6,7,21)            65.5499         calculate D2E/DX2 analytically  !
 ! D37   D(8,6,7,19)           -55.4857         calculate D2E/DX2 analytically  !
 ! D38   D(8,6,7,20)            65.2685         calculate D2E/DX2 analytically  !
 ! D39   D(8,6,7,21)          -172.7173         calculate D2E/DX2 analytically  !
 ! D40   D(5,6,8,22)          -177.8536         calculate D2E/DX2 analytically  !
 ! D41   D(5,6,8,23)            60.9984         calculate D2E/DX2 analytically  !
 ! D42   D(5,6,8,24)           -60.2127         calculate D2E/DX2 analytically  !
 ! D43   D(7,6,8,22)            59.118          calculate D2E/DX2 analytically  !
 ! D44   D(7,6,8,23)           -62.0301         calculate D2E/DX2 analytically  !
 ! D45   D(7,6,8,24)           176.7589         calculate D2E/DX2 analytically  !
 --------------------------------------------------------------------------------
 Trust Radius=3.00D-01 FncErr=1.00D-07 GrdErr=1.00D-06 EigMax=2.50D+02 EigMin=1.00D-04
 Number of steps in this run=    120 maximum allowed number of steps=    144.
 GradGradGradGradGradGradGradGradGradGradGradGradGradGradGradGradGradGrad

                          Input orientation:                          
 ---------------------------------------------------------------------
 Center     Atomic      Atomic             Coordinates (Angstroms)
 Number     Number       Type             X           Y           Z
 ---------------------------------------------------------------------
      1          6           0       -2.148774    1.541856   -0.434083
      2          7           0       -1.877292    0.289593    0.275835
      3          6           0       -3.025975   -0.610716    0.133744
      4          6           0       -0.655866   -0.377030   -0.230503
      5          6           0        0.655866    0.377031    0.105241
      6          7           0        1.877295   -0.289615   -0.401060
      7          6           0        2.148771   -1.541845    0.308923
      8          6           0        3.025978    0.610698   -0.258999
      9          1           0       -2.234207    1.394308   -1.516708
     10          1           0       -1.368814    2.284859   -0.242899
     11          1           0       -3.082627    1.991096   -0.076342
     12          1           0       -3.932115   -0.146546    0.539203
     13          1           0       -2.867801   -1.531958    0.705614
     14          1           0       -3.213650   -0.880169   -0.912056
     15          1           0       -0.724661   -0.535592   -1.315047
     16          1           0       -0.602964   -1.368259    0.234542
     17          1           0        0.724649    0.535626    1.189780
     18          1           0        0.602973    1.368245   -0.359836
     19          1           0        3.082627   -1.991101   -0.048791
     20          1           0        2.234197   -1.394242    1.391540
     21          1           0        1.368814   -2.284861    0.117769
     22          1           0        3.932122    0.146507   -0.664424
     23          1           0        3.213640    0.880203    0.786790
     24          1           0        2.867814    1.531912   -0.830916
 ---------------------------------------------------------------------
                    Distance matrix (angstroms):
                    1          2          3          4          5
     1  C    0.000000
     2  N    1.464872   0.000000
     3  C    2.392796   1.466362   0.000000
     4  C    2.439742   1.480758   2.409295   0.000000
     5  C    3.084428   2.540401   3.812140   1.549830   0.000000
     6  N    4.423189   3.858832   4.942790   2.540400   1.480758
     7  C    5.341363   4.423171   5.260768   3.084439   2.439741
     8  C    5.260776   4.942793   6.186455   3.812138   2.409294
     9  H    1.095968   2.135649   2.714960   2.698726   3.466713
    10  H    1.094049   2.123375   3.357439   2.755740   2.803630
    11  H    1.096302   2.114705   2.610895   3.394254   4.076091
    12  H    2.641646   2.117045   1.095874   3.373333   4.638106
    13  H    3.356224   2.117514   1.095783   2.665114   4.052273
    14  H    2.688610   2.136653   1.096141   2.694425   4.193877
    15  H    2.668330   2.130820   2.720420   1.098231   2.180816
    16  H    3.362344   2.091432   2.540672   1.096176   2.155785
    17  H    3.450506   2.768740   4.061587   2.180818   1.098230
    18  H    2.758218   2.778359   4.162832   2.155780   1.096175
    19  H    6.324381   5.468797   6.265285   4.076098   3.394252
    20  H    5.582473   4.580877   5.464921   3.466729   2.698722
    21  H    5.227019   4.146083   4.702891   2.803648   2.755743
    22  H    6.243184   5.886752   7.044542   4.638104   3.373333
    23  H    5.539296   5.150483   6.448418   4.193876   2.694419
    24  H    5.032269   5.028348   6.344933   4.052268   2.665118
                    6          7          8          9         10
     6  N    0.000000
     7  C    1.464874   0.000000
     8  C    1.466362   2.392795   0.000000
     9  H    4.580908   5.582510   5.464927   0.000000
    10  H    4.146101   5.227005   4.702900   1.778926   0.000000
    11  H    5.468813   6.324368   6.265295   1.775001   1.746767
    12  H    5.886748   6.243161   7.044544   3.079593   3.618553
    13  H    5.028327   5.032242   6.344926   3.728698   4.208887
    14  H    5.150494   5.539329   6.448421   2.549149   3.724057
    15  H    2.768764   3.450571   4.061590   2.458437   3.085350
    16  H    2.778335   2.758207   4.162820   3.655080   3.762944
    17  H    2.130819   2.668318   2.720425   4.100883   3.081391
    18  H    2.091433   3.362343   2.540669   3.064086   2.177568
    19  H    2.114705   1.096302   2.610892   6.471824   6.175504
    20  H    2.135649   1.095967   2.714956   6.016690   5.402672
    21  H    2.123380   1.094050   3.357441   5.402737   5.339198
    22  H    2.117045   2.641643   1.095874   6.348780   5.731505
    23  H    2.136651   2.688608   1.096141   5.937124   4.902265
    24  H    2.117514   3.356224   1.095783   5.149745   4.343007
                   11         12         13         14         15
    11  H    0.000000
    12  H    2.381185   0.000000
    13  H    3.615178   1.754942   0.000000
    14  H    2.993284   1.777793   1.778004   0.000000
    15  H    3.671314   3.725233   3.109480   2.544838   0.000000
    16  H    4.186962   3.559304   2.319093   2.892854   1.763341
    17  H    4.268115   4.751216   4.173130   4.683203   3.085801
    18  H    3.748595   4.865171   4.646787   4.463959   2.509908
    19  H    7.339552   7.277000   6.015608   6.451551   4.268180
    20  H    6.471770   6.348749   5.149742   5.937160   4.100943
    21  H    6.175502   5.731478   4.342964   4.902314   3.081484
    22  H    7.277023   7.961207   7.136750   7.223396   4.751231
    23  H    6.451516   7.223387   6.542861   6.877139   4.683205
    24  H    6.015645   7.136770   6.681729   6.542853   4.173109
                   16         17         18         19         20
    16  H    0.000000
    17  H    2.509943   0.000000
    18  H    3.048938   1.763340   0.000000
    19  H    3.748572   3.671304   4.186961   0.000000
    20  H    3.064115   2.458421   3.655071   1.775001   0.000000
    21  H    2.177545   3.085337   3.762951   1.746766   1.778927
    22  H    4.865147   3.725235   3.559305   2.381180   3.079586
    23  H    4.463969   2.544840   2.892839   2.993284   2.549143
    24  H    4.646772   3.109495   2.319097   3.615175   3.728694
                   21         22         23         24
    21  H    0.000000
    22  H    3.618553   0.000000
    23  H    3.724057   1.777793   0.000000
    24  H    4.208891   1.754941   1.778003   0.000000
 Stoichiometry    C6H16N2
 Framework group  C1[X(C6H16N2)]
 Deg. of freedom    66
 Full point group                 C1      NOp   1
 Largest Abelian subgroup         C1      NOp   1
 Largest concise Abelian subgroup C1      NOp   1
                         Standard orientation:                         
 ---------------------------------------------------------------------
 Center     Atomic      Atomic             Coordinates (Angstroms)
 Number     Number       Type             X           Y           Z
 ---------------------------------------------------------------------
      1          6           0       -2.309431   -1.338919    0.079838
      2          7           0       -1.896794   -0.001762   -0.353280
      3          6           0       -2.937673    0.968571    0.000618
      4          6           0       -0.609976    0.402505    0.257714
      5          6           0        0.609975   -0.402518   -0.257679
      6          7           0        1.896798    0.001778    0.353284
      7          6           0        2.309426    1.338918   -0.079904
      8          6           0        2.937677   -0.968565   -0.000586
      9          1           0       -2.381372   -1.417350    1.170626
     10          1           0       -1.617131   -2.105397   -0.280961
     11          1           0       -3.286597   -1.595615   -0.345756
     12          1           0       -3.888817    0.704511   -0.475340
     13          1           0       -2.675230    1.967439   -0.365616
     14          1           0       -3.097409    1.027614    1.083449
     15          1           0       -0.664155    0.332520    1.352373
     16          1           0       -0.444642    1.458122    0.012893
     17          1           0        0.664138   -0.332566   -1.352340
     18          1           0        0.444651   -1.458129   -0.012824
     19          1           0        3.286597    1.595635    0.345666
     20          1           0        2.381353    1.417295   -1.170697
     21          1           0        1.617131    2.105414    0.280867
     22          1           0        3.888828   -0.704478    0.475344
     23          1           0        3.097394   -1.027659   -1.083417
     24          1           0        2.675246   -1.967417    0.365700
 ---------------------------------------------------------------------
 Rotational constants (GHZ):           4.2787131           0.8960575           0.7752932
 Standard basis: 6-31G(d,p) (6D, 7F)
 There are   200 symmetry adapted cartesian basis functions of A   symmetry.
 There are   200 symmetry adapted basis functions of A   symmetry.
   200 basis functions,   336 primitive gaussians,   200 cartesian basis functions
    33 alpha electrons       33 beta electrons
       nuclear repulsion energy       408.8068002099 Hartrees.
 NAtoms=   24 NActive=   24 NUniq=   24 SFac= 1.00D+00 NAtFMM=   60 NAOKFM=F Big=F
 Integral buffers will be    131072 words long.
 Raffenetti 2 integral format.
 Two-electron integral symmetry is turned on.
 Force inversion solution in PCM.
 ------------------------------------------------------------------------------
 Polarizable Continuum Model (PCM)
 =================================
 Model                : PCM.
 Atomic radii         : UFF (Universal Force Field).
 Polarization charges : Total charges.
 Charge compensation  : None.
 Solution method      : Matrix inversion.
 Cavity type          : Scaled VdW (van der Waals Surface) (Alpha=1.100).
 Cavity algorithm     : GePol (No added spheres)
                        Default sphere list used, NSphG=   24.
                        Lebedev-Laikov grids with approx.  5.0 points / Ang**2.
                        Smoothing algorithm: York/Karplus (Gamma=1.0000).
                        Polarization charges: spherical gaussians, with
                                              point-specific exponents (IZeta= 3).
                        Self-potential: point-specific (ISelfS= 7).
                        Self-field    : sphere-specific E.n sum rule (ISelfD= 2).
 1st derivatives      : Analytical E(r).r(x)/FMM algorithm (CHGder, D1EAlg=3).
                        Cavity 1st derivative terms included.
 2nd derivatives      : Analytical E(r).r(xy)/FMM algorithm (CHGder, D2EAlg=3).
                        Cavity 2nd derivative terms included.
 Solvent              : Water, Eps=  78.355300 Eps(inf)=   1.777849
 ------------------------------------------------------------------------------
 One-electron integrals computed using PRISM.
 NBasis=   200 RedAO= T EigKep=  3.21D-03  NBF=   200
 NBsUse=   200 1.00D-06 EigRej= -1.00D+00 NBFU=   200
 ExpMin= 1.61D-01 ExpMax= 4.17D+03 ExpMxC= 6.27D+02 IAcc=3 IRadAn=         5 AccDes= 0.00D+00
 Harris functional with IExCor=  402 and IRadAn=       5 diagonalized for initial guess.
 HarFok:  IExCor=  402 AccDes= 0.00D+00 IRadAn=         5 IDoV= 1 UseB2=F ITyADJ=14
 ICtDFT=  3500011 ScaDFX=  1.000000  1.000000  1.000000  1.000000
 FoFCou: FMM=F IPFlag=           0 FMFlag=      100000 FMFlg1=           0
         NFxFlg=           0 DoJE=T BraDBF=F KetDBF=T FulRan=T
         wScrn=  0.000000 ICntrl=       500 IOpCl=  0 I1Cent=   200000004 NGrid=           0
         NMat0=    1 NMatS0=      1 NMatT0=    0 NMatD0=    1 NMtDS0=    0 NMtDT0=    0
 Petite list used in FoFCou.
 Keep R1 ints in memory in canonical form, NReq=206134434.
 Requested convergence on RMS density matrix=1.00D-08 within  32 cycles.
 Requested convergence on MAX density matrix=1.00D-06.
 Requested convergence on             energy=1.00D-06.
 No special actions if energy rises.
 Inv3:  Mode=1 IEnd=     7970700.
 Iteration    1 A*A^-1 deviation from unit magnitude is 6.22D-15 for    712.
 Iteration    1 A*A^-1 deviation from orthogonality  is 4.15D-15 for   1552    539.
 Iteration    1 A^-1*A deviation from unit magnitude is 6.00D-15 for    467.
 Iteration    1 A^-1*A deviation from orthogonality  is 4.49D-15 for   1378   1082.
 Error on total polarization charges =  0.01036
 SCF Done:  E(RB3LYP) =  -347.767637027     A.U. after   11 cycles
            NFock= 11  Conv=0.19D-08     -V/T= 2.0101
 QCSCF skips out because SCF is already converged.
 DoSCS=F DFT=T ScalE2(SS,OS)=  1.000000  1.000000
 Range of M.O.s used for correlation:     1   200
 NBasis=   200 NAE=    33 NBE=    33 NFC=     0 NFV=     0
 NROrb=    200 NOA=    33 NOB=    33 NVA=   167 NVB=   167
 Symmetrizing basis deriv contribution to polar:
 IMax=3 JMax=2 DiffMx= 0.00D+00
 G2DrvN: will do    25 centers at a time, making    1 passes.
 Calling FoFCou, ICntrl=  3107 FMM=F I1Cent=   0 AccDes= 0.00D+00.
 NEqPCM:  Using equilibrium solvation (IEInf=0, Eps=  78.3553, EpsInf=   1.7778)
 G2PCM: DoFxE=T DoFxN=T DoGrad=T DoDP/DQ/DG/TGxP=FFFF NFrqRd=   0 IEInf=0 SqF1=F DoCFld=F IF1Alg=4.
 End of G2Drv F.D. properties file   721 does not exist.
 End of G2Drv F.D. properties file   722 does not exist.
 End of G2Drv F.D. properties file   788 does not exist.
          IDoAtm=111111111111111111111111
 NEqPCM:  Using equilibrium solvation (IEInf=0, Eps=  78.3553, EpsInf=   1.7778)
          Differentiating once with respect to nuclear coordinates.
 Keep R1 ints in memory in canonical form, NReq=209405278.
          There are    75 degrees of freedom in the 1st order CPHF.  IDoFFX=6 NUNeed=     0.
     69 vectors produced by pass  0 Test12= 7.35D-15 1.33D-09 XBig12= 7.97D-02 5.28D-02.
 AX will form    69 AO Fock derivatives at one time.
     69 vectors produced by pass  1 Test12= 7.35D-15 1.33D-09 XBig12= 6.05D-03 1.00D-02.
     69 vectors produced by pass  2 Test12= 7.35D-15 1.33D-09 XBig12= 4.41D-05 7.77D-04.
     69 vectors produced by pass  3 Test12= 7.35D-15 1.33D-09 XBig12= 8.54D-08 3.61D-05.
     69 vectors produced by pass  4 Test12= 7.35D-15 1.33D-09 XBig12= 8.93D-11 1.04D-06.
     26 vectors produced by pass  5 Test12= 7.35D-15 1.33D-09 XBig12= 6.68D-14 3.30D-08.
      1 vectors produced by pass  6 Test12= 7.35D-15 1.33D-09 XBig12= 6.03D-17 1.34D-09.
 InvSVY:  IOpt=1 It=  1 EMax= 4.44D-16
 Solved reduced A of dimension   372 with    75 vectors.
 End of Minotr F.D. properties file   721 does not exist.
 End of Minotr F.D. properties file   722 does not exist.
 End of Minotr F.D. properties file   788 does not exist.

 **********************************************************************

            Population analysis using the SCF density.

 **********************************************************************

 Orbital symmetries:
       Occupied  (A) (A) (A) (A) (A) (A) (A) (A) (A) (A) (A) (A)
                 (A) (A) (A) (A) (A) (A) (A) (A) (A) (A) (A) (A)
                 (A) (A) (A) (A) (A) (A) (A) (A) (A)
       Virtual   (A) (A) (A) (A) (A) (A) (A) (A) (A) (A) (A) (A)
                 (A) (A) (A) (A) (A) (A) (A) (A) (A) (A) (A) (A)
                 (A) (A) (A) (A) (A) (A) (A) (A) (A) (A) (A) (A)
                 (A) (A) (A) (A) (A) (A) (A) (A) (A) (A) (A) (A)
                 (A) (A) (A) (A) (A) (A) (A) (A) (A) (A) (A) (A)
                 (A) (A) (A) (A) (A) (A) (A) (A) (A) (A) (A) (A)
                 (A) (A) (A) (A) (A) (A) (A) (A) (A) (A) (A) (A)
                 (A) (A) (A) (A) (A) (A) (A) (A) (A) (A) (A) (A)
                 (A) (A) (A) (A) (A) (A) (A) (A) (A) (A) (A) (A)
                 (A) (A) (A) (A) (A) (A) (A) (A) (A) (A) (A) (A)
                 (A) (A) (A) (A) (A) (A) (A) (A) (A) (A) (A) (A)
                 (A) (A) (A) (A) (A) (A) (A) (A) (A) (A) (A) (A)
                 (A) (A) (A) (A) (A) (A) (A) (A) (A) (A) (A) (A)
                 (A) (A) (A) (A) (A) (A) (A) (A) (A) (A) (A)
 The electronic state is 1-A.
 Alpha  occ. eigenvalues --  -14.32658 -14.32658 -10.20404 -10.20385 -10.19753
 Alpha  occ. eigenvalues --  -10.19753 -10.19707 -10.19707  -0.91867  -0.90578
 Alpha  occ. eigenvalues --   -0.73946  -0.70063  -0.69760  -0.65751  -0.59504
 Alpha  occ. eigenvalues --   -0.56777  -0.48082  -0.47721  -0.46147  -0.45323
 Alpha  occ. eigenvalues --   -0.43797  -0.42775  -0.40633  -0.38958  -0.38523
 Alpha  occ. eigenvalues --   -0.36719  -0.36487  -0.35954  -0.35656  -0.34066
 Alpha  occ. eigenvalues --   -0.32522  -0.21794  -0.21385
 Alpha virt. eigenvalues --    0.08461   0.09148   0.12028   0.13693   0.14007
 Alpha virt. eigenvalues --    0.15007   0.15046   0.15377   0.16088   0.16696
 Alpha virt. eigenvalues --    0.16891   0.19160   0.19272   0.19395   0.19436
 Alpha virt. eigenvalues --    0.20705   0.23033   0.23755   0.24636   0.25717
 Alpha virt. eigenvalues --    0.27758   0.27950   0.29100   0.50174   0.50420
 Alpha virt. eigenvalues --    0.50628   0.53136   0.54222   0.54890   0.56549
 Alpha virt. eigenvalues --    0.56684   0.59872   0.60324   0.62126   0.64553
 Alpha virt. eigenvalues --    0.70453   0.72211   0.74433   0.75652   0.78050
 Alpha virt. eigenvalues --    0.79076   0.80589   0.81146   0.81621   0.81657
 Alpha virt. eigenvalues --    0.83072   0.84309   0.87765   0.88806   0.88864
 Alpha virt. eigenvalues --    0.89226   0.90683   0.91208   0.91515   0.91868
 Alpha virt. eigenvalues --    0.93792   0.95311   0.95834   0.97248   0.99195
 Alpha virt. eigenvalues --    1.01928   1.02344   1.10781   1.16755   1.17151
 Alpha virt. eigenvalues --    1.29530   1.29777   1.30071   1.32240   1.36838
 Alpha virt. eigenvalues --    1.41120   1.44520   1.47474   1.53246   1.55954
 Alpha virt. eigenvalues --    1.62352   1.65808   1.69211   1.71568   1.74155
 Alpha virt. eigenvalues --    1.74170   1.84680   1.86079   1.86271   1.89785
 Alpha virt. eigenvalues --    1.90485   1.90689   1.91740   1.93748   1.95019
 Alpha virt. eigenvalues --    1.95064   1.97765   2.00074   2.03926   2.03955
 Alpha virt. eigenvalues --    2.05020   2.05385   2.07133   2.07919   2.09606
 Alpha virt. eigenvalues --    2.10103   2.10723   2.13472   2.13475   2.13604
 Alpha virt. eigenvalues --    2.16342   2.17963   2.20011   2.25893   2.26865
 Alpha virt. eigenvalues --    2.28921   2.36214   2.37885   2.37958   2.38784
 Alpha virt. eigenvalues --    2.46372   2.49812   2.53264   2.55978   2.56801
 Alpha virt. eigenvalues --    2.59500   2.62398   2.66279   2.67751   2.68548
 Alpha virt. eigenvalues --    2.70139   2.72032   2.72331   2.72573   2.74658
 Alpha virt. eigenvalues --    2.75830   2.81071   2.84378   2.87318   2.88009
 Alpha virt. eigenvalues --    2.90193   2.90456   2.91604   2.93648   2.96474
 Alpha virt. eigenvalues --    2.97539   3.01597   3.03756   3.17271   3.18518
 Alpha virt. eigenvalues --    3.21821   3.22112   3.25622   3.36321   3.39103
 Alpha virt. eigenvalues --    3.40546   3.41545   3.41923   3.42497   3.46986
 Alpha virt. eigenvalues --    3.49034   3.51827   3.52796   3.58475   4.02571
 Alpha virt. eigenvalues --    4.12402   4.40959   4.49103   4.49214   4.51865
 Alpha virt. eigenvalues --    4.52092   4.67844
          Condensed to atoms (all electrons):
               1          2          3          4          5          6
     1  C    4.833027   0.319888  -0.059377  -0.049782  -0.005040  -0.000004
     2  N    0.319888   6.863901   0.323233   0.292530  -0.038847   0.001927
     3  C   -0.059377   0.323233   4.823075  -0.048154   0.004350  -0.000069
     4  C   -0.049782   0.292530  -0.048154   4.875730   0.365995  -0.038846
     5  C   -0.005040  -0.038847   0.004350   0.365995   4.875730   0.292530
     6  N   -0.000004   0.001927  -0.000069  -0.038846   0.292530   6.863902
     7  C    0.000000  -0.000004  -0.000002  -0.005040  -0.049782   0.319888
     8  C   -0.000002  -0.000069   0.000002   0.004350  -0.048153   0.323233
     9  H    0.361348  -0.050720  -0.007111  -0.010538  -0.000894   0.000029
    10  H    0.390564  -0.036777   0.005639  -0.003163   0.000427  -0.000073
    11  H    0.388004  -0.034242  -0.004931   0.005541   0.000170  -0.000001
    12  H   -0.003811  -0.035369   0.387576   0.005213  -0.000185   0.000001
    13  H    0.005726  -0.035935   0.388440  -0.004200   0.000107  -0.000004
    14  H   -0.007579  -0.050110   0.362197  -0.009667  -0.000145   0.000008
    15  H   -0.010452  -0.049335  -0.005777   0.351152  -0.048950   0.007658
    16  H    0.005933  -0.036326  -0.005199   0.385399  -0.034848  -0.003257
    17  H   -0.000493   0.007659  -0.000002  -0.048951   0.351153  -0.049334
    18  H    0.002254  -0.003256  -0.000006  -0.034847   0.385399  -0.036326
    19  H    0.000000  -0.000001  -0.000000   0.000170   0.005541  -0.034242
    20  H    0.000000   0.000029  -0.000000  -0.000894  -0.010538  -0.050720
    21  H    0.000000  -0.000073   0.000004   0.000427  -0.003162  -0.036777
    22  H    0.000000   0.000001  -0.000000  -0.000185   0.005213  -0.035369
    23  H   -0.000000   0.000008   0.000000  -0.000145  -0.009667  -0.050110
    24  H   -0.000004  -0.000004   0.000000   0.000107  -0.004200  -0.035935
               7          8          9         10         11         12
     1  C    0.000000  -0.000002   0.361348   0.390564   0.388004  -0.003811
     2  N   -0.000004  -0.000069  -0.050720  -0.036777  -0.034242  -0.035369
     3  C   -0.000002   0.000002  -0.007111   0.005639  -0.004931   0.387576
     4  C   -0.005040   0.004350  -0.010538  -0.003163   0.005541   0.005213
     5  C   -0.049782  -0.048153  -0.000894   0.000427   0.000170  -0.000185
     6  N    0.319888   0.323233   0.000029  -0.000073  -0.000001   0.000001
     7  C    4.833028  -0.059377   0.000000   0.000000   0.000000   0.000000
     8  C   -0.059377   4.823075  -0.000000   0.000004  -0.000000  -0.000000
     9  H    0.000000  -0.000000   0.674562  -0.042361  -0.039953  -0.001386
    10  H    0.000000   0.000004  -0.042361   0.599274  -0.028601   0.000151
    11  H    0.000000  -0.000000  -0.039953  -0.028601   0.599747   0.004995
    12  H    0.000000  -0.000000  -0.001386   0.000151   0.004995   0.603374
    13  H   -0.000004   0.000000  -0.000343  -0.000247   0.000163  -0.028639
    14  H   -0.000000   0.000000   0.013856  -0.000367  -0.001423  -0.041625
    15  H   -0.000493  -0.000002   0.016013  -0.001194  -0.000270  -0.000358
    16  H    0.002254  -0.000006  -0.000221  -0.000002  -0.000221   0.000220
    17  H   -0.010452  -0.005777   0.000213   0.000144  -0.000053   0.000000
    18  H    0.005933  -0.005199   0.000243   0.002352  -0.000149   0.000008
    19  H    0.388004  -0.004931  -0.000000   0.000000  -0.000000   0.000000
    20  H    0.361349  -0.007111  -0.000000   0.000000  -0.000000   0.000000
    21  H    0.390563   0.005639   0.000000  -0.000000   0.000000  -0.000000
    22  H   -0.003811   0.387576   0.000000  -0.000000   0.000000   0.000000
    23  H   -0.007579   0.362197  -0.000000   0.000002  -0.000000   0.000000
    24  H    0.005726   0.388440   0.000000  -0.000009   0.000000  -0.000000
              13         14         15         16         17         18
     1  C    0.005726  -0.007579  -0.010452   0.005933  -0.000493   0.002254
     2  N   -0.035935  -0.050110  -0.049335  -0.036326   0.007659  -0.003256
     3  C    0.388440   0.362197  -0.005777  -0.005199  -0.000002  -0.000006
     4  C   -0.004200  -0.009667   0.351152   0.385399  -0.048951  -0.034847
     5  C    0.000107  -0.000145  -0.048950  -0.034848   0.351153   0.385399
     6  N   -0.000004   0.000008   0.007658  -0.003257  -0.049334  -0.036326
     7  C   -0.000004  -0.000000  -0.000493   0.002254  -0.010452   0.005933
     8  C    0.000000   0.000000  -0.000002  -0.000006  -0.005777  -0.005199
     9  H   -0.000343   0.013856   0.016013  -0.000221   0.000213   0.000243
    10  H   -0.000247  -0.000367  -0.001194  -0.000002   0.000144   0.002352
    11  H    0.000163  -0.001423  -0.000270  -0.000221  -0.000053  -0.000149
    12  H   -0.028639  -0.041625  -0.000358   0.000220   0.000000   0.000008
    13  H    0.600253  -0.041117  -0.001226   0.005907  -0.000033  -0.000000
    14  H   -0.041117   0.677588   0.012968  -0.001566   0.000037  -0.000009
    15  H   -0.001226   0.012968   0.694741  -0.045779   0.007650  -0.006943
    16  H    0.005907  -0.001566  -0.045779   0.623186  -0.006942   0.005588
    17  H   -0.000033   0.000037   0.007650  -0.006942   0.694740  -0.045779
    18  H   -0.000000  -0.000009  -0.006943   0.005588  -0.045779   0.623186
    19  H    0.000000  -0.000000  -0.000053  -0.000149  -0.000270  -0.000221
    20  H    0.000000  -0.000000   0.000213   0.000243   0.016014  -0.000221
    21  H   -0.000009   0.000002   0.000143   0.002353  -0.001194  -0.000002
    22  H   -0.000000   0.000000   0.000000   0.000008  -0.000358   0.000220
    23  H    0.000000  -0.000000   0.000037  -0.000009   0.012968  -0.001566
    24  H   -0.000000   0.000000  -0.000033  -0.000000  -0.001226   0.005907
              19         20         21         22         23         24
     1  C    0.000000   0.000000   0.000000   0.000000  -0.000000  -0.000004
     2  N   -0.000001   0.000029  -0.000073   0.000001   0.000008  -0.000004
     3  C   -0.000000  -0.000000   0.000004  -0.000000   0.000000   0.000000
     4  C    0.000170  -0.000894   0.000427  -0.000185  -0.000145   0.000107
     5  C    0.005541  -0.010538  -0.003162   0.005213  -0.009667  -0.004200
     6  N   -0.034242  -0.050720  -0.036777  -0.035369  -0.050110  -0.035935
     7  C    0.388004   0.361349   0.390563  -0.003811  -0.007579   0.005726
     8  C   -0.004931  -0.007111   0.005639   0.387576   0.362197   0.388440
     9  H   -0.000000  -0.000000   0.000000   0.000000  -0.000000   0.000000
    10  H    0.000000   0.000000  -0.000000  -0.000000   0.000002  -0.000009
    11  H   -0.000000  -0.000000   0.000000   0.000000  -0.000000   0.000000
    12  H    0.000000   0.000000  -0.000000   0.000000   0.000000  -0.000000
    13  H    0.000000   0.000000  -0.000009  -0.000000   0.000000  -0.000000
    14  H   -0.000000  -0.000000   0.000002   0.000000  -0.000000   0.000000
    15  H   -0.000053   0.000213   0.000143   0.000000   0.000037  -0.000033
    16  H   -0.000149   0.000243   0.002353   0.000008  -0.000009  -0.000000
    17  H   -0.000270   0.016014  -0.001194  -0.000358   0.012968  -0.001226
    18  H   -0.000221  -0.000221  -0.000002   0.000220  -0.001566   0.005907
    19  H    0.599746  -0.039953  -0.028601   0.004995  -0.001423   0.000163
    20  H   -0.039953   0.674560  -0.042360  -0.001386   0.013856  -0.000343
    21  H   -0.028601  -0.042360   0.599273   0.000151  -0.000367  -0.000247
    22  H    0.004995  -0.001386   0.000151   0.603374  -0.041625  -0.028639
    23  H   -0.001423   0.013856  -0.000367  -0.041625   0.677587  -0.041117
    24  H    0.000163  -0.000343  -0.000247  -0.028639  -0.041117   0.600252
 Mulliken charges:
               1
     1  C   -0.170200
     2  N   -0.438107
     3  C   -0.163887
     4  C   -0.032204
     5  C   -0.032204
     6  N   -0.438107
     7  C   -0.170201
     8  C   -0.163887
     9  H    0.087262
    10  H    0.114237
    11  H    0.111226
    12  H    0.109835
    13  H    0.111163
    14  H    0.086951
    15  H    0.080290
    16  H    0.103435
    17  H    0.080290
    18  H    0.103435
    19  H    0.111226
    20  H    0.087263
    21  H    0.114237
    22  H    0.109835
    23  H    0.086951
    24  H    0.111163
 Sum of Mulliken charges =  -0.00000
 Mulliken charges with hydrogens summed into heavy atoms:
               1
     1  C    0.142525
     2  N   -0.438107
     3  C    0.144061
     4  C    0.151520
     5  C    0.151521
     6  N   -0.438107
     7  C    0.142525
     8  C    0.144062
 APT charges:
               1
     1  C   -1.042774
     2  N   -0.377927
     3  C   -1.164141
     4  C   -0.447457
     5  C   -0.447454
     6  N   -0.377928
     7  C   -1.042776
     8  C   -1.164142
     9  H    0.287797
    10  H    0.246616
    11  H    0.631248
    12  H    0.629799
    13  H    0.347507
    14  H    0.304374
    15  H    0.263909
    16  H    0.321049
    17  H    0.263905
    18  H    0.321052
    19  H    0.631248
    20  H    0.287795
    21  H    0.246620
    22  H    0.629801
    23  H    0.304369
    24  H    0.347511
 Sum of APT charges =  -0.00000
 APT charges with hydrogens summed into heavy atoms:
               1
     1  C    0.122887
     2  N   -0.377927
     3  C    0.117538
     4  C    0.137501
     5  C    0.137503
     6  N   -0.377928
     7  C    0.122886
     8  C    0.117539
 Electronic spatial extent (au):  <R**2>=           1565.0304
 Charge=             -0.0000 electrons
 Dipole moment (field-independent basis, Debye):
    X=              0.0000    Y=             -0.0000    Z=             -0.0000  Tot=              0.0000
 Quadrupole moment (field-independent basis, Debye-Ang):
   XX=            -48.2479   YY=            -49.4831   ZZ=            -56.7637
   XY=              0.1402   XZ=             -2.6094   YZ=             -0.0546
 Traceless Quadrupole moment (field-independent basis, Debye-Ang):
   XX=              3.2503   YY=              2.0151   ZZ=             -5.2654
   XY=              0.1402   XZ=             -2.6094   YZ=             -0.0546
 Octapole moment (field-independent basis, Debye-Ang**2):
  XXX=              0.0001  YYY=              0.0002  ZZZ=             -0.0001  XYY=              0.0001
  XXY=             -0.0000  XXZ=             -0.0002  XZZ=             -0.0001  YZZ=             -0.0002
  YYZ=              0.0000  XYZ=             -0.0003
 Hexadecapole moment (field-independent basis, Debye-Ang**3):
 XXXX=          -1529.9384 YYYY=           -370.0755 ZZZZ=           -118.8654 XXXY=              3.3152
 XXXZ=             18.4833 YYYX=             -0.4673 YYYZ=             -0.5997 ZZZX=             -4.9854
 ZZZY=             -0.2894 XXYY=           -319.6193 XXZZ=           -302.0935 YYZZ=            -84.5048
 XXYZ=              0.7822 YYXZ=              6.4473 ZZXY=              0.0825
 N-N= 4.088068002099D+02 E-N=-1.623048726830D+03  KE= 3.443039623483D+02
  Exact polarizability:   0.000   0.000   0.000   0.000   0.000   0.000
 Approx polarizability: 112.476   0.791 108.802   1.115  -0.298 101.955
 D2PCM: PCM CHGder 2nd derivatives, FixD1E=F FixD2E=F DoIter=F DoCFld=F I1PDM=0
 Calling FoFJK, ICntrl=    100147 FMM=F ISym2X=0 I1Cent= 0 IOpClX= 0 NMat=1 NMatS=1 NMatT=0.
 ***** Axes restored to original set *****
 -------------------------------------------------------------------
 Center     Atomic                   Forces (Hartrees/Bohr)
 Number     Number              X              Y              Z
 -------------------------------------------------------------------
      1        6           0.000806482    0.002882247    0.006641838
      2        7           0.003986281   -0.001526667    0.000536086
      3        6           0.001624471    0.000530994    0.007211115
      4        6           0.003268618    0.001038998    0.008619279
      5        6          -0.003268988   -0.001039079   -0.008619595
      6        7          -0.003986274    0.001525351   -0.000535690
      7        6          -0.000806286   -0.002882184   -0.006642604
      8        6          -0.001624368   -0.000531505   -0.007211161
      9        1          -0.000628471    0.000551446   -0.006340074
     10        1           0.001510738   -0.001860628   -0.001055581
     11        1          -0.000167594   -0.003306682    0.000217981
     12        1           0.001413386    0.002296180   -0.001529735
     13        1           0.002418269    0.000259306   -0.001355589
     14        1          -0.002501463   -0.002365939   -0.005113579
     15        1           0.002206740   -0.000410489   -0.005102616
     16        1          -0.003008937    0.000625385   -0.000537392
     17        1          -0.002206987    0.000410503    0.005103088
     18        1           0.003009281   -0.000625085    0.000537498
     19        1           0.000167652    0.003306616   -0.000217960
     20        1           0.000628425   -0.000551238    0.006340186
     21        1          -0.001510687    0.001861210    0.001055540
     22        1          -0.001413412   -0.002296160    0.001529882
     23        1           0.002501600    0.002366228    0.005113785
     24        1          -0.002418476   -0.000258808    0.001355295
 -------------------------------------------------------------------
 Cartesian Forces:  Max     0.008619595 RMS     0.003195093
 FormGI is forming the generalized inverse of G from B-inverse, IUseBI=4.

 GradGradGradGradGradGradGradGradGradGradGradGradGradGradGradGradGradGrad
 Berny optimization.
 Internal  Forces:  Max     0.009094594 RMS     0.002620247
 Search for a local minimum.
 Step number   1 out of a maximum of  120
 All quantities printed in internal units (Hartrees-Bohrs-Radians)
 Mixed Optimization -- RFO/linear search
 Second derivative matrix not updated -- analytic derivatives used.
 ITU=  0
     Eigenvalues ---    0.00072   0.00297   0.00344   0.00501   0.00502
     Eigenvalues ---    0.00543   0.00561   0.02461   0.02475   0.04272
     Eigenvalues ---    0.04419   0.04604   0.05096   0.06255   0.06261
     Eigenvalues ---    0.06287   0.06289   0.06325   0.06338   0.06344
     Eigenvalues ---    0.06345   0.08244   0.08723   0.11177   0.12397
     Eigenvalues ---    0.12406   0.13136   0.13155   0.14002   0.14661
     Eigenvalues ---    0.15509   0.15526   0.15743   0.16440   0.16481
     Eigenvalues ---    0.16792   0.16811   0.18641   0.19274   0.19564
     Eigenvalues ---    0.19921   0.22204   0.24023   0.25737   0.30267
     Eigenvalues ---    0.31689   0.31726   0.31800   0.31979   0.32071
     Eigenvalues ---    0.32715   0.33165   0.33292   0.33292   0.33477
     Eigenvalues ---    0.33499   0.33568   0.33627   0.33645   0.33997
     Eigenvalues ---    0.34988   0.35372   0.35598   0.35624   0.36169
     Eigenvalues ---    0.36300
 RFO step:  Lambda=-3.57593174D-03 EMin= 7.24463321D-04
 Linear search not attempted -- first point.
 Iteration  1 RMS(Cart)=  0.04079486 RMS(Int)=  0.00078961
 Iteration  2 RMS(Cart)=  0.00101574 RMS(Int)=  0.00009903
 Iteration  3 RMS(Cart)=  0.00000037 RMS(Int)=  0.00009903
 Variable       Old X    -DE/DX   Delta X   Delta X   Delta X     New X
                                 (Linear)    (Quad)   (Total)
    R1        2.76821  -0.00150   0.00000  -0.00572  -0.00572   2.76248
    R2        2.07108   0.00624   0.00000   0.01974   0.01974   2.09082
    R3        2.06745  -0.00037   0.00000  -0.00252  -0.00252   2.06493
    R4        2.07171  -0.00114   0.00000  -0.00393  -0.00393   2.06778
    R5        2.77102  -0.00268   0.00000  -0.00991  -0.00991   2.76111
    R6        2.79823  -0.00840   0.00000  -0.02850  -0.02850   2.76973
    R7        2.07090  -0.00076   0.00000  -0.00244  -0.00244   2.06847
    R8        2.07073  -0.00058   0.00000  -0.00241  -0.00241   2.06832
    R9        2.07141   0.00589   0.00000   0.01900   0.01900   2.09040
   R10        2.92875  -0.00909   0.00000  -0.03171  -0.03171   2.89704
   R11        2.07536   0.00496   0.00000   0.01687   0.01687   2.09222
   R12        2.07147  -0.00094   0.00000  -0.00299  -0.00299   2.06848
   R13        2.79823  -0.00840   0.00000  -0.02850  -0.02850   2.76973
   R14        2.07535   0.00496   0.00000   0.01687   0.01687   2.09222
   R15        2.07147  -0.00094   0.00000  -0.00299  -0.00299   2.06848
   R16        2.76821  -0.00150   0.00000  -0.00573  -0.00573   2.76249
   R17        2.77102  -0.00268   0.00000  -0.00991  -0.00991   2.76111
   R18        2.07171  -0.00114   0.00000  -0.00393  -0.00393   2.06778
   R19        2.07108   0.00624   0.00000   0.01974   0.01974   2.09082
   R20        2.06745  -0.00037   0.00000  -0.00252  -0.00252   2.06493
   R21        2.07090  -0.00076   0.00000  -0.00243  -0.00243   2.06847
   R22        2.07141   0.00589   0.00000   0.01900   0.01900   2.09040
   R23        2.07073  -0.00058   0.00000  -0.00240  -0.00240   2.06832
    A1        1.95853   0.00259   0.00000   0.01091   0.01094   1.96946
    A2        1.94309  -0.00149   0.00000  -0.00622  -0.00620   1.93689
    A3        1.92840  -0.00373   0.00000  -0.01911  -0.01909   1.90931
    A4        1.89613  -0.00078   0.00000  -0.01021  -0.01019   1.88594
    A5        1.88716   0.00020   0.00000  -0.00344  -0.00342   1.88374
    A6        1.84622   0.00331   0.00000   0.02917   0.02918   1.87540
    A7        1.90999   0.00096   0.00000   0.01112   0.01076   1.92075
    A8        1.95196  -0.00019   0.00000   0.01297   0.01264   1.96460
    A9        1.91412  -0.00027   0.00000   0.01606   0.01576   1.92988
   A10        1.93031  -0.00317   0.00000  -0.01500  -0.01497   1.91535
   A11        1.93107  -0.00239   0.00000  -0.01213  -0.01210   1.91897
   A12        1.95789   0.00323   0.00000   0.01689   0.01695   1.97484
   A13        1.85705   0.00341   0.00000   0.02911   0.02910   1.88615
   A14        1.89183  -0.00043   0.00000  -0.01007  -0.01001   1.88182
   A15        1.89227  -0.00056   0.00000  -0.00807  -0.00802   1.88425
   A16        1.98781  -0.00575   0.00000  -0.01993  -0.01991   1.96790
   A17        1.92945   0.00407   0.00000   0.02477   0.02469   1.95414
   A18        1.87741  -0.00075   0.00000  -0.01122  -0.01109   1.86632
   A19        1.91474  -0.00073   0.00000  -0.01294  -0.01283   1.90191
   A20        1.88306   0.00424   0.00000   0.02391   0.02389   1.90695
   A21        1.86651  -0.00079   0.00000  -0.00360  -0.00351   1.86300
   A22        1.98781  -0.00575   0.00000  -0.01993  -0.01991   1.96790
   A23        1.91474  -0.00073   0.00000  -0.01294  -0.01283   1.90191
   A24        1.88305   0.00424   0.00000   0.02391   0.02390   1.90695
   A25        1.92945   0.00407   0.00000   0.02477   0.02469   1.95414
   A26        1.87741  -0.00075   0.00000  -0.01122  -0.01109   1.86632
   A27        1.86651  -0.00079   0.00000  -0.00359  -0.00351   1.86300
   A28        1.95196  -0.00019   0.00000   0.01298   0.01264   1.96460
   A29        1.91412  -0.00027   0.00000   0.01606   0.01576   1.92988
   A30        1.90998   0.00096   0.00000   0.01112   0.01076   1.92075
   A31        1.92840  -0.00373   0.00000  -0.01911  -0.01908   1.90931
   A32        1.95852   0.00259   0.00000   0.01092   0.01094   1.96946
   A33        1.94309  -0.00149   0.00000  -0.00622  -0.00620   1.93689
   A34        1.88716   0.00020   0.00000  -0.00344  -0.00342   1.88374
   A35        1.84622   0.00331   0.00000   0.02917   0.02919   1.87540
   A36        1.89613  -0.00078   0.00000  -0.01021  -0.01019   1.88594
   A37        1.93031  -0.00317   0.00000  -0.01500  -0.01497   1.91535
   A38        1.95789   0.00323   0.00000   0.01689   0.01695   1.97484
   A39        1.93107  -0.00239   0.00000  -0.01213  -0.01210   1.91897
   A40        1.89183  -0.00044   0.00000  -0.01007  -0.01001   1.88182
   A41        1.85705   0.00341   0.00000   0.02911   0.02911   1.88615
   A42        1.89227  -0.00056   0.00000  -0.00807  -0.00802   1.88425
    D1       -1.13915   0.00019   0.00000   0.00303   0.00301  -1.13614
    D2        0.98549   0.00038   0.00000   0.03961   0.03963   1.02512
    D3        3.01449   0.00042   0.00000   0.01296   0.01294   3.02742
    D4       -1.14406   0.00061   0.00000   0.04954   0.04956  -1.09450
    D5        0.96841  -0.00040   0.00000  -0.00729  -0.00732   0.96109
    D6        3.09305  -0.00021   0.00000   0.02929   0.02931   3.12235
    D7       -1.03181   0.00050   0.00000   0.02407   0.02414  -1.00767
    D8       -3.08503  -0.00025   0.00000   0.00496   0.00498  -3.08005
    D9        1.08263  -0.00007   0.00000   0.01223   0.01227   1.09489
   D10        3.10412   0.00029   0.00000  -0.00989  -0.00991   3.09421
   D11        1.05090  -0.00046   0.00000  -0.02900  -0.02907   1.02183
   D12       -1.06463  -0.00028   0.00000  -0.02173  -0.02178  -1.08641
   D13        1.20350  -0.00129   0.00000   0.02113   0.02093   1.22443
   D14       -0.96159   0.00080   0.00000   0.03376   0.03377  -0.92782
   D15       -2.99371  -0.00002   0.00000   0.03115   0.03117  -2.96254
   D16       -2.95743  -0.00039   0.00000   0.05495   0.05486  -2.90256
   D17        1.16067   0.00169   0.00000   0.06758   0.06770   1.22837
   D18       -0.87145   0.00087   0.00000   0.06497   0.06510  -0.80635
   D19        3.14156   0.00000   0.00000   0.00001   0.00001   3.14157
   D20        0.96855  -0.00055   0.00000  -0.00782  -0.00800   0.96055
   D21       -1.05885  -0.00158   0.00000  -0.00995  -0.01009  -1.06895
   D22       -0.96862   0.00055   0.00000   0.00784   0.00801  -0.96061
   D23        3.14156   0.00000   0.00000   0.00001   0.00001   3.14157
   D24        1.11415  -0.00103   0.00000  -0.00212  -0.00208   1.11207
   D25        1.05879   0.00158   0.00000   0.00996   0.01011   1.06889
   D26       -1.11422   0.00103   0.00000   0.00213   0.00210  -1.11212
   D27        3.14156  -0.00000   0.00000   0.00001   0.00001   3.14156
   D28       -1.20352   0.00129   0.00000  -0.02113  -0.02093  -1.22446
   D29        2.95741   0.00039   0.00000  -0.05495  -0.05487   2.90254
   D30        0.96157  -0.00080   0.00000  -0.03376  -0.03377   0.92780
   D31       -1.16068  -0.00169   0.00000  -0.06759  -0.06771  -1.22839
   D32        2.99369   0.00002   0.00000  -0.03115  -0.03117   2.96252
   D33        0.87144  -0.00087   0.00000  -0.06498  -0.06511   0.80633
   D34       -3.09305   0.00021   0.00000  -0.02929  -0.02931  -3.12236
   D35       -0.98549  -0.00038   0.00000  -0.03961  -0.03963  -1.02512
   D36        1.14406  -0.00061   0.00000  -0.04954  -0.04957   1.09450
   D37       -0.96841   0.00040   0.00000   0.00729   0.00731  -0.96109
   D38        1.13915  -0.00019   0.00000  -0.00303  -0.00301   1.13614
   D39       -3.01449  -0.00042   0.00000  -0.01296  -0.01294  -3.02743
   D40       -3.10413  -0.00029   0.00000   0.00989   0.00991  -3.09422
   D41        1.06462   0.00028   0.00000   0.02174   0.02179   1.08641
   D42       -1.05091   0.00046   0.00000   0.02901   0.02907  -1.02184
   D43        1.03180  -0.00050   0.00000  -0.02407  -0.02414   1.00767
   D44       -1.08263   0.00007   0.00000  -0.01222  -0.01227  -1.09489
   D45        3.08502   0.00025   0.00000  -0.00495  -0.00498   3.08005
         Item               Value     Threshold  Converged?
 Maximum Force            0.009095     0.000450     NO 
 RMS     Force            0.002620     0.000300     NO 
 Maximum Displacement     0.115004     0.001800     NO 
 RMS     Displacement     0.040965     0.001200     NO 
 Predicted change in Energy=-1.894982D-03
 GradGradGradGradGradGradGradGradGradGradGradGradGradGradGradGradGradGrad

                          Input orientation:                          
 ---------------------------------------------------------------------
 Center     Atomic      Atomic             Coordinates (Angstroms)
 Number     Number       Type             X           Y           Z
 ---------------------------------------------------------------------
      1          6           0       -2.133251    1.539989   -0.447798
      2          7           0       -1.852334    0.282857    0.243357
      3          6           0       -3.001826   -0.613194    0.140287
      4          6           0       -0.640689   -0.374300   -0.254915
      5          6           0        0.640689    0.374302    0.129663
      6          7           0        1.852335   -0.282876   -0.368580
      7          6           0        2.133250   -1.539979    0.322627
      8          6           0        3.001828    0.613179   -0.265540
      9          1           0       -2.260308    1.410947   -1.539291
     10          1           0       -1.331785    2.264320   -0.283409
     11          1           0       -3.055316    1.974971   -0.050414
     12          1           0       -3.888272   -0.127175    0.559948
     13          1           0       -2.814313   -1.528283    0.710728
     14          1           0       -3.235647   -0.902549   -0.901475
     15          1           0       -0.663805   -0.507288   -1.353812
     16          1           0       -0.618520   -1.376952    0.183643
     17          1           0        0.663791    0.507315    1.228557
     18          1           0        0.618532    1.376943   -0.308919
     19          1           0        3.055314   -1.974980   -0.074738
     20          1           0        2.260306   -1.410892    1.414115
     21          1           0        1.331783   -2.264316    0.158268
     22          1           0        3.888275    0.127141   -0.685176
     23          1           0        3.235643    0.902577    0.776210
     24          1           0        2.814319    1.528244   -0.836021
 ---------------------------------------------------------------------
                    Distance matrix (angstroms):
                    1          2          3          4          5
     1  C    0.000000
     2  N    1.461844   0.000000
     3  C    2.395091   1.461118   0.000000
     4  C    2.435045   1.465678   2.405872   0.000000
     5  C    3.063826   2.497289   3.774013   1.533048   0.000000
     6  N    4.383379   3.797248   4.891925   2.497288   1.465679
     7  C    5.318156   4.383366   5.221224   3.063838   2.435045
     8  C    5.221229   4.891929   6.141054   3.774011   2.405872
     9  H    1.106415   2.148689   2.732760   2.731280   3.503688
    10  H    1.092715   2.115336   3.353899   2.727772   2.762871
    11  H    1.094225   2.096835   2.595733   3.375102   4.031752
    12  H    2.622038   2.100809   1.094585   3.357360   4.576911
    13  H    3.349675   2.103348   1.094510   2.643631   3.986792
    14  H    2.717920   2.151600   1.106194   2.725966   4.209463
    15  H    2.677961   2.141934   2.776669   1.107156   2.163239
    16  H    3.346889   2.069016   2.503068   1.094594   2.157640
    17  H    3.420530   2.711436   3.984548   2.163239   1.107156
    18  H    2.760105   2.758117   4.155650   2.157639   1.094594
    19  H    6.278167   5.411471   6.212056   4.031759   3.375102
    20  H    5.610505   4.599269   5.472568   3.503707   2.731281
    21  H    5.181362   4.078472   4.637531   2.762885   2.727771
    22  H    6.189610   5.817303   6.978752   4.576908   3.357360
    23  H    5.543421   5.153202   6.450425   4.209464   2.725965
    24  H    4.962792   4.949111   6.274271   3.986783   2.643633
                    6          7          8          9         10
     6  N    0.000000
     7  C    1.461844   0.000000
     8  C    1.461118   2.395091   0.000000
     9  H    4.599287   5.610531   5.472563   0.000000
    10  H    4.078491   5.181355   4.637541   1.779787   0.000000
    11  H    5.411483   6.278157   6.212065   1.779583   1.763113
    12  H    5.817300   6.189593   6.978755   3.069672   3.600850
    13  H    4.949096   4.962775   6.274269   3.742804   4.191663
    14  H    5.153206   5.543446   6.450421   2.590436   3.746432
    15  H    2.711458   3.420587   3.984550   2.502569   3.045287
    16  H    2.758093   2.760096   4.155635   3.665562   3.739752
    17  H    2.141935   2.677953   2.776679   4.126486   3.058665
    18  H    2.069017   3.346888   2.503061   3.130925   2.142855
    19  H    2.096835   1.094225   2.595733   6.470337   6.104248
    20  H    2.148688   1.106414   2.732757   6.092728   5.412199
    21  H    2.115336   1.092715   3.353899   5.412244   5.272402
    22  H    2.100809   2.622036   1.094585   6.338987   5.654908
    23  H    2.151600   2.717920   1.106194   5.985438   4.882473
    24  H    2.103348   3.349674   1.094510   5.124470   4.247043
                   11         12         13         14         15
    11  H    0.000000
    12  H    2.342088   0.000000
    13  H    3.593078   1.771787   0.000000
    14  H    3.006151   1.778449   1.779962   0.000000
    15  H    3.685076   3.768840   3.151102   2.641063   0.000000
    16  H    4.150680   3.520628   2.263234   2.872610   1.766956
    17  H    4.197802   4.644447   4.063129   4.661584   3.075802
    18  H    3.731169   4.829967   4.611339   4.516847   2.507293
    19  H    7.276160   7.213224   5.938772   6.435044   4.197856
    20  H    6.470298   6.338970   5.124480   5.985472   4.126542
    21  H    6.104240   5.654882   4.247007   4.882508   3.058743
    22  H    7.213242   7.879702   7.043697   7.201203   4.644460
    23  H    6.435022   7.201203   6.520378   6.924644   4.661588
    24  H    5.938801   7.043711   6.589104   6.520363   4.063108
                   16         17         18         19         20
    16  H    0.000000
    17  H    2.507315   0.000000
    18  H    3.058897   1.766956   0.000000
    19  H    3.731147   3.685071   4.150679   0.000000
    20  H    3.130951   2.502561   3.665555   1.779583   0.000000
    21  H    2.142835   3.045270   3.739754   1.763113   1.779787
    22  H    4.829943   3.768847   3.520624   2.342087   3.069667
    23  H    4.516853   2.641074   2.872594   3.006154   2.590433
    24  H    4.611319   3.151119   2.263230   3.593078   3.742802
                   21         22         23         24
    21  H    0.000000
    22  H    3.600850   0.000000
    23  H    3.746431   1.778449   0.000000
    24  H    4.191663   1.771786   1.779962   0.000000
 Stoichiometry    C6H16N2
 Framework group  C1[X(C6H16N2)]
 Deg. of freedom    66
 Full point group                 C1      NOp   1
 Largest Abelian subgroup         C1      NOp   1
 Largest concise Abelian subgroup C1      NOp   1
                         Standard orientation:                         
 ---------------------------------------------------------------------
 Center     Atomic      Atomic             Coordinates (Angstroms)
 Number     Number       Type             X           Y           Z
 ---------------------------------------------------------------------
      1          6           0       -2.296113   -1.338977    0.075544
      2          7           0       -1.870075   -0.000087   -0.328007
      3          6           0       -2.911938    0.973978   -0.010858
      4          6           0       -0.595819    0.392000    0.280889
      5          6           0        0.595818   -0.392011   -0.280862
      6          7           0        1.870077    0.000101    0.328009
      7          6           0        2.296110    1.338976   -0.075600
      8          6           0        2.911940   -0.973973    0.010889
      9          1           0       -2.415970   -1.439651    1.170830
     10          1           0       -1.580225   -2.094290   -0.257672
     11          1           0       -3.258347   -1.570249   -0.391303
     12          1           0       -3.844369    0.694163   -0.511252
     13          1           0       -2.618176    1.965276   -0.370001
     14          1           0       -3.119427    1.051518    1.072932
     15          1           0       -0.612010    0.281918    1.382440
     16          1           0       -0.457455    1.457628    0.072496
     17          1           0        0.611993   -0.281953   -1.382416
     18          1           0        0.457467   -1.457636   -0.072444
     19          1           0        3.258346    1.570270    0.391234
     20          1           0        2.415961    1.439605   -1.170891
     21          1           0        1.580223    2.094301    0.257589
     22          1           0        3.844376   -0.694136    0.511262
     23          1           0        3.119418   -1.051557   -1.072900
     24          1           0        2.618186   -1.965258    0.370076
 ---------------------------------------------------------------------
 Rotational constants (GHZ):           4.2794990           0.9116891           0.7871466
 Standard basis: 6-31G(d,p) (6D, 7F)
 There are   200 symmetry adapted cartesian basis functions of A   symmetry.
 There are   200 symmetry adapted basis functions of A   symmetry.
   200 basis functions,   336 primitive gaussians,   200 cartesian basis functions
    33 alpha electrons       33 beta electrons
       nuclear repulsion energy       410.6754885489 Hartrees.
 NAtoms=   24 NActive=   24 NUniq=   24 SFac= 1.00D+00 NAtFMM=   60 NAOKFM=F Big=F
 Integral buffers will be    131072 words long.
 Raffenetti 2 integral format.
 Two-electron integral symmetry is turned on.
 ------------------------------------------------------------------------------
 Polarizable Continuum Model (PCM)
 =================================
 Model                : PCM.
 Atomic radii         : UFF (Universal Force Field).
 Polarization charges : Total charges.
 Charge compensation  : None.
 Solution method      : Matrix inversion.
 Cavity type          : Scaled VdW (van der Waals Surface) (Alpha=1.100).
 Cavity algorithm     : GePol (No added spheres)
                        Default sphere list used, NSphG=   24.
                        Lebedev-Laikov grids with approx.  5.0 points / Ang**2.
                        Smoothing algorithm: York/Karplus (Gamma=1.0000).
                        Polarization charges: spherical gaussians, with
                                              point-specific exponents (IZeta= 3).
                        Self-potential: point-specific (ISelfS= 7).
                        Self-field    : sphere-specific E.n sum rule (ISelfD= 2).
 1st derivatives      : Analytical E(r).r(x)/FMM algorithm (CHGder, D1EAlg=3).
                        Cavity 1st derivative terms included.
 Solvent              : Water, Eps=  78.355300 Eps(inf)=   1.777849
 ------------------------------------------------------------------------------
 One-electron integrals computed using PRISM.
 NBasis=   200 RedAO= T EigKep=  3.01D-03  NBF=   200
 NBsUse=   200 1.00D-06 EigRej= -1.00D+00 NBFU=   200
 Initial guess from the checkpoint file:  "KWYHDKDOAIKMQN-UHFFFAOYSA-N_conf_1_0.chk"
 B after Tr=     0.000000   -0.000000    0.000000
         Rot=    0.999997   -0.002414    0.000550    0.000622 Ang=  -0.29 deg.
 ExpMin= 1.61D-01 ExpMax= 4.17D+03 ExpMxC= 6.27D+02 IAcc=2 IRadAn=         4 AccDes= 0.00D+00
 Harris functional with IExCor=  402 and IRadAn=       4 diagonalized for initial guess.
 HarFok:  IExCor=  402 AccDes= 0.00D+00 IRadAn=         4 IDoV= 1 UseB2=F ITyADJ=14
 ICtDFT=  3500011 ScaDFX=  1.000000  1.000000  1.000000  1.000000
 FoFCou: FMM=F IPFlag=           0 FMFlag=      100000 FMFlg1=           0
         NFxFlg=           0 DoJE=T BraDBF=F KetDBF=T FulRan=T
         wScrn=  0.000000 ICntrl=       500 IOpCl=  0 I1Cent=   200000004 NGrid=           0
         NMat0=    1 NMatS0=      1 NMatT0=    0 NMatD0=    1 NMtDS0=    0 NMtDT0=    0
 Petite list used in FoFCou.
 Keep R1 ints in memory in canonical form, NReq=206134434.
 Requested convergence on RMS density matrix=1.00D-08 within  32 cycles.
 Requested convergence on MAX density matrix=1.00D-06.
 Requested convergence on             energy=1.00D-06.
 No special actions if energy rises.
 Inv3:  Mode=1 IEnd=     7912128.
 Iteration    1 A*A^-1 deviation from unit magnitude is 6.00D-15 for    322.
 Iteration    1 A*A^-1 deviation from orthogonality  is 5.63D-15 for   1583    602.
 Iteration    1 A^-1*A deviation from unit magnitude is 6.44D-15 for    216.
 Iteration    1 A^-1*A deviation from orthogonality  is 3.02D-15 for   1155   1141.
 Error on total polarization charges =  0.01042
 SCF Done:  E(RB3LYP) =  -347.769522348     A.U. after    9 cycles
            NFock=  9  Conv=0.29D-08     -V/T= 2.0099
 QCSCF skips out because SCF is already converged.
 D1PCM: PCM CHGder 1st derivatives, ID1Alg=3 FixD1E=F DoIter=F DoCFld=F I1PDM=0.
 Calling FoFJK, ICntrl=      2127 FMM=F ISym2X=0 I1Cent= 0 IOpClX= 0 NMat=1 NMatS=1 NMatT=0.
 ***** Axes restored to original set *****
 -------------------------------------------------------------------
 Center     Atomic                   Forces (Hartrees/Bohr)
 Number     Number              X              Y              Z
 -------------------------------------------------------------------
      1        6          -0.000054072    0.000228592    0.000419724
      2        7          -0.000498480    0.000164512   -0.000496477
      3        6          -0.000007021   -0.000080227    0.000708799
      4        6           0.000131559   -0.000225117    0.000346592
      5        6          -0.000131590    0.000225118   -0.000346720
      6        7           0.000498496   -0.000164453    0.000496561
      7        6           0.000054071   -0.000228637   -0.000419756
      8        6           0.000007014    0.000080217   -0.000708870
      9        1          -0.000107036    0.000001148   -0.000249434
     10        1           0.000112220   -0.000086472   -0.000157181
     11        1          -0.000028480   -0.000025632    0.000008165
     12        1          -0.000014634    0.000059434   -0.000069213
     13        1           0.000061870   -0.000046938   -0.000080277
     14        1          -0.000120079   -0.000078250   -0.000223522
     15        1           0.000136922    0.000103570   -0.000209548
     16        1          -0.000114873   -0.000068137   -0.000169343
     17        1          -0.000136897   -0.000103636    0.000209587
     18        1           0.000114856    0.000068171    0.000169412
     19        1           0.000028482    0.000025624   -0.000008169
     20        1           0.000107049   -0.000001141    0.000249444
     21        1          -0.000112235    0.000086485    0.000157197
     22        1           0.000014634   -0.000059431    0.000069210
     23        1           0.000120096    0.000078254    0.000223540
     24        1          -0.000061874    0.000046945    0.000080280
 -------------------------------------------------------------------
 Cartesian Forces:  Max     0.000708870 RMS     0.000222485

 GradGradGradGradGradGradGradGradGradGradGradGradGradGradGradGradGradGrad
 Berny optimization.
 Using GEDIIS/GDIIS optimizer.
 FormGI is forming the generalized inverse of G from B-inverse, IUseBI=4.
 Internal  Forces:  Max     0.000555241 RMS     0.000140805
 Search for a local minimum.
 Step number   2 out of a maximum of  120
 All quantities printed in internal units (Hartrees-Bohrs-Radians)
 Mixed Optimization -- En-DIIS/RFO-DIIS
 Update second derivatives using D2CorX and points    1    2
 DE= -1.89D-03 DEPred=-1.89D-03 R= 9.95D-01
 TightC=F SS=  1.41D+00  RLast= 2.45D-01 DXNew= 5.0454D-01 7.3397D-01
 Trust test= 9.95D-01 RLast= 2.45D-01 DXMaxT set to 5.05D-01
 ITU=  1  0
 Use linear search instead of GDIIS.
     Eigenvalues ---    0.00072   0.00297   0.00344   0.00501   0.00501
     Eigenvalues ---    0.00543   0.00561   0.02444   0.02474   0.04272
     Eigenvalues ---    0.04419   0.04604   0.05096   0.06255   0.06261
     Eigenvalues ---    0.06285   0.06287   0.06325   0.06328   0.06341
     Eigenvalues ---    0.06344   0.08243   0.08722   0.11176   0.12397
     Eigenvalues ---    0.12405   0.13144   0.13155   0.14023   0.14659
     Eigenvalues ---    0.15507   0.15509   0.15752   0.16439   0.16481
     Eigenvalues ---    0.16762   0.16791   0.18639   0.19278   0.19561
     Eigenvalues ---    0.19918   0.22198   0.24087   0.25757   0.30266
     Eigenvalues ---    0.31643   0.31726   0.31780   0.31979   0.31996
     Eigenvalues ---    0.32715   0.33215   0.33292   0.33293   0.33477
     Eigenvalues ---    0.33506   0.33568   0.33621   0.33645   0.34009
     Eigenvalues ---    0.34988   0.35508   0.35597   0.35740   0.36169
     Eigenvalues ---    0.36839
 RFO step:  Lambda=-1.31872965D-04 EMin= 7.24463272D-04
 Quartic linear search produced a step of  0.05135.
 Iteration  1 RMS(Cart)=  0.03143881 RMS(Int)=  0.00048427
 Iteration  2 RMS(Cart)=  0.00062063 RMS(Int)=  0.00000849
 Iteration  3 RMS(Cart)=  0.00000019 RMS(Int)=  0.00000849
 Variable       Old X    -DE/DX   Delta X   Delta X   Delta X     New X
                                 (Linear)    (Quad)   (Total)
    R1        2.76248   0.00011  -0.00029  -0.00073  -0.00102   2.76146
    R2        2.09082   0.00026   0.00101   0.00007   0.00108   2.09190
    R3        2.06493   0.00000  -0.00013   0.00005  -0.00007   2.06486
    R4        2.06778   0.00002  -0.00020   0.00043   0.00023   2.06801
    R5        2.76111   0.00013  -0.00051  -0.00009  -0.00060   2.76052
    R6        2.76973   0.00056  -0.00146   0.00221   0.00075   2.77048
    R7        2.06847   0.00001  -0.00013   0.00031   0.00019   2.06865
    R8        2.06832   0.00001  -0.00012  -0.00006  -0.00018   2.06814
    R9        2.09040   0.00026   0.00098   0.00004   0.00101   2.09142
   R10        2.89704   0.00049  -0.00163   0.00429   0.00266   2.89970
   R11        2.09222   0.00019   0.00087  -0.00070   0.00017   2.09239
   R12        2.06848  -0.00001  -0.00015   0.00002  -0.00014   2.06835
   R13        2.76973   0.00056  -0.00146   0.00221   0.00075   2.77048
   R14        2.09222   0.00019   0.00087  -0.00070   0.00017   2.09239
   R15        2.06848  -0.00001  -0.00015   0.00002  -0.00014   2.06834
   R16        2.76249   0.00011  -0.00029  -0.00073  -0.00102   2.76146
   R17        2.76111   0.00013  -0.00051  -0.00009  -0.00060   2.76052
   R18        2.06778   0.00002  -0.00020   0.00043   0.00023   2.06801
   R19        2.09082   0.00026   0.00101   0.00007   0.00108   2.09190
   R20        2.06493   0.00000  -0.00013   0.00005  -0.00007   2.06486
   R21        2.06847   0.00001  -0.00013   0.00031   0.00019   2.06865
   R22        2.09040   0.00026   0.00098   0.00004   0.00101   2.09142
   R23        2.06832   0.00001  -0.00012  -0.00006  -0.00018   2.06814
    A1        1.96946   0.00004   0.00056  -0.00092  -0.00035   1.96911
    A2        1.93689  -0.00003  -0.00032  -0.00054  -0.00086   1.93604
    A3        1.90931  -0.00002  -0.00098   0.00213   0.00116   1.91047
    A4        1.88594  -0.00006  -0.00052  -0.00113  -0.00165   1.88429
    A5        1.88374  -0.00004  -0.00018   0.00004  -0.00014   1.88360
    A6        1.87540   0.00011   0.00150   0.00046   0.00196   1.87736
    A7        1.92075   0.00001   0.00055   0.00118   0.00170   1.92244
    A8        1.96460   0.00004   0.00065  -0.00062  -0.00001   1.96459
    A9        1.92988   0.00014   0.00081   0.00555   0.00634   1.93622
   A10        1.91535  -0.00004  -0.00077  -0.00003  -0.00080   1.91455
   A11        1.91897  -0.00002  -0.00062   0.00096   0.00034   1.91931
   A12        1.97484   0.00007   0.00087   0.00005   0.00093   1.97577
   A13        1.88615   0.00009   0.00149  -0.00020   0.00129   1.88745
   A14        1.88182  -0.00006  -0.00051  -0.00110  -0.00162   1.88020
   A15        1.88425  -0.00005  -0.00041   0.00028  -0.00013   1.88412
   A16        1.96790   0.00013  -0.00102  -0.00085  -0.00187   1.96602
   A17        1.95414   0.00001   0.00127   0.00032   0.00159   1.95572
   A18        1.86632  -0.00006  -0.00057   0.00216   0.00160   1.86792
   A19        1.90191  -0.00010  -0.00066  -0.00008  -0.00073   1.90117
   A20        1.90695   0.00001   0.00123  -0.00093   0.00030   1.90725
   A21        1.86300  -0.00000  -0.00018  -0.00063  -0.00080   1.86220
   A22        1.96790   0.00013  -0.00102  -0.00085  -0.00187   1.96602
   A23        1.90191  -0.00010  -0.00066  -0.00008  -0.00073   1.90117
   A24        1.90695   0.00001   0.00123  -0.00092   0.00030   1.90725
   A25        1.95414   0.00001   0.00127   0.00032   0.00159   1.95572
   A26        1.86632  -0.00006  -0.00057   0.00216   0.00160   1.86792
   A27        1.86300  -0.00000  -0.00018  -0.00063  -0.00080   1.86220
   A28        1.96460   0.00004   0.00065  -0.00062  -0.00001   1.96459
   A29        1.92988   0.00014   0.00081   0.00555   0.00634   1.93622
   A30        1.92075   0.00001   0.00055   0.00118   0.00170   1.92244
   A31        1.90931  -0.00002  -0.00098   0.00213   0.00116   1.91047
   A32        1.96946   0.00004   0.00056  -0.00092  -0.00035   1.96911
[...]
    13  H    0.000005   0.000031   0.000661   0.000000   0.000000   0.000000
    14  H    0.000001   0.000002   0.000070   0.000000   0.000000   0.000000
    15  H    0.000864   0.000716   0.007489   0.000182   0.000203   0.001149
    16  H    0.003673   0.006306   0.051799   0.000169   0.000288   0.000399
    17  H    0.003887   0.029290   0.011538   0.001953   0.020355   0.008516
    18  H    0.001529   0.003510   0.003751   0.005279   0.014571   0.058841
    19  H    0.829676   0.030272   0.051925   0.039482   0.009965   0.005047
    20  H    0.030272   0.687012   0.016647   0.007402   0.021256   0.002475
    21  H    0.051925   0.016647   0.721372   0.003166   0.001993   0.000768
    22  H    0.039482   0.007402   0.003166   0.698925   0.012270   0.035939
    23  H    0.009965   0.021256   0.001993   0.012270   0.681456   0.022559
    24  H    0.005047   0.002475   0.000768   0.035939   0.022559   0.766393
 Mulliken charges:
               1
     1  C   -0.124860
     2  N   -0.309924
     3  C   -0.144023
     4  C    0.006134
     5  C    0.006133
     6  N   -0.309928
     7  C   -0.124861
     8  C   -0.144024
     9  H    0.092654
    10  H    0.076930
    11  H    0.051825
    12  H    0.087931
    13  H    0.072966
    14  H    0.103178
    15  H    0.065981
    16  H    0.021210
    17  H    0.065982
    18  H    0.021212
    19  H    0.051826
    20  H    0.092654
    21  H    0.076930
    22  H    0.087932
    23  H    0.103177
    24  H    0.072967
 Sum of Mulliken charges =  -0.00000
 Mulliken charges with hydrogens summed into heavy atoms:
               1
     1  C    0.096549
     2  N   -0.309924
     3  C    0.120051
     4  C    0.093325
     5  C    0.093326
     6  N   -0.309928
     7  C    0.096549
     8  C    0.120052
 Electronic spatial extent (au):  <R**2>=           1559.1957
 Charge=             -0.0000 electrons
 Dipole moment (field-independent basis, Debye):
    X=             -0.0000    Y=             -0.0000    Z=             -0.0000  Tot=              0.0000
 Quadrupole moment (field-independent basis, Debye-Ang):
   XX=            -52.3024   YY=            -55.9581   ZZ=            -56.8410
   XY=             -1.1351   XZ=             -2.4537   YZ=              0.1409
 Traceless Quadrupole moment (field-independent basis, Debye-Ang):
   XX=              2.7314   YY=             -0.9243   ZZ=             -1.8071
   XY=             -1.1351   XZ=             -2.4537   YZ=              0.1409
 Octapole moment (field-independent basis, Debye-Ang**2):
  XXX=              0.0004  YYY=             -0.0002  ZZZ=             -0.0001  XYY=              0.0001
  XXY=             -0.0000  XXZ=              0.0001  XZZ=              0.0000  YZZ=             -0.0000
  YYZ=              0.0000  XYZ=             -0.0000
 Hexadecapole moment (field-independent basis, Debye-Ang**3):
 XXXX=          -1657.1828 YYYY=           -414.6239 ZZZZ=           -126.5085 XXXY=            -32.5518
 XXXZ=            -10.5567 YYYX=              1.7388 YYYZ=             -1.1127 ZZZX=             -2.6232
 ZZZY=              0.1938 XXYY=           -338.2813 XXZZ=           -302.9475 YYZZ=            -89.6784
 XXYZ=             -1.4866 YYXZ=             -3.2963 ZZXY=             -1.2423
 N-N= 4.102182587438D+02 E-N=-1.624202011800D+03  KE= 3.444964619353D+02
 Evaluate density.
 Using the total density.
 Monte-Carlo method of calculating molar volume:
 based on  0.001 e/bohr**3 density envelope.
 Number of points per bohr**3 =   20 CutOff= 1.00D-04
 Using the CI density.
 There are       366 points.  Will hold       366 in memory.
 LenV=  1073626960 MDV=  1073741824.
 Box volume = 6154.338 fraction occupied=0.246
 Integrated density= 7.7620075873477361D+01 error= 1.1620075873477361D+01
 Molar volume = 1513.362 bohr**3/mol (135.051 cm**3/mol)
 Recommended a0 for SCRF calculation =  4.65 angstrom (  8.78 bohr)
 ******************************Gaussian NBO Version 3.1******************************
             N A T U R A L   A T O M I C   O R B I T A L   A N D
          N A T U R A L   B O N D   O R B I T A L   A N A L Y S I S
 ******************************Gaussian NBO Version 3.1******************************
       /RESON  / : Allow strongly delocalized NBO set

 Analyzing the CI density

 Job title: KWYHDKDOAIKMQN-UHFFFAOYSA-N_conf_1                              

 Storage needed:    121952 in NPA (1073738704 available)
 GSVD:  LWork=       20800 too small for GESVD, short by       16736 words or       16736 for optimal perf.


 NATURAL POPULATIONS:  Natural atomic orbital occupancies 
                                                          
   NAO  Atom  No  lang   Type(AO)    Occupancy
 --------------------------------------------
     1    C    1  S      Cor( 1S)     1.99944
     2    C    1  S      Val( 2S)     1.11519
     3    C    1  S      Ryd( 3S)     0.00152
     4    C    1  S      Ryd( 4S)     0.00004
     5    C    1  px     Val( 2p)     1.22473
     6    C    1  px     Ryd( 3p)     0.00335
     7    C    1  py     Val( 2p)     0.95052
     8    C    1  py     Ryd( 3p)     0.00603
     9    C    1  pz     Val( 2p)     1.21433
    10    C    1  pz     Ryd( 3p)     0.00236
    11    C    1  dxy    Ryd( 3d)     0.00099
    12    C    1  dxz    Ryd( 3d)     0.00056
    13    C    1  dyz    Ryd( 3d)     0.00075
    14    C    1  dx2y2  Ryd( 3d)     0.00091
    15    C    1  dz2    Ryd( 3d)     0.00095

    16    N    2  S      Cor( 1S)     1.99940
    17    N    2  S      Val( 2S)     1.29835
    18    N    2  S      Ryd( 3S)     0.00146
    19    N    2  S      Ryd( 4S)     0.00010
    20    N    2  px     Val( 2p)     1.26233
    21    N    2  px     Ryd( 3p)     0.00088
    22    N    2  py     Val( 2p)     1.25827
    23    N    2  py     Ryd( 3p)     0.00112
    24    N    2  pz     Val( 2p)     1.43657
    25    N    2  pz     Ryd( 3p)     0.00473
    26    N    2  dxy    Ryd( 3d)     0.00075
    27    N    2  dxz    Ryd( 3d)     0.00101
    28    N    2  dyz    Ryd( 3d)     0.00089
    29    N    2  dx2y2  Ryd( 3d)     0.00065
    30    N    2  dz2    Ryd( 3d)     0.00080

    31    C    3  S      Cor( 1S)     1.99946
    32    C    3  S      Val( 2S)     1.10863
    33    C    3  S      Ryd( 3S)     0.00137
    34    C    3  S      Ryd( 4S)     0.00004
    35    C    3  px     Val( 2p)     1.07319
    36    C    3  px     Ryd( 3p)     0.00442
    37    C    3  py     Val( 2p)     1.09693
    38    C    3  py     Ryd( 3p)     0.00587
    39    C    3  pz     Val( 2p)     1.22735
    40    C    3  pz     Ryd( 3p)     0.00201
    41    C    3  dxy    Ryd( 3d)     0.00117
    42    C    3  dxz    Ryd( 3d)     0.00075
    43    C    3  dyz    Ryd( 3d)     0.00053
    44    C    3  dx2y2  Ryd( 3d)     0.00078
    45    C    3  dz2    Ryd( 3d)     0.00092

    46    C    4  S      Cor( 1S)     1.99930
    47    C    4  S      Val( 2S)     1.03804
    48    C    4  S      Ryd( 3S)     0.00233
    49    C    4  S      Ryd( 4S)     0.00004
    50    C    4  px     Val( 2p)     0.88433
    51    C    4  px     Ryd( 3p)     0.00601
    52    C    4  py     Val( 2p)     1.21023
    53    C    4  py     Ryd( 3p)     0.00584
    54    C    4  pz     Val( 2p)     1.15726
    55    C    4  pz     Ryd( 3p)     0.00398
    56    C    4  dxy    Ryd( 3d)     0.00076
    57    C    4  dxz    Ryd( 3d)     0.00106
    58    C    4  dyz    Ryd( 3d)     0.00034
    59    C    4  dx2y2  Ryd( 3d)     0.00111
    60    C    4  dz2    Ryd( 3d)     0.00118

    61    C    5  S      Cor( 1S)     1.99930
    62    C    5  S      Val( 2S)     1.03804
    63    C    5  S      Ryd( 3S)     0.00233
    64    C    5  S      Ryd( 4S)     0.00004
    65    C    5  px     Val( 2p)     0.88433
    66    C    5  px     Ryd( 3p)     0.00601
    67    C    5  py     Val( 2p)     1.21023
    68    C    5  py     Ryd( 3p)     0.00584
    69    C    5  pz     Val( 2p)     1.15726
    70    C    5  pz     Ryd( 3p)     0.00398
    71    C    5  dxy    Ryd( 3d)     0.00076
    72    C    5  dxz    Ryd( 3d)     0.00106
    73    C    5  dyz    Ryd( 3d)     0.00034
    74    C    5  dx2y2  Ryd( 3d)     0.00111
    75    C    5  dz2    Ryd( 3d)     0.00118

    76    N    6  S      Cor( 1S)     1.99940
    77    N    6  S      Val( 2S)     1.29835
    78    N    6  S      Ryd( 3S)     0.00146
    79    N    6  S      Ryd( 4S)     0.00010
    80    N    6  px     Val( 2p)     1.26233
    81    N    6  px     Ryd( 3p)     0.00088
    82    N    6  py     Val( 2p)     1.25827
    83    N    6  py     Ryd( 3p)     0.00112
    84    N    6  pz     Val( 2p)     1.43658
    85    N    6  pz     Ryd( 3p)     0.00473
    86    N    6  dxy    Ryd( 3d)     0.00075
    87    N    6  dxz    Ryd( 3d)     0.00101
    88    N    6  dyz    Ryd( 3d)     0.00089
    89    N    6  dx2y2  Ryd( 3d)     0.00065
    90    N    6  dz2    Ryd( 3d)     0.00080

    91    C    7  S      Cor( 1S)     1.99944
    92    C    7  S      Val( 2S)     1.11519
    93    C    7  S      Ryd( 3S)     0.00152
    94    C    7  S      Ryd( 4S)     0.00004
    95    C    7  px     Val( 2p)     1.22473
    96    C    7  px     Ryd( 3p)     0.00335
    97    C    7  py     Val( 2p)     0.95053
    98    C    7  py     Ryd( 3p)     0.00603
    99    C    7  pz     Val( 2p)     1.21433
   100    C    7  pz     Ryd( 3p)     0.00236
   101    C    7  dxy    Ryd( 3d)     0.00099
   102    C    7  dxz    Ryd( 3d)     0.00056
   103    C    7  dyz    Ryd( 3d)     0.00075
   104    C    7  dx2y2  Ryd( 3d)     0.00091
   105    C    7  dz2    Ryd( 3d)     0.00095

   106    C    8  S      Cor( 1S)     1.99946
   107    C    8  S      Val( 2S)     1.10863
   108    C    8  S      Ryd( 3S)     0.00137
   109    C    8  S      Ryd( 4S)     0.00004
   110    C    8  px     Val( 2p)     1.07319
   111    C    8  px     Ryd( 3p)     0.00442
   112    C    8  py     Val( 2p)     1.09692
   113    C    8  py     Ryd( 3p)     0.00587
   114    C    8  pz     Val( 2p)     1.22735
   115    C    8  pz     Ryd( 3p)     0.00201
   116    C    8  dxy    Ryd( 3d)     0.00117
   117    C    8  dxz    Ryd( 3d)     0.00075
   118    C    8  dyz    Ryd( 3d)     0.00053
   119    C    8  dx2y2  Ryd( 3d)     0.00078
   120    C    8  dz2    Ryd( 3d)     0.00092

   121    H    9  S      Val( 1S)     0.76664
   122    H    9  S      Ryd( 2S)     0.01724
   123    H    9  px     Ryd( 2p)     0.00009
   124    H    9  py     Ryd( 2p)     0.00008
   125    H    9  pz     Ryd( 2p)     0.00036

   126    H   10  S      Val( 1S)     0.78004
   127    H   10  S      Ryd( 2S)     0.01657
   128    H   10  px     Ryd( 2p)     0.00020
   129    H   10  py     Ryd( 2p)     0.00021
   130    H   10  pz     Ryd( 2p)     0.00009

   131    H   11  S      Val( 1S)     0.78941
   132    H   11  S      Ryd( 2S)     0.02237
   133    H   11  px     Ryd( 2p)     0.00028
   134    H   11  py     Ryd( 2p)     0.00008
   135    H   11  pz     Ryd( 2p)     0.00013

   136    H   12  S      Val( 1S)     0.76843
   137    H   12  S      Ryd( 2S)     0.01479
   138    H   12  px     Ryd( 2p)     0.00028
   139    H   12  py     Ryd( 2p)     0.00008
   140    H   12  pz     Ryd( 2p)     0.00014

   141    H   13  S      Val( 1S)     0.78027
   142    H   13  S      Ryd( 2S)     0.01846
   143    H   13  px     Ryd( 2p)     0.00008
   144    H   13  py     Ryd( 2p)     0.00031
   145    H   13  pz     Ryd( 2p)     0.00010

   146    H   14  S      Val( 1S)     0.76396
   147    H   14  S      Ryd( 2S)     0.01408
   148    H   14  px     Ryd( 2p)     0.00009
   149    H   14  py     Ryd( 2p)     0.00008
   150    H   14  pz     Ryd( 2p)     0.00035

   151    H   15  S      Val( 1S)     0.77053
   152    H   15  S      Ryd( 2S)     0.02236
   153    H   15  px     Ryd( 2p)     0.00007
   154    H   15  py     Ryd( 2p)     0.00010
   155    H   15  pz     Ryd( 2p)     0.00037

   156    H   16  S      Val( 1S)     0.79215
   157    H   16  S      Ryd( 2S)     0.03436
   158    H   16  px     Ryd( 2p)     0.00010
   159    H   16  py     Ryd( 2p)     0.00036
   160    H   16  pz     Ryd( 2p)     0.00009

   161    H   17  S      Val( 1S)     0.77053
   162    H   17  S      Ryd( 2S)     0.02236
   163    H   17  px     Ryd( 2p)     0.00007
   164    H   17  py     Ryd( 2p)     0.00010
   165    H   17  pz     Ryd( 2p)     0.00037

   166    H   18  S      Val( 1S)     0.79215
   167    H   18  S      Ryd( 2S)     0.03435
   168    H   18  px     Ryd( 2p)     0.00010
   169    H   18  py     Ryd( 2p)     0.00036
   170    H   18  pz     Ryd( 2p)     0.00009

   171    H   19  S      Val( 1S)     0.78941
   172    H   19  S      Ryd( 2S)     0.02237
   173    H   19  px     Ryd( 2p)     0.00028
   174    H   19  py     Ryd( 2p)     0.00008
   175    H   19  pz     Ryd( 2p)     0.00013

   176    H   20  S      Val( 1S)     0.76664
   177    H   20  S      Ryd( 2S)     0.01724
   178    H   20  px     Ryd( 2p)     0.00009
   179    H   20  py     Ryd( 2p)     0.00008
   180    H   20  pz     Ryd( 2p)     0.00036

   181    H   21  S      Val( 1S)     0.78004
   182    H   21  S      Ryd( 2S)     0.01657
   183    H   21  px     Ryd( 2p)     0.00020
   184    H   21  py     Ryd( 2p)     0.00021
   185    H   21  pz     Ryd( 2p)     0.00009

   186    H   22  S      Val( 1S)     0.76843
   187    H   22  S      Ryd( 2S)     0.01479
   188    H   22  px     Ryd( 2p)     0.00028
   189    H   22  py     Ryd( 2p)     0.00008
   190    H   22  pz     Ryd( 2p)     0.00014

   191    H   23  S      Val( 1S)     0.76397
   192    H   23  S      Ryd( 2S)     0.01408
   193    H   23  px     Ryd( 2p)     0.00009
   194    H   23  py     Ryd( 2p)     0.00008
   195    H   23  pz     Ryd( 2p)     0.00035

   196    H   24  S      Val( 1S)     0.78027
   197    H   24  S      Ryd( 2S)     0.01846
   198    H   24  px     Ryd( 2p)     0.00008
   199    H   24  py     Ryd( 2p)     0.00031
   200    H   24  pz     Ryd( 2p)     0.00010


 Summary of Natural Population Analysis:                  
                                                          
                                       Natural Population 
                Natural  -----------------------------------------------
    Atom  No    Charge         Core      Valence    Rydberg      Total
 -----------------------------------------------------------------------
      C    1   -0.52168      1.99944     4.50478    0.01746     6.52168
      N    2   -0.26731      1.99940     5.25552    0.01239     7.26731
      C    3   -0.52342      1.99946     4.50610    0.01787     6.52342
      C    4   -0.31181      1.99930     4.28985    0.02267     6.31181
      C    5   -0.31181      1.99930     4.28985    0.02267     6.31181
      N    6   -0.26732      1.99940     5.25553    0.01239     7.26732
      C    7   -0.52168      1.99944     4.50478    0.01746     6.52168
      C    8   -0.52342      1.99946     4.50609    0.01787     6.52342
      H    9    0.21560      0.00000     0.76664    0.01776     0.78440
      H   10    0.20289      0.00000     0.78004    0.01707     0.79711
      H   11    0.18773      0.00000     0.78941    0.02286     0.81227
      H   12    0.21628      0.00000     0.76843    0.01529     0.78372
      H   13    0.20077      0.00000     0.78027    0.01896     0.79923
      H   14    0.22143      0.00000     0.76396    0.01460     0.77857
      H   15    0.20657      0.00000     0.77053    0.02291     0.79343
      H   16    0.17295      0.00000     0.79215    0.03490     0.82705
      H   17    0.20657      0.00000     0.77053    0.02290     0.79343
      H   18    0.17296      0.00000     0.79215    0.03490     0.82704
      H   19    0.18773      0.00000     0.78941    0.02286     0.81227
      H   20    0.21560      0.00000     0.76664    0.01776     0.78440
      H   21    0.20289      0.00000     0.78004    0.01707     0.79711
      H   22    0.21628      0.00000     0.76843    0.01529     0.78372
      H   23    0.22143      0.00000     0.76397    0.01460     0.77857
      H   24    0.20077      0.00000     0.78027    0.01896     0.79923
 =======================================================================
   * Total *   -0.00000     15.99518    49.53537    0.46946    66.00000

                                 Natural Population      
 --------------------------------------------------------
   Core                      15.99518 ( 99.9699% of  16)
   Valence                   49.53537 ( 99.0707% of  50)
   Natural Minimal Basis     65.53054 ( 99.2887% of  66)
   Natural Rydberg Basis      0.46946 (  0.7113% of  66)
 --------------------------------------------------------

    Atom  No          Natural Electron Configuration
 ----------------------------------------------------------------------------
      C    1      [core]2S( 1.12)2p( 3.39)3p( 0.01)
      N    2      [core]2S( 1.30)2p( 3.96)3p( 0.01)
      C    3      [core]2S( 1.11)2p( 3.40)3p( 0.01)
      C    4      [core]2S( 1.04)2p( 3.25)3p( 0.02)
      C    5      [core]2S( 1.04)2p( 3.25)3p( 0.02)
      N    6      [core]2S( 1.30)2p( 3.96)3p( 0.01)
      C    7      [core]2S( 1.12)2p( 3.39)3p( 0.01)
      C    8      [core]2S( 1.11)2p( 3.40)3p( 0.01)
      H    9            1S( 0.77)2S( 0.02)
      H   10            1S( 0.78)2S( 0.02)
      H   11            1S( 0.79)2S( 0.02)
      H   12            1S( 0.77)2S( 0.01)
      H   13            1S( 0.78)2S( 0.02)
      H   14            1S( 0.76)2S( 0.01)
      H   15            1S( 0.77)2S( 0.02)
      H   16            1S( 0.79)2S( 0.03)
      H   17            1S( 0.77)2S( 0.02)
      H   18            1S( 0.79)2S( 0.03)
      H   19            1S( 0.79)2S( 0.02)
      H   20            1S( 0.77)2S( 0.02)
      H   21            1S( 0.78)2S( 0.02)
      H   22            1S( 0.77)2S( 0.01)
      H   23            1S( 0.76)2S( 0.01)
      H   24            1S( 0.78)2S( 0.02)


 NBO analysis skipped by request.
 1\1\GINC-CN34\SP\RB3LYP TD-FC\6-31G(d,p)\C6H16N2\QDUEZ\11-Jul-2024\0\\
 # TD(NStates=10, Root=1) B3LYP/6-31G** SCRF=(Solvent=water) volume pop
 =NPA density=current Geom=AllCheck Guess=Read\\KWYHDKDOAIKMQN-UHFFFAOY
 SA-N_conf_1\\0,1\C,0,-2.1483074967,1.5413218634,-0.4659912582\N,0,-1.8
 54355831,0.2871642943,0.2239192654\C,0,-3.002128454,-0.6127798542,0.14
 44784528\C,0,-0.6404080821,-0.3613674731,-0.2816100674\C,0,0.640408004
 8,0.3613688439,0.1563797717\N,0,1.8543551311,-0.287170754,-0.349141489
 3\C,0,2.148307127,-1.5413179902,0.3407876578\C,0,3.0021286553,0.612773
 6198,-0.2697164347\H,0,-2.323437947,1.4040170411,-1.550365343\H,0,-1.3
 289359188,2.2540811259,-0.3448553133\H,0,-3.0465555911,1.9937238632,-0
 .0344901183\H,0,-3.8831037882,-0.1256954144,0.5746503071\H,0,-2.803125
 7856,-1.5239891556,0.7170418903\H,0,-3.253395554,-0.9089955152,-0.8918
 655914\H,0,-0.644248639,-0.4481328683,-1.3852500619\H,0,-0.6324155871,
 -1.3820415009,0.1135663323\H,0,0.6442450224,0.4481412319,1.2600191503\
 H,0,0.6324200554,1.3820402433,-0.2388034041\H,0,3.0465514395,-1.993729
 7963,-0.0907111326\H,0,2.3234439924,-1.4039959688,1.4251585124\H,0,1.3
 2893263,-2.2540767091,0.219668133\H,0,3.8831028066,0.1256816741,-0.699
 8822382\H,0,3.253397847,0.9090049677,0.7666226083\H,0,2.8031259631,1.5
 239742315,-0.8422936723\\Version=EM64L-G16RevA.03\State=1-A\HF=-347.76
 96078\RMSD=4.144e-09\Dipole=0.0000004,0.0000152,0.0000027\Quadrupole=2
 .2404889,-0.9229806,-1.3175083,0.8999474,1.608724,-0.2240593\PG=C01 [X
 (C6H16N2)]\\@


 ADVERTISING--  HE WHO HAS SOMETHING TO SELL AND GOES AND WHISPERS
                IN A WELL, IS NOT SO APT TO GET THE DOLLARS AS HE
                WHO CLIMBS A TREE AND HOLLERS.

                   -- FROM THE BACK OF A SUGAR PACKET
 Job cpu time:       0 days  0 hours 56 minutes 18.8 seconds.
 Elapsed time:       0 days  0 hours 20 minutes 28.0 seconds.
 File lengths (MBytes):  RWF=    374 Int=      0 D2E=      0 Chk=     24 Scr=      1
 Normal termination of Gaussian 16 at Thu Jul 11 20:38:59 2024.
