 Entering Gaussian System, Link 0=g16
 Initial command:
 /opt/sw/arch/manual/gaussian/G16_A03/g16/l1.exe "/scratch/1032068.jesse.materianova.be/Gau-65895.inp" -scrdir="/scratch/1032068.jesse.materianova.be/"
 Entering Link 1 = /opt/sw/arch/manual/gaussian/G16_A03/g16/l1.exe PID=     65896.
  
 Copyright (c) 1988,1990,1992,1993,1995,1998,2003,2009,2016,
            Gaussian, Inc.  All Rights Reserved.
  
 This is part of the Gaussian(R) 16 program.  It is based on
 the Gaussian(R) 09 system (copyright 2009, Gaussian, Inc.),
 the Gaussian(R) 03 system (copyright 2003, Gaussian, Inc.),
 the Gaussian(R) 98 system (copyright 1998, Gaussian, Inc.),
 the Gaussian(R) 94 system (copyright 1995, Gaussian, Inc.),
 the Gaussian 92(TM) system (copyright 1992, Gaussian, Inc.),
 the Gaussian 90(TM) system (copyright 1990, Gaussian, Inc.),
 the Gaussian 88(TM) system (copyright 1988, Gaussian, Inc.),
 the Gaussian 86(TM) system (copyright 1986, Carnegie Mellon
 University), and the Gaussian 82(TM) system (copyright 1983,
 Carnegie Mellon University). Gaussian is a federally registered
 trademark of Gaussian, Inc.
  
 This software contains proprietary and confidential information,
 including trade secrets, belonging to Gaussian, Inc.
  
 This software is provided under written license and may be
 used, copied, transmitted, or stored only in accord with that
 written license.
  
 The following legend is applicable only to US Government
 contracts under FAR:
  
                    RESTRICTED RIGHTS LEGEND
  
 Use, reproduction and disclosure by the US Government is
 subject to restrictions as set forth in subparagraphs (a)
 and (c) of the Commercial Computer Software - Restricted
 Rights clause in FAR 52.227-19.
  
 Gaussian, Inc.
 340 Quinnipiac St., Bldg. 40, Wallingford CT 06492
  
  
 ---------------------------------------------------------------
 Warning -- This program may not be used in any manner that
 competes with the business of Gaussian, Inc. or will provide
 assistance to any competitor of Gaussian, Inc.  The licensee
 of this program is prohibited from giving any competitor of
 Gaussian, Inc. access to this program.  By using this program,
 the user acknowledges that Gaussian, Inc. is engaged in the
 business of creating and licensing software in the field of
 computational chemistry and represents and warrants to the
 licensee that it is not a competitor of Gaussian, Inc. and that
 it will not use this program in any manner prohibited above.
 ---------------------------------------------------------------
  

 Cite this work as:
 Gaussian 16, Revision A.03,
 M. J. Frisch, G. W. Trucks, H. B. Schlegel, G. E. Scuseria, 
 M. A. Robb, J. R. Cheeseman, G. Scalmani, V. Barone, 
 G. A. Petersson, H. Nakatsuji, X. Li, M. Caricato, A. V. Marenich, 
 J. Bloino, B. G. Janesko, R. Gomperts, B. Mennucci, H. P. Hratchian, 
 J. V. Ortiz, A. F. Izmaylov, J. L. Sonnenberg, D. Williams-Young, 
 F. Ding, F. Lipparini, F. Egidi, J. Goings, B. Peng, A. Petrone, 
 T. Henderson, D. Ranasinghe, V. G. Zakrzewski, J. Gao, N. Rega, 
 G. Zheng, W. Liang, M. Hada, M. Ehara, K. Toyota, R. Fukuda, 
 J. Hasegawa, M. Ishida, T. Nakajima, Y. Honda, O. Kitao, H. Nakai, 
 T. Vreven, K. Throssell, J. A. Montgomery, Jr., J. E. Peralta, 
 F. Ogliaro, M. J. Bearpark, J. J. Heyd, E. N. Brothers, K. N. Kudin, 
 V. N. Staroverov, T. A. Keith, R. Kobayashi, J. Normand, 
 K. Raghavachari, A. P. Rendell, J. C. Burant, S. S. Iyengar, 
 J. Tomasi, M. Cossi, J. M. Millam, M. Klene, C. Adamo, R. Cammi, 
 J. W. Ochterski, R. L. Martin, K. Morokuma, O. Farkas, 
 J. B. Foresman, and D. J. Fox, Gaussian, Inc., Wallingford CT, 2016.
 
 ******************************************
 Gaussian 16:  EM64L-G16RevA.03 25-Dec-2016
                11-Jul-2024 
 ******************************************
 %nprocshared=4
 Will use up to    4 processors via shared memory.
 %mem=8GB
 %Chk=KWYHDKDOAIKMQN-UHFFFAOYSA-N_conf_0_0.chk
 -------------------------------------------------------
 # opt=CalcFc B3LYP/6-31G** SCRF=(Solvent=water) scf=xqc
 -------------------------------------------------------
 1/10=4,18=20,19=15,26=3,38=1/1,3;
 2/9=110,12=2,17=6,18=5,40=1/2;
 3/5=1,6=6,7=101,11=2,25=1,30=1,70=2201,71=2,72=1,74=-5,140=1/1,2,3;
 4//1;
 5/5=2,8=3,13=1,38=5,53=1/2,8;
 8/6=4,10=90,11=11/1;
 11/6=1,8=1,9=11,15=111,16=1/1,2,10;
 10/6=1,13=1/2;
 6/7=2,8=2,9=2,10=2,28=1/1;
 7/10=1,18=20,25=1/1,2,3,16;
 1/10=4,18=20,19=15,26=3/3(2);
 2/9=110/2;
 99//99;
 2/9=110/2;
 3/5=1,6=6,7=101,11=2,25=1,30=1,70=2205,71=1,72=1,74=-5/1,2,3;
 4/5=5,16=3,69=1/1;
 5/5=2,8=3,13=1,38=5,53=1/2,8;
 7//1,2,3,16;
 1/18=20,19=15,26=3/3(-5);
 2/9=110/2;
 6/7=2,8=2,9=2,10=2,19=2,28=1/1;
 99/9=1/99;
 ----------------------------------
 KWYHDKDOAIKMQN-UHFFFAOYSA-N_conf_0
 ----------------------------------
 Symbolic Z-matrix:
 Charge =  0 Multiplicity = 1
 C                     2.79073  -1.29989  -0.23594 
 N                     1.80576  -0.51166   0.51155 
 C                     2.41114   0.75504   0.92966 
 C                     0.60152  -0.29767  -0.3231 
 C                    -0.60151   0.29769   0.45166 
 N                    -1.80578   0.51166  -0.38297 
 C                    -2.79074   1.29988   0.36455 
 C                    -2.41115  -0.75506  -0.80104 
 H                     3.67353  -1.49983   0.38182 
 H                     3.11694  -0.79355  -1.15177 
 H                     2.37659  -2.27689  -0.50922 
 H                     2.66584   1.39412   0.07652 
 H                     1.74752   1.31186   1.59787 
 H                     3.3269    0.57164   1.50381 
 H                     0.29685  -1.27278  -0.72051 
 H                     0.83852   0.33958  -1.18557 
 H                    -0.83849  -0.33954   1.31416 
 H                    -0.29684   1.27281   0.84905 
 H                    -3.67355   1.49982  -0.2532 
 H                    -2.3766    2.27689   0.63781 
 H                    -3.11692   0.79355   1.28038 
 H                    -1.74754  -1.31189  -1.46925 
 H                    -3.32692  -0.57168  -1.37517 
 H                    -2.66583  -1.39412   0.05212 
 

 GradGradGradGradGradGradGradGradGradGradGradGradGradGradGradGradGradGrad
 Berny optimization.
 Initialization pass.
                           ----------------------------
                           !    Initial Parameters    !
                           ! (Angstroms and Degrees)  !
 --------------------------                            --------------------------
 ! Name  Definition              Value          Derivative Info.                !
 --------------------------------------------------------------------------------
 ! R1    R(1,2)                  1.4664         calculate D2E/DX2 analytically  !
 ! R2    R(1,9)                  1.0959         calculate D2E/DX2 analytically  !
 ! R3    R(1,10)                 1.0961         calculate D2E/DX2 analytically  !
 ! R4    R(1,11)                 1.0958         calculate D2E/DX2 analytically  !
 ! R5    R(2,3)                  1.4649         calculate D2E/DX2 analytically  !
 ! R6    R(2,4)                  1.4808         calculate D2E/DX2 analytically  !
 ! R7    R(3,12)                 1.096          calculate D2E/DX2 analytically  !
 ! R8    R(3,13)                 1.094          calculate D2E/DX2 analytically  !
 ! R9    R(3,14)                 1.0963         calculate D2E/DX2 analytically  !
 ! R10   R(4,5)                  1.5498         calculate D2E/DX2 analytically  !
 ! R11   R(4,15)                 1.0962         calculate D2E/DX2 analytically  !
 ! R12   R(4,16)                 1.0982         calculate D2E/DX2 analytically  !
 ! R13   R(5,6)                  1.4808         calculate D2E/DX2 analytically  !
 ! R14   R(5,17)                 1.0982         calculate D2E/DX2 analytically  !
 ! R15   R(5,18)                 1.0962         calculate D2E/DX2 analytically  !
 ! R16   R(6,7)                  1.4664         calculate D2E/DX2 analytically  !
 ! R17   R(6,8)                  1.4649         calculate D2E/DX2 analytically  !
 ! R18   R(7,19)                 1.0959         calculate D2E/DX2 analytically  !
 ! R19   R(7,20)                 1.0958         calculate D2E/DX2 analytically  !
 ! R20   R(7,21)                 1.0961         calculate D2E/DX2 analytically  !
 ! R21   R(8,22)                 1.094          calculate D2E/DX2 analytically  !
 ! R22   R(8,23)                 1.0963         calculate D2E/DX2 analytically  !
 ! R23   R(8,24)                 1.096          calculate D2E/DX2 analytically  !
 ! A1    A(2,1,9)              110.5987         calculate D2E/DX2 analytically  !
 ! A2    A(2,1,10)             112.1789         calculate D2E/DX2 analytically  !
 ! A3    A(2,1,11)             110.6423         calculate D2E/DX2 analytically  !
 ! A4    A(9,1,10)             108.3931         calculate D2E/DX2 analytically  !
 ! A5    A(9,1,11)             106.4013         calculate D2E/DX2 analytically  !
 ! A6    A(10,1,11)            108.4193         calculate D2E/DX2 analytically  !
 ! A7    A(1,2,3)              109.4342         calculate D2E/DX2 analytically  !
 ! A8    A(1,2,4)              109.6715         calculate D2E/DX2 analytically  !
 ! A9    A(3,2,4)              111.8395         calculate D2E/DX2 analytically  !
 ! A10   A(2,3,12)             112.2154         calculate D2E/DX2 analytically  !
 ! A11   A(2,3,13)             111.331          calculate D2E/DX2 analytically  !
 ! A12   A(2,3,14)             110.4887         calculate D2E/DX2 analytically  !
 ! A13   A(12,3,13)            108.6404         calculate D2E/DX2 analytically  !
 ! A14   A(12,3,14)            108.1261         calculate D2E/DX2 analytically  !
 ! A15   A(13,3,14)            105.7806         calculate D2E/DX2 analytically  !
 ! A16   A(2,4,5)              113.8925         calculate D2E/DX2 analytically  !
 ! A17   A(2,4,15)             107.5677         calculate D2E/DX2 analytically  !
 ! A18   A(2,4,16)             110.5493         calculate D2E/DX2 analytically  !
 ! A19   A(5,4,15)             107.8913         calculate D2E/DX2 analytically  !
 ! A20   A(5,4,16)             109.7065         calculate D2E/DX2 analytically  !
 ! A21   A(15,4,16)            106.9431         calculate D2E/DX2 analytically  !
 ! A22   A(4,5,6)              113.8931         calculate D2E/DX2 analytically  !
 ! A23   A(4,5,17)             109.7065         calculate D2E/DX2 analytically  !
 ! A24   A(4,5,18)             107.8907         calculate D2E/DX2 analytically  !
 ! A25   A(6,5,17)             110.5493         calculate D2E/DX2 analytically  !
 ! A26   A(6,5,18)             107.5675         calculate D2E/DX2 analytically  !
 ! A27   A(17,5,18)            106.9431         calculate D2E/DX2 analytically  !
 ! A28   A(5,6,7)              109.6713         calculate D2E/DX2 analytically  !
 ! A29   A(5,6,8)              111.8395         calculate D2E/DX2 analytically  !
 ! A30   A(7,6,8)              109.434          calculate D2E/DX2 analytically  !
 ! A31   A(6,7,19)             110.5989         calculate D2E/DX2 analytically  !
 ! A32   A(6,7,20)             110.6424         calculate D2E/DX2 analytically  !
 ! A33   A(6,7,21)             112.1789         calculate D2E/DX2 analytically  !
 ! A34   A(19,7,20)            106.401          calculate D2E/DX2 analytically  !
 ! A35   A(19,7,21)            108.3935         calculate D2E/DX2 analytically  !
 ! A36   A(20,7,21)            108.419          calculate D2E/DX2 analytically  !
 ! A37   A(6,8,22)             111.3312         calculate D2E/DX2 analytically  !
 ! A38   A(6,8,23)             110.4887         calculate D2E/DX2 analytically  !
 ! A39   A(6,8,24)             112.2152         calculate D2E/DX2 analytically  !
 ! A40   A(22,8,23)            105.7807         calculate D2E/DX2 analytically  !
 ! A41   A(22,8,24)            108.6403         calculate D2E/DX2 analytically  !
 ! A42   A(23,8,24)            108.1262         calculate D2E/DX2 analytically  !
 ! D1    D(9,1,2,3)             59.1171         calculate D2E/DX2 analytically  !
 ! D2    D(9,1,2,4)           -177.8538         calculate D2E/DX2 analytically  !
 ! D3    D(10,1,2,3)           -62.0303         calculate D2E/DX2 analytically  !
 ! D4    D(10,1,2,4)            60.9989         calculate D2E/DX2 analytically  !
 ! D5    D(11,1,2,3)           176.7582         calculate D2E/DX2 analytically  !
 ! D6    D(11,1,2,4)           -60.2127         calculate D2E/DX2 analytically  !
 ! D7    D(1,2,3,12)            65.2665         calculate D2E/DX2 analytically  !
 ! D8    D(1,2,3,13)          -172.7191         calculate D2E/DX2 analytically  !
 ! D9    D(1,2,3,14)           -55.4875         calculate D2E/DX2 analytically  !
 ! D10   D(4,2,3,12)           -56.4669         calculate D2E/DX2 analytically  !
 ! D11   D(4,2,3,13)            65.5475         calculate D2E/DX2 analytically  !
 ! D12   D(4,2,3,14)          -177.221          calculate D2E/DX2 analytically  !
 ! D13   D(1,2,4,5)            169.4466         calculate D2E/DX2 analytically  !
 ! D14   D(1,2,4,15)            49.9291         calculate D2E/DX2 analytically  !
 ! D15   D(1,2,4,16)           -66.5027         calculate D2E/DX2 analytically  !
 ! D16   D(3,2,4,5)            -68.9567         calculate D2E/DX2 analytically  !
 ! D17   D(3,2,4,15)           171.5258         calculate D2E/DX2 analytically  !
 ! D18   D(3,2,4,16)            55.0941         calculate D2E/DX2 analytically  !
 ! D19   D(2,4,5,6)           -179.9986         calculate D2E/DX2 analytically  !
 ! D20   D(2,4,5,17)           -55.4941         calculate D2E/DX2 analytically  !
 ! D21   D(2,4,5,18)            60.6675         calculate D2E/DX2 analytically  !
 ! D22   D(15,4,5,6)           -60.6645         calculate D2E/DX2 analytically  !
 ! D23   D(15,4,5,17)           63.84           calculate D2E/DX2 analytically  !
 ! D24   D(15,4,5,18)         -179.9984         calculate D2E/DX2 analytically  !
 ! D25   D(16,4,5,6)            55.4975         calculate D2E/DX2 analytically  !
 ! D26   D(16,4,5,17)         -179.9981         calculate D2E/DX2 analytically  !
 ! D27   D(16,4,5,18)          -63.8364         calculate D2E/DX2 analytically  !
 ! D28   D(4,5,6,7)           -169.4467         calculate D2E/DX2 analytically  !
 ! D29   D(4,5,6,8)             68.9568         calculate D2E/DX2 analytically  !
 ! D30   D(17,5,6,7)            66.502          calculate D2E/DX2 analytically  !
 ! D31   D(17,5,6,8)           -55.0944         calculate D2E/DX2 analytically  !
 ! D32   D(18,5,6,7)           -49.9297         calculate D2E/DX2 analytically  !
 ! D33   D(18,5,6,8)          -171.5261         calculate D2E/DX2 analytically  !
 ! D34   D(5,6,7,19)           177.8532         calculate D2E/DX2 analytically  !
 ! D35   D(5,6,7,20)            60.2122         calculate D2E/DX2 analytically  !
 ! D36   D(5,6,7,21)           -60.9989         calculate D2E/DX2 analytically  !
 ! D37   D(8,6,7,19)           -59.1179         calculate D2E/DX2 analytically  !
 ! D38   D(8,6,7,20)          -176.7588         calculate D2E/DX2 analytically  !
 ! D39   D(8,6,7,21)            62.03           calculate D2E/DX2 analytically  !
 ! D40   D(5,6,8,22)           -65.5471         calculate D2E/DX2 analytically  !
 ! D41   D(5,6,8,23)           177.2212         calculate D2E/DX2 analytically  !
 ! D42   D(5,6,8,24)            56.4671         calculate D2E/DX2 analytically  !
 ! D43   D(7,6,8,22)           172.7198         calculate D2E/DX2 analytically  !
 ! D44   D(7,6,8,23)            55.4881         calculate D2E/DX2 analytically  !
 ! D45   D(7,6,8,24)           -65.2659         calculate D2E/DX2 analytically  !
 --------------------------------------------------------------------------------
 Trust Radius=3.00D-01 FncErr=1.00D-07 GrdErr=1.00D-06 EigMax=2.50D+02 EigMin=1.00D-04
 Number of steps in this run=    120 maximum allowed number of steps=    144.
 GradGradGradGradGradGradGradGradGradGradGradGradGradGradGradGradGradGrad

                          Input orientation:                          
 ---------------------------------------------------------------------
 Center     Atomic      Atomic             Coordinates (Angstroms)
 Number     Number       Type             X           Y           Z
 ---------------------------------------------------------------------
      1          6           0        2.790735   -1.299885   -0.235944
      2          7           0        1.805764   -0.511663    0.511554
      3          6           0        2.411143    0.755044    0.929662
      4          6           0        0.601518   -0.297667   -0.323095
      5          6           0       -0.601510    0.297688    0.451663
      6          7           0       -1.805775    0.511660   -0.382966
      7          6           0       -2.790737    1.299880    0.364545
      8          6           0       -2.411154   -0.755060   -0.801039
      9          1           0        3.673532   -1.499833    0.381819
     10          1           0        3.116940   -0.793545   -1.151770
     11          1           0        2.376593   -2.276894   -0.509219
     12          1           0        2.665835    1.394124    0.076516
     13          1           0        1.747523    1.311864    1.597872
     14          1           0        3.326896    0.571643    1.503807
     15          1           0        0.296853   -1.272778   -0.720511
     16          1           0        0.838520    0.339577   -1.185569
     17          1           0       -0.838490   -0.339538    1.314158
     18          1           0       -0.296844    1.272811    0.849049
     19          1           0       -3.673546    1.499823   -0.253200
     20          1           0       -2.376597    2.276893    0.637808
     21          1           0       -3.116916    0.793546    1.280383
     22          1           0       -1.747542   -1.311892   -1.469248
     23          1           0       -3.326916   -0.571675   -1.375170
     24          1           0       -2.665825   -1.394122    0.052124
 ---------------------------------------------------------------------
                    Distance matrix (angstroms):
                    1          2          3          4          5
     1  C    0.000000
     2  N    1.466361   0.000000
     3  C    2.392794   1.464871   0.000000
     4  C    2.409296   1.480757   2.439743   0.000000
     5  C    3.812134   2.540394   3.084435   1.549830   0.000000
     6  N    4.942794   3.858830   4.423192   2.540404   1.480758
     7  C    6.186453   4.942785   5.260776   3.812139   2.409293
     8  C    5.260781   4.423182   5.341376   3.084450   2.439745
     9  H    1.095874   2.117043   2.641634   3.373333   4.638097
    10  H    1.096142   2.136653   2.688612   2.694428   4.193883
    11  H    1.095783   2.117513   3.356221   2.665121   4.052266
    12  H    2.714943   2.135651   1.095969   2.698750   3.466763
    13  H    3.357440   2.123377   1.094050   2.755727   2.803623
    14  H    2.610904   2.114702   1.096303   3.394254   4.076080
    15  H    2.540667   2.091433   3.362344   1.096176   2.155786
    16  H    2.720435   2.130821   2.668326   1.098231   2.180819
    17  H    4.061570   2.768732   3.450516   2.180819   1.098232
    18  H    4.162826   2.778347   2.758220   2.155778   1.096176
    19  H    7.044543   5.886744   6.243181   4.638106   3.373332
    20  H    6.344928   5.028333   5.032263   4.052267   2.665115
    21  H    6.448414   5.150480   5.539307   4.193881   2.694424
    22  H    4.702887   4.146073   5.227013   2.803641   2.755729
    23  H    6.265284   5.468796   6.324379   4.076093   3.394253
    24  H    5.464971   4.580929   5.582526   3.466776   2.698750
                    6          7          8          9         10
     6  N    0.000000
     7  C    1.466361   0.000000
     8  C    1.464871   2.392792   0.000000
     9  H    5.886748   7.044535   6.243176   0.000000
    10  H    5.150509   6.448433   5.539342   1.777788   0.000000
    11  H    5.028337   6.344925   5.032261   1.754943   1.778007
    12  H    4.580957   5.464981   5.582554   3.079554   2.549133
    13  H    4.146079   4.702876   5.227002   3.618555   3.724054
    14  H    5.468805   6.265276   6.324372   2.381182   2.993310
    15  H    2.778344   4.162827   2.758227   3.559305   2.892843
    16  H    2.768769   4.061594   3.450576   3.725242   2.544858
    17  H    2.130823   2.720427   2.668331   4.751198   4.683198
    18  H    2.091432   2.540665   3.362345   4.865157   4.463970
    19  H    2.117044   1.095873   2.641639   7.961203   7.223411
    20  H    2.117514   1.095782   3.356221   7.136754   6.542869
    21  H    2.136651   1.096141   2.688606   7.223378   6.877149
    22  H    2.123380   3.357441   1.094050   5.731476   4.902312
    23  H    2.114700   2.610904   1.096302   7.277003   6.451544
    24  H    2.135648   2.714932   1.095968   6.348805   5.937207
                   11         12         13         14         15
    11  H    0.000000
    12  H    3.728689   0.000000
    13  H    4.208889   1.778928   0.000000
    14  H    3.615179   1.775002   1.746767   0.000000
    15  H    2.319097   3.655092   3.762940   4.186961   0.000000
    16  H    3.109507   2.458457   3.085316   3.671323   1.763341
    17  H    4.173105   4.100931   3.081409   4.268098   2.509943
    18  H    4.646780   3.064146   2.177544   3.748578   3.048937
    19  H    7.136758   6.348830   5.731474   7.277004   4.865158
    20  H    6.681726   5.149802   4.342968   6.015619   4.646777
    21  H    6.542852   5.937188   4.902267   6.451502   4.463976
    22  H    4.342968   5.402760   5.339176   6.175491   2.177542
    23  H    6.015617   6.471849   6.175487   7.339544   3.748576
    24  H    5.149793   6.016769   5.402716   6.471810   3.064172
                   16         17         18         19         20
    16  H    0.000000
    17  H    3.085805   0.000000
    18  H    2.509911   1.763342   0.000000
    19  H    4.751234   3.725239   3.559299   0.000000
    20  H    4.173114   3.109491   2.319090   1.754939   0.000000
    21  H    4.683213   2.544847   2.892844   1.777791   1.778002
    22  H    3.081484   3.085320   3.762940   3.618564   4.208893
    23  H    4.268160   3.671327   4.186958   2.381191   3.615181
    24  H    4.100979   2.458461   3.655092   3.079552   3.728677
                   21         22         23         24
    21  H    0.000000
    22  H    3.724047   0.000000
    23  H    2.993308   1.746767   0.000000
    24  H    2.549117   1.778926   1.775001   0.000000
 Stoichiometry    C6H16N2
 Framework group  C1[X(C6H16N2)]
 Deg. of freedom    66
 Full point group                 C1      NOp   1
 Largest Abelian subgroup         C1      NOp   1
 Largest concise Abelian subgroup C1      NOp   1
                         Standard orientation:                         
 ---------------------------------------------------------------------
 Center     Atomic      Atomic             Coordinates (Angstroms)
 Number     Number       Type             X           Y           Z
 ---------------------------------------------------------------------
      1          6           0        2.937673    0.968572    0.000596
      2          7           0        1.896791   -0.001765   -0.353275
      3          6           0        2.309436   -1.338915    0.079856
      4          6           0        0.609978    0.402507    0.257721
      5          6           0       -0.609973   -0.402510   -0.257683
      6          7           0       -1.896800    0.001774    0.353280
      7          6           0       -2.937671   -0.968571   -0.000602
      8          6           0       -2.309439    1.338915   -0.079886
      9          1           0        3.888816    0.704496   -0.475357
     10          1           0        3.097420    1.027636    1.083426
     11          1           0        2.675233    1.967432   -0.365660
     12          1           0        2.381429   -1.417324    1.170643
     13          1           0        1.617117   -2.105399   -0.280896
     14          1           0        3.286583   -1.595625   -0.345780
     15          1           0        0.444648    1.458127    0.012904
     16          1           0        0.664155    0.332519    1.352380
     17          1           0       -0.664129   -0.332550   -1.352345
     18          1           0       -0.444647   -1.458123   -0.012834
     19          1           0       -3.888823   -0.704498    0.475333
     20          1           0       -2.675236   -1.967427    0.365667
     21          1           0       -3.097393   -1.027648   -1.083433
     22          1           0       -1.617127    2.105409    0.280857
     23          1           0       -3.286591    1.595631    0.345728
     24          1           0       -2.381413    1.417297   -1.170675
 ---------------------------------------------------------------------
 Rotational constants (GHZ):           4.2787180           0.8960559           0.7752922
 Standard basis: 6-31G(d,p) (6D, 7F)
 There are   200 symmetry adapted cartesian basis functions of A   symmetry.
 There are   200 symmetry adapted basis functions of A   symmetry.
   200 basis functions,   336 primitive gaussians,   200 cartesian basis functions
    33 alpha electrons       33 beta electrons
       nuclear repulsion energy       408.8067411601 Hartrees.
 NAtoms=   24 NActive=   24 NUniq=   24 SFac= 1.00D+00 NAtFMM=   60 NAOKFM=F Big=F
 Integral buffers will be    131072 words long.
 Raffenetti 2 integral format.
 Two-electron integral symmetry is turned on.
 Force inversion solution in PCM.
 ------------------------------------------------------------------------------
 Polarizable Continuum Model (PCM)
 =================================
 Model                : PCM.
 Atomic radii         : UFF (Universal Force Field).
 Polarization charges : Total charges.
 Charge compensation  : None.
 Solution method      : Matrix inversion.
 Cavity type          : Scaled VdW (van der Waals Surface) (Alpha=1.100).
 Cavity algorithm     : GePol (No added spheres)
                        Default sphere list used, NSphG=   24.
                        Lebedev-Laikov grids with approx.  5.0 points / Ang**2.
                        Smoothing algorithm: York/Karplus (Gamma=1.0000).
                        Polarization charges: spherical gaussians, with
                                              point-specific exponents (IZeta= 3).
                        Self-potential: point-specific (ISelfS= 7).
                        Self-field    : sphere-specific E.n sum rule (ISelfD= 2).
 1st derivatives      : Analytical E(r).r(x)/FMM algorithm (CHGder, D1EAlg=3).
                        Cavity 1st derivative terms included.
 2nd derivatives      : Analytical E(r).r(xy)/FMM algorithm (CHGder, D2EAlg=3).
                        Cavity 2nd derivative terms included.
 Solvent              : Water, Eps=  78.355300 Eps(inf)=   1.777849
 ------------------------------------------------------------------------------
 One-electron integrals computed using PRISM.
 NBasis=   200 RedAO= T EigKep=  3.21D-03  NBF=   200
 NBsUse=   200 1.00D-06 EigRej= -1.00D+00 NBFU=   200
 ExpMin= 1.61D-01 ExpMax= 4.17D+03 ExpMxC= 6.27D+02 IAcc=3 IRadAn=         5 AccDes= 0.00D+00
 Harris functional with IExCor=  402 and IRadAn=       5 diagonalized for initial guess.
 HarFok:  IExCor=  402 AccDes= 0.00D+00 IRadAn=         5 IDoV= 1 UseB2=F ITyADJ=14
 ICtDFT=  3500011 ScaDFX=  1.000000  1.000000  1.000000  1.000000
 FoFCou: FMM=F IPFlag=           0 FMFlag=      100000 FMFlg1=           0
         NFxFlg=           0 DoJE=T BraDBF=F KetDBF=T FulRan=T
         wScrn=  0.000000 ICntrl=       500 IOpCl=  0 I1Cent=   200000004 NGrid=           0
         NMat0=    1 NMatS0=      1 NMatT0=    0 NMatD0=    1 NMtDS0=    0 NMtDT0=    0
 Petite list used in FoFCou.
 Keep R1 ints in memory in canonical form, NReq=206134434.
 Requested convergence on RMS density matrix=1.00D-08 within  32 cycles.
 Requested convergence on MAX density matrix=1.00D-06.
 Requested convergence on             energy=1.00D-06.
 No special actions if energy rises.
 Inv3:  Mode=1 IEnd=     7970700.
 Iteration    1 A*A^-1 deviation from unit magnitude is 7.77D-15 for   1516.
 Iteration    1 A*A^-1 deviation from orthogonality  is 4.41D-15 for   1322    708.
 Iteration    1 A^-1*A deviation from unit magnitude is 7.55D-15 for   1516.
 Iteration    1 A^-1*A deviation from orthogonality  is 4.05D-15 for   1435    182.
 Error on total polarization charges =  0.01036
 SCF Done:  E(RB3LYP) =  -347.767637310     A.U. after   11 cycles
            NFock= 11  Conv=0.19D-08     -V/T= 2.0101
 QCSCF skips out because SCF is already converged.
 DoSCS=F DFT=T ScalE2(SS,OS)=  1.000000  1.000000
 Range of M.O.s used for correlation:     1   200
 NBasis=   200 NAE=    33 NBE=    33 NFC=     0 NFV=     0
 NROrb=    200 NOA=    33 NOB=    33 NVA=   167 NVB=   167
 Symmetrizing basis deriv contribution to polar:
 IMax=3 JMax=2 DiffMx= 0.00D+00
 G2DrvN: will do    25 centers at a time, making    1 passes.
 Calling FoFCou, ICntrl=  3107 FMM=F I1Cent=   0 AccDes= 0.00D+00.
 NEqPCM:  Using equilibrium solvation (IEInf=0, Eps=  78.3553, EpsInf=   1.7778)
 G2PCM: DoFxE=T DoFxN=T DoGrad=T DoDP/DQ/DG/TGxP=FFFF NFrqRd=   0 IEInf=0 SqF1=F DoCFld=F IF1Alg=4.
 End of G2Drv F.D. properties file   721 does not exist.
 End of G2Drv F.D. properties file   722 does not exist.
 End of G2Drv F.D. properties file   788 does not exist.
          IDoAtm=111111111111111111111111
 NEqPCM:  Using equilibrium solvation (IEInf=0, Eps=  78.3553, EpsInf=   1.7778)
          Differentiating once with respect to nuclear coordinates.
 Keep R1 ints in memory in canonical form, NReq=209405278.
          There are    75 degrees of freedom in the 1st order CPHF.  IDoFFX=6 NUNeed=     0.
     69 vectors produced by pass  0 Test12= 7.35D-15 1.33D-09 XBig12= 7.97D-02 5.28D-02.
 AX will form    69 AO Fock derivatives at one time.
     69 vectors produced by pass  1 Test12= 7.35D-15 1.33D-09 XBig12= 6.05D-03 9.90D-03.
     69 vectors produced by pass  2 Test12= 7.35D-15 1.33D-09 XBig12= 4.41D-05 9.69D-04.
     69 vectors produced by pass  3 Test12= 7.35D-15 1.33D-09 XBig12= 1.14D-07 5.30D-05.
     69 vectors produced by pass  4 Test12= 7.35D-15 1.33D-09 XBig12= 1.04D-10 9.28D-07.
     26 vectors produced by pass  5 Test12= 7.35D-15 1.33D-09 XBig12= 7.26D-14 3.15D-08.
 InvSVY:  IOpt=1 It=  1 EMax= 5.00D-16
 Solved reduced A of dimension   371 with    75 vectors.
 End of Minotr F.D. properties file   721 does not exist.
 End of Minotr F.D. properties file   722 does not exist.
 End of Minotr F.D. properties file   788 does not exist.

 **********************************************************************

            Population analysis using the SCF density.

 **********************************************************************

 Orbital symmetries:
       Occupied  (A) (A) (A) (A) (A) (A) (A) (A) (A) (A) (A) (A)
                 (A) (A) (A) (A) (A) (A) (A) (A) (A) (A) (A) (A)
                 (A) (A) (A) (A) (A) (A) (A) (A) (A)
       Virtual   (A) (A) (A) (A) (A) (A) (A) (A) (A) (A) (A) (A)
                 (A) (A) (A) (A) (A) (A) (A) (A) (A) (A) (A) (A)
                 (A) (A) (A) (A) (A) (A) (A) (A) (A) (A) (A) (A)
                 (A) (A) (A) (A) (A) (A) (A) (A) (A) (A) (A) (A)
                 (A) (A) (A) (A) (A) (A) (A) (A) (A) (A) (A) (A)
                 (A) (A) (A) (A) (A) (A) (A) (A) (A) (A) (A) (A)
                 (A) (A) (A) (A) (A) (A) (A) (A) (A) (A) (A) (A)
                 (A) (A) (A) (A) (A) (A) (A) (A) (A) (A) (A) (A)
                 (A) (A) (A) (A) (A) (A) (A) (A) (A) (A) (A) (A)
                 (A) (A) (A) (A) (A) (A) (A) (A) (A) (A) (A) (A)
                 (A) (A) (A) (A) (A) (A) (A) (A) (A) (A) (A) (A)
                 (A) (A) (A) (A) (A) (A) (A) (A) (A) (A) (A) (A)
                 (A) (A) (A) (A) (A) (A) (A) (A) (A) (A) (A) (A)
                 (A) (A) (A) (A) (A) (A) (A) (A) (A) (A) (A)
 The electronic state is 1-A.
 Alpha  occ. eigenvalues --  -14.32658 -14.32658 -10.20404 -10.20385 -10.19753
 Alpha  occ. eigenvalues --  -10.19753 -10.19707 -10.19707  -0.91867  -0.90578
 Alpha  occ. eigenvalues --   -0.73946  -0.70063  -0.69760  -0.65751  -0.59504
 Alpha  occ. eigenvalues --   -0.56777  -0.48082  -0.47721  -0.46147  -0.45323
 Alpha  occ. eigenvalues --   -0.43797  -0.42775  -0.40633  -0.38958  -0.38523
 Alpha  occ. eigenvalues --   -0.36719  -0.36487  -0.35954  -0.35656  -0.34066
 Alpha  occ. eigenvalues --   -0.32522  -0.21794  -0.21385
 Alpha virt. eigenvalues --    0.08461   0.09148   0.12028   0.13693   0.14007
 Alpha virt. eigenvalues --    0.15007   0.15046   0.15377   0.16088   0.16696
 Alpha virt. eigenvalues --    0.16891   0.19160   0.19272   0.19395   0.19436
 Alpha virt. eigenvalues --    0.20705   0.23033   0.23755   0.24636   0.25717
 Alpha virt. eigenvalues --    0.27758   0.27950   0.29100   0.50174   0.50419
 Alpha virt. eigenvalues --    0.50628   0.53136   0.54222   0.54890   0.56549
 Alpha virt. eigenvalues --    0.56684   0.59872   0.60324   0.62126   0.64553
 Alpha virt. eigenvalues --    0.70454   0.72211   0.74433   0.75652   0.78050
 Alpha virt. eigenvalues --    0.79075   0.80589   0.81146   0.81621   0.81656
 Alpha virt. eigenvalues --    0.83072   0.84309   0.87765   0.88806   0.88864
 Alpha virt. eigenvalues --    0.89226   0.90683   0.91207   0.91515   0.91868
 Alpha virt. eigenvalues --    0.93792   0.95311   0.95834   0.97248   0.99195
 Alpha virt. eigenvalues --    1.01928   1.02344   1.10781   1.16755   1.17151
 Alpha virt. eigenvalues --    1.29530   1.29777   1.30071   1.32240   1.36838
 Alpha virt. eigenvalues --    1.41120   1.44520   1.47474   1.53247   1.55955
 Alpha virt. eigenvalues --    1.62352   1.65808   1.69211   1.71568   1.74155
 Alpha virt. eigenvalues --    1.74170   1.84680   1.86079   1.86272   1.89785
 Alpha virt. eigenvalues --    1.90485   1.90690   1.91741   1.93748   1.95019
 Alpha virt. eigenvalues --    1.95064   1.97765   2.00074   2.03926   2.03955
 Alpha virt. eigenvalues --    2.05020   2.05384   2.07133   2.07919   2.09606
 Alpha virt. eigenvalues --    2.10103   2.10723   2.13472   2.13475   2.13604
 Alpha virt. eigenvalues --    2.16342   2.17963   2.20011   2.25892   2.26865
 Alpha virt. eigenvalues --    2.28920   2.36214   2.37884   2.37958   2.38784
 Alpha virt. eigenvalues --    2.46373   2.49812   2.53264   2.55978   2.56801
 Alpha virt. eigenvalues --    2.59500   2.62398   2.66279   2.67751   2.68548
 Alpha virt. eigenvalues --    2.70139   2.72032   2.72331   2.72573   2.74658
 Alpha virt. eigenvalues --    2.75830   2.81071   2.84378   2.87318   2.88009
 Alpha virt. eigenvalues --    2.90193   2.90456   2.91604   2.93648   2.96474
 Alpha virt. eigenvalues --    2.97539   3.01597   3.03756   3.17271   3.18518
 Alpha virt. eigenvalues --    3.21821   3.22111   3.25622   3.36320   3.39103
 Alpha virt. eigenvalues --    3.40546   3.41545   3.41923   3.42497   3.46986
 Alpha virt. eigenvalues --    3.49034   3.51827   3.52796   3.58475   4.02571
 Alpha virt. eigenvalues --    4.12402   4.40959   4.49103   4.49214   4.51866
 Alpha virt. eigenvalues --    4.52092   4.67844
          Condensed to atoms (all electrons):
               1          2          3          4          5          6
     1  C    4.823074   0.323233  -0.059377  -0.048153   0.004350  -0.000069
     2  N    0.323233   6.863899   0.319889   0.292530  -0.038848   0.001927
     3  C   -0.059377   0.319889   4.833027  -0.049782  -0.005040  -0.000003
     4  C   -0.048153   0.292530  -0.049782   4.875730   0.365996  -0.038846
     5  C    0.004350  -0.038848  -0.005040   0.365996   4.875729   0.292530
     6  N   -0.000069   0.001927  -0.000003  -0.038846   0.292530   6.863900
     7  C    0.000002  -0.000069  -0.000002   0.004350  -0.048153   0.323233
     8  C   -0.000002  -0.000004   0.000000  -0.005040  -0.049782   0.319889
     9  H    0.387576  -0.035370  -0.003811   0.005213  -0.000185   0.000001
    10  H    0.362197  -0.050110  -0.007579  -0.009667  -0.000145   0.000008
    11  H    0.388440  -0.035936   0.005726  -0.004200   0.000107  -0.000004
    12  H   -0.007111  -0.050720   0.361348  -0.010538  -0.000894   0.000029
    13  H    0.005639  -0.036776   0.390563  -0.003163   0.000427  -0.000073
    14  H   -0.004931  -0.034243   0.388004   0.005541   0.000170  -0.000001
    15  H   -0.005199  -0.036326   0.005933   0.385399  -0.034848  -0.003257
    16  H   -0.005777  -0.049334  -0.010452   0.351152  -0.048950   0.007658
    17  H   -0.000002   0.007659  -0.000493  -0.048951   0.351152  -0.049334
    18  H   -0.000006  -0.003256   0.002254  -0.034848   0.385399  -0.036326
    19  H   -0.000000   0.000001   0.000000  -0.000185   0.005213  -0.035370
    20  H    0.000000  -0.000004  -0.000004   0.000107  -0.004200  -0.035935
    21  H    0.000000   0.000008  -0.000000  -0.000145  -0.009667  -0.050110
    22  H    0.000004  -0.000073   0.000000   0.000427  -0.003163  -0.036776
    23  H   -0.000000  -0.000001   0.000000   0.000170   0.005541  -0.034243
    24  H   -0.000000   0.000029   0.000000  -0.000894  -0.010537  -0.050720
               7          8          9         10         11         12
     1  C    0.000002  -0.000002   0.387576   0.362197   0.388440  -0.007111
     2  N   -0.000069  -0.000004  -0.035370  -0.050110  -0.035936  -0.050720
     3  C   -0.000002   0.000000  -0.003811  -0.007579   0.005726   0.361348
     4  C    0.004350  -0.005040   0.005213  -0.009667  -0.004200  -0.010538
     5  C   -0.048153  -0.049782  -0.000185  -0.000145   0.000107  -0.000894
     6  N    0.323233   0.319889   0.000001   0.000008  -0.000004   0.000029
     7  C    4.823075  -0.059378  -0.000000   0.000000   0.000000  -0.000000
     8  C   -0.059378   4.833026   0.000000  -0.000000  -0.000004   0.000000
     9  H   -0.000000   0.000000   0.603375  -0.041626  -0.028639  -0.001386
    10  H    0.000000  -0.000000  -0.041626   0.677589  -0.041117   0.013857
    11  H    0.000000  -0.000004  -0.028639  -0.041117   0.600252  -0.000343
    12  H   -0.000000   0.000000  -0.001386   0.013857  -0.000343   0.674563
    13  H    0.000004   0.000000   0.000151  -0.000367  -0.000247  -0.042360
    14  H   -0.000000   0.000000   0.004995  -0.001423   0.000163  -0.039954
    15  H   -0.000006   0.002254   0.000221  -0.001566   0.005907  -0.000221
    16  H   -0.000002  -0.000493  -0.000358   0.012968  -0.001226   0.016013
    17  H   -0.005777  -0.010452   0.000000   0.000037  -0.000033   0.000213
    18  H   -0.005199   0.005933   0.000008  -0.000009  -0.000000   0.000243
    19  H    0.387576  -0.003811   0.000000   0.000000  -0.000000   0.000000
    20  H    0.388440   0.005726  -0.000000   0.000000  -0.000000   0.000000
    21  H    0.362197  -0.007579   0.000000  -0.000000   0.000000  -0.000000
    22  H    0.005639   0.390563  -0.000000   0.000002  -0.000009   0.000000
    23  H   -0.004931   0.388005   0.000000  -0.000000   0.000000  -0.000000
    24  H   -0.007112   0.361349   0.000000  -0.000000   0.000000  -0.000000
              13         14         15         16         17         18
     1  C    0.005639  -0.004931  -0.005199  -0.005777  -0.000002  -0.000006
     2  N   -0.036776  -0.034243  -0.036326  -0.049334   0.007659  -0.003256
     3  C    0.390563   0.388004   0.005933  -0.010452  -0.000493   0.002254
     4  C   -0.003163   0.005541   0.385399   0.351152  -0.048951  -0.034848
     5  C    0.000427   0.000170  -0.034848  -0.048950   0.351152   0.385399
     6  N   -0.000073  -0.000001  -0.003257   0.007658  -0.049334  -0.036326
     7  C    0.000004  -0.000000  -0.000006  -0.000002  -0.005777  -0.005199
     8  C    0.000000   0.000000   0.002254  -0.000493  -0.010452   0.005933
     9  H    0.000151   0.004995   0.000221  -0.000358   0.000000   0.000008
    10  H   -0.000367  -0.001423  -0.001566   0.012968   0.000037  -0.000009
    11  H   -0.000247   0.000163   0.005907  -0.001226  -0.000033  -0.000000
    12  H   -0.042360  -0.039954  -0.000221   0.016013   0.000213   0.000243
    13  H    0.599273  -0.028601  -0.000002  -0.001194   0.000143   0.002353
    14  H   -0.028601   0.599748  -0.000221  -0.000270  -0.000053  -0.000149
    15  H   -0.000002  -0.000221   0.623186  -0.045779  -0.006942   0.005588
    16  H   -0.001194  -0.000270  -0.045779   0.694741   0.007650  -0.006943
    17  H    0.000143  -0.000053  -0.006942   0.007650   0.694742  -0.045779
    18  H    0.002353  -0.000149   0.005588  -0.006943  -0.045779   0.623187
    19  H   -0.000000   0.000000   0.000008   0.000000  -0.000358   0.000221
    20  H   -0.000009   0.000000  -0.000000  -0.000033  -0.001226   0.005907
    21  H    0.000002  -0.000000  -0.000009   0.000037   0.012968  -0.001566
    22  H   -0.000000   0.000000   0.002353   0.000143  -0.001194  -0.000002
    23  H    0.000000  -0.000000  -0.000149  -0.000053  -0.000270  -0.000221
    24  H    0.000000  -0.000000   0.000243   0.000213   0.016013  -0.000221
              19         20         21         22         23         24
     1  C   -0.000000   0.000000   0.000000   0.000004  -0.000000  -0.000000
     2  N    0.000001  -0.000004   0.000008  -0.000073  -0.000001   0.000029
     3  C    0.000000  -0.000004  -0.000000   0.000000   0.000000   0.000000
     4  C   -0.000185   0.000107  -0.000145   0.000427   0.000170  -0.000894
     5  C    0.005213  -0.004200  -0.009667  -0.003163   0.005541  -0.010537
     6  N   -0.035370  -0.035935  -0.050110  -0.036776  -0.034243  -0.050720
     7  C    0.387576   0.388440   0.362197   0.005639  -0.004931  -0.007112
     8  C   -0.003811   0.005726  -0.007579   0.390563   0.388005   0.361349
     9  H    0.000000  -0.000000   0.000000  -0.000000   0.000000   0.000000
    10  H    0.000000   0.000000  -0.000000   0.000002  -0.000000  -0.000000
    11  H   -0.000000  -0.000000   0.000000  -0.000009   0.000000   0.000000
    12  H    0.000000   0.000000  -0.000000   0.000000  -0.000000  -0.000000
    13  H   -0.000000  -0.000009   0.000002  -0.000000   0.000000   0.000000
    14  H    0.000000   0.000000  -0.000000   0.000000  -0.000000  -0.000000
    15  H    0.000008  -0.000000  -0.000009   0.002353  -0.000149   0.000243
    16  H    0.000000  -0.000033   0.000037   0.000143  -0.000053   0.000213
    17  H   -0.000358  -0.001226   0.012968  -0.001194  -0.000270   0.016013
    18  H    0.000221   0.005907  -0.001566  -0.000002  -0.000221  -0.000221
    19  H    0.603375  -0.028639  -0.041625   0.000151   0.004995  -0.001386
    20  H   -0.028639   0.600252  -0.041117  -0.000247   0.000163  -0.000343
    21  H   -0.041625  -0.041117   0.677588  -0.000367  -0.001423   0.013857
    22  H    0.000151  -0.000247  -0.000367   0.599273  -0.028601  -0.042360
    23  H    0.004995   0.000163  -0.001423  -0.028601   0.599747  -0.039954
    24  H   -0.001386  -0.000343   0.013857  -0.042360  -0.039954   0.674562
 Mulliken charges:
               1
     1  C   -0.163887
     2  N   -0.438106
     3  C   -0.170201
     4  C   -0.032204
     5  C   -0.032202
     6  N   -0.438107
     7  C   -0.163887
     8  C   -0.170200
     9  H    0.109835
    10  H    0.086950
    11  H    0.111163
    12  H    0.087262
    13  H    0.114237
    14  H    0.111226
    15  H    0.103434
    16  H    0.080290
    17  H    0.080289
    18  H    0.103435
    19  H    0.109835
    20  H    0.111163
    21  H    0.086950
    22  H    0.114236
    23  H    0.111226
    24  H    0.087262
 Sum of Mulliken charges =  -0.00000
 Mulliken charges with hydrogens summed into heavy atoms:
               1
     1  C    0.144061
     2  N   -0.438106
     3  C    0.142524
     4  C    0.151520
     5  C    0.151521
     6  N   -0.438107
     7  C    0.144061
     8  C    0.142525
 APT charges:
               1
     1  C   -1.164145
     2  N   -0.377924
     3  C   -1.042778
     4  C   -0.447459
     5  C   -0.447454
     6  N   -0.377924
     7  C   -1.164144
     8  C   -1.042776
     9  H    0.629797
    10  H    0.304379
    11  H    0.347508
    12  H    0.287811
    13  H    0.246611
    14  H    0.631241
    15  H    0.321050
    16  H    0.263910
    17  H    0.263905
    18  H    0.321051
    19  H    0.629801
    20  H    0.347511
    21  H    0.304371
    22  H    0.246613
    23  H    0.631243
    24  H    0.287805
 Sum of APT charges =  -0.00000
 APT charges with hydrogens summed into heavy atoms:
               1
     1  C    0.117538
     2  N   -0.377924
     3  C    0.122885
     4  C    0.137501
     5  C    0.137502
     6  N   -0.377924
     7  C    0.117538
     8  C    0.122885
 Electronic spatial extent (au):  <R**2>=           1565.0324
 Charge=             -0.0000 electrons
 Dipole moment (field-independent basis, Debye):
    X=              0.0000    Y=             -0.0000    Z=             -0.0000  Tot=              0.0000
 Quadrupole moment (field-independent basis, Debye-Ang):
   XX=            -48.2480   YY=            -49.4831   ZZ=            -56.7636
   XY=             -0.1402   XZ=              2.6093   YZ=             -0.0546
 Traceless Quadrupole moment (field-independent basis, Debye-Ang):
   XX=              3.2502   YY=              2.0152   ZZ=             -5.2654
   XY=             -0.1402   XZ=              2.6093   YZ=             -0.0546
 Octapole moment (field-independent basis, Debye-Ang**2):
  XXX=              0.0000  YYY=              0.0001  ZZZ=             -0.0000  XYY=             -0.0001
  XXY=             -0.0001  XXZ=             -0.0003  XZZ=              0.0001  YZZ=             -0.0001
  YYZ=             -0.0000  XYZ=              0.0001
 Hexadecapole moment (field-independent basis, Debye-Ang**3):
 XXXX=          -1529.9445 YYYY=           -370.0749 ZZZZ=           -118.8656 XXXY=             -3.3144
 XXXZ=            -18.4838 YYYX=              0.4675 YYYZ=             -0.5998 ZZZX=              4.9852
 ZZZY=             -0.2893 XXYY=           -319.6201 XXZZ=           -302.0936 YYZZ=            -84.5049
 XXYZ=              0.7824 YYXZ=             -6.4475 ZZXY=             -0.0826
 N-N= 4.088067411601D+02 E-N=-1.623048605139D+03  KE= 3.443039628186D+02
  Exact polarizability:   0.000   0.000   0.000   0.000   0.000   0.000
 Approx polarizability: 112.476  -0.791 108.802  -1.115  -0.298 101.955
 D2PCM: PCM CHGder 2nd derivatives, FixD1E=F FixD2E=F DoIter=F DoCFld=F I1PDM=0
 Calling FoFJK, ICntrl=    100147 FMM=F ISym2X=0 I1Cent= 0 IOpClX= 0 NMat=1 NMatS=1 NMatT=0.
 ***** Axes restored to original set *****
 -------------------------------------------------------------------
 Center     Atomic                   Forces (Hartrees/Bohr)
 Number     Number              X              Y              Z
 -------------------------------------------------------------------
      1        6          -0.002793745   -0.004294921    0.005353128
      2        7          -0.004217976   -0.000402308   -0.000744542
      3        6          -0.001497933   -0.002529358    0.006665700
      4        6          -0.004557913   -0.004533593    0.006687851
      5        6           0.004557164    0.004533743   -0.006687559
      6        7           0.004219161    0.000401968    0.000744368
      7        6           0.002794453    0.004295828   -0.005353173
      8        6           0.001499079    0.002529504   -0.006665351
      9        1          -0.000699739    0.002958430    0.000605313
     10        1           0.002949610    0.001380277   -0.005233907
     11        1          -0.002051138    0.001726005   -0.000752585
     12        1           0.001856100    0.004655941   -0.003970129
     13        1          -0.001587743   -0.000126848   -0.002079132
     14        1          -0.000440873   -0.002403429   -0.002244808
     15        1           0.003118395    0.000044663    0.000089221
     16        1          -0.001278488    0.003852909   -0.003820119
     17        1           0.001278671   -0.003852635    0.003819483
     18        1          -0.003118821   -0.000044921   -0.000088711
     19        1           0.000698973   -0.002958893   -0.000605550
     20        1           0.002051661   -0.001725731    0.000752288
     21        1          -0.002950201   -0.001380864    0.005234295
     22        1           0.001587835    0.000127273    0.002079011
     23        1           0.000439878    0.002403469    0.002244081
     24        1          -0.001856408   -0.004656509    0.003970828
 -------------------------------------------------------------------
 Cartesian Forces:  Max     0.006687851 RMS     0.003194957
 FormGI is forming the generalized inverse of G from B-inverse, IUseBI=4.

 GradGradGradGradGradGradGradGradGradGradGradGradGradGradGradGradGradGrad
 Berny optimization.
 Internal  Forces:  Max     0.009094589 RMS     0.002620125
 Search for a local minimum.
 Step number   1 out of a maximum of  120
 All quantities printed in internal units (Hartrees-Bohrs-Radians)
 Mixed Optimization -- RFO/linear search
 Second derivative matrix not updated -- analytic derivatives used.
 ITU=  0
     Eigenvalues ---    0.00072   0.00297   0.00344   0.00501   0.00502
     Eigenvalues ---    0.00543   0.00561   0.02461   0.02475   0.04273
     Eigenvalues ---    0.04419   0.04604   0.05096   0.06255   0.06261
     Eigenvalues ---    0.06287   0.06289   0.06325   0.06338   0.06344
     Eigenvalues ---    0.06345   0.08244   0.08723   0.11177   0.12397
     Eigenvalues ---    0.12406   0.13136   0.13155   0.14002   0.14661
     Eigenvalues ---    0.15509   0.15526   0.15743   0.16440   0.16481
     Eigenvalues ---    0.16792   0.16811   0.18641   0.19274   0.19564
     Eigenvalues ---    0.19921   0.22204   0.24023   0.25737   0.30267
     Eigenvalues ---    0.31689   0.31726   0.31800   0.31979   0.32071
     Eigenvalues ---    0.32715   0.33165   0.33292   0.33292   0.33477
     Eigenvalues ---    0.33499   0.33568   0.33627   0.33645   0.33997
     Eigenvalues ---    0.34988   0.35373   0.35598   0.35624   0.36169
     Eigenvalues ---    0.36300
 RFO step:  Lambda=-3.57553543D-03 EMin= 7.24300120D-04
 Linear search not attempted -- first point.
 Iteration  1 RMS(Cart)=  0.04079155 RMS(Int)=  0.00078941
 Iteration  2 RMS(Cart)=  0.00101552 RMS(Int)=  0.00009901
 Iteration  3 RMS(Cart)=  0.00000037 RMS(Int)=  0.00009901
 Variable       Old X    -DE/DX   Delta X   Delta X   Delta X     New X
                                 (Linear)    (Quad)   (Total)
    R1        2.77102  -0.00268   0.00000  -0.00991  -0.00991   2.76111
    R2        2.07090  -0.00076   0.00000  -0.00244  -0.00244   2.06847
    R3        2.07141   0.00589   0.00000   0.01900   0.01900   2.09040
    R4        2.07073  -0.00058   0.00000  -0.00240  -0.00240   2.06832
    R5        2.76821  -0.00150   0.00000  -0.00572  -0.00572   2.76248
    R6        2.79822  -0.00840   0.00000  -0.02849  -0.02849   2.76973
    R7        2.07108   0.00624   0.00000   0.01974   0.01974   2.09082
    R8        2.06745  -0.00037   0.00000  -0.00252  -0.00252   2.06493
    R9        2.07171  -0.00114   0.00000  -0.00393  -0.00393   2.06778
   R10        2.92876  -0.00909   0.00000  -0.03171  -0.03171   2.89704
   R11        2.07147  -0.00094   0.00000  -0.00299  -0.00299   2.06848
   R12        2.07536   0.00496   0.00000   0.01687   0.01687   2.09222
   R13        2.79823  -0.00840   0.00000  -0.02850  -0.02850   2.76973
   R14        2.07536   0.00496   0.00000   0.01686   0.01686   2.09222
   R15        2.07147  -0.00094   0.00000  -0.00299  -0.00299   2.06848
   R16        2.77102  -0.00268   0.00000  -0.00991  -0.00991   2.76111
   R17        2.76821  -0.00150   0.00000  -0.00572  -0.00572   2.76248
   R18        2.07090  -0.00076   0.00000  -0.00243  -0.00243   2.06847
   R19        2.07073  -0.00058   0.00000  -0.00240  -0.00240   2.06832
   R20        2.07141   0.00589   0.00000   0.01900   0.01900   2.09040
   R21        2.06745  -0.00037   0.00000  -0.00252  -0.00252   2.06493
   R22        2.07171  -0.00114   0.00000  -0.00392  -0.00392   2.06778
   R23        2.07108   0.00624   0.00000   0.01974   0.01974   2.09082
    A1        1.93031  -0.00317   0.00000  -0.01500  -0.01496   1.91535
    A2        1.95789   0.00323   0.00000   0.01689   0.01695   1.97484
    A3        1.93107  -0.00239   0.00000  -0.01213  -0.01210   1.91897
    A4        1.89182  -0.00043   0.00000  -0.01006  -0.01000   1.88182
    A5        1.85705   0.00341   0.00000   0.02910   0.02910   1.88615
    A6        1.89227  -0.00056   0.00000  -0.00808  -0.00803   1.88425
    A7        1.90999   0.00096   0.00000   0.01112   0.01076   1.92075
    A8        1.91413  -0.00027   0.00000   0.01606   0.01575   1.92988
    A9        1.95197  -0.00019   0.00000   0.01297   0.01263   1.96460
   A10        1.95853   0.00259   0.00000   0.01091   0.01093   1.96946
   A11        1.94309  -0.00149   0.00000  -0.00622  -0.00620   1.93689
   A12        1.92839  -0.00373   0.00000  -0.01910  -0.01908   1.90931
   A13        1.89613  -0.00078   0.00000  -0.01021  -0.01019   1.88594
   A14        1.88716   0.00020   0.00000  -0.00344  -0.00342   1.88374
   A15        1.84622   0.00331   0.00000   0.02917   0.02919   1.87540
   A16        1.98780  -0.00575   0.00000  -0.01993  -0.01990   1.96790
   A17        1.87741  -0.00075   0.00000  -0.01122  -0.01109   1.86632
   A18        1.92945   0.00407   0.00000   0.02477   0.02469   1.95414
   A19        1.88306   0.00424   0.00000   0.02391   0.02389   1.90695
   A20        1.91474  -0.00073   0.00000  -0.01294  -0.01283   1.90191
   A21        1.86651  -0.00079   0.00000  -0.00359  -0.00351   1.86300
   A22        1.98781  -0.00575   0.00000  -0.01994  -0.01991   1.96790
   A23        1.91474  -0.00073   0.00000  -0.01294  -0.01283   1.90191
   A24        1.88305   0.00424   0.00000   0.02392   0.02390   1.90695
   A25        1.92945   0.00407   0.00000   0.02477   0.02469   1.95414
   A26        1.87741  -0.00075   0.00000  -0.01122  -0.01109   1.86632
   A27        1.86651  -0.00079   0.00000  -0.00359  -0.00351   1.86300
   A28        1.91412  -0.00027   0.00000   0.01606   0.01576   1.92988
   A29        1.95197  -0.00019   0.00000   0.01297   0.01263   1.96460
   A30        1.90998   0.00096   0.00000   0.01112   0.01076   1.92075
   A31        1.93031  -0.00317   0.00000  -0.01500  -0.01497   1.91535
   A32        1.93107  -0.00239   0.00000  -0.01213  -0.01210   1.91897
   A33        1.95789   0.00323   0.00000   0.01689   0.01695   1.97484
   A34        1.85705   0.00341   0.00000   0.02911   0.02911   1.88615
   A35        1.89182  -0.00043   0.00000  -0.01006  -0.01001   1.88182
   A36        1.89227  -0.00056   0.00000  -0.00807  -0.00802   1.88425
   A37        1.94310  -0.00149   0.00000  -0.00622  -0.00620   1.93689
   A38        1.92839  -0.00373   0.00000  -0.01910  -0.01908   1.90931
   A39        1.95852   0.00259   0.00000   0.01091   0.01094   1.96946
   A40        1.84622   0.00331   0.00000   0.02917   0.02918   1.87540
   A41        1.89613  -0.00078   0.00000  -0.01021  -0.01019   1.88594
   A42        1.88716   0.00020   0.00000  -0.00344  -0.00342   1.88374
    D1        1.03179  -0.00050   0.00000  -0.02406  -0.02412   1.00766
    D2       -3.10413  -0.00029   0.00000   0.00990   0.00992  -3.09422
    D3       -1.08263   0.00007   0.00000  -0.01222  -0.01226  -1.09490
    D4        1.06463   0.00028   0.00000   0.02173   0.02178   1.08641
    D5        3.08501   0.00025   0.00000  -0.00495  -0.00497   3.08004
    D6       -1.05091   0.00046   0.00000   0.02901   0.02907  -1.02184
    D7        1.13912  -0.00019   0.00000  -0.00301  -0.00299   1.13612
    D8       -3.01452  -0.00042   0.00000  -0.01295  -0.01293  -3.02745
    D9       -0.96844   0.00040   0.00000   0.00730   0.00733  -0.96111
   D10       -0.98553  -0.00038   0.00000  -0.03959  -0.03961  -1.02514
   D11        1.14402  -0.00061   0.00000  -0.04952  -0.04954   1.09447
   D12       -3.09309   0.00021   0.00000  -0.02927  -0.02929  -3.12238
   D13        2.95740   0.00039   0.00000  -0.05494  -0.05486   2.90254
   D14        0.87143  -0.00087   0.00000  -0.06497  -0.06510   0.80633
   D15       -1.16069  -0.00169   0.00000  -0.06758  -0.06770  -1.22839
   D16       -1.20352   0.00129   0.00000  -0.02113  -0.02093  -1.22445
   D17        2.99369   0.00002   0.00000  -0.03115  -0.03117   2.96252
   D18        0.96157  -0.00080   0.00000  -0.03376  -0.03377   0.92780
   D19       -3.14157   0.00000   0.00000  -0.00000  -0.00000  -3.14157
   D20       -0.96856   0.00055   0.00000   0.00782   0.00800  -0.96056
   D21        1.05885   0.00158   0.00000   0.00995   0.01009   1.06894
   D22       -1.05879  -0.00158   0.00000  -0.00996  -0.01010  -1.06890
   D23        1.11422  -0.00103   0.00000  -0.00214  -0.00210   1.11212
   D24       -3.14156   0.00000   0.00000  -0.00001  -0.00001  -3.14157
   D25        0.96861  -0.00055   0.00000  -0.00784  -0.00801   0.96060
   D26       -3.14156  -0.00000   0.00000  -0.00001  -0.00001  -3.14157
   D27       -1.11416   0.00103   0.00000   0.00212   0.00208  -1.11207
   D28       -2.95740  -0.00039   0.00000   0.05495   0.05487  -2.90253
   D29        1.20352  -0.00129   0.00000   0.02113   0.02094   1.22446
   D30        1.16068   0.00169   0.00000   0.06759   0.06771   1.22839
   D31       -0.96158   0.00080   0.00000   0.03377   0.03378  -0.92780
   D32       -0.87144   0.00087   0.00000   0.06498   0.06511  -0.80633
   D33       -2.99370  -0.00002   0.00000   0.03116   0.03118  -2.96252
   D34        3.10412   0.00029   0.00000  -0.00989  -0.00991   3.09421
   D35        1.05090  -0.00046   0.00000  -0.02900  -0.02907   1.02183
   D36       -1.06463  -0.00028   0.00000  -0.02173  -0.02178  -1.08641
   D37       -1.03180   0.00050   0.00000   0.02407   0.02414  -1.00767
   D38       -3.08502  -0.00025   0.00000   0.00495   0.00498  -3.08005
   D39        1.08263  -0.00007   0.00000   0.01222   0.01227   1.09489
   D40       -1.14401   0.00061   0.00000   0.04952   0.04954  -1.09447
   D41        3.09309  -0.00021   0.00000   0.02927   0.02929   3.12238
   D42        0.98554   0.00038   0.00000   0.03959   0.03961   1.02515
   D43        3.01453   0.00042   0.00000   0.01294   0.01292   3.02745
   D44        0.96845  -0.00040   0.00000  -0.00731  -0.00733   0.96112
   D45       -1.13911   0.00019   0.00000   0.00301   0.00299  -1.13612
         Item               Value     Threshold  Converged?
 Maximum Force            0.009095     0.000450     NO 
 RMS     Force            0.002620     0.000300     NO 
 Maximum Displacement     0.115777     0.001800     NO 
 RMS     Displacement     0.040961     0.001200     NO 
 Predicted change in Energy=-1.894751D-03
 GradGradGradGradGradGradGradGradGradGradGradGradGradGradGradGradGradGrad

                          Input orientation:                          
 ---------------------------------------------------------------------
 Center     Atomic      Atomic             Coordinates (Angstroms)
 Number     Number       Type             X           Y           Z
 ---------------------------------------------------------------------
      1          6           0        2.765734   -1.300109   -0.233288
      2          7           0        1.786360   -0.487179    0.484231
      3          6           0        2.398291    0.767275    0.918827
      4          6           0        0.591727   -0.274945   -0.337975
      5          6           0       -0.591723    0.274964    0.466564
      6          7           0       -1.786364    0.487172   -0.355637
      7          6           0       -2.765738    1.300111    0.361873
      8          6           0       -2.398291   -0.767295   -0.790199
      9          1           0        3.630595   -1.490518    0.410044
     10          1           0        3.132497   -0.821391   -1.160639
     11          1           0        2.324481   -2.264688   -0.503168
     12          1           0        2.698034    1.414571    0.073064
     13          1           0        1.715546    1.335752    1.555004
     14          1           0        3.292995    0.549501    1.509932
     15          1           0        0.319699   -1.246776   -0.761861
     16          1           0        0.791458    0.400835   -1.191920
     17          1           0       -0.791440   -0.400804    1.320523
     18          1           0       -0.319701    1.246806    0.890431
     19          1           0       -3.630604    1.490504   -0.281457
     20          1           0       -2.324489    2.264698    0.631731
     21          1           0       -3.132492    0.821410    1.289236
     22          1           0       -1.715548   -1.335785   -1.426365
     23          1           0       -3.293000   -0.549538   -1.381305
     24          1           0       -2.698028   -1.414571    0.055581
 ---------------------------------------------------------------------
                    Distance matrix (angstroms):
                    1          2          3          4          5
     1  C    0.000000
     2  N    1.461117   0.000000
     3  C    2.395091   1.461844   0.000000
     4  C    2.405874   1.465679   2.435045   0.000000
     5  C    3.774012   2.497289   3.063836   1.533048   0.000000
     6  N    4.891926   3.797248   4.383383   2.497288   1.465679
     7  C    6.141054   4.891929   5.221235   3.774011   2.405874
     8  C    5.221226   4.383371   5.318164   3.063841   2.435045
     9  H    1.094585   2.100809   2.622035   3.357361   4.576909
    10  H    1.106194   2.151600   2.717922   2.725967   4.209466
    11  H    1.094510   2.103348   3.349674   2.643635   3.986786
    12  H    2.732750   2.148688   1.106415   2.731290   3.503719
    13  H    3.353900   2.115336   1.092715   2.727761   2.762872
    14  H    2.595742   2.096835   1.094225   3.375103   4.031752
    15  H    2.503063   2.069017   3.346888   1.094594   2.157640
    16  H    2.776680   2.141935   2.677955   1.107156   2.163239
    17  H    3.984541   2.711438   3.420548   2.163239   1.107156
    18  H    4.155650   2.758114   2.760115   2.157639   1.094594
    19  H    6.978752   5.817302   6.189613   4.576907   3.357361
    20  H    6.274271   4.949107   4.962796   3.986782   2.643634
    21  H    6.450426   5.153206   5.543436   4.209467   2.725967
    22  H    4.637520   4.078464   5.181357   2.762878   2.727760
    23  H    6.212049   5.411470   6.278168   4.031754   3.375103
    24  H    5.472590   4.599296   5.610535   3.503729   2.731292
                    6          7          8          9         10
     6  N    0.000000
     7  C    1.461117   0.000000
     8  C    1.461844   2.395090   0.000000
     9  H    5.817299   6.978754   6.189597   0.000000
    10  H    5.153209   6.450426   5.543444   1.778449   0.000000
    11  H    4.949096   6.274267   4.962777   1.771787   1.779962
    12  H    4.599313   5.472597   5.610552   3.069654   2.590427
    13  H    4.078481   4.637536   5.181355   3.600854   3.746429
    14  H    5.411480   6.212061   6.278160   2.342094   3.006170
    15  H    2.758096   4.155639   2.760104   3.520626   2.872597
    16  H    2.711455   3.984547   3.420586   3.768848   2.641076
    17  H    2.141935   2.776684   2.677953   4.644442   4.661581
    18  H    2.069016   2.503060   3.346888   4.829964   4.516857
    19  H    2.100809   1.094585   2.622035   7.879701   7.201205
    20  H    2.103348   1.094510   3.349674   7.043708   6.520371
    21  H    2.151600   1.106194   2.717919   7.201204   6.924649
    22  H    2.115336   3.353900   1.092715   5.654873   4.882495
    23  H    2.096835   2.595743   1.094225   7.213220   6.435030
    24  H    2.148688   2.732746   1.106415   6.338997   5.985489
                   11         12         13         14         15
    11  H    0.000000
    12  H    3.742798   0.000000
    13  H    4.191663   1.779787   0.000000
    14  H    3.593084   1.779583   1.763113   0.000000
    15  H    2.263232   3.665563   3.739747   4.150680   0.000000
    16  H    3.151120   2.502574   3.045259   3.685078   1.766956
    17  H    4.063111   4.126520   3.058691   4.197805   2.507313
    18  H    4.611335   3.130968   2.142848   3.731165   3.058897
    19  H    7.043697   6.339015   5.654897   7.213237   4.829946
    20  H    6.589101   5.124506   4.247029   5.938793   4.611321
    21  H    6.520373   5.985478   4.882484   6.435023   4.516858
    22  H    4.246998   5.412250   5.272388   6.104232   2.142829
    23  H    5.938767   6.470348   6.104242   7.276158   3.731145
    24  H    5.124500   6.092769   5.412225   6.470322   3.130980
                   16         17         18         19         20
    16  H    0.000000
    17  H    3.075802   0.000000
    18  H    2.507295   1.766956   0.000000
    19  H    4.644454   3.768851   3.520624   0.000000
    20  H    4.063104   3.151123   2.263229   1.771787   0.000000
    21  H    4.661588   2.641081   2.872594   1.778449   1.779962
    22  H    3.058740   3.045252   3.739747   3.600856   4.191664
    23  H    4.197841   3.685078   4.150680   2.342096   3.593085
    24  H    4.126557   2.502574   3.665561   3.069651   3.742794
                   21         22         23         24
    21  H    0.000000
    22  H    3.746426   0.000000
    23  H    3.006169   1.763113   0.000000
    24  H    2.590420   1.779786   1.779583   0.000000
 Stoichiometry    C6H16N2
 Framework group  C1[X(C6H16N2)]
 Deg. of freedom    66
 Full point group                 C1      NOp   1
 Largest Abelian subgroup         C1      NOp   1
 Largest concise Abelian subgroup C1      NOp   1
                         Standard orientation:                         
 ---------------------------------------------------------------------
 Center     Atomic      Atomic             Coordinates (Angstroms)
 Number     Number       Type             X           Y           Z
 ---------------------------------------------------------------------
      1          6           0        2.911936    0.973981   -0.010868
      2          7           0        1.870075   -0.000090   -0.328005
      3          6           0        2.296120   -1.338975    0.075555
      4          6           0        0.595819    0.391996    0.280891
      5          6           0       -0.595818   -0.392007   -0.280870
      6          7           0       -1.870078    0.000098    0.328007
      7          6           0       -2.911941   -0.973975    0.010882
      8          6           0       -2.296114    1.338975   -0.075588
      9          1           0        3.844367    0.694162   -0.511259
     10          1           0        3.119426    1.051533    1.072921
     11          1           0        2.618172    1.965274   -0.370023
     12          1           0        2.416002   -1.439635    1.170840
     13          1           0        1.580222   -2.094291   -0.257634
     14          1           0        3.258342   -1.570256   -0.391312
     15          1           0        0.457459    1.457626    0.072506
     16          1           0        0.612006    0.281906    1.382441
     17          1           0       -0.611993   -0.281936   -1.382423
     18          1           0       -0.457468   -1.457635   -0.072465
     19          1           0       -3.844374   -0.694143    0.511261
     20          1           0       -2.618183   -1.965263    0.370058
     21          1           0       -3.119423   -1.051548   -1.072907
     22          1           0       -1.580215    2.094296    0.257585
     23          1           0       -3.258338    1.570273    0.391269
     24          1           0       -2.415992    1.439608   -1.170876
 ---------------------------------------------------------------------
 Rotational constants (GHZ):           4.2794991           0.9116879           0.7871458
 Standard basis: 6-31G(d,p) (6D, 7F)
 There are   200 symmetry adapted cartesian basis functions of A   symmetry.
 There are   200 symmetry adapted basis functions of A   symmetry.
   200 basis functions,   336 primitive gaussians,   200 cartesian basis functions
    33 alpha electrons       33 beta electrons
       nuclear repulsion energy       410.6753896178 Hartrees.
 NAtoms=   24 NActive=   24 NUniq=   24 SFac= 1.00D+00 NAtFMM=   60 NAOKFM=F Big=F
 Integral buffers will be    131072 words long.
 Raffenetti 2 integral format.
 Two-electron integral symmetry is turned on.
 ------------------------------------------------------------------------------
 Polarizable Continuum Model (PCM)
 =================================
 Model                : PCM.
 Atomic radii         : UFF (Universal Force Field).
 Polarization charges : Total charges.
 Charge compensation  : None.
 Solution method      : Matrix inversion.
 Cavity type          : Scaled VdW (van der Waals Surface) (Alpha=1.100).
 Cavity algorithm     : GePol (No added spheres)
                        Default sphere list used, NSphG=   24.
                        Lebedev-Laikov grids with approx.  5.0 points / Ang**2.
                        Smoothing algorithm: York/Karplus (Gamma=1.0000).
                        Polarization charges: spherical gaussians, with
                                              point-specific exponents (IZeta= 3).
                        Self-potential: point-specific (ISelfS= 7).
                        Self-field    : sphere-specific E.n sum rule (ISelfD= 2).
 1st derivatives      : Analytical E(r).r(x)/FMM algorithm (CHGder, D1EAlg=3).
                        Cavity 1st derivative terms included.
 Solvent              : Water, Eps=  78.355300 Eps(inf)=   1.777849
 ------------------------------------------------------------------------------
 One-electron integrals computed using PRISM.
 NBasis=   200 RedAO= T EigKep=  3.01D-03  NBF=   200
 NBsUse=   200 1.00D-06 EigRej= -1.00D+00 NBFU=   200
 Initial guess from the checkpoint file:  "KWYHDKDOAIKMQN-UHFFFAOYSA-N_conf_0_0.chk"
 B after Tr=    -0.000000    0.000000   -0.000000
         Rot=    0.999997   -0.002415   -0.000550   -0.000622 Ang=  -0.29 deg.
 ExpMin= 1.61D-01 ExpMax= 4.17D+03 ExpMxC= 6.27D+02 IAcc=2 IRadAn=         4 AccDes= 0.00D+00
 Harris functional with IExCor=  402 and IRadAn=       4 diagonalized for initial guess.
 HarFok:  IExCor=  402 AccDes= 0.00D+00 IRadAn=         4 IDoV= 1 UseB2=F ITyADJ=14
 ICtDFT=  3500011 ScaDFX=  1.000000  1.000000  1.000000  1.000000
 FoFCou: FMM=F IPFlag=           0 FMFlag=      100000 FMFlg1=           0
         NFxFlg=           0 DoJE=T BraDBF=F KetDBF=T FulRan=T
         wScrn=  0.000000 ICntrl=       500 IOpCl=  0 I1Cent=   200000004 NGrid=           0
         NMat0=    1 NMatS0=      1 NMatT0=    0 NMatD0=    1 NMtDS0=    0 NMtDT0=    0
 Petite list used in FoFCou.
 Keep R1 ints in memory in canonical form, NReq=206134434.
 Requested convergence on RMS density matrix=1.00D-08 within  32 cycles.
 Requested convergence on MAX density matrix=1.00D-06.
 Requested convergence on             energy=1.00D-06.
 No special actions if energy rises.
 Inv3:  Mode=1 IEnd=     7912128.
 Iteration    1 A*A^-1 deviation from unit magnitude is 6.33D-15 for    100.
 Iteration    1 A*A^-1 deviation from orthogonality  is 3.85D-15 for   1571    509.
 Iteration    1 A^-1*A deviation from unit magnitude is 6.55D-15 for    100.
 Iteration    1 A^-1*A deviation from orthogonality  is 3.78D-15 for   1341   1147.
 Error on total polarization charges =  0.01042
 SCF Done:  E(RB3LYP) =  -347.769522397     A.U. after    9 cycles
            NFock=  9  Conv=0.29D-08     -V/T= 2.0099
 QCSCF skips out because SCF is already converged.
 D1PCM: PCM CHGder 1st derivatives, ID1Alg=3 FixD1E=F DoIter=F DoCFld=F I1PDM=0.
 Calling FoFJK, ICntrl=      2127 FMM=F ISym2X=0 I1Cent= 0 IOpClX= 0 NMat=1 NMatS=1 NMatT=0.
 ***** Axes restored to original set *****
 -------------------------------------------------------------------
 Center     Atomic                   Forces (Hartrees/Bohr)
 Number     Number              X              Y              Z
 -------------------------------------------------------------------
      1        6          -0.000135797   -0.000552165    0.000430628
      2        7           0.000600976    0.000333721   -0.000221994
      3        6           0.000014916   -0.000154975    0.000454994
      4        6          -0.000228639   -0.000360588    0.000075543
      5        6           0.000228825    0.000360633   -0.000075522
      6        7          -0.000601040   -0.000333744    0.000222014
      7        6           0.000135843    0.000552284   -0.000430714
      8        6          -0.000014942    0.000154999   -0.000455036
      9        1           0.000036864    0.000084542   -0.000004623
     10        1           0.000143610    0.000074474   -0.000210511
     11        1          -0.000053291    0.000040344   -0.000089503
     12        1           0.000149159    0.000148948   -0.000170883
     13        1          -0.000094778    0.000080354   -0.000171202
     14        1           0.000021760   -0.000029954   -0.000012922
     15        1           0.000130438    0.000044561   -0.000165817
     16        1          -0.000076805    0.000250194   -0.000069770
     17        1           0.000076756   -0.000250249    0.000069660
     18        1          -0.000130457   -0.000044601    0.000165948
     19        1          -0.000036887   -0.000084580    0.000004642
     20        1           0.000053305   -0.000040330    0.000089479
     21        1          -0.000143643   -0.000074492    0.000210548
     22        1           0.000094762   -0.000080341    0.000171187
     23        1          -0.000021764    0.000029947    0.000012927
     24        1          -0.000149172   -0.000148982    0.000170925
 -------------------------------------------------------------------
 Cartesian Forces:  Max     0.000601040 RMS     0.000222450

 GradGradGradGradGradGradGradGradGradGradGradGradGradGradGradGradGradGrad
 Berny optimization.
 Using GEDIIS/GDIIS optimizer.
 FormGI is forming the generalized inverse of G from B-inverse, IUseBI=4.
 Internal  Forces:  Max     0.000555260 RMS     0.000140785
 Search for a local minimum.
 Step number   2 out of a maximum of  120
 All quantities printed in internal units (Hartrees-Bohrs-Radians)
 Mixed Optimization -- En-DIIS/RFO-DIIS
 Update second derivatives using D2CorX and points    1    2
 DE= -1.89D-03 DEPred=-1.89D-03 R= 9.95D-01
 TightC=F SS=  1.41D+00  RLast= 2.45D-01 DXNew= 5.0454D-01 7.3389D-01
 Trust test= 9.95D-01 RLast= 2.45D-01 DXMaxT set to 5.05D-01
 ITU=  1  0
 Use linear search instead of GDIIS.
     Eigenvalues ---    0.00072   0.00297   0.00344   0.00501   0.00501
     Eigenvalues ---    0.00543   0.00561   0.02444   0.02474   0.04272
     Eigenvalues ---    0.04419   0.04604   0.05096   0.06255   0.06261
     Eigenvalues ---    0.06285   0.06287   0.06325   0.06328   0.06341
     Eigenvalues ---    0.06344   0.08243   0.08722   0.11176   0.12397
     Eigenvalues ---    0.12405   0.13144   0.13155   0.14023   0.14659
     Eigenvalues ---    0.15507   0.15509   0.15752   0.16439   0.16481
     Eigenvalues ---    0.16762   0.16791   0.18639   0.19278   0.19561
     Eigenvalues ---    0.19918   0.22198   0.24087   0.25757   0.30266
     Eigenvalues ---    0.31643   0.31726   0.31780   0.31979   0.31995
     Eigenvalues ---    0.32715   0.33215   0.33292   0.33293   0.33477
     Eigenvalues ---    0.33506   0.33568   0.33621   0.33645   0.34009
     Eigenvalues ---    0.34988   0.35508   0.35597   0.35740   0.36169
     Eigenvalues ---    0.36839
 RFO step:  Lambda=-1.31804987D-04 EMin= 7.24300070D-04
 Quartic linear search produced a step of  0.05134.
 Iteration  1 RMS(Cart)=  0.03143095 RMS(Int)=  0.00048397
 Iteration  2 RMS(Cart)=  0.00062032 RMS(Int)=  0.00000849
 Iteration  3 RMS(Cart)=  0.00000019 RMS(Int)=  0.00000849
 Variable       Old X    -DE/DX   Delta X   Delta X   Delta X     New X
                                 (Linear)    (Quad)   (Total)
    R1        2.76111   0.00013  -0.00051  -0.00009  -0.00060   2.76052
    R2        2.06847   0.00001  -0.00013   0.00031   0.00019   2.06865
    R3        2.09040   0.00026   0.00098   0.00004   0.00101   2.09142
    R4        2.06832   0.00001  -0.00012  -0.00006  -0.00018   2.06814
    R5        2.76248   0.00011  -0.00029  -0.00073  -0.00102   2.76146
    R6        2.76973   0.00056  -0.00146   0.00221   0.00075   2.77048
    R7        2.09082   0.00026   0.00101   0.00007   0.00108   2.09190
    R8        2.06493   0.00000  -0.00013   0.00005  -0.00007   2.06486
    R9        2.06778   0.00002  -0.00020   0.00043   0.00023   2.06801
   R10        2.89704   0.00049  -0.00163   0.00429   0.00266   2.89970
   R11        2.06848  -0.00001  -0.00015   0.00002  -0.00014   2.06835
   R12        2.09222   0.00019   0.00087  -0.00070   0.00017   2.09239
   R13        2.76973   0.00056  -0.00146   0.00221   0.00075   2.77048
   R14        2.09222   0.00019   0.00087  -0.00070   0.00017   2.09239
   R15        2.06848  -0.00001  -0.00015   0.00002  -0.00014   2.06834
   R16        2.76111   0.00013  -0.00051  -0.00009  -0.00060   2.76052
   R17        2.76248   0.00011  -0.00029  -0.00073  -0.00102   2.76146
   R18        2.06847   0.00001  -0.00012   0.00031   0.00019   2.06865
   R19        2.06832   0.00001  -0.00012  -0.00006  -0.00018   2.06814
   R20        2.09040   0.00026   0.00098   0.00004   0.00101   2.09142
   R21        2.06493   0.00000  -0.00013   0.00006  -0.00007   2.06486
   R22        2.06778   0.00002  -0.00020   0.00043   0.00023   2.06801
   R23        2.09082   0.00026   0.00101   0.00007   0.00108   2.09190
    A1        1.91535  -0.00004  -0.00077  -0.00003  -0.00080   1.91455
    A2        1.97484   0.00007   0.00087   0.00005   0.00093   1.97577
    A3        1.91897  -0.00002  -0.00062   0.00096   0.00034   1.91931
    A4        1.88182  -0.00006  -0.00051  -0.00110  -0.00161   1.88020
    A5        1.88615   0.00009   0.00149  -0.00020   0.00129   1.88745
    A6        1.88425  -0.00005  -0.00041   0.00028  -0.00013   1.88412
    A7        1.92075   0.00001   0.00055   0.00118   0.00170   1.92244
    A8        1.92988   0.00014   0.00081   0.00555   0.00634   1.93622
    A9        1.96460   0.00004   0.00065  -0.00062  -0.00001   1.96459
   A10        1.96946   0.00004   0.00056  -0.00092  -0.00035   1.96911
   A11        1.93689  -0.00003  -0.00032  -0.00054  -0.00086   1.93603
   A12        1.90931  -0.00002  -0.00098   0.00213   0.00116   1.91047
   A13        1.88594  -0.00006  -0.00052  -0.00113  -0.00165   1.88429
   A14        1.88374  -0.00004  -0.00018   0.00004  -0.00014   1.88360
   A15        1.87540   0.00011   0.00150   0.00046   0.00196   1.87736
   A16        1.96790   0.00013  -0.00102  -0.00085  -0.00187   1.96602
   A17        1.86632  -0.00006  -0.00057   0.00216   0.00160   1.86792
   A18        1.95414   0.00001   0.00127   0.00032   0.00159   1.95572
   A19        1.90695   0.00001   0.00123  -0.00092   0.00030   1.90725
   A20        1.90191  -0.00010  -0.00066  -0.00008  -0.00073   1.90117
   A21        1.86300  -0.00000  -0.00018  -0.00063  -0.00080   1.86220
   A22        1.96790   0.00013  -0.00102  -0.00085  -0.00187   1.96602
   A23        1.90191  -0.00010  -0.00066  -0.00008  -0.00073   1.90117
   A24        1.90695   0.00001   0.00123  -0.00092   0.00030   1.90725
   A25        1.95414   0.00001   0.00127   0.00032   0.00159   1.95572
   A26        1.86632  -0.00006  -0.00057   0.00216   0.00160   1.86792
   A27        1.86300  -0.00000  -0.00018  -0.00063  -0.00080   1.86220
   A28        1.92988   0.00014   0.00081   0.00555   0.00634   1.93622
   A29        1.96460   0.00004   0.00065  -0.00062  -0.00001   1.96459
   A30        1.92075   0.00001   0.00055   0.00118   0.00170   1.92244
   A31        1.91535  -0.00004  -0.00077  -0.00003  -0.00080   1.91455
   A32        1.91897  -0.00002  -0.00062   0.00096   0.00034   1.91931
   A33        1.97484   0.00007   0.00087   0.00005   0.00093   1.97577
[...]
    19  H    0.698926   0.035940   0.012271   0.003166   0.039482   0.007402
    20  H    0.035940   0.766395   0.022560   0.000768   0.005047   0.002475
    21  H    0.012271   0.022560   0.681456   0.001993   0.009965   0.021256
    22  H    0.003166   0.000768   0.001993   0.721372   0.051926   0.016647
    23  H    0.039482   0.005047   0.009965   0.051926   0.829677   0.030272
    24  H    0.007402   0.002475   0.021256   0.016647   0.030272   0.687012
 Mulliken charges:
               1
     1  C   -0.144023
     2  N   -0.309925
     3  C   -0.124860
     4  C    0.006133
     5  C    0.006133
     6  N   -0.309927
     7  C   -0.144024
     8  C   -0.124861
     9  H    0.087931
    10  H    0.103177
    11  H    0.072966
    12  H    0.092654
    13  H    0.076930
    14  H    0.051825
    15  H    0.021211
    16  H    0.065981
    17  H    0.065981
    18  H    0.021211
    19  H    0.087931
    20  H    0.072967
    21  H    0.103177
    22  H    0.076930
    23  H    0.051826
    24  H    0.092654
 Sum of Mulliken charges =  -0.00000
 Mulliken charges with hydrogens summed into heavy atoms:
               1
     1  C    0.120051
     2  N   -0.309925
     3  C    0.096549
     4  C    0.093325
     5  C    0.093326
     6  N   -0.309927
     7  C    0.120052
     8  C    0.096549
 Electronic spatial extent (au):  <R**2>=           1559.1957
 Charge=              0.0000 electrons
 Dipole moment (field-independent basis, Debye):
    X=              0.0000    Y=             -0.0000    Z=             -0.0000  Tot=              0.0000
 Quadrupole moment (field-independent basis, Debye-Ang):
   XX=            -52.3024   YY=            -55.9581   ZZ=            -56.8410
   XY=              1.1351   XZ=              2.4537   YZ=              0.1409
 Traceless Quadrupole moment (field-independent basis, Debye-Ang):
   XX=              2.7314   YY=             -0.9243   ZZ=             -1.8071
   XY=              1.1351   XZ=              2.4537   YZ=              0.1409
 Octapole moment (field-independent basis, Debye-Ang**2):
  XXX=             -0.0002  YYY=             -0.0001  ZZZ=             -0.0000  XYY=             -0.0000
  XXY=             -0.0000  XXZ=              0.0000  XZZ=             -0.0000  YZZ=             -0.0000
  YYZ=              0.0000  XYZ=              0.0000
 Hexadecapole moment (field-independent basis, Debye-Ang**3):
 XXXX=          -1657.1828 YYYY=           -414.6239 ZZZZ=           -126.5086 XXXY=             32.5518
 XXXZ=             10.5567 YYYX=             -1.7388 YYYZ=             -1.1127 ZZZX=              2.6232
 ZZZY=              0.1938 XXYY=           -338.2813 XXZZ=           -302.9475 YYZZ=            -89.6784
 XXYZ=             -1.4866 YYXZ=              3.2963 ZZXY=              1.2423
 N-N= 4.102182551298D+02 E-N=-1.624202004630D+03  KE= 3.444964618822D+02
 Evaluate density.
 Using the total density.
 Monte-Carlo method of calculating molar volume:
 based on  0.001 e/bohr**3 density envelope.
 Number of points per bohr**3 =   20 CutOff= 1.00D-04
 Using the CI density.
 There are       366 points.  Will hold       366 in memory.
 LenV=  1073626960 MDV=  1073741824.
 Box volume = 6154.339 fraction occupied=0.235
 Integrated density= 6.0515937957089250D+01 error=-5.4840620429107503D+00
 Molar volume = 1446.101 bohr**3/mol (129.049 cm**3/mol)
 Recommended a0 for SCRF calculation =  4.59 angstrom (  8.67 bohr)
 ******************************Gaussian NBO Version 3.1******************************
             N A T U R A L   A T O M I C   O R B I T A L   A N D
          N A T U R A L   B O N D   O R B I T A L   A N A L Y S I S
 ******************************Gaussian NBO Version 3.1******************************
       /RESON  / : Allow strongly delocalized NBO set

 Analyzing the CI density

 Job title: KWYHDKDOAIKMQN-UHFFFAOYSA-N_conf_0                              

 Storage needed:    121952 in NPA (1073738704 available)
 GSVD:  LWork=       20800 too small for GESVD, short by       16736 words or       16736 for optimal perf.


 NATURAL POPULATIONS:  Natural atomic orbital occupancies 
                                                          
   NAO  Atom  No  lang   Type(AO)    Occupancy
 --------------------------------------------
     1    C    1  S      Cor( 1S)     1.99946
     2    C    1  S      Val( 2S)     1.10863
     3    C    1  S      Ryd( 3S)     0.00137
     4    C    1  S      Ryd( 4S)     0.00004
     5    C    1  px     Val( 2p)     1.07319
     6    C    1  px     Ryd( 3p)     0.00442
     7    C    1  py     Val( 2p)     1.09693
     8    C    1  py     Ryd( 3p)     0.00587
     9    C    1  pz     Val( 2p)     1.22735
    10    C    1  pz     Ryd( 3p)     0.00201
    11    C    1  dxy    Ryd( 3d)     0.00117
    12    C    1  dxz    Ryd( 3d)     0.00075
    13    C    1  dyz    Ryd( 3d)     0.00053
    14    C    1  dx2y2  Ryd( 3d)     0.00078
    15    C    1  dz2    Ryd( 3d)     0.00092

    16    N    2  S      Cor( 1S)     1.99940
    17    N    2  S      Val( 2S)     1.29835
    18    N    2  S      Ryd( 3S)     0.00146
    19    N    2  S      Ryd( 4S)     0.00010
    20    N    2  px     Val( 2p)     1.26233
    21    N    2  px     Ryd( 3p)     0.00088
    22    N    2  py     Val( 2p)     1.25827
    23    N    2  py     Ryd( 3p)     0.00112
    24    N    2  pz     Val( 2p)     1.43657
    25    N    2  pz     Ryd( 3p)     0.00473
    26    N    2  dxy    Ryd( 3d)     0.00075
    27    N    2  dxz    Ryd( 3d)     0.00101
    28    N    2  dyz    Ryd( 3d)     0.00089
    29    N    2  dx2y2  Ryd( 3d)     0.00065
    30    N    2  dz2    Ryd( 3d)     0.00080

    31    C    3  S      Cor( 1S)     1.99944
    32    C    3  S      Val( 2S)     1.11519
    33    C    3  S      Ryd( 3S)     0.00152
    34    C    3  S      Ryd( 4S)     0.00004
    35    C    3  px     Val( 2p)     1.22473
    36    C    3  px     Ryd( 3p)     0.00335
    37    C    3  py     Val( 2p)     0.95052
    38    C    3  py     Ryd( 3p)     0.00603
    39    C    3  pz     Val( 2p)     1.21433
    40    C    3  pz     Ryd( 3p)     0.00236
    41    C    3  dxy    Ryd( 3d)     0.00099
    42    C    3  dxz    Ryd( 3d)     0.00056
    43    C    3  dyz    Ryd( 3d)     0.00075
    44    C    3  dx2y2  Ryd( 3d)     0.00091
    45    C    3  dz2    Ryd( 3d)     0.00095

    46    C    4  S      Cor( 1S)     1.99930
    47    C    4  S      Val( 2S)     1.03804
    48    C    4  S      Ryd( 3S)     0.00233
    49    C    4  S      Ryd( 4S)     0.00004
    50    C    4  px     Val( 2p)     0.88433
    51    C    4  px     Ryd( 3p)     0.00601
    52    C    4  py     Val( 2p)     1.21023
    53    C    4  py     Ryd( 3p)     0.00584
    54    C    4  pz     Val( 2p)     1.15726
    55    C    4  pz     Ryd( 3p)     0.00398
    56    C    4  dxy    Ryd( 3d)     0.00076
    57    C    4  dxz    Ryd( 3d)     0.00106
    58    C    4  dyz    Ryd( 3d)     0.00034
    59    C    4  dx2y2  Ryd( 3d)     0.00111
    60    C    4  dz2    Ryd( 3d)     0.00118

    61    C    5  S      Cor( 1S)     1.99930
    62    C    5  S      Val( 2S)     1.03804
    63    C    5  S      Ryd( 3S)     0.00233
    64    C    5  S      Ryd( 4S)     0.00004
    65    C    5  px     Val( 2p)     0.88433
    66    C    5  px     Ryd( 3p)     0.00601
    67    C    5  py     Val( 2p)     1.21023
    68    C    5  py     Ryd( 3p)     0.00584
    69    C    5  pz     Val( 2p)     1.15726
    70    C    5  pz     Ryd( 3p)     0.00398
    71    C    5  dxy    Ryd( 3d)     0.00076
    72    C    5  dxz    Ryd( 3d)     0.00106
    73    C    5  dyz    Ryd( 3d)     0.00034
    74    C    5  dx2y2  Ryd( 3d)     0.00111
    75    C    5  dz2    Ryd( 3d)     0.00118

    76    N    6  S      Cor( 1S)     1.99940
    77    N    6  S      Val( 2S)     1.29835
    78    N    6  S      Ryd( 3S)     0.00146
    79    N    6  S      Ryd( 4S)     0.00010
    80    N    6  px     Val( 2p)     1.26233
    81    N    6  px     Ryd( 3p)     0.00088
    82    N    6  py     Val( 2p)     1.25827
    83    N    6  py     Ryd( 3p)     0.00112
    84    N    6  pz     Val( 2p)     1.43657
    85    N    6  pz     Ryd( 3p)     0.00473
    86    N    6  dxy    Ryd( 3d)     0.00075
    87    N    6  dxz    Ryd( 3d)     0.00101
    88    N    6  dyz    Ryd( 3d)     0.00089
    89    N    6  dx2y2  Ryd( 3d)     0.00065
    90    N    6  dz2    Ryd( 3d)     0.00080

    91    C    7  S      Cor( 1S)     1.99946
    92    C    7  S      Val( 2S)     1.10863
    93    C    7  S      Ryd( 3S)     0.00137
    94    C    7  S      Ryd( 4S)     0.00004
    95    C    7  px     Val( 2p)     1.07319
    96    C    7  px     Ryd( 3p)     0.00442
    97    C    7  py     Val( 2p)     1.09692
    98    C    7  py     Ryd( 3p)     0.00587
    99    C    7  pz     Val( 2p)     1.22735
   100    C    7  pz     Ryd( 3p)     0.00201
   101    C    7  dxy    Ryd( 3d)     0.00117
   102    C    7  dxz    Ryd( 3d)     0.00075
   103    C    7  dyz    Ryd( 3d)     0.00053
   104    C    7  dx2y2  Ryd( 3d)     0.00078
   105    C    7  dz2    Ryd( 3d)     0.00092

   106    C    8  S      Cor( 1S)     1.99944
   107    C    8  S      Val( 2S)     1.11519
   108    C    8  S      Ryd( 3S)     0.00152
   109    C    8  S      Ryd( 4S)     0.00004
   110    C    8  px     Val( 2p)     1.22473
   111    C    8  px     Ryd( 3p)     0.00335
   112    C    8  py     Val( 2p)     0.95052
   113    C    8  py     Ryd( 3p)     0.00603
   114    C    8  pz     Val( 2p)     1.21433
   115    C    8  pz     Ryd( 3p)     0.00236
   116    C    8  dxy    Ryd( 3d)     0.00099
   117    C    8  dxz    Ryd( 3d)     0.00056
   118    C    8  dyz    Ryd( 3d)     0.00075
   119    C    8  dx2y2  Ryd( 3d)     0.00091
   120    C    8  dz2    Ryd( 3d)     0.00095

   121    H    9  S      Val( 1S)     0.76843
   122    H    9  S      Ryd( 2S)     0.01479
   123    H    9  px     Ryd( 2p)     0.00028
   124    H    9  py     Ryd( 2p)     0.00008
   125    H    9  pz     Ryd( 2p)     0.00014

   126    H   10  S      Val( 1S)     0.76396
   127    H   10  S      Ryd( 2S)     0.01408
   128    H   10  px     Ryd( 2p)     0.00009
   129    H   10  py     Ryd( 2p)     0.00008
   130    H   10  pz     Ryd( 2p)     0.00035

   131    H   11  S      Val( 1S)     0.78027
   132    H   11  S      Ryd( 2S)     0.01846
   133    H   11  px     Ryd( 2p)     0.00008
   134    H   11  py     Ryd( 2p)     0.00031
   135    H   11  pz     Ryd( 2p)     0.00010

   136    H   12  S      Val( 1S)     0.76664
   137    H   12  S      Ryd( 2S)     0.01724
   138    H   12  px     Ryd( 2p)     0.00009
   139    H   12  py     Ryd( 2p)     0.00008
   140    H   12  pz     Ryd( 2p)     0.00036

   141    H   13  S      Val( 1S)     0.78004
   142    H   13  S      Ryd( 2S)     0.01657
   143    H   13  px     Ryd( 2p)     0.00020
   144    H   13  py     Ryd( 2p)     0.00021
   145    H   13  pz     Ryd( 2p)     0.00009

   146    H   14  S      Val( 1S)     0.78941
   147    H   14  S      Ryd( 2S)     0.02237
   148    H   14  px     Ryd( 2p)     0.00028
   149    H   14  py     Ryd( 2p)     0.00008
   150    H   14  pz     Ryd( 2p)     0.00013

   151    H   15  S      Val( 1S)     0.79215
   152    H   15  S      Ryd( 2S)     0.03436
   153    H   15  px     Ryd( 2p)     0.00010
   154    H   15  py     Ryd( 2p)     0.00036
   155    H   15  pz     Ryd( 2p)     0.00009

   156    H   16  S      Val( 1S)     0.77053
   157    H   16  S      Ryd( 2S)     0.02236
   158    H   16  px     Ryd( 2p)     0.00007
   159    H   16  py     Ryd( 2p)     0.00010
   160    H   16  pz     Ryd( 2p)     0.00037

   161    H   17  S      Val( 1S)     0.77053
   162    H   17  S      Ryd( 2S)     0.02236
   163    H   17  px     Ryd( 2p)     0.00007
   164    H   17  py     Ryd( 2p)     0.00010
   165    H   17  pz     Ryd( 2p)     0.00037

   166    H   18  S      Val( 1S)     0.79215
   167    H   18  S      Ryd( 2S)     0.03435
   168    H   18  px     Ryd( 2p)     0.00010
   169    H   18  py     Ryd( 2p)     0.00036
   170    H   18  pz     Ryd( 2p)     0.00009

   171    H   19  S      Val( 1S)     0.76843
   172    H   19  S      Ryd( 2S)     0.01479
   173    H   19  px     Ryd( 2p)     0.00028
   174    H   19  py     Ryd( 2p)     0.00008
   175    H   19  pz     Ryd( 2p)     0.00014

   176    H   20  S      Val( 1S)     0.78027
   177    H   20  S      Ryd( 2S)     0.01846
   178    H   20  px     Ryd( 2p)     0.00008
   179    H   20  py     Ryd( 2p)     0.00031
   180    H   20  pz     Ryd( 2p)     0.00010

   181    H   21  S      Val( 1S)     0.76396
   182    H   21  S      Ryd( 2S)     0.01408
   183    H   21  px     Ryd( 2p)     0.00009
   184    H   21  py     Ryd( 2p)     0.00008
   185    H   21  pz     Ryd( 2p)     0.00035

   186    H   22  S      Val( 1S)     0.78004
   187    H   22  S      Ryd( 2S)     0.01657
   188    H   22  px     Ryd( 2p)     0.00020
   189    H   22  py     Ryd( 2p)     0.00021
   190    H   22  pz     Ryd( 2p)     0.00009

   191    H   23  S      Val( 1S)     0.78941
   192    H   23  S      Ryd( 2S)     0.02237
   193    H   23  px     Ryd( 2p)     0.00028
   194    H   23  py     Ryd( 2p)     0.00008
   195    H   23  pz     Ryd( 2p)     0.00013

   196    H   24  S      Val( 1S)     0.76664
   197    H   24  S      Ryd( 2S)     0.01724
   198    H   24  px     Ryd( 2p)     0.00009
   199    H   24  py     Ryd( 2p)     0.00008
   200    H   24  pz     Ryd( 2p)     0.00036


 Summary of Natural Population Analysis:                  
                                                          
                                       Natural Population 
                Natural  -----------------------------------------------
    Atom  No    Charge         Core      Valence    Rydberg      Total
 -----------------------------------------------------------------------
      C    1   -0.52342      1.99946     4.50610    0.01787     6.52342
      N    2   -0.26731      1.99940     5.25552    0.01239     7.26731
      C    3   -0.52168      1.99944     4.50478    0.01746     6.52168
      C    4   -0.31181      1.99930     4.28985    0.02267     6.31181
      C    5   -0.31181      1.99930     4.28985    0.02267     6.31181
      N    6   -0.26731      1.99940     5.25552    0.01239     7.26731
      C    7   -0.52342      1.99946     4.50609    0.01787     6.52342
      C    8   -0.52168      1.99944     4.50478    0.01746     6.52168
      H    9    0.21628      0.00000     0.76843    0.01529     0.78372
      H   10    0.22143      0.00000     0.76396    0.01460     0.77857
      H   11    0.20077      0.00000     0.78027    0.01896     0.79923
      H   12    0.21560      0.00000     0.76664    0.01776     0.78440
      H   13    0.20289      0.00000     0.78004    0.01707     0.79711
      H   14    0.18773      0.00000     0.78941    0.02286     0.81227
      H   15    0.17295      0.00000     0.79215    0.03490     0.82705
      H   16    0.20657      0.00000     0.77053    0.02291     0.79343
      H   17    0.20657      0.00000     0.77053    0.02290     0.79343
      H   18    0.17295      0.00000     0.79215    0.03490     0.82705
      H   19    0.21628      0.00000     0.76843    0.01529     0.78372
      H   20    0.20077      0.00000     0.78027    0.01896     0.79923
      H   21    0.22143      0.00000     0.76396    0.01460     0.77857
      H   22    0.20289      0.00000     0.78004    0.01707     0.79711
      H   23    0.18773      0.00000     0.78941    0.02286     0.81227
      H   24    0.21560      0.00000     0.76664    0.01776     0.78440
 =======================================================================
   * Total *    0.00000     15.99518    49.53537    0.46946    66.00000

                                 Natural Population      
 --------------------------------------------------------
   Core                      15.99518 ( 99.9699% of  16)
   Valence                   49.53537 ( 99.0707% of  50)
   Natural Minimal Basis     65.53054 ( 99.2887% of  66)
   Natural Rydberg Basis      0.46946 (  0.7113% of  66)
 --------------------------------------------------------

    Atom  No          Natural Electron Configuration
 ----------------------------------------------------------------------------
      C    1      [core]2S( 1.11)2p( 3.40)3p( 0.01)
      N    2      [core]2S( 1.30)2p( 3.96)3p( 0.01)
      C    3      [core]2S( 1.12)2p( 3.39)3p( 0.01)
      C    4      [core]2S( 1.04)2p( 3.25)3p( 0.02)
      C    5      [core]2S( 1.04)2p( 3.25)3p( 0.02)
      N    6      [core]2S( 1.30)2p( 3.96)3p( 0.01)
      C    7      [core]2S( 1.11)2p( 3.40)3p( 0.01)
      C    8      [core]2S( 1.12)2p( 3.39)3p( 0.01)
      H    9            1S( 0.77)2S( 0.01)
      H   10            1S( 0.76)2S( 0.01)
      H   11            1S( 0.78)2S( 0.02)
      H   12            1S( 0.77)2S( 0.02)
      H   13            1S( 0.78)2S( 0.02)
      H   14            1S( 0.79)2S( 0.02)
      H   15            1S( 0.79)2S( 0.03)
      H   16            1S( 0.77)2S( 0.02)
      H   17            1S( 0.77)2S( 0.02)
      H   18            1S( 0.79)2S( 0.03)
      H   19            1S( 0.77)2S( 0.01)
      H   20            1S( 0.78)2S( 0.02)
      H   21            1S( 0.76)2S( 0.01)
      H   22            1S( 0.78)2S( 0.02)
      H   23            1S( 0.79)2S( 0.02)
      H   24            1S( 0.77)2S( 0.02)


 NBO analysis skipped by request.
 1\1\GINC-CN33\SP\RB3LYP TD-FC\6-31G(d,p)\C6H16N2\QDUEZ\11-Jul-2024\0\\
 # TD(NStates=10, Root=1) B3LYP/6-31G** SCRF=(Solvent=water) volume pop
 =NPA density=current Geom=AllCheck Guess=Read\\KWYHDKDOAIKMQN-UHFFFAOY
 SA-N_conf_0\\0,1\C,0,2.7653366137,-1.3028440386,-0.2300988187\N,0,1.79
 25872564,-0.4711833607,0.4739547971\C,0,2.4164029965,0.7771641197,0.90
 72881586\C,0,0.5985142119,-0.2475261418,-0.3470139535\C,0,-0.598513596
 1,0.2475286392,0.4756147286\N,0,-1.7925875836,0.4711811196,-0.34535407
 73\C,0,-2.765336199,1.3028464191,0.3586950898\C,0,-2.4164039363,-0.777
 1689702,-0.7786790141\H,0,3.6231665221,-1.4985510412,0.4212407579\H,0,
 3.1468419718,-0.8368493935,-1.1586409436\H,0,2.3132331466,-2.263453865
 ,-0.4957387113\H,0,2.7599789653,1.4019798588,0.0605584239\H,0,1.722224
 3632,1.3726801191,1.5052398333\H,0,3.2848115822,0.5530478204,1.5344634
 715\H,0,0.345036937,-1.2045215051,-0.8138253406\H,0,0.7883168823,0.467
 2585632,-1.1707990574\H,0,-0.7883142472,-0.4672543143,1.2994017663\H,0
 ,-0.3450379167,1.2045257438,0.9424233701\H,0,-3.623166647,1.4985493467
 ,-0.2926450078\H,0,-2.3132324074,2.2634579069,0.624328408\H,0,-3.14684
 08551,0.8368577545,1.287240503\H,0,-1.7222252334,-1.3726897612,-1.3766
 258518\H,0,-3.2848119179,-0.5530565987,-1.4058565855\H,0,-2.7599809091
 ,-1.4019784209,0.068054949\\Version=EM64L-G16RevA.03\State=1-A\HF=-347
 .7696078\RMSD=4.142e-09\Dipole=0.0000007,0.0000036,0.0000055\Quadrupol
 e=2.3150305,-0.9729303,-1.3421002,-0.2847849,-1.6456266,0.6395887\PG=C
 01 [X(C6H16N2)]\\@


 I MET A TRAVELLER FROM AN ANTIQUE LAND
 WHO SAID... TWO VAST AND TRUNKLESS LEGS OF STONE
 STAND IN THE DESERT..... NEAR THEM,  ON THE SAND,
 HALF SUNK,  A SHATTERED VISAGE LIES,  WHOSE FROWN,
 AND WRINKLED LIP,  AND SNEER OF COLD COMMAND
 TELL THAT ITS SCULPTOR WELL THOSE PASSIONS READ
 WHICH YET SURVIVE,  STAMPED ON THESE LIFELESS THINGS
 THE HAND THAT MOCKED THEM,  AND THE HEART THAT FED-
 AND ON THE PEDESTAL THESE WORDS APPEAR 
 MY NAME IS OZYMANDIAS, KING OF KINGS--   
 LOOK ON MY WORKS YE MIGHTY AND DESPAIR. 
 NOTHING BESIDE REMAINS,  ROUND THE DECAY 
 OF THAT COLOSSAL WRECK,  BOUNDLESS AND BARE
 THE LONE AND LEVEL SANDS STRETCH FAR AWAY.
                                    SHELLEY
 Job cpu time:       0 days  0 hours 56 minutes 30.2 seconds.
 Elapsed time:       0 days  0 hours 22 minutes  2.9 seconds.
 File lengths (MBytes):  RWF=    374 Int=      0 D2E=      0 Chk=     24 Scr=      1
 Normal termination of Gaussian 16 at Thu Jul 11 20:44:41 2024.
