 Entering Gaussian System, Link 0=g16
 Initial command:
 /opt/sw/arch/manual/gaussian/G16_A03/g16/l1.exe "/scratch/1381535/Gau-37401.inp" -scrdir="/scratch/1381535/"
 Entering Link 1 = /opt/sw/arch/manual/gaussian/G16_A03/g16/l1.exe PID=     37402.
  
 Copyright (c) 1988,1990,1992,1993,1995,1998,2003,2009,2016,
            Gaussian, Inc.  All Rights Reserved.
  
 This is part of the Gaussian(R) 16 program.  It is based on
 the Gaussian(R) 09 system (copyright 2009, Gaussian, Inc.),
 the Gaussian(R) 03 system (copyright 2003, Gaussian, Inc.),
 the Gaussian(R) 98 system (copyright 1998, Gaussian, Inc.),
 the Gaussian(R) 94 system (copyright 1995, Gaussian, Inc.),
 the Gaussian 92(TM) system (copyright 1992, Gaussian, Inc.),
 the Gaussian 90(TM) system (copyright 1990, Gaussian, Inc.),
 the Gaussian 88(TM) system (copyright 1988, Gaussian, Inc.),
 the Gaussian 86(TM) system (copyright 1986, Carnegie Mellon
 University), and the Gaussian 82(TM) system (copyright 1983,
 Carnegie Mellon University). Gaussian is a federally registered
 trademark of Gaussian, Inc.
  
 This software contains proprietary and confidential information,
 including trade secrets, belonging to Gaussian, Inc.
  
 This software is provided under written license and may be
 used, copied, transmitted, or stored only in accord with that
 written license.
  
 The following legend is applicable only to US Government
 contracts under FAR:
  
                    RESTRICTED RIGHTS LEGEND
  
 Use, reproduction and disclosure by the US Government is
 subject to restrictions as set forth in subparagraphs (a)
 and (c) of the Commercial Computer Software - Restricted
 Rights clause in FAR 52.227-19.
  
 Gaussian, Inc.
 340 Quinnipiac St., Bldg. 40, Wallingford CT 06492
  
  
 ---------------------------------------------------------------
 Warning -- This program may not be used in any manner that
 competes with the business of Gaussian, Inc. or will provide
 assistance to any competitor of Gaussian, Inc.  The licensee
 of this program is prohibited from giving any competitor of
 Gaussian, Inc. access to this program.  By using this program,
 the user acknowledges that Gaussian, Inc. is engaged in the
 business of creating and licensing software in the field of
 computational chemistry and represents and warrants to the
 licensee that it is not a competitor of Gaussian, Inc. and that
 it will not use this program in any manner prohibited above.
 ---------------------------------------------------------------
  

 Cite this work as:
 Gaussian 16, Revision A.03,
 M. J. Frisch, G. W. Trucks, H. B. Schlegel, G. E. Scuseria, 
 M. A. Robb, J. R. Cheeseman, G. Scalmani, V. Barone, 
 G. A. Petersson, H. Nakatsuji, X. Li, M. Caricato, A. V. Marenich, 
 J. Bloino, B. G. Janesko, R. Gomperts, B. Mennucci, H. P. Hratchian, 
 J. V. Ortiz, A. F. Izmaylov, J. L. Sonnenberg, D. Williams-Young, 
 F. Ding, F. Lipparini, F. Egidi, J. Goings, B. Peng, A. Petrone, 
 T. Henderson, D. Ranasinghe, V. G. Zakrzewski, J. Gao, N. Rega, 
 G. Zheng, W. Liang, M. Hada, M. Ehara, K. Toyota, R. Fukuda, 
 J. Hasegawa, M. Ishida, T. Nakajima, Y. Honda, O. Kitao, H. Nakai, 
 T. Vreven, K. Throssell, J. A. Montgomery, Jr., J. E. Peralta, 
 F. Ogliaro, M. J. Bearpark, J. J. Heyd, E. N. Brothers, K. N. Kudin, 
 V. N. Staroverov, T. A. Keith, R. Kobayashi, J. Normand, 
 K. Raghavachari, A. P. Rendell, J. C. Burant, S. S. Iyengar, 
 J. Tomasi, M. Cossi, J. M. Millam, M. Klene, C. Adamo, R. Cammi, 
 J. W. Ochterski, R. L. Martin, K. Morokuma, O. Farkas, 
 J. B. Foresman, and D. J. Fox, Gaussian, Inc., Wallingford CT, 2016.
 
 ******************************************
 Gaussian 16:  ES64L-G16RevA.03 25-Dec-2016
                21-Jul-2024 
 ******************************************
 %nprocshared=8
 Will use up to    8 processors via shared memory.
 %mem=16GB
 %Chk=ZWRBLCDTKAWRHT-UHFFFAOYSA-N_conf_3_0.chk
 -------------------------------------------------------
 # opt=CalcFc B3LYP/6-31G** SCRF=(Solvent=water) scf=xqc
 -------------------------------------------------------
 1/10=4,18=20,19=15,26=3,38=1/1,3;
 2/9=110,12=2,17=6,18=5,40=1/2;
 3/5=1,6=6,7=101,11=2,25=1,30=1,70=2201,71=2,72=1,74=-5,140=1/1,2,3;
 4//1;
 5/5=2,8=3,13=1,38=5,53=1/2,8;
 8/6=4,10=90,11=11/1;
 11/6=1,8=1,9=11,15=111,16=1/1,2,10;
 10/6=1,13=1/2;
 6/7=2,8=2,9=2,10=2,28=1/1;
 7/10=1,18=20,25=1/1,2,3,16;
 1/10=4,18=20,19=15,26=3/3(2);
 2/9=110/2;
 99//99;
 2/9=110/2;
 3/5=1,6=6,7=101,11=2,25=1,30=1,70=2205,71=1,72=1,74=-5/1,2,3;
 4/5=5,16=3,69=1/1;
 5/5=2,8=3,13=1,38=5,53=1/2,8;
 7//1,2,3,16;
 1/18=20,19=15,26=3/3(-5);
 2/9=110/2;
 6/7=2,8=2,9=2,10=2,19=2,28=1/1;
 99/9=1/99;
 ----------------------------------
 ZWRBLCDTKAWRHT-UHFFFAOYSA-N_conf_3
 ----------------------------------
 Symbolic Z-matrix:
 Charge =  0 Multiplicity = 1
 C                     3.67066  -1.80537   0.14677 
 Si                    2.73775  -0.22024  -0.22858 
 C                     3.19819   0.36591  -1.9528 
 C                     3.24324   1.11966   1.0407 
 C                     4.70206   1.16799   1.51194 
 C                     5.74735   1.56252   0.46413 
 N                     5.49869   2.86828  -0.13074 
 O                     1.08962  -0.46047  -0.11521 
 Si                   -0.16678  -1.34676  -0.7556 
 C                     0.11966  -3.18382  -0.49268 
 C                    -0.31628  -1.04629  -2.60302 
 O                    -1.55354  -0.85239   0.02467 
 Si                   -3.17548  -1.20393   0.17808 
 C                    -3.43051  -2.81861   1.10746 
 C                    -4.04542   0.18271   1.17607 
 C                    -3.95512   1.57726   0.54683 
 C                    -4.63626   2.62238   1.42972 
 N                    -4.55927   3.93899   0.80855 
 C                    -4.01389  -1.33922  -1.49751 
 H                     4.75154  -1.64563   0.08919 
 H                     3.40783  -2.58761  -0.57103 
 H                     3.43011  -2.16632   1.15111 
 H                     4.27764   0.5058   -2.05098 
 H                     2.70667   1.31688  -2.17864 
 H                     2.88717  -0.36659  -2.70331 
 H                     2.62048   0.93386   1.92503 
 H                     2.92933   2.09458   0.65176 
 H                     4.98521   0.19601   1.93482 
 H                     4.76087   1.88455   2.34219 
 H                     6.73259   1.58658   0.94391 
 H                     5.81248   0.80849  -0.32523 
 H                     4.61069   2.86507  -0.63007 
 H                     5.39912   3.56569   0.60665 
 H                    -0.71598  -3.76679  -0.89113 
 H                     0.21879  -3.40994   0.57309 
 H                     1.03208  -3.51051  -0.99976 
 H                    -1.16871  -1.59262  -3.01667 
 H                     0.58482  -1.38085  -3.1251 
 H                    -0.45816   0.0186   -2.80949 
 H                    -4.49734  -3.01873   1.24375 
 H                    -2.96051  -2.77214   2.09421 
 H                    -2.99277  -3.65563   0.55626 
 H                    -3.59417   0.19704   2.17485 
 H                    -5.09674  -0.10351   1.29628 
 H                    -4.42551   1.56796  -0.44521 
 H                    -2.90299   1.85279   0.3962 
 H                    -4.14912   2.66102   2.40986 
 H                    -5.68716   2.35817   1.58959 
 H                    -5.03794   3.92392  -0.09074 
 H                    -5.05604   4.61488   1.38679 
 H                    -3.61268  -2.18577  -2.06254 
 H                    -5.09103  -1.48791  -1.3778 
 H                    -3.85524  -0.42995  -2.08428 
 

 GradGradGradGradGradGradGradGradGradGradGradGradGradGradGradGradGradGrad
 Berny optimization.
 Initialization pass.
                           ----------------------------
                           !    Initial Parameters    !
                           ! (Angstroms and Degrees)  !
 --------------------------                            --------------------------
 ! Name  Definition              Value          Derivative Info.                !
 --------------------------------------------------------------------------------
 ! R1    R(1,2)                  1.8772         calculate D2E/DX2 analytically  !
 ! R2    R(1,20)                 1.0941         calculate D2E/DX2 analytically  !
 ! R3    R(1,21)                 1.0937         calculate D2E/DX2 analytically  !
 ! R4    R(1,22)                 1.094          calculate D2E/DX2 analytically  !
 ! R5    R(2,3)                  1.8784         calculate D2E/DX2 analytically  !
 ! R6    R(2,4)                  1.9136         calculate D2E/DX2 analytically  !
 ! R7    R(2,8)                  1.6694         calculate D2E/DX2 analytically  !
 ! R8    R(3,23)                 1.0929         calculate D2E/DX2 analytically  !
 ! R9    R(3,24)                 1.094          calculate D2E/DX2 analytically  !
 ! R10   R(3,25)                 1.0939         calculate D2E/DX2 analytically  !
 ! R11   R(4,5)                  1.5338         calculate D2E/DX2 analytically  !
 ! R12   R(4,26)                 1.0974         calculate D2E/DX2 analytically  !
 ! R13   R(4,27)                 1.0956         calculate D2E/DX2 analytically  !
 ! R14   R(5,6)                  1.5317         calculate D2E/DX2 analytically  !
 ! R15   R(5,28)                 1.0972         calculate D2E/DX2 analytically  !
 ! R16   R(5,29)                 1.0983         calculate D2E/DX2 analytically  !
 ! R17   R(6,7)                  1.4563         calculate D2E/DX2 analytically  !
 ! R18   R(6,30)                 1.0961         calculate D2E/DX2 analytically  !
 ! R19   R(6,31)                 1.0936         calculate D2E/DX2 analytically  !
 ! R20   R(7,32)                 1.0188         calculate D2E/DX2 analytically  !
 ! R21   R(7,33)                 1.0198         calculate D2E/DX2 analytically  !
 ! R22   R(8,9)                  1.6656         calculate D2E/DX2 analytically  !
 ! R23   R(9,10)                 1.8778         calculate D2E/DX2 analytically  !
 ! R24   R(9,11)                 1.8777         calculate D2E/DX2 analytically  !
 ! R25   R(9,12)                 1.6662         calculate D2E/DX2 analytically  !
 ! R26   R(10,34)                1.094          calculate D2E/DX2 analytically  !
 ! R27   R(10,35)                1.094          calculate D2E/DX2 analytically  !
 ! R28   R(10,36)                1.0938         calculate D2E/DX2 analytically  !
 ! R29   R(11,37)                1.0937         calculate D2E/DX2 analytically  !
 ! R30   R(11,38)                1.0938         calculate D2E/DX2 analytically  !
 ! R31   R(11,39)                1.094          calculate D2E/DX2 analytically  !
 ! R32   R(12,13)                1.6667         calculate D2E/DX2 analytically  !
 ! R33   R(13,14)                1.8804         calculate D2E/DX2 analytically  !
 ! R34   R(13,15)                1.9172         calculate D2E/DX2 analytically  !
 ! R35   R(13,19)                1.8785         calculate D2E/DX2 analytically  !
 ! R36   R(14,40)                1.094          calculate D2E/DX2 analytically  !
 ! R37   R(14,41)                1.094          calculate D2E/DX2 analytically  !
 ! R38   R(14,42)                1.0936         calculate D2E/DX2 analytically  !
 ! R39   R(15,16)                1.5326         calculate D2E/DX2 analytically  !
 ! R40   R(15,43)                1.0961         calculate D2E/DX2 analytically  !
 ! R41   R(15,44)                1.0962         calculate D2E/DX2 analytically  !
 ! R42   R(16,17)                1.5283         calculate D2E/DX2 analytically  !
 ! R43   R(16,45)                1.098          calculate D2E/DX2 analytically  !
 ! R44   R(16,46)                1.098          calculate D2E/DX2 analytically  !
 ! R45   R(17,18)                1.4578         calculate D2E/DX2 analytically  !
 ! R46   R(17,47)                1.0952         calculate D2E/DX2 analytically  !
 ! R47   R(17,48)                1.0953         calculate D2E/DX2 analytically  !
 ! R48   R(18,49)                1.0189         calculate D2E/DX2 analytically  !
 ! R49   R(18,50)                1.0188         calculate D2E/DX2 analytically  !
 ! R50   R(19,51)                1.094          calculate D2E/DX2 analytically  !
 ! R51   R(19,52)                1.0939         calculate D2E/DX2 analytically  !
 ! R52   R(19,53)                1.0937         calculate D2E/DX2 analytically  !
 ! A1    A(2,1,20)             110.9252         calculate D2E/DX2 analytically  !
 ! A2    A(2,1,21)             110.6882         calculate D2E/DX2 analytically  !
 ! A3    A(2,1,22)             110.6638         calculate D2E/DX2 analytically  !
 ! A4    A(20,1,21)            107.8953         calculate D2E/DX2 analytically  !
 ! A5    A(20,1,22)            108.2829         calculate D2E/DX2 analytically  !
 ! A6    A(21,1,22)            108.2815         calculate D2E/DX2 analytically  !
 ! A7    A(1,2,3)              108.9783         calculate D2E/DX2 analytically  !
 ! A8    A(1,2,4)              109.1081         calculate D2E/DX2 analytically  !
 ! A9    A(1,2,8)              110.8273         calculate D2E/DX2 analytically  !
 ! A10   A(3,2,4)              109.0014         calculate D2E/DX2 analytically  !
 ! A11   A(3,2,8)              110.4405         calculate D2E/DX2 analytically  !
 ! A12   A(4,2,8)              108.4517         calculate D2E/DX2 analytically  !
 ! A13   A(2,3,23)             111.377          calculate D2E/DX2 analytically  !
 ! A14   A(2,3,24)             110.5236         calculate D2E/DX2 analytically  !
 ! A15   A(2,3,25)             110.5564         calculate D2E/DX2 analytically  !
 ! A16   A(23,3,24)            108.2965         calculate D2E/DX2 analytically  !
 ! A17   A(23,3,25)            107.7528         calculate D2E/DX2 analytically  !
 ! A18   A(24,3,25)            108.2213         calculate D2E/DX2 analytically  !
 ! A19   A(2,4,5)              118.4954         calculate D2E/DX2 analytically  !
 ! A20   A(2,4,26)             105.4284         calculate D2E/DX2 analytically  !
 ! A21   A(2,4,27)             108.1755         calculate D2E/DX2 analytically  !
 ! A22   A(5,4,26)             107.3063         calculate D2E/DX2 analytically  !
 ! A23   A(5,4,27)             110.7044         calculate D2E/DX2 analytically  !
 ! A24   A(26,4,27)            105.9107         calculate D2E/DX2 analytically  !
 ! A25   A(4,5,6)              116.552          calculate D2E/DX2 analytically  !
 ! A26   A(4,5,28)             109.6314         calculate D2E/DX2 analytically  !
 ! A27   A(4,5,29)             107.6821         calculate D2E/DX2 analytically  !
 ! A28   A(6,5,28)             108.4051         calculate D2E/DX2 analytically  !
 ! A29   A(6,5,29)             108.212          calculate D2E/DX2 analytically  !
 ! A30   A(28,5,29)            105.8314         calculate D2E/DX2 analytically  !
 ! A31   A(5,6,7)              113.1949         calculate D2E/DX2 analytically  !
 ! A32   A(5,6,30)             108.6403         calculate D2E/DX2 analytically  !
 ! A33   A(5,6,31)             110.9048         calculate D2E/DX2 analytically  !
 ! A34   A(7,6,30)             108.2163         calculate D2E/DX2 analytically  !
 ! A35   A(7,6,31)             109.4854         calculate D2E/DX2 analytically  !
 ! A36   A(30,6,31)            106.114          calculate D2E/DX2 analytically  !
 ! A37   A(6,7,32)             110.2564         calculate D2E/DX2 analytically  !
 ! A38   A(6,7,33)             109.5416         calculate D2E/DX2 analytically  !
 ! A39   A(32,7,33)            105.7507         calculate D2E/DX2 analytically  !
 ! A40   A(2,8,9)              142.6725         calculate D2E/DX2 analytically  !
 ! A41   A(8,9,10)             110.5908         calculate D2E/DX2 analytically  !
 ! A42   A(8,9,11)             110.683          calculate D2E/DX2 analytically  !
 ! A43   A(8,9,12)             106.8507         calculate D2E/DX2 analytically  !
 ! A44   A(10,9,11)            107.8465         calculate D2E/DX2 analytically  !
 ! A45   A(10,9,12)            110.5892         calculate D2E/DX2 analytically  !
 ! A46   A(11,9,12)            110.3034         calculate D2E/DX2 analytically  !
 ! A47   A(9,10,34)            110.7198         calculate D2E/DX2 analytically  !
 ! A48   A(9,10,35)            110.6364         calculate D2E/DX2 analytically  !
 ! A49   A(9,10,36)            110.7654         calculate D2E/DX2 analytically  !
 ! A50   A(34,10,35)           108.2935         calculate D2E/DX2 analytically  !
 ! A51   A(34,10,36)           108.0086         calculate D2E/DX2 analytically  !
 ! A52   A(35,10,36)           108.3202         calculate D2E/DX2 analytically  !
 ! A53   A(9,11,37)            110.7467         calculate D2E/DX2 analytically  !
 ! A54   A(9,11,38)            110.798          calculate D2E/DX2 analytically  !
 ! A55   A(9,11,39)            110.5976         calculate D2E/DX2 analytically  !
 ! A56   A(37,11,38)           107.9843         calculate D2E/DX2 analytically  !
 ! A57   A(37,11,39)           108.2867         calculate D2E/DX2 analytically  !
 ! A58   A(38,11,39)           108.3299         calculate D2E/DX2 analytically  !
 ! A59   A(9,12,13)            142.2281         calculate D2E/DX2 analytically  !
 ! A60   A(12,13,14)           111.0141         calculate D2E/DX2 analytically  !
 ! A61   A(12,13,15)           109.6907         calculate D2E/DX2 analytically  !
 ! A62   A(12,13,19)           111.5568         calculate D2E/DX2 analytically  !
 ! A63   A(14,13,15)           107.5923         calculate D2E/DX2 analytically  !
 ! A64   A(14,13,19)           108.5707         calculate D2E/DX2 analytically  !
 ! A65   A(15,13,19)           108.2935         calculate D2E/DX2 analytically  !
 ! A66   A(13,14,40)           110.5438         calculate D2E/DX2 analytically  !
 ! A67   A(13,14,41)           110.5521         calculate D2E/DX2 analytically  !
 ! A68   A(13,14,42)           110.7208         calculate D2E/DX2 analytically  !
 ! A69   A(40,14,41)           108.3229         calculate D2E/DX2 analytically  !
 ! A70   A(40,14,42)           108.2475         calculate D2E/DX2 analytically  !
 ! A71   A(41,14,42)           108.3698         calculate D2E/DX2 analytically  !
 ! A72   A(13,15,16)           114.6874         calculate D2E/DX2 analytically  !
 ! A73   A(13,15,43)           107.2767         calculate D2E/DX2 analytically  !
 ! A74   A(13,15,44)           107.6633         calculate D2E/DX2 analytically  !
 ! A75   A(16,15,43)           109.7528         calculate D2E/DX2 analytically  !
 ! A76   A(16,15,44)           109.8235         calculate D2E/DX2 analytically  !
 ! A77   A(43,15,44)           107.3568         calculate D2E/DX2 analytically  !
 ! A78   A(15,16,17)           111.0266         calculate D2E/DX2 analytically  !
 ! A79   A(15,16,45)           109.7556         calculate D2E/DX2 analytically  !
 ! A80   A(15,16,46)           109.9451         calculate D2E/DX2 analytically  !
 ! A81   A(17,16,45)           109.6835         calculate D2E/DX2 analytically  !
 ! A82   A(17,16,46)           109.5556         calculate D2E/DX2 analytically  !
 ! A83   A(45,16,46)           106.7801         calculate D2E/DX2 analytically  !
 ! A84   A(16,17,18)           110.3595         calculate D2E/DX2 analytically  !
 ! A85   A(16,17,47)           110.0536         calculate D2E/DX2 analytically  !
 ! A86   A(16,17,48)           110.3022         calculate D2E/DX2 analytically  !
 ! A87   A(18,17,47)           109.0245         calculate D2E/DX2 analytically  !
 ! A88   A(18,17,48)           109.3113         calculate D2E/DX2 analytically  !
 ! A89   A(47,17,48)           107.7364         calculate D2E/DX2 analytically  !
 ! A90   A(17,18,49)           109.7508         calculate D2E/DX2 analytically  !
 ! A91   A(17,18,50)           109.3639         calculate D2E/DX2 analytically  !
 ! A92   A(49,18,50)           106.361          calculate D2E/DX2 analytically  !
 ! A93   A(13,19,51)           110.6543         calculate D2E/DX2 analytically  !
 ! A94   A(13,19,52)           110.5879         calculate D2E/DX2 analytically  !
 ! A95   A(13,19,53)           110.7273         calculate D2E/DX2 analytically  !
 ! A96   A(51,19,52)           108.2065         calculate D2E/DX2 analytically  !
 ! A97   A(51,19,53)           108.2417         calculate D2E/DX2 analytically  !
 ! A98   A(52,19,53)           108.3329         calculate D2E/DX2 analytically  !
 ! D1    D(20,1,2,3)            59.2082         calculate D2E/DX2 analytically  !
 ! D2    D(20,1,2,4)           -59.7077         calculate D2E/DX2 analytically  !
 ! D3    D(20,1,2,8)          -179.0594         calculate D2E/DX2 analytically  !
 ! D4    D(21,1,2,3)           -60.5304         calculate D2E/DX2 analytically  !
 ! D5    D(21,1,2,4)          -179.4464         calculate D2E/DX2 analytically  !
 ! D6    D(21,1,2,8)            61.202          calculate D2E/DX2 analytically  !
 ! D7    D(22,1,2,3)           179.4175         calculate D2E/DX2 analytically  !
 ! D8    D(22,1,2,4)            60.5016         calculate D2E/DX2 analytically  !
 ! D9    D(22,1,2,8)           -58.85           calculate D2E/DX2 analytically  !
 ! D10   D(1,2,3,23)           -56.7082         calculate D2E/DX2 analytically  !
 ! D11   D(1,2,3,24)          -177.14           calculate D2E/DX2 analytically  !
 ! D12   D(1,2,3,25)            63.0602         calculate D2E/DX2 analytically  !
 ! D13   D(4,2,3,23)            62.2743         calculate D2E/DX2 analytically  !
 ! D14   D(4,2,3,24)           -58.1574         calculate D2E/DX2 analytically  !
 ! D15   D(4,2,3,25)          -177.9573         calculate D2E/DX2 analytically  !
 ! D16   D(8,2,3,23)          -178.6751         calculate D2E/DX2 analytically  !
 ! D17   D(8,2,3,24)            60.8931         calculate D2E/DX2 analytically  !
 ! D18   D(8,2,3,25)           -58.9067         calculate D2E/DX2 analytically  !
 ! D19   D(1,2,4,5)             36.9464         calculate D2E/DX2 analytically  !
 ! D20   D(1,2,4,26)           -83.1169         calculate D2E/DX2 analytically  !
 ! D21   D(1,2,4,27)           163.9331         calculate D2E/DX2 analytically  !
 ! D22   D(3,2,4,5)            -81.9552         calculate D2E/DX2 analytically  !
 ! D23   D(3,2,4,26)           157.9816         calculate D2E/DX2 analytically  !
 ! D24   D(3,2,4,27)            45.0316         calculate D2E/DX2 analytically  !
 ! D25   D(8,2,4,5)            157.7615         calculate D2E/DX2 analytically  !
 ! D26   D(8,2,4,26)            37.6983         calculate D2E/DX2 analytically  !
 ! D27   D(8,2,4,27)           -75.2517         calculate D2E/DX2 analytically  !
 ! D28   D(1,2,8,9)            -60.3577         calculate D2E/DX2 analytically  !
 ! D29   D(3,2,8,9)             60.5132         calculate D2E/DX2 analytically  !
 ! D30   D(4,2,8,9)            179.897          calculate D2E/DX2 analytically  !
 ! D31   D(2,4,5,6)             67.0634         calculate D2E/DX2 analytically  !
 ! D32   D(2,4,5,28)           -56.5092         calculate D2E/DX2 analytically  !
 ! D33   D(2,4,5,29)          -171.2            calculate D2E/DX2 analytically  !
 ! D34   D(26,4,5,6)          -173.8452         calculate D2E/DX2 analytically  !
 ! D35   D(26,4,5,28)           62.5822         calculate D2E/DX2 analytically  !
 ! D36   D(26,4,5,29)          -52.1086         calculate D2E/DX2 analytically  !
 ! D37   D(27,4,5,6)           -58.7117         calculate D2E/DX2 analytically  !
 ! D38   D(27,4,5,28)          177.7157         calculate D2E/DX2 analytically  !
 ! D39   D(27,4,5,29)           63.025          calculate D2E/DX2 analytically  !
 ! D40   D(4,5,6,7)             57.9996         calculate D2E/DX2 analytically  !
 ! D41   D(4,5,6,30)           178.229          calculate D2E/DX2 analytically  !
 ! D42   D(4,5,6,31)           -65.5141         calculate D2E/DX2 analytically  !
 ! D43   D(28,5,6,7)          -177.7985         calculate D2E/DX2 analytically  !
 ! D44   D(28,5,6,30)          -57.5692         calculate D2E/DX2 analytically  !
 ! D45   D(28,5,6,31)           58.6878         calculate D2E/DX2 analytically  !
 ! D46   D(29,5,6,7)           -63.458          calculate D2E/DX2 analytically  !
 ! D47   D(29,5,6,30)           56.7713         calculate D2E/DX2 analytically  !
 ! D48   D(29,5,6,31)          173.0282         calculate D2E/DX2 analytically  !
 ! D49   D(5,6,7,32)           -62.6089         calculate D2E/DX2 analytically  !
 ! D50   D(5,6,7,33)            53.3688         calculate D2E/DX2 analytically  !
 ! D51   D(30,6,7,32)          176.9204         calculate D2E/DX2 analytically  !
 ! D52   D(30,6,7,33)          -67.1019         calculate D2E/DX2 analytically  !
 ! D53   D(31,6,7,32)           61.6817         calculate D2E/DX2 analytically  !
 ! D54   D(31,6,7,33)          177.6594         calculate D2E/DX2 analytically  !
 ! D55   D(2,8,9,10)            60.4474         calculate D2E/DX2 analytically  !
 ! D56   D(2,8,9,11)           -59.0097         calculate D2E/DX2 analytically  !
 ! D57   D(2,8,9,12)          -179.1343         calculate D2E/DX2 analytically  !
 ! D58   D(8,9,10,34)          178.6356         calculate D2E/DX2 analytically  !
 ! D59   D(8,9,10,35)           58.5658         calculate D2E/DX2 analytically  !
 ! D60   D(8,9,10,36)          -61.5673         calculate D2E/DX2 analytically  !
 ! D61   D(11,9,10,34)         -60.2109         calculate D2E/DX2 analytically  !
 ! D62   D(11,9,10,35)         179.7192         calculate D2E/DX2 analytically  !
 ! D63   D(11,9,10,36)          59.5861         calculate D2E/DX2 analytically  !
 ! D64   D(12,9,10,34)          60.4764         calculate D2E/DX2 analytically  !
 ! D65   D(12,9,10,35)         -59.5934         calculate D2E/DX2 analytically  !
 ! D66   D(12,9,10,36)        -179.7265         calculate D2E/DX2 analytically  !
 ! D67   D(8,9,11,37)         -177.4521         calculate D2E/DX2 analytically  !
 ! D68   D(8,9,11,38)           62.7424         calculate D2E/DX2 analytically  !
 ! D69   D(8,9,11,39)          -57.3988         calculate D2E/DX2 analytically  !
 ! D70   D(10,9,11,37)          61.4519         calculate D2E/DX2 analytically  !
 ! D71   D(10,9,11,38)         -58.3536         calculate D2E/DX2 analytically  !
 ! D72   D(10,9,11,39)        -178.4947         calculate D2E/DX2 analytically  !
 ! D73   D(12,9,11,37)         -59.4144         calculate D2E/DX2 analytically  !
 ! D74   D(12,9,11,38)        -179.2199         calculate D2E/DX2 analytically  !
 ! D75   D(12,9,11,39)          60.639          calculate D2E/DX2 analytically  !
 ! D76   D(8,9,12,13)         -172.9561         calculate D2E/DX2 analytically  !
 ! D77   D(10,9,12,13)         -52.5368         calculate D2E/DX2 analytically  !
 ! D78   D(11,9,12,13)          66.676          calculate D2E/DX2 analytically  !
 ! D79   D(9,12,13,14)          70.1761         calculate D2E/DX2 analytically  !
 ! D80   D(9,12,13,15)        -171.0498         calculate D2E/DX2 analytically  !
 ! D81   D(9,12,13,19)         -51.0611         calculate D2E/DX2 analytically  !
 ! D82   D(12,13,14,40)        177.4147         calculate D2E/DX2 analytically  !
 ! D83   D(12,13,14,41)         57.4776         calculate D2E/DX2 analytically  !
 ! D84   D(12,13,14,42)        -62.6332         calculate D2E/DX2 analytically  !
 ! D85   D(15,13,14,40)         57.3843         calculate D2E/DX2 analytically  !
 ! D86   D(15,13,14,41)        -62.5527         calculate D2E/DX2 analytically  !
 ! D87   D(15,13,14,42)        177.3365         calculate D2E/DX2 analytically  !
 ! D88   D(19,13,14,40)        -59.6097         calculate D2E/DX2 analytically  !
 ! D89   D(19,13,14,41)       -179.5467         calculate D2E/DX2 analytically  !
 ! D90   D(19,13,14,42)         60.3425         calculate D2E/DX2 analytically  !
 ! D91   D(12,13,15,16)         59.9959         calculate D2E/DX2 analytically  !
 ! D92   D(12,13,15,43)        -62.179          calculate D2E/DX2 analytically  !
 ! D93   D(12,13,15,44)       -177.4508         calculate D2E/DX2 analytically  !
 ! D94   D(14,13,15,16)       -179.1385         calculate D2E/DX2 analytically  !
 ! D95   D(14,13,15,43)         58.6865         calculate D2E/DX2 analytically  !
 ! D96   D(14,13,15,44)        -56.5853         calculate D2E/DX2 analytically  !
 ! D97   D(19,13,15,16)        -61.9638         calculate D2E/DX2 analytically  !
 ! D98   D(19,13,15,43)        175.8612         calculate D2E/DX2 analytically  !
 ! D99   D(19,13,15,44)         60.5894         calculate D2E/DX2 analytically  !
 ! D100  D(12,13,19,51)         64.7807         calculate D2E/DX2 analytically  !
 ! D101  D(12,13,19,52)       -175.3329         calculate D2E/DX2 analytically  !
 ! D102  D(12,13,19,53)        -55.2407         calculate D2E/DX2 analytically  !
 ! D103  D(14,13,19,51)        -57.867          calculate D2E/DX2 analytically  !
 ! D104  D(14,13,19,52)         62.0194         calculate D2E/DX2 analytically  !
 ! D105  D(14,13,19,53)       -177.8884         calculate D2E/DX2 analytically  !
 ! D106  D(15,13,19,51)       -174.4109         calculate D2E/DX2 analytically  !
 ! D107  D(15,13,19,52)        -54.5245         calculate D2E/DX2 analytically  !
 ! D108  D(15,13,19,53)         65.5677         calculate D2E/DX2 analytically  !
 ! D109  D(13,15,16,17)       -178.2351         calculate D2E/DX2 analytically  !
 ! D110  D(13,15,16,45)         60.3338         calculate D2E/DX2 analytically  !
 ! D111  D(13,15,16,46)        -56.8377         calculate D2E/DX2 analytically  !
 ! D112  D(43,15,16,17)        -57.4136         calculate D2E/DX2 analytically  !
 ! D113  D(43,15,16,45)       -178.8446         calculate D2E/DX2 analytically  !
 ! D114  D(43,15,16,46)         63.9839         calculate D2E/DX2 analytically  !
 ! D115  D(44,15,16,17)         60.3864         calculate D2E/DX2 analytically  !
 ! D116  D(44,15,16,45)        -61.0447         calculate D2E/DX2 analytically  !
 ! D117  D(44,15,16,46)       -178.2162         calculate D2E/DX2 analytically  !
 ! D118  D(15,16,17,18)       -179.1576         calculate D2E/DX2 analytically  !
 ! D119  D(15,16,17,47)         60.4717         calculate D2E/DX2 analytically  !
 ! D120  D(15,16,17,48)        -58.2677         calculate D2E/DX2 analytically  !
 ! D121  D(45,16,17,18)        -57.6843         calculate D2E/DX2 analytically  !
 ! D122  D(45,16,17,47)       -178.055          calculate D2E/DX2 analytically  !
 ! D123  D(45,16,17,48)         63.2056         calculate D2E/DX2 analytically  !
 ! D124  D(46,16,17,18)         59.2169         calculate D2E/DX2 analytically  !
 ! D125  D(46,16,17,47)        -61.1539         calculate D2E/DX2 analytically  !
 ! D126  D(46,16,17,48)       -179.8933         calculate D2E/DX2 analytically  !
 ! D127  D(16,17,18,49)         60.9696         calculate D2E/DX2 analytically  !
 ! D128  D(16,17,18,50)        177.2925         calculate D2E/DX2 analytically  !
 ! D129  D(47,17,18,49)       -178.044          calculate D2E/DX2 analytically  !
 ! D130  D(47,17,18,50)        -61.7211         calculate D2E/DX2 analytically  !
 ! D131  D(48,17,18,49)        -60.5099         calculate D2E/DX2 analytically  !
 ! D132  D(48,17,18,50)         55.813          calculate D2E/DX2 analytically  !
 --------------------------------------------------------------------------------
 Trust Radius=3.00D-01 FncErr=1.00D-07 GrdErr=1.00D-06 EigMax=2.50D+02 EigMin=1.00D-04
 Number of steps in this run=    292 maximum allowed number of steps=    318.
 GradGradGradGradGradGradGradGradGradGradGradGradGradGradGradGradGradGrad

 Stoichiometry    C12H34N2O2Si3
 Framework group  C1[X(C12H34N2O2Si3)]
 Deg. of freedom   153
 Full point group                 C1      NOp   1
 Largest Abelian subgroup         C1      NOp   1
 Largest concise Abelian subgroup C1      NOp   1
                         Standard orientation:                         
 ---------------------------------------------------------------------
 Center     Atomic      Atomic             Coordinates (Angstroms)
 Number     Number       Type             X           Y           Z
 ---------------------------------------------------------------------
      1          6           0       -3.564509   -1.797335   -0.864683
      2         14           0       -2.750656   -0.345714    0.003828
      3          6           0       -3.311309   -0.313884    1.796363
      4          6           0       -3.294739    1.279122   -0.848112
      5          6           0       -4.735273    1.388411   -1.363365
      6          6           0       -5.841814    1.405162   -0.304371
      7          7           0       -5.700314    2.490771    0.655913
      8          8           0       -1.087375   -0.457567   -0.084912
      9         14           0        0.199321   -1.426871    0.338181
     10          6           0        0.042321   -3.118842   -0.460913
     11          6           0        0.260876   -1.672636    2.198669
     12          8           0        1.578972   -0.655572   -0.189085
     13         14           0        3.224813   -0.863351   -0.349763
     14          6           0        3.617942   -2.120319   -1.691946
     15          6           0        4.039323    0.797187   -0.854484
     16          6           0        3.835783    1.940176    0.146021
     17          6           0        4.479885    3.231258   -0.357907
     18          7           0        4.294970    4.302860    0.613032
     19          6           0        4.007914   -1.439698    1.257537
     20          1           0       -4.654848   -1.716982   -0.821870
     21          1           0       -3.278203   -2.740785   -0.391243
     22          1           0       -3.264240   -1.835933   -1.915970
     23          1           0       -4.400434   -0.264286    1.872290
     24          1           0       -2.891059    0.553304    2.314353
     25          1           0       -2.981373   -1.216938    2.318092
     26          1           0       -2.629096    1.392235   -1.713279
     27          1           0       -3.059167    2.112385   -0.176953
     28          1           0       -4.939113    0.569463   -2.064448
     29          1           0       -4.809722    2.312478   -1.952252
     30          1           0       -6.808191    1.518019   -0.809184
     31          1           0       -5.887021    0.450925    0.227877
     32          1           0       -4.832972    2.387118    1.180189
     33          1           0       -5.619014    3.377497    0.158790
     34          1           0        0.898704   -3.749273   -0.203869
     35          1           0       -0.002615   -3.028112   -1.550208
     36          1           0       -0.865087   -3.625824   -0.120421
     37          1           0        1.131078   -2.271671    2.481762
     38          1           0       -0.635293   -2.190946    2.551831
     39          1           0        0.325800   -0.708907    2.712235
     40          1           0        4.699784   -2.216932   -1.822437
     41          1           0        3.182592   -1.811399   -2.646821
     42          1           0        3.215303   -3.103220   -1.431499
     43          1           0        3.625201    1.079900   -1.829151
     44          1           0        5.110682    0.612858   -0.995400
     45          1           0        4.268912    1.665216    1.116740
     46          1           0        2.763183    2.105350    0.312857
     47          1           0        4.027719    3.529900   -1.309651
     48          1           0        5.550865    3.079534   -0.530354
     49          1           0        4.740145    4.049954    1.493895
     50          1           0        4.767898    5.142829    0.283243
     51          1           0        3.641819   -2.433872    1.530418
     52          1           0        5.096098   -1.491522    1.158355
     53          1           0        3.769209   -0.751183    2.073137
 ---------------------------------------------------------------------
 Rotational constants (GHZ):           0.3473177           0.1208724           0.1006757
 Standard basis: 6-31G(d,p) (6D, 7F)
 There are   467 symmetry adapted cartesian basis functions of A   symmetry.
 There are   467 symmetry adapted basis functions of A   symmetry.
   467 basis functions,   842 primitive gaussians,   467 cartesian basis functions
    89 alpha electrons       89 beta electrons
       nuclear repulsion energy      1991.7680445819 Hartrees.
 NAtoms=   53 NActive=   53 NUniq=   53 SFac= 1.00D+00 NAtFMM=   60 NAOKFM=F Big=F
 Integral buffers will be    131072 words long.
 Raffenetti 2 integral format.
 Two-electron integral symmetry is turned on.
 Force inversion solution in PCM.
 ------------------------------------------------------------------------------
 Polarizable Continuum Model (PCM)
 =================================
 Model                : PCM.
 Atomic radii         : UFF (Universal Force Field).
 Polarization charges : Total charges.
 Charge compensation  : None.
 Solution method      : Matrix inversion.
 Cavity type          : Scaled VdW (van der Waals Surface) (Alpha=1.100).
 Cavity algorithm     : GePol (No added spheres)
                        Default sphere list used, NSphG=   53.
                        Lebedev-Laikov grids with approx.  5.0 points / Ang**2.
                        Smoothing algorithm: York/Karplus (Gamma=1.0000).
                        Polarization charges: spherical gaussians, with
                                              point-specific exponents (IZeta= 3).
                        Self-potential: point-specific (ISelfS= 7).
                        Self-field    : sphere-specific E.n sum rule (ISelfD= 2).
 1st derivatives      : Analytical E(r).r(x)/FMM algorithm (CHGder, D1EAlg=3).
                        Cavity 1st derivative terms included.
 2nd derivatives      : Analytical E(r).r(xy)/FMM algorithm (CHGder, D2EAlg=3).
                        Cavity 2nd derivative terms included.
 Solvent              : Water, Eps=  78.355300 Eps(inf)=   1.777849
 ------------------------------------------------------------------------------
 One-electron integrals computed using PRISM.
 NBasis=   467 RedAO= T EigKep=  3.31D-03  NBF=   467
 NBsUse=   467 1.00D-06 EigRej= -1.00D+00 NBFU=   467
 ExpMin= 7.78D-02 ExpMax= 1.61D+04 ExpMxC= 2.43D+03 IAcc=3 IRadAn=         5 AccDes= 0.00D+00
 Harris functional with IExCor=  402 and IRadAn=       5 diagonalized for initial guess.
 HarFok:  IExCor=  402 AccDes= 0.00D+00 IRadAn=         5 IDoV= 1 UseB2=F ITyADJ=14
 ICtDFT=  3500011 ScaDFX=  1.000000  1.000000  1.000000  1.000000
 FoFCou: FMM=F IPFlag=           0 FMFlag=      100000 FMFlg1=           0
         NFxFlg=           0 DoJE=T BraDBF=F KetDBF=T FulRan=T
         wScrn=  0.000000 ICntrl=       500 IOpCl=  0 I1Cent=   200000004 NGrid=           0
         NMat0=    1 NMatS0=      1 NMatT0=    0 NMatD0=    1 NMtDS0=    0 NMtDT0=    0
 Petite list used in FoFCou.
 Requested convergence on RMS density matrix=1.00D-08 within  32 cycles.
 Requested convergence on MAX density matrix=1.00D-06.
 Requested convergence on             energy=1.00D-06.
 No special actions if energy rises.
 Inv3:  Mode=1 IEnd=    43297203.
 Iteration    1 A*A^-1 deviation from unit magnitude is 3.44D-15 for   2804.
 Iteration    1 A*A^-1 deviation from orthogonality  is 2.05D-15 for   2925   2069.
 Iteration    1 A^-1*A deviation from unit magnitude is 3.44D-15 for   2804.
 Iteration    1 A^-1*A deviation from orthogonality  is 2.00D-14 for   3384   3372.
 Error on total polarization charges =  0.01391
 SCF Done:  E(RB3LYP) =  -1606.52059238     A.U. after   11 cycles
            NFock= 11  Conv=0.93D-08     -V/T= 2.0067
 QCSCF skips out because SCF is already converged.
 DoSCS=F DFT=T ScalE2(SS,OS)=  1.000000  1.000000
 Range of M.O.s used for correlation:     1   467
 NBasis=   467 NAE=    89 NBE=    89 NFC=     0 NFV=     0
 NROrb=    467 NOA=    89 NOB=    89 NVA=   378 NVB=   378
 Symmetrizing basis deriv contribution to polar:
 IMax=3 JMax=2 DiffMx= 0.00D+00
 G2DrvN: will do    54 centers at a time, making    1 passes.
 Calling FoFCou, ICntrl=  3107 FMM=F I1Cent=   0 AccDes= 0.00D+00.
 NEqPCM:  Using equilibrium solvation (IEInf=0, Eps=  78.3553, EpsInf=   1.7778)
 G2PCM: DoFxE=T DoFxN=T DoGrad=T DoDP/DQ/DG/TGxP=FFFF NFrqRd=   0 IEInf=0 SqF1=F DoCFld=F IF1Alg=4.
 End of G2Drv F.D. properties file   721 does not exist.
 End of G2Drv F.D. properties file   722 does not exist.
 End of G2Drv F.D. properties file   788 does not exist.
          IDoAtm=11111111111111111111111111111111111111111111111111
          IDoAtm=111
 NEqPCM:  Using equilibrium solvation (IEInf=0, Eps=  78.3553, EpsInf=   1.7778)
          Differentiating once with respect to nuclear coordinates.
 CalDSu exits because no D1Ps are significant.
          There are   162 degrees of freedom in the 1st order CPHF.  IDoFFX=6 NUNeed=     0.
    156 vectors produced by pass  0 Test12= 3.36D-14 1.00D-09 XBig12= 8.14D-02 5.84D-02.
 AX will form   156 AO Fock derivatives at one time.
    156 vectors produced by pass  1 Test12= 3.36D-14 1.00D-09 XBig12= 3.16D-02 1.79D-02.
    156 vectors produced by pass  2 Test12= 3.36D-14 1.00D-09 XBig12= 2.11D-04 1.35D-03.
    156 vectors produced by pass  3 Test12= 3.36D-14 1.00D-09 XBig12= 6.26D-07 4.84D-05.
    156 vectors produced by pass  4 Test12= 3.36D-14 1.00D-09 XBig12= 7.30D-10 1.75D-06.
     63 vectors produced by pass  5 Test12= 3.36D-14 1.00D-09 XBig12= 4.76D-13 4.79D-08.
      1 vectors produced by pass  6 Test12= 3.36D-14 1.00D-09 XBig12= 3.10D-16 1.50D-09.
 InvSVY:  IOpt=1 It=  1 EMax= 3.05D-16
 Solved reduced A of dimension   844 with   162 vectors.
 End of Minotr F.D. properties file   721 does not exist.
 End of Minotr F.D. properties file   722 does not exist.
 End of Minotr F.D. properties file   788 does not exist.

 **********************************************************************

            Population analysis using the SCF density.

 **********************************************************************

 Orbital symmetries:
       Occupied  (A) (A) (A) (A) (A) (A) (A) (A) (A) (A) (A) (A)
                 (A) (A) (A) (A) (A) (A) (A) (A) (A) (A) (A) (A)
                 (A) (A) (A) (A) (A) (A) (A) (A) (A) (A) (A) (A)
                 (A) (A) (A) (A) (A) (A) (A) (A) (A) (A) (A) (A)
                 (A) (A) (A) (A) (A) (A) (A) (A) (A) (A) (A) (A)
                 (A) (A) (A) (A) (A) (A) (A) (A) (A) (A) (A) (A)
                 (A) (A) (A) (A) (A) (A) (A) (A) (A) (A) (A) (A)
                 (A) (A) (A) (A) (A)
       Virtual   (A) (A) (A) (A) (A) (A) (A) (A) (A) (A) (A) (A)
                 (A) (A) (A) (A) (A) (A) (A) (A) (A) (A) (A) (A)
                 (A) (A) (A) (A) (A) (A) (A) (A) (A) (A) (A) (A)
                 (A) (A) (A) (A) (A) (A) (A) (A) (A) (A) (A) (A)
                 (A) (A) (A) (A) (A) (A) (A) (A) (A) (A) (A) (A)
                 (A) (A) (A) (A) (A) (A) (A) (A) (A) (A) (A) (A)
                 (A) (A) (A) (A) (A) (A) (A) (A) (A) (A) (A) (A)
                 (A) (A) (A) (A) (A) (A) (A) (A) (A) (A) (A) (A)
                 (A) (A) (A) (A) (A) (A) (A) (A) (A) (A) (A) (A)
                 (A) (A) (A) (A) (A) (A) (A) (A) (A) (A) (A) (A)
                 (A) (A) (A) (A) (A) (A) (A) (A) (A) (A) (A) (A)
                 (A) (A) (A) (A) (A) (A) (A) (A) (A) (A) (A) (A)
                 (A) (A) (A) (A) (A) (A) (A) (A) (A) (A) (A) (A)
                 (A) (A) (A) (A) (A) (A) (A) (A) (A) (A) (A) (A)
                 (A) (A) (A) (A) (A) (A) (A) (A) (A) (A) (A) (A)
                 (A) (A) (A) (A) (A) (A) (A) (A) (A) (A) (A) (A)
                 (A) (A) (A) (A) (A) (A) (A) (A) (A) (A) (A) (A)
                 (A) (A) (A) (A) (A) (A) (A) (A) (A) (A) (A) (A)
                 (A) (A) (A) (A) (A) (A) (A) (A) (A) (A) (A) (A)
                 (A) (A) (A) (A) (A) (A) (A) (A) (A) (A) (A) (A)
                 (A) (A) (A) (A) (A) (A) (A) (A) (A) (A) (A) (A)
                 (A) (A) (A) (A) (A) (A) (A) (A) (A) (A) (A) (A)
                 (A) (A) (A) (A) (A) (A) (A) (A) (A) (A) (A) (A)
                 (A) (A) (A) (A) (A) (A) (A) (A) (A) (A) (A) (A)
                 (A) (A) (A) (A) (A) (A) (A) (A) (A) (A) (A) (A)
                 (A) (A) (A) (A) (A) (A) (A) (A) (A) (A) (A) (A)
                 (A) (A) (A) (A) (A) (A) (A) (A) (A) (A) (A) (A)
                 (A) (A) (A) (A) (A) (A) (A) (A) (A) (A) (A) (A)
                 (A) (A) (A) (A) (A) (A) (A) (A) (A) (A) (A) (A)
                 (A) (A) (A) (A) (A) (A) (A) (A) (A) (A) (A) (A)
                 (A) (A) (A) (A) (A) (A) (A) (A) (A) (A) (A) (A)
                 (A) (A) (A) (A) (A) (A)
 The electronic state is 1-A.
 Alpha  occ. eigenvalues --  -66.16965 -66.14035 -66.13886 -19.13569 -19.13568
 Alpha  occ. eigenvalues --  -14.30756 -14.30324 -10.20009 -10.19639 -10.17612
 Alpha  occ. eigenvalues --  -10.17589 -10.16000 -10.15925 -10.15814 -10.15771
 Alpha  occ. eigenvalues --  -10.15567 -10.15561 -10.15540 -10.15484  -5.30576
 Alpha  occ. eigenvalues --   -5.28076  -5.27944  -3.66666  -3.66535  -3.66315
 Alpha  occ. eigenvalues --   -3.64164  -3.64030  -3.63880  -3.63874  -3.63747
 Alpha  occ. eigenvalues --   -3.63739  -0.98207  -0.96269  -0.87761  -0.87331
 Alpha  occ. eigenvalues --   -0.75868  -0.75422  -0.70079  -0.69791  -0.69776
 Alpha  occ. eigenvalues --   -0.67792  -0.67392  -0.67184  -0.65960  -0.64290
 Alpha  occ. eigenvalues --   -0.58007  -0.57722  -0.55096  -0.49825  -0.49013
 Alpha  occ. eigenvalues --   -0.47827  -0.45475  -0.44586  -0.43915  -0.43280
 Alpha  occ. eigenvalues --   -0.42753  -0.42129  -0.41509  -0.40736  -0.40699
 Alpha  occ. eigenvalues --   -0.40337  -0.40257  -0.40174  -0.39854  -0.39304
 Alpha  occ. eigenvalues --   -0.38987  -0.38768  -0.38606  -0.38429  -0.37959
 Alpha  occ. eigenvalues --   -0.37776  -0.37375  -0.36338  -0.35691  -0.35647
 Alpha  occ. eigenvalues --   -0.34737  -0.34486  -0.33939  -0.33138  -0.32982
 Alpha  occ. eigenvalues --   -0.32816  -0.32522  -0.29491  -0.27857  -0.26796
 Alpha  occ. eigenvalues --   -0.26680  -0.26435  -0.23121  -0.22846
 Alpha virt. eigenvalues --    0.04526   0.06387   0.07138   0.07884   0.08850
 Alpha virt. eigenvalues --    0.09173   0.09511   0.10233   0.10645   0.11417
 Alpha virt. eigenvalues --    0.11971   0.12095   0.12260   0.12523   0.12972
 Alpha virt. eigenvalues --    0.13248   0.13413   0.13536   0.14514   0.14952
 Alpha virt. eigenvalues --    0.15495   0.16197   0.16352   0.16524   0.17110
 Alpha virt. eigenvalues --    0.17269   0.17591   0.18085   0.18215   0.18609
 Alpha virt. eigenvalues --    0.19216   0.19756   0.19863   0.20106   0.20601
 Alpha virt. eigenvalues --    0.21055   0.21263   0.21350   0.22050   0.22267
 Alpha virt. eigenvalues --    0.22579   0.23093   0.23504   0.24175   0.24634
 Alpha virt. eigenvalues --    0.25011   0.25537   0.26211   0.26626   0.28261
 Alpha virt. eigenvalues --    0.29449   0.30375   0.30942   0.35278   0.36308
 Alpha virt. eigenvalues --    0.36466   0.36914   0.39897   0.40405   0.41212
 Alpha virt. eigenvalues --    0.43768   0.43941   0.44911   0.46088   0.47184
 Alpha virt. eigenvalues --    0.48213   0.50420   0.53301   0.54907   0.55616
 Alpha virt. eigenvalues --    0.56857   0.57628   0.58026   0.58186   0.59215
 Alpha virt. eigenvalues --    0.60045   0.61113   0.62468   0.63781   0.64257
 Alpha virt. eigenvalues --    0.64768   0.64900   0.66315   0.66629   0.66930
 Alpha virt. eigenvalues --    0.68016   0.68715   0.70332   0.71332   0.72090
 Alpha virt. eigenvalues --    0.72537   0.73121   0.73141   0.73847   0.74511
 Alpha virt. eigenvalues --    0.74838   0.75643   0.76110   0.76331   0.76804
 Alpha virt. eigenvalues --    0.77227   0.78028   0.79344   0.80955   0.81449
 Alpha virt. eigenvalues --    0.81730   0.83108   0.83316   0.83521   0.83953
 Alpha virt. eigenvalues --    0.85679   0.85742   0.86223   0.86450   0.86699
 Alpha virt. eigenvalues --    0.87008   0.87379   0.87782   0.88073   0.88960
 Alpha virt. eigenvalues --    0.89071   0.89190   0.89504   0.90039   0.90462
 Alpha virt. eigenvalues --    0.91169   0.91274   0.91886   0.92045   0.92467
 Alpha virt. eigenvalues --    0.92836   0.93238   0.93516   0.94190   0.94390
 Alpha virt. eigenvalues --    0.94709   0.95309   0.95575   0.96296   0.97016
 Alpha virt. eigenvalues --    0.97884   0.98250   0.98718   0.99085   1.00237
 Alpha virt. eigenvalues --    1.01097   1.02007   1.02757   1.04043   1.04995
 Alpha virt. eigenvalues --    1.06033   1.08009   1.08758   1.09481   1.10297
 Alpha virt. eigenvalues --    1.12299   1.13817   1.18505   1.20145   1.21150
 Alpha virt. eigenvalues --    1.21479   1.26873   1.28041   1.28803   1.29050
 Alpha virt. eigenvalues --    1.31037   1.31955   1.33187   1.33666   1.34239
 Alpha virt. eigenvalues --    1.35505   1.36382   1.40419   1.41435   1.44917
 Alpha virt. eigenvalues --    1.45161   1.45740   1.46783   1.47257   1.48799
 Alpha virt. eigenvalues --    1.49576   1.51679   1.52928   1.54099   1.55056
 Alpha virt. eigenvalues --    1.55794   1.56623   1.57923   1.58555   1.60338
 Alpha virt. eigenvalues --    1.63705   1.64364   1.67351   1.67899   1.69493
 Alpha virt. eigenvalues --    1.70073   1.70661   1.72620   1.73556   1.78678
 Alpha virt. eigenvalues --    1.79014   1.81145   1.82507   1.83746   1.85216
 Alpha virt. eigenvalues --    1.86447   1.87886   1.88674   1.89666   1.91271
 Alpha virt. eigenvalues --    1.93295   1.95368   1.97728   1.97951   1.99088
 Alpha virt. eigenvalues --    2.00311   2.00684   2.03715   2.03935   2.04844
 Alpha virt. eigenvalues --    2.04919   2.05092   2.05329   2.05390   2.05917
 Alpha virt. eigenvalues --    2.07456   2.08011   2.08337   2.08822   2.09562
 Alpha virt. eigenvalues --    2.09788   2.10097   2.10496   2.10948   2.11411
 Alpha virt. eigenvalues --    2.11723   2.12197   2.12865   2.13803   2.14300
 Alpha virt. eigenvalues --    2.14533   2.14604   2.15669   2.16099   2.16540
 Alpha virt. eigenvalues --    2.17098   2.17525   2.17913   2.18934   2.20628
 Alpha virt. eigenvalues --    2.22881   2.23914   2.24528   2.25605   2.25888
 Alpha virt. eigenvalues --    2.27367   2.27878   2.30052   2.31831   2.33066
 Alpha virt. eigenvalues --    2.33307   2.33797   2.34363   2.34712   2.34767
 Alpha virt. eigenvalues --    2.35167   2.35983   2.36498   2.36823   2.37284
 Alpha virt. eigenvalues --    2.37421   2.37984   2.38217   2.40193   2.40360
 Alpha virt. eigenvalues --    2.42057   2.43472   2.46823   2.47979   2.51356
 Alpha virt. eigenvalues --    2.52937   2.54609   2.55865   2.57905   2.59716
 Alpha virt. eigenvalues --    2.62830   2.63974   2.65349   2.65391   2.65790
 Alpha virt. eigenvalues --    2.66734   2.68268   2.68468   2.68865   2.68939
 Alpha virt. eigenvalues --    2.69264   2.72508   2.72833   2.73575   2.76083
 Alpha virt. eigenvalues --    2.77053   2.80403   2.81531   2.82138   2.82673
 Alpha virt. eigenvalues --    2.82767   2.83042   2.83112   2.83613   2.84724
 Alpha virt. eigenvalues --    2.84839   2.84996   2.85194   2.86049   2.86849
 Alpha virt. eigenvalues --    2.86938   2.87562   2.88270   2.89239   2.90493
 Alpha virt. eigenvalues --    2.92867   2.94470   2.96145   2.98316   2.98710
 Alpha virt. eigenvalues --    3.07805   3.10772   3.11310   3.19203   3.19312
 Alpha virt. eigenvalues --    3.20889   3.21018   3.22167   3.22652   3.24011
 Alpha virt. eigenvalues --    3.27358   3.29066   3.30033   3.30535   3.33196
 Alpha virt. eigenvalues --    3.34249   3.35456   3.38828   3.39485   3.42631
 Alpha virt. eigenvalues --    3.43007   3.43595   3.43923   3.44341   3.44799
 Alpha virt. eigenvalues --    3.45117   3.45695   3.46087   3.46649   3.46793
 Alpha virt. eigenvalues --    3.48308   3.48543   3.48735   3.54471   3.55430
 Alpha virt. eigenvalues --    3.58130   3.60171   3.88557   3.92551   3.97598
 Alpha virt. eigenvalues --    4.00541   4.32078   4.38698   4.43505   4.45546
 Alpha virt. eigenvalues --    4.46541   4.47666   4.49108   4.50760   4.53118
 Alpha virt. eigenvalues --    4.54779   4.67134   4.68883
          Condensed to atoms (all electrons):
 Mulliken charges:
               1
     1  C   -0.552777
     2  Si   0.923073
     3  C   -0.560120
     4  C   -0.405642
     5  C   -0.184208
     6  C   -0.063168
     7  N   -0.635330
     8  O   -0.664317
     9  Si   1.033675
    10  C   -0.565725
    11  C   -0.560105
    12  O   -0.667111
    13  Si   0.902300
    14  C   -0.544717
    15  C   -0.388769
    16  C   -0.181825
    17  C   -0.045166
    18  N   -0.650396
    19  C   -0.556126
    20  H    0.123346
    21  H    0.120024
    22  H    0.118427
    23  H    0.122460
    24  H    0.118790
    25  H    0.119981
    26  H    0.109228
    27  H    0.098169
    28  H    0.089941
    29  H    0.089663
    30  H    0.099589
    31  H    0.108528
    32  H    0.251581
    33  H    0.249337
    34  H    0.125442
    35  H    0.120916
    36  H    0.125273
    37  H    0.125055
    38  H    0.124537
    39  H    0.119875
    40  H    0.121974
    41  H    0.116786
    42  H    0.119177
    43  H    0.104492
    44  H    0.110224
    45  H    0.096880
    46  H    0.101640
    47  H    0.098879
    48  H    0.080362
    49  H    0.247172
    50  H    0.247355
    51  H    0.119300
    52  H    0.122721
    53  H    0.119331
 Sum of Mulliken charges =  -0.00000
 Mulliken charges with hydrogens summed into heavy atoms:
               1
     1  C   -0.190980
     2  Si   0.923073
     3  C   -0.198889
     4  C   -0.198245
     5  C   -0.004604
     6  C    0.144949
     7  N   -0.134413
     8  O   -0.664317
     9  Si   1.033675
    10  C   -0.194094
    11  C   -0.190638
    12  O   -0.667111
    13  Si   0.902300
    14  C   -0.186780
    15  C   -0.174053
    16  C    0.016694
    17  C    0.134076
    18  N   -0.155869
    19  C   -0.194774
 APT charges:
               1
     1  C   -1.359634
     2  Si   0.584908
     3  C   -1.293735
     4  C   -0.310471
     5  C   -0.916445
     6  C   -1.260877
     7  N   -0.189333
     8  O   -0.926582
     9  Si   0.567072
    10  C   -1.338549
    11  C   -1.283425
    12  O   -0.940892
    13  Si   0.590370
    14  C   -1.338293
    15  C   -1.012250
    16  C   -0.213949
    17  C   -0.790407
    18  N   -2.132790
    19  C   -1.324638
    20  H    0.778853
    21  H    0.325413
    22  H    0.274442
    23  H    0.775021
    24  H    0.193695
    25  H    0.303700
    26  H    0.144125
    27  H    0.209061
    28  H    0.370456
    29  H    0.522563
    30  H    1.009650
    31  H    0.154643
    32  H   -0.357352
    33  H    0.639305
    34  H    0.552178
    35  H    0.322835
    36  H    0.486567
    37  H    0.546229
    38  H    0.489151
    39  H    0.232969
    40  H    0.866697
    41  H    0.205057
    42  H    0.311876
    43  H    0.191900
    44  H    0.806411
    45  H    0.413975
    46  H   -0.166369
    47  H    0.211167
    48  H    0.789072
    49  H    0.645566
    50  H    1.278098
    51  H    0.328996
    52  H    0.867619
    53  H    0.166349
 Sum of APT charges =  -0.00000
 APT charges with hydrogens summed into heavy atoms:
               1
     1  C    0.019075
     2  Si   0.584908
     3  C   -0.021320
     4  C    0.042715
     5  C   -0.023427
     6  C   -0.096584
     7  N    0.092620
     8  O   -0.926582
     9  Si   0.567072
    10  C    0.023032
    11  C   -0.015075
    12  O   -0.940892
    13  Si   0.590370
    14  C    0.045337
    15  C   -0.013939
    16  C    0.033657
    17  C    0.209833
    18  N   -0.209126
    19  C    0.038326
 Electronic spatial extent (au):  <R**2>=          11266.6614
 Charge=              0.0000 electrons
 Dipole moment (field-independent basis, Debye):
    X=              2.8262    Y=             -2.0338    Z=             -0.2782  Tot=              3.4930
 Quadrupole moment (field-independent basis, Debye-Ang):
   XX=           -136.0326   YY=           -137.4464   ZZ=           -141.7557
   XY=              8.1179   XZ=              8.5733   YZ=             -4.6943
 Traceless Quadrupole moment (field-independent basis, Debye-Ang):
   XX=              2.3790   YY=              0.9651   ZZ=             -3.3441
   XY=              8.1179   XZ=              8.5733   YZ=             -4.6943
 Octapole moment (field-independent basis, Debye-Ang**2):
  XXX=            219.1830  YYY=             18.4838  ZZZ=             -2.3475  XYY=             31.0211
  XXY=             15.3574  XXZ=            -42.5743  XZZ=             13.5553  YZZ=              6.8221
  YYZ=             -5.4894  XYZ=             23.9301
 Hexadecapole moment (field-independent basis, Debye-Ang**3):
 XXXX=         -11071.9101 YYYY=          -3192.0492 ZZZZ=          -1121.9142 XXXY=            669.6334
 XXXZ=            446.1026 YYYX=            138.8218 YYYZ=            -63.4550 ZZZX=             30.0172
 ZZZY=             21.4894 XXYY=          -2108.3886 XXZZ=          -2022.5955 YYZZ=           -738.3958
 XXYZ=           -101.5357 YYXZ=             56.1402 ZZXY=             57.6315
 N-N= 1.991768044582D+03 E-N=-7.766022315363D+03  KE= 1.595861526321D+03
  Exact polarizability:   0.000   0.000   0.000   0.000   0.000   0.000
 Approx polarizability: 273.608  -1.010 274.713   3.302  -0.623 267.625
 D2PCM: PCM CHGder 2nd derivatives, FixD1E=F FixD2E=F DoIter=F DoCFld=F I1PDM=0
 Calling FoFJK, ICntrl=    100147 FMM=F ISym2X=0 I1Cent= 0 IOpClX= 0 NMat=1 NMatS=1 NMatT=0.
 ***** Axes restored to original set *****
 -------------------------------------------------------------------
 Center     Atomic                   Forces (Hartrees/Bohr)
 Number     Number              X              Y              Z
 -------------------------------------------------------------------
      1        6          -0.003362397   -0.002184336    0.000326597
      2       14           0.013835749    0.007550750    0.004020745
      3        6          -0.004836347   -0.001419458   -0.001943007
      4        6          -0.010347666   -0.008262776   -0.002636392
      5        6           0.002527421   -0.006791160    0.004701877
      6        6          -0.004318672    0.002160251    0.006901269
      7        7           0.004016586    0.008517764   -0.009937789
      8        8          -0.006264179   -0.001071698   -0.000179834
      9       14           0.000207809   -0.003633885   -0.004153488
     10        6          -0.000302323    0.003083925    0.004870460
     11        6          -0.000416321    0.004663317    0.003204259
     12        8           0.007526745    0.000805294   -0.001422734
     13       14          -0.017698532    0.003861550    0.007962166
     14        6           0.004691696    0.000572514   -0.000349429
     15        6           0.012578900   -0.008026924   -0.008733590
     16        6          -0.000757566   -0.002710120    0.006533216
     17        6          -0.003419417    0.003643420   -0.008900670
     18        7           0.008218890    0.013104930   -0.000896115
     19        6           0.004896679    0.000714626   -0.002092378
     20        1           0.000327860    0.000127193    0.000116773
     21        1           0.000591423   -0.001771715    0.000081870
     22        1           0.000872199   -0.001685297    0.000642522
     23        1           0.001036110    0.000194012    0.000198041
     24        1          -0.000006950    0.000750234   -0.001812035
     25        1           0.000265597    0.000492620   -0.002243282
     26        1          -0.001637338    0.001845881    0.000613055
     27        1          -0.000469760    0.001913749    0.000846105
     28        1          -0.000530406   -0.000948874    0.001297507
     29        1           0.002241479    0.000727738    0.000431135
     30        1           0.000810775   -0.000179193    0.000016340
     31        1          -0.000553651    0.000021878   -0.002449962
     32        1           0.001217406   -0.000194359    0.001094324
     33        1          -0.000161785   -0.001288186   -0.000576690
     34        1          -0.000397830   -0.000466132   -0.000181894
     35        1           0.000364536   -0.002226548    0.000403433
     36        1           0.000437956   -0.000271861   -0.000185665
     37        1          -0.000543644   -0.000168962   -0.000206055
     38        1           0.000487057    0.000001275   -0.000313427
     39        1          -0.000212379    0.000506752   -0.002245466
     40        1          -0.000695480   -0.000008150    0.000005391
     41        1          -0.000079048   -0.001613288    0.001188247
     42        1          -0.000091411   -0.002040957    0.000860218
     43        1          -0.001363201    0.000623991    0.002738432
     44        1          -0.000690550   -0.001589076    0.001274503
     45        1          -0.000451335    0.001434805   -0.000092503
     46        1          -0.001264441    0.001810871    0.000083376
     47        1           0.000591906   -0.000100462    0.000762899
     48        1          -0.002761835   -0.009643696    0.004310874
     49        1          -0.001468364   -0.000321320    0.001874502
     50        1          -0.000279325    0.000095984   -0.002189374
     51        1          -0.000780701   -0.000468482   -0.001948007
     52        1          -0.000604932   -0.000140922    0.000339328
     53        1          -0.000976996    0.000002517   -0.002009679
 -------------------------------------------------------------------
 Cartesian Forces:  Max     0.017698532 RMS     0.003877850
 FormGI is forming the generalized inverse of G from B-inverse, IUseBI=4.

 GradGradGradGradGradGradGradGradGradGradGradGradGradGradGradGradGradGrad
 Berny optimization.
 Internal  Forces:  Max     0.015313134 RMS     0.002448842
 Search for a local minimum.
 Step number   1 out of a maximum of  292
 All quantities printed in internal units (Hartrees-Bohrs-Radians)
 Mixed Optimization -- RFO/linear search
 Second derivative matrix not updated -- analytic derivatives used.
 ITU=  0
     Eigenvalues ---   -0.00501  -0.00180   0.00049   0.00058   0.00092
     Eigenvalues ---    0.00108   0.00126   0.00129   0.00144   0.00148
     Eigenvalues ---    0.00155   0.00161   0.00219   0.00245   0.00248
     Eigenvalues ---    0.00333   0.00371   0.00552   0.02114   0.02345
     Eigenvalues ---    0.02632   0.02699   0.02843   0.02879   0.02988
     Eigenvalues ---    0.03107   0.03115   0.03202   0.03214   0.03222
     Eigenvalues ---    0.03251   0.03343   0.03416   0.03456   0.03526
     Eigenvalues ---    0.03628   0.03691   0.03721   0.03863   0.03969
     Eigenvalues ---    0.04007   0.04046   0.04134   0.04191   0.04269
     Eigenvalues ---    0.04412   0.04472   0.04627   0.04656   0.04752
     Eigenvalues ---    0.05072   0.05292   0.05684   0.05809   0.06026
     Eigenvalues ---    0.06104   0.06754   0.06853   0.07292   0.07317
     Eigenvalues ---    0.07471   0.07855   0.08001   0.08203   0.08415
     Eigenvalues ---    0.08641   0.09256   0.09353   0.09780   0.10204
     Eigenvalues ---    0.10414   0.10494   0.10502   0.10522   0.10538
     Eigenvalues ---    0.10550   0.10595   0.10775   0.10907   0.11180
     Eigenvalues ---    0.11323   0.11389   0.11569   0.11907   0.12263
     Eigenvalues ---    0.12534   0.12678   0.12781   0.13180   0.13466
     Eigenvalues ---    0.13882   0.14055   0.14689   0.15021   0.15347
     Eigenvalues ---    0.16510   0.16996   0.18338   0.18375   0.18559
     Eigenvalues ---    0.18571   0.18992   0.19025   0.19463   0.19732
     Eigenvalues ---    0.20025   0.23429   0.24241   0.24382   0.26997
     Eigenvalues ---    0.28007   0.28653   0.29806   0.30865   0.31362
     Eigenvalues ---    0.32091   0.32321   0.32510   0.32626   0.32900
     Eigenvalues ---    0.32954   0.33126   0.33144   0.33362   0.33397
     Eigenvalues ---    0.33433   0.33717   0.33806   0.34014   0.34026
     Eigenvalues ---    0.34037   0.34056   0.34061   0.34070   0.34089
     Eigenvalues ---    0.34109   0.34132   0.34144   0.34172   0.34237
     Eigenvalues ---    0.34364   0.34604   0.34617   0.34647   0.34651
     Eigenvalues ---    0.34716   0.34858   0.38145   0.38228   0.43963
     Eigenvalues ---    0.44041   0.44344   0.44456
 RFO step:  Lambda=-1.09174248D-02 EMin=-5.00893554D-03
 Linear search not attempted -- first point.
 Iteration  1 RMS(Cart)=  0.31869892 RMS(Int)=  0.02715137
 Iteration  2 RMS(Cart)=  0.23213731 RMS(Int)=  0.01169292
 Iteration  3 RMS(Cart)=  0.03699541 RMS(Int)=  0.00030923
 Iteration  4 RMS(Cart)=  0.00055206 RMS(Int)=  0.00026343
 Iteration  5 RMS(Cart)=  0.00000011 RMS(Int)=  0.00026343
 Variable       Old X    -DE/DX   Delta X   Delta X   Delta X     New X
                                 (Linear)    (Quad)   (Total)
    R1        3.54739   0.00411   0.00000   0.01365   0.01365   3.56104
    R2        2.06761   0.00034   0.00000   0.00264   0.00264   2.07025
    R3        2.06682   0.00107   0.00000   0.00192   0.00192   2.06874
    R4        2.06738   0.00095   0.00000   0.00290   0.00290   2.07028
    R5        3.54973   0.00446   0.00000   0.01515   0.01515   3.56488
    R6        3.61621  -0.00343   0.00000  -0.02977  -0.02977   3.58643
    R7        3.15471   0.00146   0.00000   0.00188   0.00188   3.15659
    R8        2.06527   0.00103   0.00000   0.00490   0.00490   2.07017
    R9        2.06745   0.00103   0.00000   0.00235   0.00235   2.06980
   R10        2.06713   0.00113   0.00000   0.00371   0.00371   2.07083
   R11        2.89848   0.00551   0.00000   0.01702   0.01702   2.91550
   R12        2.07387   0.00111   0.00000   0.00213   0.00213   2.07601
   R13        2.07033   0.00154   0.00000   0.00588   0.00588   2.07620
   R14        2.89454   0.00640   0.00000   0.01395   0.01395   2.90850
   R15        2.07332   0.00120   0.00000   0.00180   0.00180   2.07512
   R16        2.07546   0.00092   0.00000   0.00272   0.00272   2.07818
   R17        2.75195   0.00929   0.00000   0.02342   0.02342   2.77536
   R18        2.07135   0.00073   0.00000   0.00187   0.00187   2.07322
   R19        2.06655   0.00172   0.00000   0.00659   0.00659   2.07314
   R20        1.92519  -0.00160   0.00000  -0.00109  -0.00109   1.92411
   R21        1.92717  -0.00128   0.00000  -0.00103  -0.00103   1.92614
   R22        3.14748  -0.00456   0.00000  -0.02031  -0.02031   3.12717
   R23        3.54844   0.00059   0.00000  -0.00077  -0.00077   3.54767
   R24        3.54826   0.00042   0.00000  -0.00300  -0.00300   3.54526
   R25        3.14873  -0.00459   0.00000  -0.01445  -0.01445   3.13428
   R26        2.06742   0.00062   0.00000   0.00371   0.00371   2.07113
   R27        2.06734   0.00089   0.00000   0.00124   0.00124   2.06858
   R28        2.06694   0.00053   0.00000   0.00404   0.00404   2.07098
   R29        2.06684   0.00059   0.00000   0.00317   0.00317   2.07001
   R30        2.06706   0.00055   0.00000   0.00200   0.00200   2.06906
   R31        2.06728   0.00095   0.00000   0.00267   0.00267   2.06995
   R32        3.14955   0.00258   0.00000   0.01095   0.01095   3.16050
   R33        3.55348   0.00298   0.00000   0.00925   0.00925   3.56272
   R34        3.62293  -0.00695   0.00000  -0.05220  -0.05220   3.57074
   R35        3.54989   0.00396   0.00000   0.01367   0.01367   3.56356
   R36        2.06728   0.00068   0.00000   0.00345   0.00345   2.07073
   R37        2.06728   0.00097   0.00000   0.00275   0.00275   2.07003
   R38        2.06668   0.00109   0.00000   0.00298   0.00298   2.06965
   R39        2.89619   0.00594   0.00000   0.01150   0.01150   2.90769
   R40        2.07130   0.00194   0.00000   0.00648   0.00648   2.07778
   R41        2.07151   0.00122   0.00000   0.00627   0.00627   2.07777
   R42        2.88807   0.00133   0.00000   0.00436   0.00436   2.89243
   R43        2.07483   0.00026   0.00000   0.00217   0.00217   2.07700
   R44        2.07491  -0.00077   0.00000  -0.00189  -0.00189   2.07302
   R45        2.75489   0.01249   0.00000   0.02426   0.02426   2.77914
   R46        2.06962   0.00094   0.00000   0.00418   0.00418   2.07380
   R47        2.06988   0.00561   0.00000   0.01604   0.01604   2.08592
   R48        1.92535  -0.00096   0.00000   0.00066   0.00066   1.92602
   R49        1.92527  -0.00104   0.00000  -0.00097  -0.00097   1.92430
   R50        2.06739   0.00108   0.00000   0.00350   0.00350   2.07089
   R51        2.06722   0.00065   0.00000   0.00369   0.00369   2.07090
   R52        2.06684   0.00094   0.00000   0.00238   0.00238   2.06922
    A1        1.93601  -0.00091   0.00000   0.00087   0.00087   1.93687
    A2        1.93187   0.00188   0.00000   0.00589   0.00586   1.93774
    A3        1.93145   0.00223   0.00000   0.01161   0.01159   1.94303
    A4        1.88313  -0.00066   0.00000  -0.00134  -0.00135   1.88178
    A5        1.88989  -0.00091   0.00000  -0.00909  -0.00909   1.88080
    A6        1.88987  -0.00179   0.00000  -0.00880  -0.00883   1.88104
    A7        1.90203  -0.00047   0.00000   0.00723   0.00571   1.90774
    A8        1.90430   0.00166   0.00000   0.02680   0.02545   1.92974
    A9        1.93430   0.00029   0.00000  -0.02160  -0.02139   1.91292
   A10        1.90243   0.00326   0.00000   0.04859   0.04791   1.95034
   A11        1.92755  -0.00068   0.00000  -0.00810  -0.00739   1.92016
   A12        1.89284  -0.00397   0.00000  -0.05129  -0.05084   1.84200
   A13        1.94390  -0.00129   0.00000  -0.00774  -0.00770   1.93619
   A14        1.92900   0.00198   0.00000   0.02030   0.02022   1.94922
   A15        1.92957   0.00265   0.00000   0.00913   0.00903   1.93860
   A16        1.89013  -0.00063   0.00000  -0.00831  -0.00827   1.88186
   A17        1.88064  -0.00080   0.00000  -0.00984  -0.00982   1.87082
   A18        1.88882  -0.00207   0.00000  -0.00455  -0.00476   1.88406
   A19        2.06813  -0.00115   0.00000  -0.00155  -0.00159   2.06655
   A20        1.84007   0.00064   0.00000   0.00319   0.00313   1.84320
   A21        1.88802   0.00116   0.00000   0.00751   0.00749   1.89550
   A22        1.87285   0.00090   0.00000   0.01565   0.01564   1.88849
   A23        1.93216  -0.00049   0.00000  -0.01270  -0.01267   1.91949
   A24        1.84849  -0.00106   0.00000  -0.01280  -0.01275   1.83574
   A25        2.03422  -0.00038   0.00000  -0.01302  -0.01302   2.02119
   A26        1.91343  -0.00103   0.00000   0.00121   0.00111   1.91454
   A27        1.87941   0.00213   0.00000   0.02067   0.02066   1.90007
   A28        1.89203   0.00133   0.00000  -0.00252  -0.00256   1.88947
   A29        1.88866  -0.00174   0.00000  -0.00479  -0.00471   1.88395
   A30        1.84711  -0.00034   0.00000  -0.00045  -0.00052   1.84659
   A31        1.97562   0.01531   0.00000   0.05963   0.05964   2.03526
   A32        1.89613  -0.00383   0.00000  -0.00601  -0.00621   1.88993
   A33        1.93565  -0.00374   0.00000  -0.01457  -0.01423   1.92143
   A34        1.88873  -0.00443   0.00000  -0.01270  -0.01315   1.87558
   A35        1.91088  -0.00626   0.00000  -0.03012  -0.03007   1.88082
   A36        1.85204   0.00212   0.00000   0.00033  -0.00001   1.85203
   A37        1.92434  -0.00047   0.00000  -0.00992  -0.00999   1.91435
   A38        1.91186  -0.00085   0.00000  -0.00922  -0.00929   1.90258
   A39        1.84570   0.00021   0.00000  -0.00713  -0.00728   1.83841
   A40        2.49010   0.00701   0.00000   0.11515   0.11515   2.60525
   A41        1.93017  -0.00057   0.00000   0.00580   0.00571   1.93588
   A42        1.93178  -0.00066   0.00000  -0.01470  -0.01555   1.91623
   A43        1.86490  -0.00228   0.00000  -0.02924  -0.02958   1.83532
   A44        1.88228   0.00474   0.00000   0.05355   0.05349   1.93577
   A45        1.93015  -0.00065   0.00000  -0.00159  -0.00154   1.92861
   A46        1.92516  -0.00068   0.00000  -0.01512  -0.01572   1.90943
   A47        1.93243  -0.00034   0.00000   0.00174   0.00171   1.93413
   A48        1.93097   0.00311   0.00000   0.01797   0.01792   1.94889
   A49        1.93322  -0.00041   0.00000  -0.00071  -0.00073   1.93249
   A50        1.89008  -0.00120   0.00000  -0.00550  -0.00556   1.88452
   A51        1.88511  -0.00008   0.00000  -0.00977  -0.00977   1.87534
   A52        1.89054  -0.00120   0.00000  -0.00461  -0.00465   1.88590
   A53        1.93290  -0.00053   0.00000   0.00207   0.00205   1.93495
   A54        1.93379  -0.00041   0.00000   0.00772   0.00770   1.94149
   A55        1.93029   0.00311   0.00000   0.00661   0.00660   1.93689
   A56        1.88468   0.00010   0.00000  -0.00087  -0.00089   1.88379
   A57        1.88996  -0.00117   0.00000  -0.00767  -0.00767   1.88229
   A58        1.89071  -0.00121   0.00000  -0.00861  -0.00863   1.88209
   A59        2.48235   0.00580   0.00000   0.04286   0.04286   2.52520
   A60        1.93756  -0.00031   0.00000  -0.02208  -0.02181   1.91575
   A61        1.91446  -0.00289   0.00000  -0.03407  -0.03355   1.88092
   A62        1.94703  -0.00080   0.00000  -0.02322  -0.02272   1.92432
   A63        1.87784   0.00148   0.00000   0.02499   0.02379   1.90163
   A64        1.89492   0.00035   0.00000   0.01577   0.01438   1.90930
   A65        1.89008   0.00235   0.00000   0.04236   0.04155   1.93163
   A66        1.92935  -0.00116   0.00000   0.00025   0.00025   1.92960
   A67        1.92950   0.00218   0.00000   0.01231   0.01225   1.94175
   A68        1.93244   0.00249   0.00000   0.01254   0.01249   1.94493
   A69        1.89059  -0.00078   0.00000  -0.00883  -0.00883   1.88176
   A70        1.88927  -0.00088   0.00000  -0.00820  -0.00821   1.88107
   A71        1.89141  -0.00199   0.00000  -0.00911  -0.00921   1.88220
   A72        2.00167   0.00283   0.00000   0.02116   0.02103   2.02270
   A73        1.87233   0.00064   0.00000   0.00989   0.00980   1.88214
   A74        1.87908  -0.00205   0.00000  -0.00547  -0.00549   1.87359
   A75        1.91555  -0.00147   0.00000  -0.00436  -0.00462   1.91093
   A76        1.91678   0.00036   0.00000  -0.00080  -0.00083   1.91595
   A77        1.87373  -0.00050   0.00000  -0.02321  -0.02322   1.85051
   A78        1.93778   0.00776   0.00000   0.03257   0.03257   1.97035
   A79        1.91560  -0.00153   0.00000  -0.00000   0.00015   1.91575
   A80        1.91890  -0.00100   0.00000   0.00507   0.00519   1.92409
   A81        1.91434  -0.00320   0.00000  -0.01712  -0.01732   1.89702
   A82        1.91211  -0.00350   0.00000  -0.01700  -0.01729   1.89481
   A83        1.86366   0.00115   0.00000  -0.00522  -0.00548   1.85819
   A84        1.92614   0.00308   0.00000   0.01039   0.01018   1.93632
   A85        1.92080  -0.00088   0.00000  -0.01315  -0.01340   1.90740
   A86        1.92514  -0.00558   0.00000  -0.02552  -0.02644   1.89869
   A87        1.90284  -0.00275   0.00000  -0.01728  -0.01710   1.88573
   A88        1.90784   0.00647   0.00000   0.06341   0.06358   1.97143
   A89        1.88036  -0.00036   0.00000  -0.01793  -0.01831   1.86205
   A90        1.91551  -0.00226   0.00000  -0.01820  -0.01831   1.89720
   A91        1.90876   0.00221   0.00000  -0.00251  -0.00262   1.90614
   A92        1.85635  -0.00114   0.00000  -0.01889  -0.01915   1.83720
   A93        1.93128   0.00235   0.00000   0.00695   0.00689   1.93817
   A94        1.93012  -0.00143   0.00000  -0.00086  -0.00086   1.92926
   A95        1.93256   0.00266   0.00000   0.01854   0.01847   1.95102
   A96        1.88856  -0.00081   0.00000  -0.00954  -0.00953   1.87903
   A97        1.88917  -0.00205   0.00000  -0.00709  -0.00721   1.88197
   A98        1.89077  -0.00087   0.00000  -0.00906  -0.00907   1.88169
    D1        1.03338   0.00190   0.00000   0.02761   0.02751   1.06089
    D2       -1.04210  -0.00274   0.00000  -0.05102  -0.05105  -1.09315
    D3       -3.12518   0.00093   0.00000   0.00846   0.00859  -3.11659
    D4       -1.05646   0.00209   0.00000   0.02486   0.02477  -1.03168
    D5       -3.13193  -0.00255   0.00000  -0.05377  -0.05379   3.09746
    D6        1.06818   0.00111   0.00000   0.00572   0.00585   1.07402
    D7        3.13143   0.00164   0.00000   0.02443   0.02433  -3.12743
    D8        1.05595  -0.00300   0.00000  -0.05419  -0.05423   1.00172
    D9       -1.02713   0.00066   0.00000   0.00529   0.00540  -1.02172
   D10       -0.98975  -0.00148   0.00000  -0.04747  -0.04758  -1.03733
   D11       -3.09168  -0.00116   0.00000  -0.04551  -0.04556  -3.13724
   D12        1.10061  -0.00157   0.00000  -0.05885  -0.05902   1.04159
   D13        1.08689   0.00216   0.00000   0.01750   0.01757   1.10446
   D14       -1.01504   0.00248   0.00000   0.01946   0.01960  -0.99544
   D15       -3.10594   0.00207   0.00000   0.00612   0.00614  -3.09980
   D16       -3.11847  -0.00110   0.00000  -0.02017  -0.02014  -3.13861
   D17        1.06279  -0.00078   0.00000  -0.01821  -0.01811   1.04467
   D18       -1.02812  -0.00119   0.00000  -0.03155  -0.03157  -1.05969
   D19        0.64484   0.00163   0.00000   0.04397   0.04444   0.68928
   D20       -1.45066   0.00068   0.00000   0.02207   0.02253  -1.42813
   D21        2.86117   0.00107   0.00000   0.03186   0.03231   2.89348
   D22       -1.43039  -0.00069   0.00000  -0.00890  -0.00953  -1.43992
   D23        2.75730  -0.00164   0.00000  -0.03080  -0.03144   2.72586
   D24        0.78595  -0.00125   0.00000  -0.02101  -0.02167   0.76428
   D25        2.75346   0.00057   0.00000   0.00280   0.00299   2.75645
   D26        0.65796  -0.00038   0.00000  -0.01910  -0.01892   0.63904
   D27       -1.31339   0.00002   0.00000  -0.00931  -0.00914  -1.32253
   D28       -1.05344   0.00017   0.00000  -0.29599  -0.29545  -1.34889
   D29        1.05616  -0.00068   0.00000  -0.30658  -0.30689   0.74926
   D30        3.13979   0.00045   0.00000  -0.28364  -0.28388   2.85592
   D31        1.17048   0.00033   0.00000  -0.00713  -0.00711   1.16337
   D32       -0.98627  -0.00032   0.00000   0.00515   0.00517  -0.98110
   D33       -2.98800  -0.00054   0.00000  -0.00609  -0.00614  -2.99414
   D34       -3.03417   0.00113   0.00000   0.00847   0.00853  -3.02564
   D35        1.09227   0.00048   0.00000   0.02076   0.02081   1.11308
   D36       -0.90947   0.00026   0.00000   0.00952   0.00951  -0.89996
   D37       -1.02471   0.00012   0.00000  -0.00455  -0.00455  -1.02926
   D38        3.10172  -0.00053   0.00000   0.00774   0.00773   3.10945
   D39        1.09999  -0.00075   0.00000  -0.00351  -0.00358   1.09641
   D40        1.01228   0.00032   0.00000   0.01434   0.01426   1.02655
   D41        3.11068   0.00188   0.00000   0.03232   0.03239  -3.14011
   D42       -1.14344   0.00007   0.00000   0.02093   0.02092  -1.12252
   D43       -3.10317  -0.00023   0.00000   0.00421   0.00415  -3.09901
   D44       -1.00477   0.00133   0.00000   0.02219   0.02228  -0.98249
   D45        1.02429  -0.00048   0.00000   0.01080   0.01081   1.03510
   D46       -1.10755  -0.00085   0.00000  -0.00006  -0.00014  -1.10770
   D47        0.99085   0.00071   0.00000   0.01791   0.01798   1.00882
   D48        3.01991  -0.00110   0.00000   0.00653   0.00651   3.02642
   D49       -1.09273   0.00037   0.00000   0.02657   0.02667  -1.06606
   D50        0.93146  -0.00013   0.00000   0.00685   0.00704   0.93850
   D51        3.08784  -0.00146   0.00000   0.00510   0.00520   3.09304
   D52       -1.17115  -0.00196   0.00000  -0.01461  -0.01443  -1.18558
   D53        1.07655   0.00177   0.00000   0.02764   0.02731   1.10386
   D54        3.10074   0.00126   0.00000   0.00792   0.00768   3.10842
   D55        1.05501   0.00254   0.00000  -0.31525  -0.31541   0.73960
   D56       -1.02991  -0.00258   0.00000  -0.37637  -0.37605  -1.40597
   D57       -3.12648   0.00002   0.00000  -0.33180  -0.33195   2.82476
   D58        3.11778  -0.00151   0.00000  -0.01873  -0.01894   3.09884
   D59        1.02217  -0.00182   0.00000  -0.02475  -0.02498   0.99719
   D60       -1.07455  -0.00210   0.00000  -0.03030  -0.03053  -1.10508
   D61       -1.05088   0.00033   0.00000   0.00067   0.00077  -1.05011
   D62        3.13669   0.00002   0.00000  -0.00535  -0.00527   3.13143
[...]
   267    C   17  dz2    Ryd( 3d)     0.00163

   268    N   18  S      Cor( 1S)     1.99968
   269    N   18  S      Val( 2S)     1.44817
   270    N   18  S      Ryd( 3S)     0.00046
   271    N   18  S      Ryd( 4S)     0.00001
   272    N   18  px     Val( 2p)     1.45713
   273    N   18  px     Ryd( 3p)     0.00329
   274    N   18  py     Val( 2p)     1.38735
   275    N   18  py     Ryd( 3p)     0.00198
   276    N   18  pz     Val( 2p)     1.62282
   277    N   18  pz     Ryd( 3p)     0.00443
   278    N   18  dxy    Ryd( 3d)     0.00117
   279    N   18  dxz    Ryd( 3d)     0.00124
   280    N   18  dyz    Ryd( 3d)     0.00057
   281    N   18  dx2y2  Ryd( 3d)     0.00020
   282    N   18  dz2    Ryd( 3d)     0.00142

   283    C   19  S      Cor( 1S)     1.99949
   284    C   19  S      Val( 2S)     1.23645
   285    C   19  S      Ryd( 3S)     0.00200
   286    C   19  S      Ryd( 4S)     0.00001
   287    C   19  px     Val( 2p)     1.32677
   288    C   19  px     Ryd( 3p)     0.00135
   289    C   19  py     Val( 2p)     1.39687
   290    C   19  py     Ryd( 3p)     0.00281
   291    C   19  pz     Val( 2p)     1.27316
   292    C   19  pz     Ryd( 3p)     0.00092
   293    C   19  dxy    Ryd( 3d)     0.00072
   294    C   19  dxz    Ryd( 3d)     0.00081
   295    C   19  dyz    Ryd( 3d)     0.00005
   296    C   19  dx2y2  Ryd( 3d)     0.00022
   297    C   19  dz2    Ryd( 3d)     0.00056

   298    H   20  S      Val( 1S)     0.75286
   299    H   20  S      Ryd( 2S)     0.00541
   300    H   20  px     Ryd( 2p)     0.00029
   301    H   20  py     Ryd( 2p)     0.00010
   302    H   20  pz     Ryd( 2p)     0.00014

   303    H   21  S      Val( 1S)     0.75879
   304    H   21  S      Ryd( 2S)     0.00680
   305    H   21  px     Ryd( 2p)     0.00010
   306    H   21  py     Ryd( 2p)     0.00030
   307    H   21  pz     Ryd( 2p)     0.00011

   308    H   22  S      Val( 1S)     0.75671
   309    H   22  S      Ryd( 2S)     0.00674
   310    H   22  px     Ryd( 2p)     0.00016
   311    H   22  py     Ryd( 2p)     0.00013
   312    H   22  pz     Ryd( 2p)     0.00022

   313    H   23  S      Val( 1S)     0.76593
   314    H   23  S      Ryd( 2S)     0.01363
   315    H   23  px     Ryd( 2p)     0.00031
   316    H   23  py     Ryd( 2p)     0.00010
   317    H   23  pz     Ryd( 2p)     0.00012

   318    H   24  S      Val( 1S)     0.76832
   319    H   24  S      Ryd( 2S)     0.01607
   320    H   24  px     Ryd( 2p)     0.00009
   321    H   24  py     Ryd( 2p)     0.00015
   322    H   24  pz     Ryd( 2p)     0.00026

   323    H   25  S      Val( 1S)     0.77804
   324    H   25  S      Ryd( 2S)     0.01308
   325    H   25  px     Ryd( 2p)     0.00012
   326    H   25  py     Ryd( 2p)     0.00029
   327    H   25  pz     Ryd( 2p)     0.00011

   328    H   26  S      Val( 1S)     0.76369
   329    H   26  S      Ryd( 2S)     0.01352
   330    H   26  px     Ryd( 2p)     0.00026
   331    H   26  py     Ryd( 2p)     0.00016
   332    H   26  pz     Ryd( 2p)     0.00012

   333    H   27  S      Val( 1S)     0.77773
   334    H   27  S      Ryd( 2S)     0.01911
   335    H   27  px     Ryd( 2p)     0.00010
   336    H   27  py     Ryd( 2p)     0.00016
   337    H   27  pz     Ryd( 2p)     0.00029

   338    H   28  S      Val( 1S)     0.73262
   339    H   28  S      Ryd( 2S)     0.00684
   340    H   28  px     Ryd( 2p)     0.00010
   341    H   28  py     Ryd( 2p)     0.00014
   342    H   28  pz     Ryd( 2p)     0.00032

   343    H   29  S      Val( 1S)     0.75299
   344    H   29  S      Ryd( 2S)     0.01335
   345    H   29  px     Ryd( 2p)     0.00011
   346    H   29  py     Ryd( 2p)     0.00036
   347    H   29  pz     Ryd( 2p)     0.00010

   348    H   30  S      Val( 1S)     0.72702
   349    H   30  S      Ryd( 2S)     0.00848
   350    H   30  px     Ryd( 2p)     0.00023
   351    H   30  py     Ryd( 2p)     0.00010
   352    H   30  pz     Ryd( 2p)     0.00023

   353    H   31  S      Val( 1S)     0.75203
   354    H   31  S      Ryd( 2S)     0.02288
   355    H   31  px     Ryd( 2p)     0.00009
   356    H   31  py     Ryd( 2p)     0.00038
   357    H   31  pz     Ryd( 2p)     0.00008

   358    H   32  S      Val( 1S)     0.65839
   359    H   32  S      Ryd( 2S)     0.06272
   360    H   32  px     Ryd( 2p)     0.00044
   361    H   32  py     Ryd( 2p)     0.00030
   362    H   32  pz     Ryd( 2p)     0.00039

   363    H   33  S      Val( 1S)     0.60339
   364    H   33  S      Ryd( 2S)     0.03329
   365    H   33  px     Ryd( 2p)     0.00023
   366    H   33  py     Ryd( 2p)     0.00066
   367    H   33  pz     Ryd( 2p)     0.00029

   368    H   34  S      Val( 1S)     0.74607
   369    H   34  S      Ryd( 2S)     0.00231
   370    H   34  px     Ryd( 2p)     0.00023
   371    H   34  py     Ryd( 2p)     0.00018
   372    H   34  pz     Ryd( 2p)     0.00010

   373    H   35  S      Val( 1S)     0.74693
   374    H   35  S      Ryd( 2S)     0.00456
   375    H   35  px     Ryd( 2p)     0.00009
   376    H   35  py     Ryd( 2p)     0.00013
   377    H   35  pz     Ryd( 2p)     0.00030

   378    H   36  S      Val( 1S)     0.74963
   379    H   36  S      Ryd( 2S)     0.00658
   380    H   36  px     Ryd( 2p)     0.00022
   381    H   36  py     Ryd( 2p)     0.00015
   382    H   36  pz     Ryd( 2p)     0.00013

   383    H   37  S      Val( 1S)     0.74459
   384    H   37  S      Ryd( 2S)     0.00134
   385    H   37  px     Ryd( 2p)     0.00024
   386    H   37  py     Ryd( 2p)     0.00012
   387    H   37  pz     Ryd( 2p)     0.00015

   388    H   38  S      Val( 1S)     0.74592
   389    H   38  S      Ryd( 2S)     0.00312
   390    H   38  px     Ryd( 2p)     0.00022
   391    H   38  py     Ryd( 2p)     0.00010
   392    H   38  pz     Ryd( 2p)     0.00019

   393    H   39  S      Val( 1S)     0.74271
   394    H   39  S      Ryd( 2S)     0.00169
   395    H   39  px     Ryd( 2p)     0.00008
   396    H   39  py     Ryd( 2p)     0.00031
   397    H   39  pz     Ryd( 2p)     0.00012

   398    H   40  S      Val( 1S)     0.74453
   399    H   40  S      Ryd( 2S)     0.00142
   400    H   40  px     Ryd( 2p)     0.00015
   401    H   40  py     Ryd( 2p)     0.00008
   402    H   40  pz     Ryd( 2p)     0.00028

   403    H   41  S      Val( 1S)     0.74710
   404    H   41  S      Ryd( 2S)     0.00467
   405    H   41  px     Ryd( 2p)     0.00017
   406    H   41  py     Ryd( 2p)     0.00024
   407    H   41  pz     Ryd( 2p)     0.00010

   408    H   42  S      Val( 1S)     0.74640
   409    H   42  S      Ryd( 2S)     0.00383
   410    H   42  px     Ryd( 2p)     0.00018
   411    H   42  py     Ryd( 2p)     0.00023
   412    H   42  pz     Ryd( 2p)     0.00011

   413    H   43  S      Val( 1S)     0.74700
   414    H   43  S      Ryd( 2S)     0.00194
   415    H   43  px     Ryd( 2p)     0.00019
   416    H   43  py     Ryd( 2p)     0.00027
   417    H   43  pz     Ryd( 2p)     0.00009

   418    H   44  S      Val( 1S)     0.74737
   419    H   44  S      Ryd( 2S)     0.00173
   420    H   44  px     Ryd( 2p)     0.00017
   421    H   44  py     Ryd( 2p)     0.00011
   422    H   44  pz     Ryd( 2p)     0.00026

   423    H   45  S      Val( 1S)     0.77052
   424    H   45  S      Ryd( 2S)     0.00187
   425    H   45  px     Ryd( 2p)     0.00020
   426    H   45  py     Ryd( 2p)     0.00027
   427    H   45  pz     Ryd( 2p)     0.00010

   428    H   46  S      Val( 1S)     0.76292
   429    H   46  S      Ryd( 2S)     0.00314
   430    H   46  px     Ryd( 2p)     0.00016
   431    H   46  py     Ryd( 2p)     0.00009
   432    H   46  pz     Ryd( 2p)     0.00029

   433    H   47  S      Val( 1S)     0.77551
   434    H   47  S      Ryd( 2S)     0.00158
   435    H   47  px     Ryd( 2p)     0.00020
   436    H   47  py     Ryd( 2p)     0.00028
   437    H   47  pz     Ryd( 2p)     0.00007

   438    H   48  S      Val( 1S)     0.79662
   439    H   48  S      Ryd( 2S)     0.00218
   440    H   48  px     Ryd( 2p)     0.00018
   441    H   48  py     Ryd( 2p)     0.00010
   442    H   48  pz     Ryd( 2p)     0.00030

   443    H   49  S      Val( 1S)     0.61465
   444    H   49  S      Ryd( 2S)     0.00151
   445    H   49  px     Ryd( 2p)     0.00054
   446    H   49  py     Ryd( 2p)     0.00044
   447    H   49  pz     Ryd( 2p)     0.00045

   448    H   50  S      Val( 1S)     0.60801
   449    H   50  S      Ryd( 2S)     0.00128
   450    H   50  px     Ryd( 2p)     0.00046
   451    H   50  py     Ryd( 2p)     0.00050
   452    H   50  pz     Ryd( 2p)     0.00045

   453    H   51  S      Val( 1S)     0.74261
   454    H   51  S      Ryd( 2S)     0.00153
   455    H   51  px     Ryd( 2p)     0.00017
   456    H   51  py     Ryd( 2p)     0.00026
   457    H   51  pz     Ryd( 2p)     0.00008

   458    H   52  S      Val( 1S)     0.74318
   459    H   52  S      Ryd( 2S)     0.00107
   460    H   52  px     Ryd( 2p)     0.00018
   461    H   52  py     Ryd( 2p)     0.00010
   462    H   52  pz     Ryd( 2p)     0.00023

   463    H   53  S      Val( 1S)     0.74335
   464    H   53  S      Ryd( 2S)     0.00110
   465    H   53  px     Ryd( 2p)     0.00017
   466    H   53  py     Ryd( 2p)     0.00011
   467    H   53  pz     Ryd( 2p)     0.00023

 WARNING:  1 low occupancy (<1.9990e) core orbital  found on Si    2
           1 low occupancy (<1.9990e) core orbital  found on Si    9
           1 low occupancy (<1.9990e) core orbital  found on Si   13


 Summary of Natural Population Analysis:                  
                                                          
                                       Natural Population 
                Natural  -----------------------------------------------
    Atom  No    Charge         Core      Valence    Rydberg      Total
 -----------------------------------------------------------------------
      C    1   -1.24720      1.99947     5.23684    0.01089     7.24720
     Si    2    1.99783      9.99771     1.90293    0.10153    12.00217
      C    3   -1.25032      1.99946     5.23838    0.01248     7.25032
      C    4   -1.00214      1.99934     4.98576    0.01705     7.00214
      C    5   -0.45266      1.99927     4.44189    0.01149     6.45266
      C    6   -0.34644      1.99930     4.32975    0.01739     6.34644
      N    7   -0.35081      1.99937     5.34101    0.01043     7.35081
      O    8   -1.27606      1.99982     7.26727    0.00897     9.27606
     Si    9    2.20761      9.99717     1.72479    0.07043    11.79239
      C   10   -1.25531      1.99948     5.24606    0.00978     7.25531
      C   11   -1.24952      1.99948     5.24038    0.00966     7.24952
      O   12   -1.27416      1.99983     7.26488    0.00946     9.27416
     Si   13    2.05554      9.99768     1.89644    0.05034    11.94446
      C   14   -1.24119      1.99949     5.23235    0.00935     7.24119
      C   15   -0.99243      1.99937     4.97941    0.01366     6.99243
      C   16   -0.46801      1.99935     4.45630    0.01236     6.46801
      C   17   -0.25710      1.99936     4.24410    0.01365     6.25710
      N   18   -0.92992      1.99968     5.91547    0.01477     7.92992
      C   19   -1.24220      1.99949     5.23325    0.00946     7.24220
      H   20    0.24121      0.00000     0.75286    0.00593     0.75879
      H   21    0.23390      0.00000     0.75879    0.00731     0.76610
      H   22    0.23604      0.00000     0.75671    0.00724     0.76396
      H   23    0.21992      0.00000     0.76593    0.01415     0.78008
      H   24    0.21510      0.00000     0.76832    0.01658     0.78490
      H   25    0.20836      0.00000     0.77804    0.01359     0.79164
      H   26    0.22225      0.00000     0.76369    0.01406     0.77775
      H   27    0.20261      0.00000     0.77773    0.01966     0.79739
      H   28    0.25998      0.00000     0.73262    0.00740     0.74002
      H   29    0.23310      0.00000     0.75299    0.01391     0.76690
      H   30    0.26395      0.00000     0.72702    0.00904     0.73605
      H   31    0.22453      0.00000     0.75203    0.02343     0.77547
      H   32    0.27776      0.00000     0.65839    0.06385     0.72224
      H   33    0.36214      0.00000     0.60339    0.03447     0.63786
      H   34    0.25111      0.00000     0.74607    0.00282     0.74889
      H   35    0.24799      0.00000     0.74693    0.00508     0.75201
      H   36    0.24328      0.00000     0.74963    0.00709     0.75672
      H   37    0.25356      0.00000     0.74459    0.00186     0.74644
      H   38    0.25044      0.00000     0.74592    0.00364     0.74956
      H   39    0.25509      0.00000     0.74271    0.00220     0.74491
      H   40    0.25354      0.00000     0.74453    0.00193     0.74646
      H   41    0.24772      0.00000     0.74710    0.00518     0.75228
      H   42    0.24926      0.00000     0.74640    0.00434     0.75074
      H   43    0.25052      0.00000     0.74700    0.00248     0.74948
      H   44    0.25036      0.00000     0.74737    0.00227     0.74964
      H   45    0.22704      0.00000     0.77052    0.00243     0.77296
      H   46    0.23339      0.00000     0.76292    0.00369     0.76661
      H   47    0.22235      0.00000     0.77551    0.00214     0.77765
      H   48    0.20063      0.00000     0.79662    0.00275     0.79937
      H   49    0.38242      0.00000     0.61465    0.00293     0.61758
      H   50    0.38929      0.00000     0.60801    0.00269     0.61071
      H   51    0.25534      0.00000     0.74261    0.00205     0.74466
      H   52    0.25524      0.00000     0.74318    0.00158     0.74476
      H   53    0.25503      0.00000     0.74335    0.00162     0.74497
 =======================================================================
   * Total *   -0.00000     61.98410   115.29137    0.72453   178.00000

                                 Natural Population      
 --------------------------------------------------------
   Core                      61.98410 ( 99.9744% of  62)
   Valence                  115.29137 ( 99.3891% of 116)
   Natural Minimal Basis    177.27547 ( 99.5930% of 178)
   Natural Rydberg Basis      0.72453 (  0.4070% of 178)
 --------------------------------------------------------

    Atom  No          Natural Electron Configuration
 ----------------------------------------------------------------------------
      C    1      [core]2S( 1.25)2p( 3.99)3p( 0.01)
     Si    2      [core]3S( 0.73)3p( 1.17)4S( 0.05)3d( 0.04)4p( 0.01)
      C    3      [core]2S( 1.26)2p( 3.98)3p( 0.01)
      C    4      [core]2S( 1.18)2p( 3.80)3p( 0.01)
      C    5      [core]2S( 1.05)2p( 3.39)3p( 0.01)
      C    6      [core]2S( 1.06)2p( 3.27)3p( 0.01)
      N    7      [core]2S( 1.45)2p( 3.89)3S( 0.01)
      O    8      [core]2S( 1.73)2p( 5.54)
     Si    9      [core]3S( 0.66)3p( 1.06)4S( 0.01)3d( 0.05)4p( 0.01)
      C   10      [core]2S( 1.25)2p( 4.00)3p( 0.01)
      C   11      [core]2S( 1.25)2p( 4.00)3p( 0.01)
      O   12      [core]2S( 1.73)2p( 5.53)
     Si   13      [core]3S( 0.72)3p( 1.17)3d( 0.04)4p( 0.01)
      C   14      [core]2S( 1.24)2p( 3.99)
      C   15      [core]2S( 1.16)2p( 3.82)3p( 0.01)
      C   16      [core]2S( 1.03)2p( 3.42)3p( 0.01)
      C   17      [core]2S( 1.02)2p( 3.22)3p( 0.01)
      N   18      [core]2S( 1.45)2p( 4.47)3p( 0.01)
      C   19      [core]2S( 1.24)2p( 4.00)3p( 0.01)
      H   20            1S( 0.75)2S( 0.01)
      H   21            1S( 0.76)2S( 0.01)
      H   22            1S( 0.76)2S( 0.01)
      H   23            1S( 0.77)2S( 0.01)
      H   24            1S( 0.77)2S( 0.02)
      H   25            1S( 0.78)2S( 0.01)
      H   26            1S( 0.76)2S( 0.01)
      H   27            1S( 0.78)2S( 0.02)
      H   28            1S( 0.73)2S( 0.01)
      H   29            1S( 0.75)2S( 0.01)
      H   30            1S( 0.73)2S( 0.01)
      H   31            1S( 0.75)2S( 0.02)
      H   32            1S( 0.66)2S( 0.06)
      H   33            1S( 0.60)2S( 0.03)
      H   34            1S( 0.75)
      H   35            1S( 0.75)
      H   36            1S( 0.75)2S( 0.01)
      H   37            1S( 0.74)
      H   38            1S( 0.75)
      H   39            1S( 0.74)
      H   40            1S( 0.74)
      H   41            1S( 0.75)
      H   42            1S( 0.75)
      H   43            1S( 0.75)
      H   44            1S( 0.75)
      H   45            1S( 0.77)
      H   46            1S( 0.76)
      H   47            1S( 0.78)
      H   48            1S( 0.80)
      H   49            1S( 0.61)
      H   50            1S( 0.61)
      H   51            1S( 0.74)
      H   52            1S( 0.74)
      H   53            1S( 0.74)


 NBO analysis skipped by request.
 1\1\GINC-DRG2-W004\SP\RB3LYP TD-FC\6-31G(d,p)\C12H34N2O2Si3\QDUEZ\21-J
 ul-2024\0\\# TD(NStates=10, Root=1) B3LYP/6-31G** SCRF=(Solvent=water)
  volume pop=NPA density=current Geom=AllCheck Guess=Read\\ZWRBLCDTKAWR
 HT-UHFFFAOYSA-N_conf_3\\0,1\C,0,2.7259741828,-2.1309952003,0.567208818
 2\Si,0,2.6453096746,-0.4727989657,-0.3263934389\C,0,3.6885427235,-0.53
 28912118,-1.8977365543\C,0,3.1265134657,0.9507204022,0.8313141798\C,0,
 4.3638980167,0.7879172622,1.7384779691\C,0,5.7213210083,0.7336000861,1
 .0140042885\N,0,6.0865208063,1.9049353284,0.2042487745\O,0,1.063456888
 4,-0.1506826664,-0.7577947048\Si,0,-0.3058058196,-0.4651125022,-1.6325
 669351\C,0,-0.2512886662,-2.208881529,-2.3267698262\C,0,-0.4688194566,
 0.826850714,-2.9801630349\O,0,-1.6120480547,-0.2900526785,-0.629475283
 7\Si,0,-2.5509698731,-0.9012668413,0.6128648724\C,0,-1.4473389188,-1.6
 188346973,1.9627578644\C,0,-3.5521922746,0.5408519786,1.3121260238\C,0
 ,-4.4800011557,1.2617994289,0.3186235038\C,0,-5.2470412176,2.426233469
 ,0.9511942296\N,0,-6.0968033655,3.1015325807,-0.0429982987\C,0,-3.6821
 080563,-2.2420318217,-0.078525448\H,0,3.7509729026,-2.3691019035,0.872
 8838162\H,0,2.3777761697,-2.9416230444,-0.0822107136\H,0,2.1008022667,
 -2.1294252774,1.4666928715\H,0,4.7362604601,-0.769857178,-1.6833940935
 \H,0,3.6635722616,0.4258458479,-2.4274484226\H,0,3.3113453808,-1.30126
 17513,-2.5820878266\H,0,2.2466881833,1.1156838244,1.4682969718\H,0,3.2
 198134494,1.8685070335,0.2339047857\H,0,4.2621432918,-0.12199863,2.345
 1480273\H,0,4.3961735647,1.6228056281,2.4534041291\H,0,6.5081883838,0.
 5911353723,1.7651865336\H,0,5.7645185544,-0.1466621264,0.3607366644\H,
 0,5.4013251778,2.0316575715,-0.5382523801\H,0,6.0149924538,2.742479657
 5,0.7811742552\H,0,-1.1639187764,-2.4355545527,-2.8885489848\H,0,-0.15
 64474524,-2.9519239499,-1.5275871123\H,0,0.5990497115,-2.3373398474,-3
 .0055052996\H,0,-1.3850028148,0.6781380613,-3.5616250748\H,0,0.3791978
 396,0.7817953447,-3.6719676559\H,0,-0.5007620456,1.8346792039,-2.55281
 51832\H,0,-2.0490290981,-2.0097198858,2.7912423153\H,0,-0.772041052,-0
 .8586659262,2.3701532527\H,0,-0.8346797635,-2.4422107192,1.5795522744\
 H,0,-2.8441134162,1.2626449586,1.744679574\H,0,-4.1404587879,0.1597513
 454,2.1600791284\H,0,-5.2051032438,0.5486397501,-0.098653976\H,0,-3.90
 26653568,1.644940846,-0.5315933355\H,0,-4.5294875434,3.1625229552,1.33
 56518719\H,0,-5.8063420681,2.050926881,1.8262723147\H,0,-6.8419008418,
 2.4643297816,-0.3222871223\H,0,-6.5729192944,3.8836412445,0.4031453551
 \H,0,-3.0998594513,-3.0811328756,-0.4745312385\H,0,-4.3440897358,-2.63
 46658324,0.7017569476\H,0,-4.311119217,-1.8598749433,-0.8894574136\\Ve
 rsion=ES64L-G16RevA.03\State=1-A\HF=-1606.5278908\RMSD=8.086e-09\Dipol
 e=2.5671608,1.0841318,1.8016\Quadrupole=32.7540146,-15.099357,-17.6546
 576,16.9666414,5.3312165,4.8421515\PG=C01 [X(C12H34N2O2Si3)]\\@


 IF THERE IS ONE WAY BETTER THAN ANOTHER IT IS THE WAY OF NATURE.

                          -- ARISTOTLE
 Job cpu time:       0 days  2 hours 26 minutes  3.2 seconds.
 Elapsed time:       0 days  0 hours 48 minutes 49.1 seconds.
 File lengths (MBytes):  RWF=   1729 Int=      0 D2E=      0 Chk=    109 Scr=      1
 Normal termination of Gaussian 16 at Sun Jul 21 22:20:55 2024.
