 Entering Gaussian System, Link 0=g16
 Initial command:
 /opt/sw/arch/manual/gaussian/G16_A03/g16/l1.exe "/scratch/1381534/Gau-37251.inp" -scrdir="/scratch/1381534/"
 Entering Link 1 = /opt/sw/arch/manual/gaussian/G16_A03/g16/l1.exe PID=     37252.
  
 Copyright (c) 1988,1990,1992,1993,1995,1998,2003,2009,2016,
            Gaussian, Inc.  All Rights Reserved.
  
 This is part of the Gaussian(R) 16 program.  It is based on
 the Gaussian(R) 09 system (copyright 2009, Gaussian, Inc.),
 the Gaussian(R) 03 system (copyright 2003, Gaussian, Inc.),
 the Gaussian(R) 98 system (copyright 1998, Gaussian, Inc.),
 the Gaussian(R) 94 system (copyright 1995, Gaussian, Inc.),
 the Gaussian 92(TM) system (copyright 1992, Gaussian, Inc.),
 the Gaussian 90(TM) system (copyright 1990, Gaussian, Inc.),
 the Gaussian 88(TM) system (copyright 1988, Gaussian, Inc.),
 the Gaussian 86(TM) system (copyright 1986, Carnegie Mellon
 University), and the Gaussian 82(TM) system (copyright 1983,
 Carnegie Mellon University). Gaussian is a federally registered
 trademark of Gaussian, Inc.
  
 This software contains proprietary and confidential information,
 including trade secrets, belonging to Gaussian, Inc.
  
 This software is provided under written license and may be
 used, copied, transmitted, or stored only in accord with that
 written license.
  
 The following legend is applicable only to US Government
 contracts under FAR:
  
                    RESTRICTED RIGHTS LEGEND
  
 Use, reproduction and disclosure by the US Government is
 subject to restrictions as set forth in subparagraphs (a)
 and (c) of the Commercial Computer Software - Restricted
 Rights clause in FAR 52.227-19.
  
 Gaussian, Inc.
 340 Quinnipiac St., Bldg. 40, Wallingford CT 06492
  
  
 ---------------------------------------------------------------
 Warning -- This program may not be used in any manner that
 competes with the business of Gaussian, Inc. or will provide
 assistance to any competitor of Gaussian, Inc.  The licensee
 of this program is prohibited from giving any competitor of
 Gaussian, Inc. access to this program.  By using this program,
 the user acknowledges that Gaussian, Inc. is engaged in the
 business of creating and licensing software in the field of
 computational chemistry and represents and warrants to the
 licensee that it is not a competitor of Gaussian, Inc. and that
 it will not use this program in any manner prohibited above.
 ---------------------------------------------------------------
  

 Cite this work as:
 Gaussian 16, Revision A.03,
 M. J. Frisch, G. W. Trucks, H. B. Schlegel, G. E. Scuseria, 
 M. A. Robb, J. R. Cheeseman, G. Scalmani, V. Barone, 
 G. A. Petersson, H. Nakatsuji, X. Li, M. Caricato, A. V. Marenich, 
 J. Bloino, B. G. Janesko, R. Gomperts, B. Mennucci, H. P. Hratchian, 
 J. V. Ortiz, A. F. Izmaylov, J. L. Sonnenberg, D. Williams-Young, 
 F. Ding, F. Lipparini, F. Egidi, J. Goings, B. Peng, A. Petrone, 
 T. Henderson, D. Ranasinghe, V. G. Zakrzewski, J. Gao, N. Rega, 
 G. Zheng, W. Liang, M. Hada, M. Ehara, K. Toyota, R. Fukuda, 
 J. Hasegawa, M. Ishida, T. Nakajima, Y. Honda, O. Kitao, H. Nakai, 
 T. Vreven, K. Throssell, J. A. Montgomery, Jr., J. E. Peralta, 
 F. Ogliaro, M. J. Bearpark, J. J. Heyd, E. N. Brothers, K. N. Kudin, 
 V. N. Staroverov, T. A. Keith, R. Kobayashi, J. Normand, 
 K. Raghavachari, A. P. Rendell, J. C. Burant, S. S. Iyengar, 
 J. Tomasi, M. Cossi, J. M. Millam, M. Klene, C. Adamo, R. Cammi, 
 J. W. Ochterski, R. L. Martin, K. Morokuma, O. Farkas, 
 J. B. Foresman, and D. J. Fox, Gaussian, Inc., Wallingford CT, 2016.
 
 ******************************************
 Gaussian 16:  ES64L-G16RevA.03 25-Dec-2016
                21-Jul-2024 
 ******************************************
 %nprocshared=8
 Will use up to    8 processors via shared memory.
 %mem=16GB
 %Chk=ZWRBLCDTKAWRHT-UHFFFAOYSA-N_conf_2_0.chk
 -------------------------------------------------------
 # opt=CalcFc B3LYP/6-31G** SCRF=(Solvent=water) scf=xqc
 -------------------------------------------------------
 1/10=4,18=20,19=15,26=3,38=1/1,3;
 2/9=110,12=2,17=6,18=5,40=1/2;
 3/5=1,6=6,7=101,11=2,25=1,30=1,70=2201,71=2,72=1,74=-5,140=1/1,2,3;
 4//1;
 5/5=2,8=3,13=1,38=5,53=1/2,8;
 8/6=4,10=90,11=11/1;
 11/6=1,8=1,9=11,15=111,16=1/1,2,10;
 10/6=1,13=1/2;
 6/7=2,8=2,9=2,10=2,28=1/1;
 7/10=1,18=20,25=1/1,2,3,16;
 1/10=4,18=20,19=15,26=3/3(2);
 2/9=110/2;
 99//99;
 2/9=110/2;
 3/5=1,6=6,7=101,11=2,25=1,30=1,70=2205,71=1,72=1,74=-5/1,2,3;
 4/5=5,16=3,69=1/1;
 5/5=2,8=3,13=1,38=5,53=1/2,8;
 7//1,2,3,16;
 1/18=20,19=15,26=3/3(-5);
 2/9=110/2;
 6/7=2,8=2,9=2,10=2,19=2,28=1/1;
 99/9=1/99;
 ----------------------------------
 ZWRBLCDTKAWRHT-UHFFFAOYSA-N_conf_2
 ----------------------------------
 Symbolic Z-matrix:
 Charge =  0 Multiplicity = 1
 C                    -2.76821  -0.94083  -2.05289 
 Si                   -2.5188   -0.93979  -0.19208 
 C                    -3.27804  -2.49911   0.52702 
 C                    -3.43293   0.58074   0.54151 
 C                    -4.94462   0.62007   0.28555 
 C                    -5.63959   1.80943   0.95324 
 N                    -5.21703   3.08264   0.38299 
 O                    -0.89968  -0.8274    0.19495 
 Si                    0.55205  -1.62872   0.04256 
 C                     0.50651  -3.26609   0.95725 
 C                     0.93463  -1.9831   -1.76001 
 O                     1.72997  -0.64631   0.70337 
 Si                    2.301     0.9208    0.61228 
 C                     3.21153   1.3861    2.19003 
 C                     3.47888   1.12501  -0.87941 
 C                     4.46935  -0.01038  -1.17011 
 C                     5.58018  -0.23089  -0.13805 
 N                     6.40923   0.94938   0.07135 
 C                     0.89425   2.15867   0.38795 
 H                    -3.83186  -0.98954  -2.30245 
 H                    -2.27366  -1.80289  -2.50965 
 H                    -2.35264  -0.03163  -2.49676 
 H                    -2.78841  -3.3894    0.12141 
 H                    -3.16959  -2.51363   1.61559 
 H                    -4.34343  -2.56028   0.28685 
 H                    -3.23968   0.58714   1.6207 
 H                    -2.94944   1.46751   0.11704 
 H                    -5.14519   0.63806  -0.79365 
 H                    -5.40643  -0.29862   0.66907 
 H                    -5.44443   1.80517   2.03137 
 H                    -6.72229   1.70954   0.81745 
 H                    -4.22578   3.23149   0.56891 
 H                    -5.70658   3.84127   0.85619 
 H                     1.47913  -3.76427   0.90341 
 H                    -0.24364  -3.93378   0.52362 
 H                     0.25943  -3.11099   2.01136 
 H                     0.95857  -1.05723  -2.3414 
 H                     0.17738  -2.64165  -2.1955 
 H                     1.9071   -2.47413  -1.85696 
 H                     2.51592   1.41395   3.03449 
 H                     3.99649   0.66252   2.42373 
 H                     3.67066   2.37417   2.09232 
 H                     4.00421   2.0807   -0.77679 
 H                     2.83069   1.22776  -1.75909 
 H                     3.92402  -0.95382  -1.29456 
 H                     4.93838   0.19622  -2.14147 
 H                     5.16646  -0.56335   0.81811 
 H                     6.22625  -1.04368  -0.48927 
 H                     5.85436   1.69783   0.48264 
 H                     6.73837   1.30152  -0.82699 
 H                     1.28545   3.17992   0.36171 
 H                     0.18123   2.08278   1.2143 
 H                     0.36027   1.97108  -0.54807 
 

 GradGradGradGradGradGradGradGradGradGradGradGradGradGradGradGradGradGrad
 Berny optimization.
 Initialization pass.
                           ----------------------------
                           !    Initial Parameters    !
                           ! (Angstroms and Degrees)  !
 --------------------------                            --------------------------
 ! Name  Definition              Value          Derivative Info.                !
 --------------------------------------------------------------------------------
 ! R1    R(1,2)                  1.8775         calculate D2E/DX2 analytically  !
 ! R2    R(1,20)                 1.0936         calculate D2E/DX2 analytically  !
 ! R3    R(1,21)                 1.0938         calculate D2E/DX2 analytically  !
 ! R4    R(1,22)                 1.0938         calculate D2E/DX2 analytically  !
 ! R5    R(2,3)                  1.8775         calculate D2E/DX2 analytically  !
 ! R6    R(2,4)                  1.9198         calculate D2E/DX2 analytically  !
 ! R7    R(2,8)                  1.6685         calculate D2E/DX2 analytically  !
 ! R8    R(3,23)                 1.094          calculate D2E/DX2 analytically  !
 ! R9    R(3,24)                 1.0941         calculate D2E/DX2 analytically  !
 ! R10   R(3,25)                 1.0938         calculate D2E/DX2 analytically  !
 ! R11   R(4,5)                  1.5337         calculate D2E/DX2 analytically  !
 ! R12   R(4,26)                 1.0964         calculate D2E/DX2 analytically  !
 ! R13   R(4,27)                 1.0956         calculate D2E/DX2 analytically  !
 ! R14   R(5,6)                  1.5308         calculate D2E/DX2 analytically  !
 ! R15   R(5,28)                 1.0978         calculate D2E/DX2 analytically  !
 ! R16   R(5,29)                 1.0974         calculate D2E/DX2 analytically  !
 ! R17   R(6,7)                  1.4577         calculate D2E/DX2 analytically  !
 ! R18   R(6,30)                 1.0957         calculate D2E/DX2 analytically  !
 ! R19   R(6,31)                 1.0957         calculate D2E/DX2 analytically  !
 ! R20   R(7,32)                 1.0195         calculate D2E/DX2 analytically  !
 ! R21   R(7,33)                 1.0194         calculate D2E/DX2 analytically  !
 ! R22   R(8,9)                  1.6652         calculate D2E/DX2 analytically  !
 ! R23   R(9,10)                 1.8761         calculate D2E/DX2 analytically  !
 ! R24   R(9,11)                 1.8765         calculate D2E/DX2 analytically  !
 ! R25   R(9,12)                 1.6701         calculate D2E/DX2 analytically  !
 ! R26   R(10,34)                1.0941         calculate D2E/DX2 analytically  !
 ! R27   R(10,35)                1.0939         calculate D2E/DX2 analytically  !
 ! R28   R(10,36)                1.0937         calculate D2E/DX2 analytically  !
 ! R29   R(11,37)                1.0935         calculate D2E/DX2 analytically  !
 ! R30   R(11,38)                1.094          calculate D2E/DX2 analytically  !
 ! R31   R(11,39)                1.0937         calculate D2E/DX2 analytically  !
 ! R32   R(12,13)                1.6704         calculate D2E/DX2 analytically  !
 ! R33   R(13,14)                1.8801         calculate D2E/DX2 analytically  !
 ! R34   R(13,15)                1.9116         calculate D2E/DX2 analytically  !
 ! R35   R(13,19)                1.8872         calculate D2E/DX2 analytically  !
 ! R36   R(14,40)                1.0944         calculate D2E/DX2 analytically  !
 ! R37   R(14,41)                1.0929         calculate D2E/DX2 analytically  !
 ! R38   R(14,42)                1.0939         calculate D2E/DX2 analytically  !
 ! R39   R(15,16)                1.5345         calculate D2E/DX2 analytically  !
 ! R40   R(15,43)                1.0954         calculate D2E/DX2 analytically  !
 ! R41   R(15,44)                1.0975         calculate D2E/DX2 analytically  !
 ! R42   R(16,17)                1.5322         calculate D2E/DX2 analytically  !
 ! R43   R(16,45)                1.0968         calculate D2E/DX2 analytically  !
 ! R44   R(16,46)                1.0983         calculate D2E/DX2 analytically  !
 ! R45   R(17,18)                1.4575         calculate D2E/DX2 analytically  !
 ! R46   R(17,47)                1.0936         calculate D2E/DX2 analytically  !
 ! R47   R(17,48)                1.0961         calculate D2E/DX2 analytically  !
 ! R48   R(18,49)                1.0184         calculate D2E/DX2 analytically  !
 ! R49   R(18,50)                1.0195         calculate D2E/DX2 analytically  !
 ! R50   R(19,51)                1.0939         calculate D2E/DX2 analytically  !
 ! R51   R(19,52)                1.0941         calculate D2E/DX2 analytically  !
 ! R52   R(19,53)                1.0938         calculate D2E/DX2 analytically  !
 ! A1    A(2,1,20)             110.8182         calculate D2E/DX2 analytically  !
 ! A2    A(2,1,21)             110.7488         calculate D2E/DX2 analytically  !
 ! A3    A(2,1,22)             110.5656         calculate D2E/DX2 analytically  !
 ! A4    A(20,1,21)            108.0211         calculate D2E/DX2 analytically  !
 ! A5    A(20,1,22)            108.297          calculate D2E/DX2 analytically  !
 ! A6    A(21,1,22)            108.2931         calculate D2E/DX2 analytically  !
 ! A7    A(1,2,3)              108.9916         calculate D2E/DX2 analytically  !
 ! A8    A(1,2,4)              108.4157         calculate D2E/DX2 analytically  !
 ! A9    A(1,2,8)              111.03           calculate D2E/DX2 analytically  !
 ! A10   A(3,2,4)              108.5954         calculate D2E/DX2 analytically  !
 ! A11   A(3,2,8)              111.0703         calculate D2E/DX2 analytically  !
 ! A12   A(4,2,8)              108.6669         calculate D2E/DX2 analytically  !
 ! A13   A(2,3,23)             110.6637         calculate D2E/DX2 analytically  !
 ! A14   A(2,3,24)             110.6114         calculate D2E/DX2 analytically  !
 ! A15   A(2,3,25)             110.868          calculate D2E/DX2 analytically  !
 ! A16   A(23,3,24)            108.2846         calculate D2E/DX2 analytically  !
 ! A17   A(23,3,25)            107.9986         calculate D2E/DX2 analytically  !
 ! A18   A(24,3,25)            108.3168         calculate D2E/DX2 analytically  !
 ! A19   A(2,4,5)              115.2045         calculate D2E/DX2 analytically  !
 ! A20   A(2,4,26)             107.2665         calculate D2E/DX2 analytically  !
 ! A21   A(2,4,27)             106.4325         calculate D2E/DX2 analytically  !
 ! A22   A(5,4,26)             109.7461         calculate D2E/DX2 analytically  !
 ! A23   A(5,4,27)             110.4602         calculate D2E/DX2 analytically  !
 ! A24   A(26,4,27)            107.3889         calculate D2E/DX2 analytically  !
 ! A25   A(4,5,6)              113.2411         calculate D2E/DX2 analytically  !
 ! A26   A(4,5,28)             110.1542         calculate D2E/DX2 analytically  !
 ! A27   A(4,5,29)             109.5712         calculate D2E/DX2 analytically  !
 ! A28   A(6,5,28)             109.4568         calculate D2E/DX2 analytically  !
 ! A29   A(6,5,29)             107.8747         calculate D2E/DX2 analytically  !
 ! A30   A(28,5,29)            106.283          calculate D2E/DX2 analytically  !
 ! A31   A(5,6,7)              112.1103         calculate D2E/DX2 analytically  !
 ! A32   A(5,6,30)             110.2005         calculate D2E/DX2 analytically  !
 ! A33   A(5,6,31)             108.8871         calculate D2E/DX2 analytically  !
 ! A34   A(7,6,30)             109.6763         calculate D2E/DX2 analytically  !
 ! A35   A(7,6,31)             108.5165         calculate D2E/DX2 analytically  !
 ! A36   A(30,6,31)            107.3131         calculate D2E/DX2 analytically  !
 ! A37   A(6,7,32)             109.7586         calculate D2E/DX2 analytically  !
 ! A38   A(6,7,33)             109.2216         calculate D2E/DX2 analytically  !
 ! A39   A(32,7,33)            105.8806         calculate D2E/DX2 analytically  !
 ! A40   A(2,8,9)              142.4062         calculate D2E/DX2 analytically  !
 ! A41   A(8,9,10)             110.7444         calculate D2E/DX2 analytically  !
 ! A42   A(8,9,11)             110.8875         calculate D2E/DX2 analytically  !
 ! A43   A(8,9,12)             107.1938         calculate D2E/DX2 analytically  !
 ! A44   A(10,9,11)            107.9675         calculate D2E/DX2 analytically  !
 ! A45   A(10,9,12)            109.7302         calculate D2E/DX2 analytically  !
 ! A46   A(11,9,12)            110.327          calculate D2E/DX2 analytically  !
 ! A47   A(9,10,34)            110.5984         calculate D2E/DX2 analytically  !
 ! A48   A(9,10,35)            110.8604         calculate D2E/DX2 analytically  !
 ! A49   A(9,10,36)            110.5859         calculate D2E/DX2 analytically  !
 ! A50   A(34,10,35)           108.191          calculate D2E/DX2 analytically  !
 ! A51   A(34,10,36)           108.2291         calculate D2E/DX2 analytically  !
 ! A52   A(35,10,36)           108.2825         calculate D2E/DX2 analytically  !
 ! A53   A(9,11,37)            110.8112         calculate D2E/DX2 analytically  !
 ! A54   A(9,11,38)            110.7908         calculate D2E/DX2 analytically  !
 ! A55   A(9,11,39)            110.562          calculate D2E/DX2 analytically  !
 ! A56   A(37,11,38)           108.2515         calculate D2E/DX2 analytically  !
 ! A57   A(37,11,39)           108.2718         calculate D2E/DX2 analytically  !
 ! A58   A(38,11,39)           108.0543         calculate D2E/DX2 analytically  !
 ! A59   A(9,12,13)            140.4783         calculate D2E/DX2 analytically  !
 ! A60   A(12,13,14)           110.608          calculate D2E/DX2 analytically  !
 ! A61   A(12,13,15)           110.6965         calculate D2E/DX2 analytically  !
 ! A62   A(12,13,19)           111.5326         calculate D2E/DX2 analytically  !
 ! A63   A(14,13,15)           109.2679         calculate D2E/DX2 analytically  !
 ! A64   A(14,13,19)           107.3624         calculate D2E/DX2 analytically  !
 ! A65   A(15,13,19)           107.2464         calculate D2E/DX2 analytically  !
 ! A66   A(13,14,40)           110.2424         calculate D2E/DX2 analytically  !
 ! A67   A(13,14,41)           111.3116         calculate D2E/DX2 analytically  !
 ! A68   A(13,14,42)           110.6004         calculate D2E/DX2 analytically  !
 ! A69   A(40,14,41)           107.9609         calculate D2E/DX2 analytically  !
 ! A70   A(40,14,42)           108.2227         calculate D2E/DX2 analytically  !
 ! A71   A(41,14,42)           108.4014         calculate D2E/DX2 analytically  !
 ! A72   A(13,15,16)           117.8083         calculate D2E/DX2 analytically  !
 ! A73   A(13,15,43)           108.3976         calculate D2E/DX2 analytically  !
 ! A74   A(13,15,44)           105.7556         calculate D2E/DX2 analytically  !
 ! A75   A(16,15,43)           110.717          calculate D2E/DX2 analytically  !
 ! A76   A(16,15,44)           107.3761         calculate D2E/DX2 analytically  !
 ! A77   A(43,15,44)           106.06           calculate D2E/DX2 analytically  !
 ! A78   A(15,16,17)           116.5406         calculate D2E/DX2 analytically  !
 ! A79   A(15,16,45)           109.6954         calculate D2E/DX2 analytically  !
 ! A80   A(15,16,46)           107.6991         calculate D2E/DX2 analytically  !
 ! A81   A(17,16,45)           108.2464         calculate D2E/DX2 analytically  !
 ! A82   A(17,16,46)           108.2518         calculate D2E/DX2 analytically  !
 ! A83   A(45,16,46)           105.8904         calculate D2E/DX2 analytically  !
 ! A84   A(16,17,18)           113.1177         calculate D2E/DX2 analytically  !
 ! A85   A(16,17,47)           111.0024         calculate D2E/DX2 analytically  !
 ! A86   A(16,17,48)           108.5548         calculate D2E/DX2 analytically  !
 ! A87   A(18,17,47)           109.6189         calculate D2E/DX2 analytically  !
 ! A88   A(18,17,48)           108.1355         calculate D2E/DX2 analytically  !
 ! A89   A(47,17,48)           106.124          calculate D2E/DX2 analytically  !
 ! A90   A(17,18,49)           110.0749         calculate D2E/DX2 analytically  !
 ! A91   A(17,18,50)           109.6795         calculate D2E/DX2 analytically  !
 ! A92   A(49,18,50)           106.135          calculate D2E/DX2 analytically  !
 ! A93   A(13,19,51)           110.4035         calculate D2E/DX2 analytically  !
 ! A94   A(13,19,52)           110.5189         calculate D2E/DX2 analytically  !
 ! A95   A(13,19,53)           110.6785         calculate D2E/DX2 analytically  !
 ! A96   A(51,19,52)           108.4166         calculate D2E/DX2 analytically  !
 ! A97   A(51,19,53)           108.3098         calculate D2E/DX2 analytically  !
 ! A98   A(52,19,53)           108.4383         calculate D2E/DX2 analytically  !
 ! D1    D(20,1,2,3)            58.7468         calculate D2E/DX2 analytically  !
 ! D2    D(20,1,2,4)           -59.2898         calculate D2E/DX2 analytically  !
 ! D3    D(20,1,2,8)          -178.5927         calculate D2E/DX2 analytically  !
 ! D4    D(21,1,2,3)           -61.1194         calculate D2E/DX2 analytically  !
 ! D5    D(21,1,2,4)          -179.1561         calculate D2E/DX2 analytically  !
 ! D6    D(21,1,2,8)            61.5411         calculate D2E/DX2 analytically  !
 ! D7    D(22,1,2,3)           178.8387         calculate D2E/DX2 analytically  !
 ! D8    D(22,1,2,4)            60.8021         calculate D2E/DX2 analytically  !
 ! D9    D(22,1,2,8)           -58.5007         calculate D2E/DX2 analytically  !
 ! D10   D(1,2,3,23)            61.4155         calculate D2E/DX2 analytically  !
 ! D11   D(1,2,3,24)          -178.5789         calculate D2E/DX2 analytically  !
 ! D12   D(1,2,3,25)           -58.3993         calculate D2E/DX2 analytically  !
 ! D13   D(4,2,3,23)           179.339          calculate D2E/DX2 analytically  !
 ! D14   D(4,2,3,24)           -60.6555         calculate D2E/DX2 analytically  !
 ! D15   D(4,2,3,25)            59.5241         calculate D2E/DX2 analytically  !
 ! D16   D(8,2,3,23)           -61.2208         calculate D2E/DX2 analytically  !
 ! D17   D(8,2,3,24)            58.7848         calculate D2E/DX2 analytically  !
 ! D18   D(8,2,3,25)           178.9644         calculate D2E/DX2 analytically  !
 ! D19   D(1,2,4,5)             59.8738         calculate D2E/DX2 analytically  !
 ! D20   D(1,2,4,26)          -177.625          calculate D2E/DX2 analytically  !
 ! D21   D(1,2,4,27)           -62.9192         calculate D2E/DX2 analytically  !
 ! D22   D(3,2,4,5)            -58.4147         calculate D2E/DX2 analytically  !
 ! D23   D(3,2,4,26)            64.0865         calculate D2E/DX2 analytically  !
 ! D24   D(3,2,4,27)           178.7924         calculate D2E/DX2 analytically  !
 ! D25   D(8,2,4,5)           -179.3482         calculate D2E/DX2 analytically  !
 ! D26   D(8,2,4,26)           -56.847          calculate D2E/DX2 analytically  !
 ! D27   D(8,2,4,27)            57.8589         calculate D2E/DX2 analytically  !
 ! D28   D(1,2,8,9)            -62.8891         calculate D2E/DX2 analytically  !
 ! D29   D(3,2,8,9)             58.5612         calculate D2E/DX2 analytically  !
 ! D30   D(4,2,8,9)            177.9587         calculate D2E/DX2 analytically  !
 ! D31   D(2,4,5,6)            176.8792         calculate D2E/DX2 analytically  !
 ! D32   D(2,4,5,28)           -60.1798         calculate D2E/DX2 analytically  !
 ! D33   D(2,4,5,29)            56.4015         calculate D2E/DX2 analytically  !
 ! D34   D(26,4,5,6)            55.715          calculate D2E/DX2 analytically  !
 ! D35   D(26,4,5,28)          178.6561         calculate D2E/DX2 analytically  !
 ! D36   D(26,4,5,29)          -64.7627         calculate D2E/DX2 analytically  !
 ! D37   D(27,4,5,6)           -62.5033         calculate D2E/DX2 analytically  !
 ! D38   D(27,4,5,28)           60.4377         calculate D2E/DX2 analytically  !
 ! D39   D(27,4,5,29)          177.019          calculate D2E/DX2 analytically  !
 ! D40   D(4,5,6,7)             65.9765         calculate D2E/DX2 analytically  !
 ! D41   D(4,5,6,30)           -56.485          calculate D2E/DX2 analytically  !
 ! D42   D(4,5,6,31)          -173.9382         calculate D2E/DX2 analytically  !
 ! D43   D(28,5,6,7)           -57.3493         calculate D2E/DX2 analytically  !
 ! D44   D(28,5,6,30)         -179.8109         calculate D2E/DX2 analytically  !
 ! D45   D(28,5,6,31)           62.7359         calculate D2E/DX2 analytically  !
 ! D46   D(29,5,6,7)          -172.5872         calculate D2E/DX2 analytically  !
 ! D47   D(29,5,6,30)           64.9512         calculate D2E/DX2 analytically  !
 ! D48   D(29,5,6,31)          -52.5019         calculate D2E/DX2 analytically  !
 ! D49   D(5,6,7,32)           -64.4776         calculate D2E/DX2 analytically  !
 ! D50   D(5,6,7,33)           179.8542         calculate D2E/DX2 analytically  !
 ! D51   D(30,6,7,32)           58.2812         calculate D2E/DX2 analytically  !
 ! D52   D(30,6,7,33)          -57.387          calculate D2E/DX2 analytically  !
 ! D53   D(31,6,7,32)          175.2216         calculate D2E/DX2 analytically  !
 ! D54   D(31,6,7,33)           59.5534         calculate D2E/DX2 analytically  !
 ! D55   D(2,8,9,10)           -64.0212         calculate D2E/DX2 analytically  !
 ! D56   D(2,8,9,11)            55.8203         calculate D2E/DX2 analytically  !
 ! D57   D(2,8,9,12)           176.3037         calculate D2E/DX2 analytically  !
 ! D58   D(8,9,10,34)         -176.79           calculate D2E/DX2 analytically  !
 ! D59   D(8,9,10,35)           63.2018         calculate D2E/DX2 analytically  !
 ! D60   D(8,9,10,36)          -56.9129         calculate D2E/DX2 analytically  !
 ! D61   D(11,9,10,34)          61.6344         calculate D2E/DX2 analytically  !
 ! D62   D(11,9,10,35)         -58.3738         calculate D2E/DX2 analytically  !
 ! D63   D(11,9,10,36)        -178.4886         calculate D2E/DX2 analytically  !
 ! D64   D(12,9,10,34)         -58.6484         calculate D2E/DX2 analytically  !
 ! D65   D(12,9,10,35)        -178.6566         calculate D2E/DX2 analytically  !
 ! D66   D(12,9,10,36)          61.2286         calculate D2E/DX2 analytically  !
 ! D67   D(8,9,11,37)           57.7231         calculate D2E/DX2 analytically  !
 ! D68   D(8,9,11,38)          -62.4555         calculate D2E/DX2 analytically  !
 ! D69   D(8,9,11,39)          177.7766         calculate D2E/DX2 analytically  !
 ! D70   D(10,9,11,37)         179.2101         calculate D2E/DX2 analytically  !
 ! D71   D(10,9,11,38)          59.0315         calculate D2E/DX2 analytically  !
 ! D72   D(10,9,11,39)         -60.7364         calculate D2E/DX2 analytically  !
 ! D73   D(12,9,11,37)         -60.8824         calculate D2E/DX2 analytically  !
 ! D74   D(12,9,11,38)         178.939          calculate D2E/DX2 analytically  !
 ! D75   D(12,9,11,39)          59.1711         calculate D2E/DX2 analytically  !
 ! D76   D(8,9,12,13)          -51.7381         calculate D2E/DX2 analytically  !
 ! D77   D(10,9,12,13)        -172.0609         calculate D2E/DX2 analytically  !
 ! D78   D(11,9,12,13)          69.1008         calculate D2E/DX2 analytically  !
 ! D79   D(9,12,13,14)         156.8467         calculate D2E/DX2 analytically  !
 ! D80   D(9,12,13,15)         -81.8928         calculate D2E/DX2 analytically  !
 ! D81   D(9,12,13,19)          37.4334         calculate D2E/DX2 analytically  !
 ! D82   D(12,13,14,40)        -65.9947         calculate D2E/DX2 analytically  !
 ! D83   D(12,13,14,41)         53.7843         calculate D2E/DX2 analytically  !
 ! D84   D(12,13,14,42)        174.3567         calculate D2E/DX2 analytically  !
 ! D85   D(15,13,14,40)        171.903          calculate D2E/DX2 analytically  !
 ! D86   D(15,13,14,41)        -68.318          calculate D2E/DX2 analytically  !
 ! D87   D(15,13,14,42)         52.2545         calculate D2E/DX2 analytically  !
 ! D88   D(19,13,14,40)         55.9036         calculate D2E/DX2 analytically  !
 ! D89   D(19,13,14,41)        175.6825         calculate D2E/DX2 analytically  !
 ! D90   D(19,13,14,42)        -63.745          calculate D2E/DX2 analytically  !
 ! D91   D(12,13,15,16)        -40.6204         calculate D2E/DX2 analytically  !
 ! D92   D(12,13,15,43)       -167.2693         calculate D2E/DX2 analytically  !
 ! D93   D(12,13,15,44)         79.3545         calculate D2E/DX2 analytically  !
 ! D94   D(14,13,15,16)         81.4287         calculate D2E/DX2 analytically  !
 ! D95   D(14,13,15,43)        -45.2202         calculate D2E/DX2 analytically  !
 ! D96   D(14,13,15,44)       -158.5964         calculate D2E/DX2 analytically  !
 ! D97   D(19,13,15,16)       -162.4979         calculate D2E/DX2 analytically  !
 ! D98   D(19,13,15,43)         70.8533         calculate D2E/DX2 analytically  !
 ! D99   D(19,13,15,44)        -42.523          calculate D2E/DX2 analytically  !
 ! D100  D(12,13,19,51)        178.2484         calculate D2E/DX2 analytically  !
 ! D101  D(12,13,19,52)         58.3068         calculate D2E/DX2 analytically  !
 ! D102  D(12,13,19,53)        -61.8403         calculate D2E/DX2 analytically  !
 ! D103  D(14,13,19,51)         56.929          calculate D2E/DX2 analytically  !
 ! D104  D(14,13,19,52)        -63.0126         calculate D2E/DX2 analytically  !
 ! D105  D(14,13,19,53)        176.8402         calculate D2E/DX2 analytically  !
 ! D106  D(15,13,19,51)        -60.3986         calculate D2E/DX2 analytically  !
 ! D107  D(15,13,19,52)        179.6598         calculate D2E/DX2 analytically  !
 ! D108  D(15,13,19,53)         59.5127         calculate D2E/DX2 analytically  !
 ! D109  D(13,15,16,17)        -67.5079         calculate D2E/DX2 analytically  !
 ! D110  D(13,15,16,45)         55.8951         calculate D2E/DX2 analytically  !
 ! D111  D(13,15,16,46)        170.6977         calculate D2E/DX2 analytically  !
 ! D112  D(43,15,16,17)         58.0103         calculate D2E/DX2 analytically  !
 ! D113  D(43,15,16,45)       -178.5867         calculate D2E/DX2 analytically  !
 ! D114  D(43,15,16,46)        -63.7841         calculate D2E/DX2 analytically  !
 ! D115  D(44,15,16,17)        173.3676         calculate D2E/DX2 analytically  !
 ! D116  D(44,15,16,45)        -63.2295         calculate D2E/DX2 analytically  !
 ! D117  D(44,15,16,46)         51.5732         calculate D2E/DX2 analytically  !
 ! D118  D(15,16,17,18)        -58.1085         calculate D2E/DX2 analytically  !
 ! D119  D(15,16,17,47)         65.5988         calculate D2E/DX2 analytically  !
 ! D120  D(15,16,17,48)       -178.1278         calculate D2E/DX2 analytically  !
 ! D121  D(45,16,17,18)        177.7437         calculate D2E/DX2 analytically  !
 ! D122  D(45,16,17,47)        -58.549          calculate D2E/DX2 analytically  !
 ! D123  D(45,16,17,48)         57.7244         calculate D2E/DX2 analytically  !
 ! D124  D(46,16,17,18)         63.3949         calculate D2E/DX2 analytically  !
 ! D125  D(46,16,17,47)       -172.8978         calculate D2E/DX2 analytically  !
 ! D126  D(46,16,17,48)        -56.6244         calculate D2E/DX2 analytically  !
 ! D127  D(16,17,18,49)         65.1148         calculate D2E/DX2 analytically  !
 ! D128  D(16,17,18,50)        -51.3044         calculate D2E/DX2 analytically  !
 ! D129  D(47,17,18,49)        -59.3493         calculate D2E/DX2 analytically  !
 ! D130  D(47,17,18,50)       -175.7684         calculate D2E/DX2 analytically  !
 ! D131  D(48,17,18,49)       -174.6264         calculate D2E/DX2 analytically  !
 ! D132  D(48,17,18,50)         68.9544         calculate D2E/DX2 analytically  !
 --------------------------------------------------------------------------------
 Trust Radius=3.00D-01 FncErr=1.00D-07 GrdErr=1.00D-06 EigMax=2.50D+02 EigMin=1.00D-04
 Number of steps in this run=    292 maximum allowed number of steps=    318.
 GradGradGradGradGradGradGradGradGradGradGradGradGradGradGradGradGradGrad

 Stoichiometry    C12H34N2O2Si3
 Framework group  C1[X(C12H34N2O2Si3)]
 Deg. of freedom   153
 Full point group                 C1      NOp   1
 Largest Abelian subgroup         C1      NOp   1
 Largest concise Abelian subgroup C1      NOp   1
                         Standard orientation:                         
 ---------------------------------------------------------------------
 Center     Atomic      Atomic             Coordinates (Angstroms)
 Number     Number       Type             X           Y           Z
 ---------------------------------------------------------------------
      1          6           0        2.780975   -1.366697    1.947053
      2         14           0        2.571622   -0.944821    0.129634
      3          6           0        3.328307   -2.315292   -0.906834
      4          6           0        3.518577    0.686648   -0.227265
      5          6           0        5.024773    0.643550    0.058736
      6          6           0        5.747443    1.941040   -0.312267
      7          7           0        5.327271    3.060694    0.521179
      8          8           0        0.962583   -0.722807   -0.252018
      9         14           0       -0.501135   -1.514672   -0.309965
     10          6           0       -0.454618   -2.906008   -1.567632
     11          6           0       -0.926366   -2.257736    1.359833
     12          8           0       -1.653304   -0.390555   -0.755113
     13         14           0       -2.208252    1.125207   -0.325328
     14          6           0       -3.079312    1.946596   -1.774970
     15          6           0       -3.415510    1.008770    1.152237
     16          6           0       -4.424874   -0.146963    1.162597
     17          6           0       -5.515718   -0.112927    0.087137
     18          7           0       -6.326563    1.097308    0.132614
     19          6           0       -0.792627    2.258785    0.196766
     20          1           0        3.838393   -1.487007    2.198833
     21          1           0        2.266925   -2.301179    2.189641
     22          1           0        2.366354   -0.573544    2.575845
     23          1           0        2.819963   -3.265906   -0.720328
     24          1           0        3.243118   -2.083837   -1.972725
     25          1           0        4.387523   -2.445674   -0.666959
     26          1           0        3.348645    0.937734   -1.280886
     27          1           0        3.036223    1.463371    0.376338
     28          1           0        5.202298    0.416108    1.117968
     29          1           0        5.484208   -0.173103   -0.512529
     30          1           0        5.575453    2.181537   -1.367278
     31          1           0        6.825768    1.796038   -0.182461
     32          1           0        4.342007    3.263188    0.355198
     33          1           0        5.835492    3.898160    0.239286
     34          1           0       -1.433792   -3.388037   -1.644792
     35          1           0        0.278380   -3.665735   -1.281104
     36          1           0       -0.183204   -2.522649   -2.555367
     37          1           0       -0.952231   -1.485394    2.133555
     38          1           0       -0.186200   -3.009089    1.650348
     39          1           0       -1.906230   -2.742453    1.326283
     40          1           0       -2.365445    2.151839   -2.578736
     41          1           0       -3.867272    1.306360   -2.179411
     42          1           0       -3.529143    2.894845   -1.466571
     43          1           0       -3.927577    1.971405    1.256972
     44          1           0       -2.785235    0.901493    2.044311
     45          1           0       -3.893132   -1.102859    1.082256
     46          1           0       -4.912280   -0.155783    2.146762
     47          1           0       -5.085372   -0.229273   -0.911464
     48          1           0       -6.178404   -0.973347    0.235154
     49          1           0       -5.754495    1.909944   -0.090034
     50          1           0       -6.670893    1.244436    1.080851
     51          1           0       -1.172635    3.254302    0.444217
     52          1           0       -0.062930    2.358613   -0.612300
     53          1           0       -0.281052    1.857787    1.076509
 ---------------------------------------------------------------------
 Rotational constants (GHZ):           0.4406143           0.1235987           0.1078736
 Standard basis: 6-31G(d,p) (6D, 7F)
 There are   467 symmetry adapted cartesian basis functions of A   symmetry.
 There are   467 symmetry adapted basis functions of A   symmetry.
   467 basis functions,   842 primitive gaussians,   467 cartesian basis functions
    89 alpha electrons       89 beta electrons
       nuclear repulsion energy      2033.2165216977 Hartrees.
 NAtoms=   53 NActive=   53 NUniq=   53 SFac= 1.00D+00 NAtFMM=   60 NAOKFM=F Big=F
 Integral buffers will be    131072 words long.
 Raffenetti 2 integral format.
 Two-electron integral symmetry is turned on.
 Force inversion solution in PCM.
 ------------------------------------------------------------------------------
 Polarizable Continuum Model (PCM)
 =================================
 Model                : PCM.
 Atomic radii         : UFF (Universal Force Field).
 Polarization charges : Total charges.
 Charge compensation  : None.
 Solution method      : Matrix inversion.
 Cavity type          : Scaled VdW (van der Waals Surface) (Alpha=1.100).
 Cavity algorithm     : GePol (No added spheres)
                        Default sphere list used, NSphG=   53.
                        Lebedev-Laikov grids with approx.  5.0 points / Ang**2.
                        Smoothing algorithm: York/Karplus (Gamma=1.0000).
                        Polarization charges: spherical gaussians, with
                                              point-specific exponents (IZeta= 3).
                        Self-potential: point-specific (ISelfS= 7).
                        Self-field    : sphere-specific E.n sum rule (ISelfD= 2).
 1st derivatives      : Analytical E(r).r(x)/FMM algorithm (CHGder, D1EAlg=3).
                        Cavity 1st derivative terms included.
 2nd derivatives      : Analytical E(r).r(xy)/FMM algorithm (CHGder, D2EAlg=3).
                        Cavity 2nd derivative terms included.
 Solvent              : Water, Eps=  78.355300 Eps(inf)=   1.777849
 ------------------------------------------------------------------------------
 One-electron integrals computed using PRISM.
 NBasis=   467 RedAO= T EigKep=  3.45D-03  NBF=   467
 NBsUse=   467 1.00D-06 EigRej= -1.00D+00 NBFU=   467
 ExpMin= 7.78D-02 ExpMax= 1.61D+04 ExpMxC= 2.43D+03 IAcc=3 IRadAn=         5 AccDes= 0.00D+00
 Harris functional with IExCor=  402 and IRadAn=       5 diagonalized for initial guess.
 HarFok:  IExCor=  402 AccDes= 0.00D+00 IRadAn=         5 IDoV= 1 UseB2=F ITyADJ=14
 ICtDFT=  3500011 ScaDFX=  1.000000  1.000000  1.000000  1.000000
 FoFCou: FMM=F IPFlag=           0 FMFlag=      100000 FMFlg1=           0
         NFxFlg=           0 DoJE=T BraDBF=F KetDBF=T FulRan=T
         wScrn=  0.000000 ICntrl=       500 IOpCl=  0 I1Cent=   200000004 NGrid=           0
         NMat0=    1 NMatS0=      1 NMatT0=    0 NMatD0=    1 NMtDS0=    0 NMtDT0=    0
 Petite list used in FoFCou.
 Requested convergence on RMS density matrix=1.00D-08 within  32 cycles.
 Requested convergence on MAX density matrix=1.00D-06.
 Requested convergence on             energy=1.00D-06.
 No special actions if energy rises.
 Inv3:  Mode=1 IEnd=    42910572.
 Iteration    1 A*A^-1 deviation from unit magnitude is 3.55D-15 for     97.
 Iteration    1 A*A^-1 deviation from orthogonality  is 2.56D-15 for   3220   2021.
 Iteration    1 A^-1*A deviation from unit magnitude is 3.33D-15 for   2654.
 Iteration    1 A^-1*A deviation from orthogonality  is 2.81D-15 for   3116   2263.
 Error on total polarization charges =  0.01370
 SCF Done:  E(RB3LYP) =  -1606.52062384     A.U. after   11 cycles
            NFock= 11  Conv=0.99D-08     -V/T= 2.0067
 QCSCF skips out because SCF is already converged.
 DoSCS=F DFT=T ScalE2(SS,OS)=  1.000000  1.000000
 Range of M.O.s used for correlation:     1   467
 NBasis=   467 NAE=    89 NBE=    89 NFC=     0 NFV=     0
 NROrb=    467 NOA=    89 NOB=    89 NVA=   378 NVB=   378
 Symmetrizing basis deriv contribution to polar:
 IMax=3 JMax=2 DiffMx= 0.00D+00
 G2DrvN: will do    54 centers at a time, making    1 passes.
 Calling FoFCou, ICntrl=  3107 FMM=F I1Cent=   0 AccDes= 0.00D+00.
 NEqPCM:  Using equilibrium solvation (IEInf=0, Eps=  78.3553, EpsInf=   1.7778)
 G2PCM: DoFxE=T DoFxN=T DoGrad=T DoDP/DQ/DG/TGxP=FFFF NFrqRd=   0 IEInf=0 SqF1=F DoCFld=F IF1Alg=4.
 End of G2Drv F.D. properties file   721 does not exist.
 End of G2Drv F.D. properties file   722 does not exist.
 End of G2Drv F.D. properties file   788 does not exist.
          IDoAtm=11111111111111111111111111111111111111111111111111
          IDoAtm=111
 NEqPCM:  Using equilibrium solvation (IEInf=0, Eps=  78.3553, EpsInf=   1.7778)
          Differentiating once with respect to nuclear coordinates.
 CalDSu exits because no D1Ps are significant.
          There are   162 degrees of freedom in the 1st order CPHF.  IDoFFX=6 NUNeed=     0.
    156 vectors produced by pass  0 Test12= 3.36D-14 1.00D-09 XBig12= 8.01D-02 6.80D-02.
 AX will form   156 AO Fock derivatives at one time.
    156 vectors produced by pass  1 Test12= 3.36D-14 1.00D-09 XBig12= 3.00D-02 1.66D-02.
    156 vectors produced by pass  2 Test12= 3.36D-14 1.00D-09 XBig12= 1.95D-04 1.20D-03.
    156 vectors produced by pass  3 Test12= 3.36D-14 1.00D-09 XBig12= 5.34D-07 4.45D-05.
    156 vectors produced by pass  4 Test12= 3.36D-14 1.00D-09 XBig12= 5.98D-10 1.87D-06.
     63 vectors produced by pass  5 Test12= 3.36D-14 1.00D-09 XBig12= 4.18D-13 4.25D-08.
      3 vectors produced by pass  6 Test12= 3.36D-14 1.00D-09 XBig12= 2.73D-16 1.41D-09.
 InvSVY:  IOpt=1 It=  1 EMax= 5.55D-16
 Solved reduced A of dimension   846 with   162 vectors.
 End of Minotr F.D. properties file   721 does not exist.
 End of Minotr F.D. properties file   722 does not exist.
 End of Minotr F.D. properties file   788 does not exist.

 **********************************************************************

            Population analysis using the SCF density.

 **********************************************************************

 Orbital symmetries:
       Occupied  (A) (A) (A) (A) (A) (A) (A) (A) (A) (A) (A) (A)
                 (A) (A) (A) (A) (A) (A) (A) (A) (A) (A) (A) (A)
                 (A) (A) (A) (A) (A) (A) (A) (A) (A) (A) (A) (A)
                 (A) (A) (A) (A) (A) (A) (A) (A) (A) (A) (A) (A)
                 (A) (A) (A) (A) (A) (A) (A) (A) (A) (A) (A) (A)
                 (A) (A) (A) (A) (A) (A) (A) (A) (A) (A) (A) (A)
                 (A) (A) (A) (A) (A) (A) (A) (A) (A) (A) (A) (A)
                 (A) (A) (A) (A) (A)
       Virtual   (A) (A) (A) (A) (A) (A) (A) (A) (A) (A) (A) (A)
                 (A) (A) (A) (A) (A) (A) (A) (A) (A) (A) (A) (A)
                 (A) (A) (A) (A) (A) (A) (A) (A) (A) (A) (A) (A)
                 (A) (A) (A) (A) (A) (A) (A) (A) (A) (A) (A) (A)
                 (A) (A) (A) (A) (A) (A) (A) (A) (A) (A) (A) (A)
                 (A) (A) (A) (A) (A) (A) (A) (A) (A) (A) (A) (A)
                 (A) (A) (A) (A) (A) (A) (A) (A) (A) (A) (A) (A)
                 (A) (A) (A) (A) (A) (A) (A) (A) (A) (A) (A) (A)
                 (A) (A) (A) (A) (A) (A) (A) (A) (A) (A) (A) (A)
                 (A) (A) (A) (A) (A) (A) (A) (A) (A) (A) (A) (A)
                 (A) (A) (A) (A) (A) (A) (A) (A) (A) (A) (A) (A)
                 (A) (A) (A) (A) (A) (A) (A) (A) (A) (A) (A) (A)
                 (A) (A) (A) (A) (A) (A) (A) (A) (A) (A) (A) (A)
                 (A) (A) (A) (A) (A) (A) (A) (A) (A) (A) (A) (A)
                 (A) (A) (A) (A) (A) (A) (A) (A) (A) (A) (A) (A)
                 (A) (A) (A) (A) (A) (A) (A) (A) (A) (A) (A) (A)
                 (A) (A) (A) (A) (A) (A) (A) (A) (A) (A) (A) (A)
                 (A) (A) (A) (A) (A) (A) (A) (A) (A) (A) (A) (A)
                 (A) (A) (A) (A) (A) (A) (A) (A) (A) (A) (A) (A)
                 (A) (A) (A) (A) (A) (A) (A) (A) (A) (A) (A) (A)
                 (A) (A) (A) (A) (A) (A) (A) (A) (A) (A) (A) (A)
                 (A) (A) (A) (A) (A) (A) (A) (A) (A) (A) (A) (A)
                 (A) (A) (A) (A) (A) (A) (A) (A) (A) (A) (A) (A)
                 (A) (A) (A) (A) (A) (A) (A) (A) (A) (A) (A) (A)
                 (A) (A) (A) (A) (A) (A) (A) (A) (A) (A) (A) (A)
                 (A) (A) (A) (A) (A) (A) (A) (A) (A) (A) (A) (A)
                 (A) (A) (A) (A) (A) (A) (A) (A) (A) (A) (A) (A)
                 (A) (A) (A) (A) (A) (A) (A) (A) (A) (A) (A) (A)
                 (A) (A) (A) (A) (A) (A) (A) (A) (A) (A) (A) (A)
                 (A) (A) (A) (A) (A) (A) (A) (A) (A) (A) (A) (A)
                 (A) (A) (A) (A) (A) (A) (A) (A) (A) (A) (A) (A)
                 (A) (A) (A) (A) (A) (A)
 The electronic state is 1-A.
 Alpha  occ. eigenvalues --  -66.16874 -66.13925 -66.13896 -19.13544 -19.13358
 Alpha  occ. eigenvalues --  -14.30697 -14.30453 -10.19909 -10.19778 -10.17826
 Alpha  occ. eigenvalues --  -10.17347 -10.16015 -10.15910 -10.15873 -10.15794
 Alpha  occ. eigenvalues --  -10.15620 -10.15537 -10.15498 -10.15387  -5.30499
 Alpha  occ. eigenvalues --   -5.27973  -5.27937  -3.66618  -3.66425  -3.66242
 Alpha  occ. eigenvalues --   -3.64057  -3.64024  -3.63780  -3.63769  -3.63752
 Alpha  occ. eigenvalues --   -3.63725  -0.98110  -0.96048  -0.87649  -0.87429
 Alpha  occ. eigenvalues --   -0.75705  -0.75205  -0.70298  -0.69789  -0.69607
 Alpha  occ. eigenvalues --   -0.67752  -0.67273  -0.67245  -0.65730  -0.65308
 Alpha  occ. eigenvalues --   -0.57413  -0.57266  -0.54617  -0.50409  -0.48990
 Alpha  occ. eigenvalues --   -0.48232  -0.46378  -0.44425  -0.43428  -0.42572
 Alpha  occ. eigenvalues --   -0.41834  -0.41347  -0.41166  -0.41093  -0.40755
 Alpha  occ. eigenvalues --   -0.40612  -0.40429  -0.40108  -0.40015  -0.39633
 Alpha  occ. eigenvalues --   -0.39290  -0.38962  -0.38508  -0.38474  -0.37872
 Alpha  occ. eigenvalues --   -0.37754  -0.37296  -0.36030  -0.35809  -0.35236
 Alpha  occ. eigenvalues --   -0.35092  -0.34174  -0.33544  -0.33301  -0.33100
 Alpha  occ. eigenvalues --   -0.32633  -0.32571  -0.29354  -0.27980  -0.27148
 Alpha  occ. eigenvalues --   -0.26568  -0.26142  -0.23018  -0.22974
 Alpha virt. eigenvalues --    0.04319   0.06532   0.07390   0.07615   0.08274
 Alpha virt. eigenvalues --    0.09222   0.09735   0.10300   0.10486   0.11761
 Alpha virt. eigenvalues --    0.12035   0.12172   0.12264   0.12514   0.12877
 Alpha virt. eigenvalues --    0.13560   0.13713   0.13944   0.14459   0.14990
 Alpha virt. eigenvalues --    0.15566   0.15797   0.16103   0.16678   0.17109
 Alpha virt. eigenvalues --    0.17313   0.17557   0.17696   0.18557   0.18709
 Alpha virt. eigenvalues --    0.19085   0.19575   0.19969   0.20261   0.20798
 Alpha virt. eigenvalues --    0.20901   0.21322   0.21836   0.22207   0.22255
 Alpha virt. eigenvalues --    0.22776   0.23638   0.23915   0.24300   0.24967
 Alpha virt. eigenvalues --    0.25418   0.26059   0.26949   0.27158   0.28099
 Alpha virt. eigenvalues --    0.28462   0.28800   0.31925   0.34408   0.36412
 Alpha virt. eigenvalues --    0.36918   0.38764   0.39302   0.40314   0.42045
 Alpha virt. eigenvalues --    0.42464   0.43956   0.45199   0.46466   0.46819
 Alpha virt. eigenvalues --    0.47718   0.52434   0.53583   0.55322   0.55859
 Alpha virt. eigenvalues --    0.57300   0.57974   0.58291   0.58811   0.59429
 Alpha virt. eigenvalues --    0.60242   0.60936   0.61231   0.62555   0.63084
 Alpha virt. eigenvalues --    0.63857   0.65361   0.65951   0.66082   0.67090
 Alpha virt. eigenvalues --    0.68888   0.69417   0.70270   0.71090   0.71609
 Alpha virt. eigenvalues --    0.72550   0.72768   0.73818   0.74171   0.74686
 Alpha virt. eigenvalues --    0.74809   0.75639   0.76198   0.76484   0.76928
 Alpha virt. eigenvalues --    0.77295   0.78486   0.78945   0.80318   0.80852
 Alpha virt. eigenvalues --    0.81528   0.81992   0.83010   0.84400   0.84762
 Alpha virt. eigenvalues --    0.85273   0.85856   0.86186   0.86601   0.86875
 Alpha virt. eigenvalues --    0.87763   0.88281   0.88424   0.88767   0.89187
 Alpha virt. eigenvalues --    0.89301   0.89646   0.89866   0.90115   0.90442
 Alpha virt. eigenvalues --    0.90844   0.91165   0.91522   0.91788   0.92238
 Alpha virt. eigenvalues --    0.92715   0.93124   0.93876   0.94206   0.94489
 Alpha virt. eigenvalues --    0.95072   0.95651   0.96163   0.96775   0.97179
 Alpha virt. eigenvalues --    0.97714   0.98728   0.99512   1.00005   1.00980
 Alpha virt. eigenvalues --    1.01065   1.02096   1.02560   1.03616   1.04713
 Alpha virt. eigenvalues --    1.05644   1.07294   1.07994   1.10573   1.11943
 Alpha virt. eigenvalues --    1.12777   1.13603   1.17986   1.18761   1.22959
 Alpha virt. eigenvalues --    1.23575   1.25957   1.27739   1.28392   1.29169
 Alpha virt. eigenvalues --    1.30254   1.32633   1.33157   1.33524   1.34678
 Alpha virt. eigenvalues --    1.35246   1.36636   1.37220   1.41110   1.45518
 Alpha virt. eigenvalues --    1.45928   1.47120   1.47889   1.49492   1.50393
 Alpha virt. eigenvalues --    1.51342   1.52627   1.52880   1.54351   1.55153
 Alpha virt. eigenvalues --    1.56662   1.58074   1.58752   1.60432   1.61161
 Alpha virt. eigenvalues --    1.62996   1.64054   1.64813   1.66720   1.69298
 Alpha virt. eigenvalues --    1.69918   1.70915   1.71943   1.72782   1.78087
 Alpha virt. eigenvalues --    1.78847   1.83318   1.83713   1.83930   1.84752
 Alpha virt. eigenvalues --    1.86318   1.88030   1.88885   1.89736   1.90379
 Alpha virt. eigenvalues --    1.93775   1.95450   1.97059   1.97715   2.00251
 Alpha virt. eigenvalues --    2.01077   2.01696   2.02915   2.03504   2.03835
 Alpha virt. eigenvalues --    2.04700   2.04987   2.05054   2.05391   2.05437
 Alpha virt. eigenvalues --    2.05714   2.06376   2.09042   2.09216   2.09718
 Alpha virt. eigenvalues --    2.10249   2.10852   2.11015   2.11360   2.11461
 Alpha virt. eigenvalues --    2.12269   2.13208   2.13439   2.13815   2.13899
 Alpha virt. eigenvalues --    2.14194   2.14292   2.15656   2.16051   2.16496
 Alpha virt. eigenvalues --    2.16825   2.17307   2.18550   2.19862   2.20099
 Alpha virt. eigenvalues --    2.21972   2.23669   2.24796   2.25860   2.25999
 Alpha virt. eigenvalues --    2.28169   2.28275   2.30449   2.31932   2.32559
 Alpha virt. eigenvalues --    2.33375   2.33695   2.34443   2.34791   2.34825
 Alpha virt. eigenvalues --    2.35382   2.35568   2.35852   2.36273   2.37326
 Alpha virt. eigenvalues --    2.37984   2.38432   2.38568   2.39654   2.40022
 Alpha virt. eigenvalues --    2.43418   2.45039   2.46336   2.47120   2.49535
 Alpha virt. eigenvalues --    2.54581   2.54895   2.56835   2.58079   2.58923
 Alpha virt. eigenvalues --    2.62276   2.62491   2.63987   2.65001   2.66181
 Alpha virt. eigenvalues --    2.67205   2.68061   2.68268   2.68665   2.69089
 Alpha virt. eigenvalues --    2.69762   2.70276   2.73002   2.73705   2.74898
 Alpha virt. eigenvalues --    2.75569   2.80462   2.81187   2.81755   2.82711
 Alpha virt. eigenvalues --    2.82781   2.82973   2.83738   2.84100   2.84859
 Alpha virt. eigenvalues --    2.84888   2.85139   2.85338   2.85367   2.85923
 Alpha virt. eigenvalues --    2.86964   2.87160   2.88778   2.89386   2.90577
 Alpha virt. eigenvalues --    2.92491   2.94318   2.94688   2.98118   2.98950
 Alpha virt. eigenvalues --    3.08126   3.11042   3.11397   3.19369   3.19635
 Alpha virt. eigenvalues --    3.21048   3.21836   3.21909   3.22341   3.25400
 Alpha virt. eigenvalues --    3.27535   3.30229   3.30503   3.31137   3.33341
 Alpha virt. eigenvalues --    3.34417   3.35299   3.39984   3.40047   3.43063
 Alpha virt. eigenvalues --    3.43182   3.43700   3.43952   3.44410   3.44694
 Alpha virt. eigenvalues --    3.45063   3.45507   3.45866   3.46140   3.46515
 Alpha virt. eigenvalues --    3.47570   3.48947   3.49709   3.55185   3.55562
 Alpha virt. eigenvalues --    3.57881   3.59865   3.92432   3.94650   3.97406
 Alpha virt. eigenvalues --    3.98089   4.34872   4.38247   4.43952   4.45366
 Alpha virt. eigenvalues --    4.46293   4.47397   4.48774   4.50859   4.54467
 Alpha virt. eigenvalues --    4.54821   4.67416   4.68109
          Condensed to atoms (all electrons):
 Mulliken charges:
               1
     1  C   -0.550400
     2  Si   0.910915
     3  C   -0.552131
     4  C   -0.403435
     5  C   -0.176418
     6  C   -0.052487
     7  N   -0.644331
     8  O   -0.675221
     9  Si   1.047096
    10  C   -0.552475
    11  C   -0.570642
    12  O   -0.669387
    13  Si   0.919614
    14  C   -0.553065
    15  C   -0.401319
    16  C   -0.188435
    17  C   -0.063640
    18  N   -0.636132
    19  C   -0.551031
    20  H    0.123011
    21  H    0.118975
    22  H    0.117192
    23  H    0.119494
    24  H    0.117685
    25  H    0.123092
    26  H    0.104877
    27  H    0.106255
    28  H    0.098764
    29  H    0.098118
    30  H    0.080044
    31  H    0.095749
    32  H    0.248455
    33  H    0.250628
    34  H    0.125228
    35  H    0.128165
    36  H    0.120738
    37  H    0.121899
    38  H    0.124997
    39  H    0.125889
    40  H    0.118936
    41  H    0.119282
    42  H    0.124873
    43  H    0.099938
    44  H    0.107313
    45  H    0.094799
    46  H    0.085388
    47  H    0.107748
    48  H    0.098264
    49  H    0.251537
    50  H    0.249076
    51  H    0.117777
    52  H    0.118399
    53  H    0.120342
 Sum of Mulliken charges =  -0.00000
 Mulliken charges with hydrogens summed into heavy atoms:
               1
     1  C   -0.191223
     2  Si   0.910915
     3  C   -0.191861
     4  C   -0.192303
     5  C    0.020465
     6  C    0.123306
     7  N   -0.145247
     8  O   -0.675221
     9  Si   1.047096
    10  C   -0.178345
    11  C   -0.197858
    12  O   -0.669387
    13  Si   0.919614
    14  C   -0.189974
    15  C   -0.194068
    16  C   -0.008248
    17  C    0.142372
    18  N   -0.135519
    19  C   -0.194513
 APT charges:
               1
     1  C   -1.285011
     2  Si   0.574649
     3  C   -1.372297
     4  C   -0.360872
     5  C   -0.900762
     6  C   -1.129637
     7  N   -1.034277
     8  O   -0.938089
     9  Si   0.603429
    10  C   -1.343675
    11  C   -1.283922
    12  O   -0.767386
    13  Si   0.590456
    14  C   -1.382548
    15  C   -0.712837
    16  C   -0.620765
    17  C   -0.781386
    18  N   -0.768612
    19  C   -1.146738
    20  H    0.767211
    21  H    0.332885
    22  H    0.157719
    23  H    0.330886
    24  H    0.305575
    25  H    0.768217
    26  H    0.252703
    27  H    0.120192
    28  H    0.368387
    29  H    0.487324
    30  H    0.267853
    31  H    0.980833
    32  H   -0.294023
    33  H    1.240048
    34  H    0.566582
    35  H    0.499785
    36  H    0.335156
    37  H    0.208286
    38  H    0.488941
    39  H    0.563635
    40  H    0.233650
    41  H    0.521874
    42  H    0.654483
    43  H    0.584558
    44  H    0.141363
    45  H    0.031332
    46  H    0.611293
    47  H   -0.004210
    48  H    0.748427
    49  H   -0.029326
    50  H    0.808753
    51  H    0.632417
    52  H    0.229331
    53  H    0.148139
 Sum of APT charges =  -0.00000
 APT charges with hydrogens summed into heavy atoms:
               1
     1  C   -0.027196
     2  Si   0.574649
     3  C    0.032381
     4  C    0.012023
     5  C   -0.045051
     6  C    0.119049
     7  N   -0.088252
     8  O   -0.938089
     9  Si   0.603429
    10  C    0.057848
    11  C   -0.023059
    12  O   -0.767386
    13  Si   0.590456
    14  C    0.027459
    15  C    0.013084
    16  C    0.021861
    17  C   -0.037169
    18  N    0.010816
    19  C   -0.136851
 Electronic spatial extent (au):  <R**2>=          10516.1188
 Charge=             -0.0000 electrons
 Dipole moment (field-independent basis, Debye):
    X=              1.6324    Y=             -0.1678    Z=              0.6287  Tot=              1.7573
 Quadrupole moment (field-independent basis, Debye-Ang):
   XX=           -157.8147   YY=           -131.2801   ZZ=           -144.4474
   XY=             -1.8015   XZ=            -17.2523   YZ=             -3.5102
 Traceless Quadrupole moment (field-independent basis, Debye-Ang):
   XX=            -13.3006   YY=             13.2340   ZZ=              0.0666
   XY=             -1.8015   XZ=            -17.2523   YZ=             -3.5102
 Octapole moment (field-independent basis, Debye-Ang**2):
  XXX=            148.7993  YYY=             27.6234  ZZZ=             -6.8991  XYY=              4.0850
  XXY=             -2.5304  XXZ=             13.7947  XZZ=            -17.7579  YZZ=             -2.0299
  YYZ=            -10.0206  XYZ=            -35.2668
 Hexadecapole moment (field-independent basis, Debye-Ang**3):
 XXXX=         -11679.1300 YYYY=          -2449.2749 ZZZZ=          -1018.6357 XXXY=            166.1656
 XXXZ=           -648.8692 YYYX=            115.6679 YYYZ=            -35.4469 ZZZX=            -38.7298
 ZZZY=              5.1245 XXYY=          -2017.0256 XXZZ=          -1969.2369 YYZZ=           -642.3117
 XXYZ=            -66.5327 YYXZ=            -75.4805 ZZXY=            -35.0678
 N-N= 2.033216521698D+03 E-N=-7.848612740043D+03  KE= 1.595836921499D+03
  Exact polarizability:   0.000   0.000   0.000   0.000   0.000   0.000
 Approx polarizability: 279.154   0.848 276.846  -3.484   0.109 263.025
 D2PCM: PCM CHGder 2nd derivatives, FixD1E=F FixD2E=F DoIter=F DoCFld=F I1PDM=0
 Calling FoFJK, ICntrl=    100147 FMM=F ISym2X=0 I1Cent= 0 IOpClX= 0 NMat=1 NMatS=1 NMatT=0.
 ***** Axes restored to original set *****
 -------------------------------------------------------------------
 Center     Atomic                   Forces (Hartrees/Bohr)
 Number     Number              X              Y              Z
 -------------------------------------------------------------------
      1        6           0.004262241   -0.000412612   -0.000538303
      2       14          -0.015142509    0.008255892    0.001667581
      3        6           0.003885086   -0.001336450    0.001323501
      4        6           0.011212236   -0.009250402   -0.003875138
      5        6          -0.000424782   -0.002462641    0.001822363
      6        6          -0.000125676    0.000378888    0.001273426
      7        7           0.000363156    0.008882692   -0.010190622
      8        8           0.002515762   -0.001706064   -0.000013508
      9       14           0.001892832   -0.002170452   -0.001546053
     10        6           0.001208228    0.005524427    0.004341451
     11        6          -0.000727790    0.004778524    0.001056739
     12        8          -0.004869582   -0.004848156   -0.000167672
     13       14           0.006687361    0.014074467   -0.006340132
     14        6          -0.002857701   -0.007285809    0.002668735
     15        6          -0.008919825   -0.006944916    0.003891040
     16        6          -0.002507245   -0.006142865   -0.003827897
     17        6          -0.001732488    0.003153960   -0.008533399
     18        7           0.009272112    0.004208976    0.009020501
     19        6          -0.000306052   -0.005071828   -0.000229884
     20        1          -0.000789694    0.000048703   -0.000089181
     21        1          -0.000086875   -0.000250570   -0.001985167
     22        1          -0.000005323    0.000367313   -0.001933879
     23        1          -0.000676633   -0.001802735    0.000585160
     24        1          -0.000639780   -0.001503893    0.000950065
     25        1          -0.000549738   -0.000022984   -0.000124440
     26        1           0.000354905    0.002241198    0.001904832
     27        1           0.000686306    0.002628821    0.001080428
     28        1          -0.000842077    0.001801181    0.000555039
     29        1          -0.000300144    0.000145277    0.000250367
     30        1          -0.001290238   -0.008129221    0.005928498
     31        1          -0.000924829    0.001079547   -0.000029830
     32        1          -0.002209472   -0.000060886    0.001415514
     33        1           0.001811143   -0.000879952   -0.000548014
     34        1           0.000376980   -0.000518958    0.000072620
     35        1          -0.000211021    0.000199303   -0.000451750
     36        1          -0.000183632   -0.001845673    0.001390601
     37        1           0.000348415   -0.000053958   -0.002256483
     38        1          -0.000279652   -0.000340573   -0.000445941
     39        1           0.000644672   -0.000283604   -0.000242211
     40        1           0.000789781    0.000669967    0.001861079
     41        1           0.001526846    0.000346132    0.002048333
     42        1          -0.000221586    0.000661617   -0.000604230
     43        1           0.000263881    0.001476965   -0.000007241
     44        1           0.000033955    0.002130426   -0.000908064
     45        1          -0.001509259   -0.000300719   -0.000945071
     46        1           0.002636314   -0.001726976   -0.000598471
     47        1          -0.000137924    0.001380032    0.002155542
     48        1           0.000417665   -0.000987774    0.000047561
     49        1           0.000762738   -0.000708022   -0.001377678
     50        1          -0.001188579   -0.000406980    0.000792025
     51        1           0.000465408    0.000798247    0.000060585
     52        1          -0.001219662    0.001146073   -0.000286532
     53        1          -0.001538260    0.001077042   -0.000066796
 -------------------------------------------------------------------
 Cartesian Forces:  Max     0.015142509 RMS     0.003520111
 FormGI is forming the generalized inverse of G from B-inverse, IUseBI=4.

 GradGradGradGradGradGradGradGradGradGradGradGradGradGradGradGradGradGrad
 Berny optimization.
 Internal  Forces:  Max     0.015610403 RMS     0.002304475
 Search for a local minimum.
 Step number   1 out of a maximum of  292
 All quantities printed in internal units (Hartrees-Bohrs-Radians)
 Mixed Optimization -- RFO/linear search
 Second derivative matrix not updated -- analytic derivatives used.
 ITU=  0
     Eigenvalues ---   -0.00984  -0.00334   0.00004   0.00035   0.00041
     Eigenvalues ---    0.00093   0.00107   0.00116   0.00123   0.00128
     Eigenvalues ---    0.00131   0.00158   0.00180   0.00208   0.00262
     Eigenvalues ---    0.00281   0.00351   0.00391   0.02215   0.02298
     Eigenvalues ---    0.02629   0.02685   0.02784   0.02846   0.02969
     Eigenvalues ---    0.03104   0.03122   0.03174   0.03207   0.03245
     Eigenvalues ---    0.03278   0.03307   0.03359   0.03429   0.03492
     Eigenvalues ---    0.03503   0.03600   0.03743   0.03793   0.03904
     Eigenvalues ---    0.03991   0.04012   0.04055   0.04074   0.04330
     Eigenvalues ---    0.04383   0.04426   0.04611   0.04627   0.04669
     Eigenvalues ---    0.05041   0.05160   0.05397   0.05754   0.05915
     Eigenvalues ---    0.05944   0.06241   0.07133   0.07256   0.07329
     Eigenvalues ---    0.07350   0.07364   0.07769   0.08054   0.08372
     Eigenvalues ---    0.08410   0.09112   0.09166   0.09757   0.10399
     Eigenvalues ---    0.10432   0.10479   0.10494   0.10504   0.10515
     Eigenvalues ---    0.10552   0.10567   0.10747   0.10876   0.11148
     Eigenvalues ---    0.11374   0.11452   0.11527   0.11931   0.12124
     Eigenvalues ---    0.12227   0.12502   0.12607   0.13034   0.13090
     Eigenvalues ---    0.14046   0.14117   0.14519   0.14920   0.15083
     Eigenvalues ---    0.16635   0.17388   0.17905   0.18344   0.18430
     Eigenvalues ---    0.18464   0.18775   0.19541   0.19716   0.19914
     Eigenvalues ---    0.21478   0.23049   0.23756   0.24465   0.26534
     Eigenvalues ---    0.27997   0.28547   0.29598   0.30964   0.31164
     Eigenvalues ---    0.31838   0.32121   0.32504   0.32564   0.32791
     Eigenvalues ---    0.32852   0.33072   0.33088   0.33187   0.33471
     Eigenvalues ---    0.33549   0.33761   0.33773   0.33961   0.34006
     Eigenvalues ---    0.34045   0.34066   0.34069   0.34080   0.34106
     Eigenvalues ---    0.34109   0.34117   0.34158   0.34178   0.34204
     Eigenvalues ---    0.34321   0.34608   0.34612   0.34634   0.34683
     Eigenvalues ---    0.34700   0.34756   0.37808   0.38065   0.43978
     Eigenvalues ---    0.44045   0.44236   0.44543
 RFO step:  Lambda=-1.02967099D-02 EMin=-9.83659776D-03
 I=     1 Eig=   -9.84D-03 Dot1= -1.48D-04
 I=     1 Stepn= -6.00D-01 RXN=   6.00D-01 EDone=F
 I=     2 Eig=   -3.34D-03 Dot1= -7.89D-05
 I=     2 Stepn= -3.00D-01 RXN=   6.71D-01 EDone=F
 Mixed    2 eigenvectors in step.  Raw Step.Grad=  2.27D-04.
 RFO eigenvector is Hessian eigenvector with negative curvature.
 Taking step of  6.00D-01 in eigenvector direction(s).  Step.Grad=  3.27D-04.
 Linear search not attempted -- first point.
 Iteration  1 RMS(Cart)=  0.23196378 RMS(Int)=  0.02215497
 Iteration  2 RMS(Cart)=  0.25553415 RMS(Int)=  0.01156722
 Iteration  3 RMS(Cart)=  0.06731376 RMS(Int)=  0.00058959
 Iteration  4 RMS(Cart)=  0.00159774 RMS(Int)=  0.00001128
 Iteration  5 RMS(Cart)=  0.00000090 RMS(Int)=  0.00001128
 Variable       Old X    -DE/DX   Delta X   Delta X   Delta X     New X
                                 (Linear)    (Quad)   (Total)
    R1        3.54787   0.00406   0.00000  -0.00140  -0.00140   3.54647
    R2        2.06664   0.00079   0.00000   0.00011   0.00011   2.06675
    R3        2.06694   0.00099   0.00000   0.00001   0.00001   2.06695
    R4        2.06697   0.00109   0.00000   0.00000   0.00000   2.06697
    R5        3.54797   0.00411   0.00000   0.00078   0.00078   3.54875
    R6        3.62798  -0.00699   0.00000  -0.00146  -0.00146   3.62652
    R7        3.15304   0.00154   0.00000  -0.00148  -0.00148   3.15156
    R8        2.06739   0.00095   0.00000   0.00051   0.00051   2.06790
    R9        2.06746   0.00090   0.00000  -0.00012  -0.00012   2.06734
   R10        2.06705   0.00056   0.00000   0.00004   0.00004   2.06709
   R11        2.89830   0.00383   0.00000   0.00015   0.00015   2.89845
   R12        2.07185   0.00195   0.00000   0.00067   0.00067   2.07252
   R13        2.07035   0.00201   0.00000  -0.00037  -0.00037   2.06999
   R14        2.89281   0.00112   0.00000   0.00000   0.00000   2.89281
   R15        2.07459  -0.00036   0.00000   0.00216   0.00216   2.07675
   R16        2.07384   0.00009   0.00000   0.00012   0.00012   2.07396
   R17        2.75460   0.01058   0.00000  -0.00238  -0.00238   2.75222
   R18        2.07049   0.00563   0.00000   0.00032   0.00032   2.07082
   R19        2.07066   0.00082   0.00000   0.00004   0.00004   2.07071
   R20        1.92650  -0.00190   0.00000  -0.00012  -0.00012   1.92638
   R21        1.92632  -0.00178   0.00000  -0.00014  -0.00014   1.92617
   R22        3.14676  -0.00196   0.00000  -0.00140  -0.00140   3.14536
   R23        3.54529  -0.00035   0.00000  -0.00079  -0.00079   3.54450
   R24        3.54604   0.00103   0.00000   0.00048   0.00048   3.54652
   R25        3.15606  -0.00540   0.00000   0.00392   0.00392   3.15998
   R26        2.06758   0.00057   0.00000  -0.00009  -0.00009   2.06749
   R27        2.06713   0.00020   0.00000  -0.00035  -0.00035   2.06678
   R28        2.06686   0.00112   0.00000   0.00020   0.00020   2.06705
   R29        2.06649   0.00116   0.00000   0.00010   0.00010   2.06658
   R30        2.06731   0.00058   0.00000   0.00057   0.00057   2.06788
   R31        2.06682   0.00072   0.00000   0.00026   0.00026   2.06707
   R32        3.15659   0.00177   0.00000   0.00417   0.00417   3.16076
   R33        3.55293   0.00326   0.00000  -0.00046  -0.00046   3.55247
   R34        3.61241  -0.00191   0.00000  -0.00132  -0.00132   3.61109
   R35        3.56632   0.00066   0.00000   0.00044   0.00044   3.56676
   R36        2.06817   0.00095   0.00000   0.00004   0.00004   2.06820
   R37        2.06522   0.00130   0.00000  -0.00054  -0.00054   2.06468
   R38        2.06719   0.00056   0.00000   0.00027   0.00027   2.06745
   R39        2.89976   0.00563   0.00000   0.00148   0.00148   2.90124
   R40        2.06996   0.00141   0.00000  -0.00018  -0.00018   2.06978
   R41        2.07401   0.00091   0.00000  -0.00061  -0.00061   2.07340
   R42        2.89548   0.00583   0.00000   0.00032   0.00032   2.89580
   R43        2.07263   0.00112   0.00000   0.00113   0.00113   2.07375
   R44        2.07545   0.00133   0.00000  -0.00002  -0.00002   2.07543
   R45        2.75421   0.00875   0.00000   0.00013   0.00013   2.75434
   R46        2.06659   0.00152   0.00000   0.00009   0.00009   2.06667
   R47        2.07128   0.00096   0.00000  -0.00005  -0.00005   2.07123
   R48        1.92457  -0.00149   0.00000   0.00019   0.00019   1.92476
   R49        1.92656  -0.00122   0.00000  -0.00000  -0.00000   1.92656
   R50        2.06724   0.00091   0.00000   0.00007   0.00007   2.06731
   R51        2.06751   0.00050   0.00000  -0.00072  -0.00072   2.06679
   R52        2.06703   0.00062   0.00000   0.00100   0.00100   2.06803
    A1        1.93414  -0.00101   0.00000   0.00206   0.00207   1.93621
    A2        1.93293   0.00223   0.00000  -0.00330  -0.00331   1.92963
    A3        1.92973   0.00203   0.00000  -0.00010  -0.00011   1.92963
    A4        1.88532  -0.00080   0.00000   0.00095   0.00095   1.88627
    A5        1.89014  -0.00078   0.00000   0.00059   0.00059   1.89073
    A6        1.89007  -0.00182   0.00000  -0.00014  -0.00014   1.88993
    A7        1.90226  -0.00011   0.00000  -0.00138  -0.00135   1.90091
    A8        1.89221   0.00198   0.00000   0.01585   0.01587   1.90808
    A9        1.93784  -0.00022   0.00000  -0.00624  -0.00623   1.93161
   A10        1.89535   0.00193   0.00000  -0.00870  -0.00870   1.88664
   A11        1.93854  -0.00028   0.00000   0.00563   0.00560   1.94414
   A12        1.89660  -0.00319   0.00000  -0.00496  -0.00494   1.89165
   A13        1.93145   0.00225   0.00000   0.00017   0.00017   1.93161
   A14        1.93053   0.00205   0.00000   0.00066   0.00066   1.93119
   A15        1.93501  -0.00091   0.00000  -0.00047  -0.00047   1.93454
   A16        1.88992  -0.00183   0.00000   0.00087   0.00087   1.89080
   A17        1.88493  -0.00090   0.00000  -0.00142  -0.00142   1.88352
   A18        1.89048  -0.00081   0.00000   0.00017   0.00017   1.89065
   A19        2.01070  -0.00153   0.00000   0.00670   0.00666   2.01736
   A20        1.87215   0.00136   0.00000  -0.01770  -0.01767   1.85449
   A21        1.85760   0.00130   0.00000   0.01211   0.01210   1.86970
   A22        1.91543   0.00003   0.00000   0.00225   0.00226   1.91769
   A23        1.92789   0.00008   0.00000  -0.00388  -0.00397   1.92393
   A24        1.87429  -0.00121   0.00000   0.00001   0.00006   1.87436
   A25        1.97643   0.00354   0.00000  -0.00359  -0.00359   1.97284
   A26        1.92255  -0.00031   0.00000  -0.00357  -0.00356   1.91899
   A27        1.91238  -0.00068   0.00000   0.00419   0.00417   1.91655
   A28        1.91038  -0.00256   0.00000   0.00811   0.00811   1.91849
   A29        1.88277  -0.00103   0.00000  -0.00682  -0.00682   1.87595
   A30        1.85499   0.00086   0.00000   0.00199   0.00200   1.85699
   A31        1.95669  -0.00183   0.00000   0.00356   0.00356   1.96025
   A32        1.92336  -0.00469   0.00000  -0.00401  -0.00401   1.91935
   A33        1.90044   0.00174   0.00000   0.00098   0.00096   1.90140
   A34        1.91421   0.00736   0.00000  -0.00290  -0.00290   1.91131
   A35        1.89397  -0.00170   0.00000   0.00279   0.00278   1.89675
   A36        1.87297  -0.00084   0.00000  -0.00043  -0.00043   1.87253
   A37        1.91565  -0.00155   0.00000  -0.00061  -0.00061   1.91504
   A38        1.90628   0.00082   0.00000   0.00063   0.00063   1.90691
   A39        1.84797  -0.00067   0.00000   0.00066   0.00066   1.84863
   A40        2.48546   0.00632   0.00000   0.01680   0.01680   2.50226
   A41        1.93285  -0.00112   0.00000  -0.00864  -0.00865   1.92420
   A42        1.93535  -0.00217   0.00000   0.00869   0.00870   1.94406
   A43        1.87088   0.00155   0.00000  -0.00289  -0.00290   1.86798
   A44        1.88439   0.00651   0.00000   0.00289   0.00290   1.88729
   A45        1.91515  -0.00458   0.00000   0.00216   0.00215   1.91730
   A46        1.92557  -0.00038   0.00000  -0.00231  -0.00231   1.92326
   A47        1.93031   0.00006   0.00000   0.00254   0.00254   1.93285
   A48        1.93488  -0.00137   0.00000  -0.00068  -0.00069   1.93419
   A49        1.93009   0.00313   0.00000  -0.00200  -0.00200   1.92808
   A50        1.88829   0.00013   0.00000   0.00064   0.00064   1.88892
   A51        1.88895  -0.00122   0.00000  -0.00000  -0.00000   1.88895
   A52        1.88989  -0.00081   0.00000  -0.00048  -0.00048   1.88941
   A53        1.93402   0.00285   0.00000   0.00111   0.00111   1.93513
   A54        1.93366  -0.00020   0.00000   0.00202   0.00202   1.93568
   A55        1.92967  -0.00030   0.00000  -0.00255  -0.00255   1.92712
   A56        1.88934  -0.00120   0.00000  -0.00065  -0.00066   1.88869
   A57        1.88970  -0.00112   0.00000   0.00014   0.00014   1.88984
   A58        1.88590  -0.00015   0.00000  -0.00010  -0.00010   1.88580
   A59        2.45181   0.00614   0.00000  -0.06722  -0.06722   2.38459
   A60        1.93047  -0.00392   0.00000   0.00759   0.00758   1.93806
   A61        1.93202  -0.00064   0.00000  -0.01390  -0.01389   1.91813
   A62        1.94661   0.00065   0.00000   0.00300   0.00300   1.94961
   A63        1.90708   0.00364   0.00000   0.00132   0.00133   1.90841
   A64        1.87383   0.00130   0.00000  -0.00368  -0.00370   1.87013
   A65        1.87180  -0.00078   0.00000   0.00593   0.00593   1.87774
   A66        1.92409   0.00244   0.00000  -0.00157  -0.00157   1.92252
   A67        1.94275   0.00311   0.00000   0.00323   0.00323   1.94598
   A68        1.93034  -0.00216   0.00000  -0.00037  -0.00037   1.92997
   A69        1.88427  -0.00215   0.00000  -0.00071  -0.00071   1.88357
   A70        1.88884  -0.00068   0.00000   0.00021   0.00021   1.88905
   A71        1.89196  -0.00071   0.00000  -0.00085  -0.00085   1.89111
   A72        2.05614   0.00322   0.00000  -0.00764  -0.00764   2.04851
   A73        1.89190  -0.00153   0.00000   0.00397   0.00396   1.89585
   A74        1.84578  -0.00049   0.00000   0.00297   0.00297   1.84875
   A75        1.93238  -0.00103   0.00000   0.00020   0.00020   1.93258
   A76        1.87407  -0.00016   0.00000   0.00118   0.00118   1.87525
   A77        1.85110  -0.00025   0.00000   0.00006   0.00005   1.85115
   A78        2.03402  -0.00099   0.00000  -0.00246  -0.00246   2.03156
   A79        1.91455  -0.00131   0.00000   0.00039   0.00039   1.91493
   A80        1.87970   0.00298   0.00000   0.00015   0.00015   1.87986
   A81        1.88926   0.00175   0.00000   0.00026   0.00025   1.88951
   A82        1.88935  -0.00197   0.00000   0.00150   0.00150   1.89085
   A83        1.84814  -0.00045   0.00000   0.00043   0.00043   1.84856
   A84        1.97428   0.01561   0.00000  -0.00133  -0.00133   1.97295
   A85        1.93736  -0.00399   0.00000   0.00053   0.00053   1.93789
   A86        1.89464  -0.00385   0.00000   0.00078   0.00078   1.89542
   A87        1.91321  -0.00653   0.00000  -0.00075  -0.00075   1.91246
   A88        1.88732  -0.00428   0.00000   0.00119   0.00119   1.88851
   A89        1.85221   0.00222   0.00000  -0.00032  -0.00032   1.85189
   A90        1.92117   0.00025   0.00000  -0.00301  -0.00301   1.91816
   A91        1.91427  -0.00110   0.00000   0.00006   0.00006   1.91433
   A92        1.85241  -0.00024   0.00000  -0.00029  -0.00029   1.85211
   A93        1.92690  -0.00108   0.00000  -0.00110  -0.00111   1.92580
   A94        1.92892   0.00200   0.00000  -0.00308  -0.00308   1.92584
   A95        1.93170   0.00228   0.00000   0.00488   0.00488   1.93658
   A96        1.89223  -0.00074   0.00000   0.00083   0.00083   1.89305
   A97        1.89036  -0.00071   0.00000  -0.00285  -0.00285   1.88751
   A98        1.89260  -0.00187   0.00000   0.00130   0.00130   1.89390
    D1        1.02533   0.00137   0.00000  -0.00461  -0.00460   1.02072
    D2       -1.03480  -0.00200   0.00000  -0.00242  -0.00243  -1.03724
    D3       -3.11703   0.00080   0.00000  -0.00256  -0.00256  -3.11959
    D4       -1.06674   0.00158   0.00000  -0.00498  -0.00497  -1.07171
    D5       -3.12686  -0.00179   0.00000  -0.00279  -0.00280  -3.12967
    D6        1.07409   0.00101   0.00000  -0.00293  -0.00293   1.07117
    D7        3.12133   0.00107   0.00000  -0.00258  -0.00258   3.11875
    D8        1.06120  -0.00230   0.00000  -0.00039  -0.00040   1.06079
    D9       -1.02103   0.00050   0.00000  -0.00053  -0.00053  -1.02156
   D10        1.07190  -0.00159   0.00000  -0.00865  -0.00866   1.06325
   D11       -3.11679  -0.00108   0.00000  -0.00702  -0.00702  -3.12381
   D12       -1.01926  -0.00134   0.00000  -0.00669  -0.00669  -1.02595
   D13        3.13006   0.00181   0.00000   0.00463   0.00463   3.13469
   D14       -1.05864   0.00233   0.00000   0.00626   0.00626  -1.05237
   D15        1.03889   0.00206   0.00000   0.00659   0.00660   1.04549
   D16       -1.06850  -0.00106   0.00000  -0.00357  -0.00358  -1.07208
   D17        1.02599  -0.00054   0.00000  -0.00194  -0.00195   1.02404
   D18        3.12352  -0.00081   0.00000  -0.00161  -0.00161   3.12191
   D19        1.04499   0.00098   0.00000  -0.02476  -0.02475   1.02025
   D20       -3.10014   0.00103   0.00000  -0.03076  -0.03076  -3.13090
   D21       -1.09815   0.00090   0.00000  -0.03324  -0.03330  -1.13144
   D22       -1.01953  -0.00107   0.00000  -0.02715  -0.02710  -1.04663
   D23        1.11852  -0.00103   0.00000  -0.03315  -0.03311   1.08541
   D24        3.12052  -0.00115   0.00000  -0.03563  -0.03565   3.08486
   D25       -3.13022   0.00001   0.00000  -0.02585  -0.02583   3.12714
   D26       -0.99217   0.00006   0.00000  -0.03184  -0.03184  -1.02401
   D27        1.00983  -0.00007   0.00000  -0.03432  -0.03438   0.97544
   D28       -1.09762   0.00010   0.00000  -0.16030  -0.16029  -1.25792
   D29        1.02209  -0.00038   0.00000  -0.16247  -0.16246   0.85962
   D30        3.10597  -0.00019   0.00000  -0.17291  -0.17292   2.93304
   D31        3.08712   0.00050   0.00000  -0.06046  -0.06046   3.02667
   D32       -1.05034  -0.00053   0.00000  -0.05514  -0.05514  -1.10547
   D33        0.98439  -0.00006   0.00000  -0.05234  -0.05233   0.93206
   D34        0.97241  -0.00023   0.00000  -0.04371  -0.04371   0.92870
   D35        3.11814  -0.00126   0.00000  -0.03839  -0.03839   3.07975
   D36       -1.13032  -0.00079   0.00000  -0.03559  -0.03558  -1.16590
   D37       -1.09089   0.00118   0.00000  -0.04275  -0.04276  -1.13365
   D38        1.05484   0.00015   0.00000  -0.03743  -0.03744   1.01740
   D39        3.08956   0.00062   0.00000  -0.03463  -0.03463   3.05493
   D40        1.15151   0.00201   0.00000  -0.01938  -0.01939   1.13211
   D41       -0.98585  -0.00281   0.00000  -0.01526  -0.01527  -1.00112
   D42       -3.03579  -0.00011   0.00000  -0.01300  -0.01301  -3.04880
   D43       -1.00093   0.00183   0.00000  -0.01827  -0.01828  -1.01921
   D44       -3.13829  -0.00299   0.00000  -0.01415  -0.01415   3.13074
   D45        1.09495  -0.00029   0.00000  -0.01189  -0.01189   1.08306
   D46       -3.01221   0.00270   0.00000  -0.02116  -0.02115  -3.03337
   D47        1.13361  -0.00211   0.00000  -0.01704  -0.01703   1.11658
   D48       -0.91633   0.00058   0.00000  -0.01478  -0.01477  -0.93110
   D49       -1.12535  -0.00021   0.00000   0.00343   0.00343  -1.12192
   D50        3.13905   0.00100   0.00000   0.00262   0.00262  -3.14152
   D51        1.01720  -0.00221   0.00000  -0.00133  -0.00133   1.01587
   D52       -1.00159  -0.00101   0.00000  -0.00214  -0.00214  -1.00373
   D53        3.05819  -0.00009   0.00000  -0.00188  -0.00188   3.05631
   D54        1.03940   0.00111   0.00000  -0.00269  -0.00269   1.03671
   D55       -1.11738  -0.00387   0.00000  -0.14915  -0.14913  -1.26651
   D56        0.97425   0.00214   0.00000  -0.14550  -0.14551   0.82874
   D57        3.07708   0.00138   0.00000  -0.14506  -0.14507   2.93201
[...]
   269    N   18  S      Val( 2S)     1.44298
   270    N   18  S      Ryd( 3S)     0.00438
   271    N   18  S      Ryd( 4S)     0.00002
   272    N   18  px     Val( 2p)     1.41264
   273    N   18  px     Ryd( 3p)     0.00060
   274    N   18  py     Val( 2p)     1.20824
   275    N   18  py     Ryd( 3p)     0.00000
   276    N   18  pz     Val( 2p)     1.27829
   277    N   18  pz     Ryd( 3p)     0.00274
   278    N   18  dxy    Ryd( 3d)     0.00044
   279    N   18  dxz    Ryd( 3d)     0.00076
   280    N   18  dyz    Ryd( 3d)     0.00011
   281    N   18  dx2y2  Ryd( 3d)     0.00065
   282    N   18  dz2    Ryd( 3d)     0.00056

   283    C   19  S      Cor( 1S)     1.99948
   284    C   19  S      Val( 2S)     1.23646
   285    C   19  S      Ryd( 3S)     0.00201
   286    C   19  S      Ryd( 4S)     0.00002
   287    C   19  px     Val( 2p)     1.29006
   288    C   19  px     Ryd( 3p)     0.00129
   289    C   19  py     Val( 2p)     1.27099
   290    C   19  py     Ryd( 3p)     0.00124
   291    C   19  pz     Val( 2p)     1.42944
   292    C   19  pz     Ryd( 3p)     0.00326
   293    C   19  dxy    Ryd( 3d)     0.00029
   294    C   19  dxz    Ryd( 3d)     0.00028
   295    C   19  dyz    Ryd( 3d)     0.00058
   296    C   19  dx2y2  Ryd( 3d)     0.00073
   297    C   19  dz2    Ryd( 3d)     0.00052

   298    H   20  S      Val( 1S)     0.74654
   299    H   20  S      Ryd( 2S)     0.00148
   300    H   20  px     Ryd( 2p)     0.00031
   301    H   20  py     Ryd( 2p)     0.00008
   302    H   20  pz     Ryd( 2p)     0.00013

   303    H   21  S      Val( 1S)     0.74351
   304    H   21  S      Ryd( 2S)     0.00155
   305    H   21  px     Ryd( 2p)     0.00011
   306    H   21  py     Ryd( 2p)     0.00028
   307    H   21  pz     Ryd( 2p)     0.00013

   308    H   22  S      Val( 1S)     0.74509
   309    H   22  S      Ryd( 2S)     0.00249
   310    H   22  px     Ryd( 2p)     0.00013
   311    H   22  py     Ryd( 2p)     0.00019
   312    H   22  pz     Ryd( 2p)     0.00019

   313    H   23  S      Val( 1S)     0.74410
   314    H   23  S      Ryd( 2S)     0.00207
   315    H   23  px     Ryd( 2p)     0.00011
   316    H   23  py     Ryd( 2p)     0.00030
   317    H   23  pz     Ryd( 2p)     0.00010

   318    H   24  S      Val( 1S)     0.74381
   319    H   24  S      Ryd( 2S)     0.00159
   320    H   24  px     Ryd( 2p)     0.00010
   321    H   24  py     Ryd( 2p)     0.00010
   322    H   24  pz     Ryd( 2p)     0.00031

   323    H   25  S      Val( 1S)     0.74585
   324    H   25  S      Ryd( 2S)     0.00165
   325    H   25  px     Ryd( 2p)     0.00032
   326    H   25  py     Ryd( 2p)     0.00010
   327    H   25  pz     Ryd( 2p)     0.00009

   328    H   26  S      Val( 1S)     0.74911
   329    H   26  S      Ryd( 2S)     0.00234
   330    H   26  px     Ryd( 2p)     0.00010
   331    H   26  py     Ryd( 2p)     0.00012
   332    H   26  pz     Ryd( 2p)     0.00031

   333    H   27  S      Val( 1S)     0.75406
   334    H   27  S      Ryd( 2S)     0.00610
   335    H   27  px     Ryd( 2p)     0.00017
   336    H   27  py     Ryd( 2p)     0.00021
   337    H   27  pz     Ryd( 2p)     0.00016

   338    H   28  S      Val( 1S)     0.76550
   339    H   28  S      Ryd( 2S)     0.00269
   340    H   28  px     Ryd( 2p)     0.00011
   341    H   28  py     Ryd( 2p)     0.00009
   342    H   28  pz     Ryd( 2p)     0.00034

   343    H   29  S      Val( 1S)     0.76333
   344    H   29  S      Ryd( 2S)     0.00173
   345    H   29  px     Ryd( 2p)     0.00018
   346    H   29  py     Ryd( 2p)     0.00022
   347    H   29  pz     Ryd( 2p)     0.00015

   348    H   30  S      Val( 1S)     0.79675
   349    H   30  S      Ryd( 2S)     0.00232
   350    H   30  px     Ryd( 2p)     0.00009
   351    H   30  py     Ryd( 2p)     0.00009
   352    H   30  pz     Ryd( 2p)     0.00038

   353    H   31  S      Val( 1S)     0.76989
   354    H   31  S      Ryd( 2S)     0.00134
   355    H   31  px     Ryd( 2p)     0.00038
   356    H   31  py     Ryd( 2p)     0.00008
   357    H   31  pz     Ryd( 2p)     0.00009

   358    H   32  S      Val( 1S)     0.61400
   359    H   32  S      Ryd( 2S)     0.00172
   360    H   32  px     Ryd( 2p)     0.00055
   361    H   32  py     Ryd( 2p)     0.00031
   362    H   32  pz     Ryd( 2p)     0.00056

   363    H   33  S      Val( 1S)     0.60757
   364    H   33  S      Ryd( 2S)     0.00119
   365    H   33  px     Ryd( 2p)     0.00034
   366    H   33  py     Ryd( 2p)     0.00051
   367    H   33  pz     Ryd( 2p)     0.00057

   368    H   34  S      Val( 1S)     0.74860
   369    H   34  S      Ryd( 2S)     0.00367
   370    H   34  px     Ryd( 2p)     0.00025
   371    H   34  py     Ryd( 2p)     0.00014
   372    H   34  pz     Ryd( 2p)     0.00012

   373    H   35  S      Val( 1S)     0.75077
   374    H   35  S      Ryd( 2S)     0.00282
   375    H   35  px     Ryd( 2p)     0.00021
   376    H   35  py     Ryd( 2p)     0.00017
   377    H   35  pz     Ryd( 2p)     0.00014

   378    H   36  S      Val( 1S)     0.74426
   379    H   36  S      Ryd( 2S)     0.00299
   380    H   36  px     Ryd( 2p)     0.00008
   381    H   36  py     Ryd( 2p)     0.00024
   382    H   36  pz     Ryd( 2p)     0.00019

   383    H   37  S      Val( 1S)     0.74441
   384    H   37  S      Ryd( 2S)     0.00293
   385    H   37  px     Ryd( 2p)     0.00008
   386    H   37  py     Ryd( 2p)     0.00012
   387    H   37  pz     Ryd( 2p)     0.00031

   388    H   38  S      Val( 1S)     0.75251
   389    H   38  S      Ryd( 2S)     0.00377
   390    H   38  px     Ryd( 2p)     0.00021
   391    H   38  py     Ryd( 2p)     0.00020
   392    H   38  pz     Ryd( 2p)     0.00010

   393    H   39  S      Val( 1S)     0.74792
   394    H   39  S      Ryd( 2S)     0.00355
   395    H   39  px     Ryd( 2p)     0.00025
   396    H   39  py     Ryd( 2p)     0.00017
   397    H   39  pz     Ryd( 2p)     0.00009

   398    H   40  S      Val( 1S)     0.77076
   399    H   40  S      Ryd( 2S)     0.01357
   400    H   40  px     Ryd( 2p)     0.00030
   401    H   40  py     Ryd( 2p)     0.00011
   402    H   40  pz     Ryd( 2p)     0.00009

   403    H   41  S      Val( 1S)     0.76138
   404    H   41  S      Ryd( 2S)     0.01098
   405    H   41  px     Ryd( 2p)     0.00011
   406    H   41  py     Ryd( 2p)     0.00011
   407    H   41  pz     Ryd( 2p)     0.00030

   408    H   42  S      Val( 1S)     0.77648
   409    H   42  S      Ryd( 2S)     0.01681
   410    H   42  px     Ryd( 2p)     0.00012
   411    H   42  py     Ryd( 2p)     0.00025
   412    H   42  pz     Ryd( 2p)     0.00014

   413    H   43  S      Val( 1S)     0.78203
   414    H   43  S      Ryd( 2S)     0.02032
   415    H   43  px     Ryd( 2p)     0.00015
   416    H   43  py     Ryd( 2p)     0.00024
   417    H   43  pz     Ryd( 2p)     0.00015

   418    H   44  S      Val( 1S)     0.75363
   419    H   44  S      Ryd( 2S)     0.01088
   420    H   44  px     Ryd( 2p)     0.00013
   421    H   44  py     Ryd( 2p)     0.00020
   422    H   44  pz     Ryd( 2p)     0.00021

   423    H   45  S      Val( 1S)     0.73025
   424    H   45  S      Ryd( 2S)     0.00913
   425    H   45  px     Ryd( 2p)     0.00014
   426    H   45  py     Ryd( 2p)     0.00030
   427    H   45  pz     Ryd( 2p)     0.00012

   428    H   46  S      Val( 1S)     0.75215
   429    H   46  S      Ryd( 2S)     0.01199
   430    H   46  px     Ryd( 2p)     0.00034
   431    H   46  py     Ryd( 2p)     0.00010
   432    H   46  pz     Ryd( 2p)     0.00011

   433    H   47  S      Val( 1S)     0.74535
   434    H   47  S      Ryd( 2S)     0.01944
   435    H   47  px     Ryd( 2p)     0.00036
   436    H   47  py     Ryd( 2p)     0.00006
   437    H   47  pz     Ryd( 2p)     0.00013

   438    H   48  S      Val( 1S)     0.72209
   439    H   48  S      Ryd( 2S)     0.00680
   440    H   48  px     Ryd( 2p)     0.00013
   441    H   48  py     Ryd( 2p)     0.00011
   442    H   48  pz     Ryd( 2p)     0.00030

   443    H   49  S      Val( 1S)     0.64135
   444    H   49  S      Ryd( 2S)     0.05692
   445    H   49  px     Ryd( 2p)     0.00038
   446    H   49  py     Ryd( 2p)     0.00026
   447    H   49  pz     Ryd( 2p)     0.00050

   448    H   50  S      Val( 1S)     0.59451
   449    H   50  S      Ryd( 2S)     0.02844
   450    H   50  px     Ryd( 2p)     0.00061
   451    H   50  py     Ryd( 2p)     0.00029
   452    H   50  pz     Ryd( 2p)     0.00029

   453    H   51  S      Val( 1S)     0.75821
   454    H   51  S      Ryd( 2S)     0.00505
   455    H   51  px     Ryd( 2p)     0.00011
   456    H   51  py     Ryd( 2p)     0.00020
   457    H   51  pz     Ryd( 2p)     0.00020

   458    H   52  S      Val( 1S)     0.74845
   459    H   52  S      Ryd( 2S)     0.00529
   460    H   52  px     Ryd( 2p)     0.00031
   461    H   52  py     Ryd( 2p)     0.00008
   462    H   52  pz     Ryd( 2p)     0.00012

   463    H   53  S      Val( 1S)     0.75044
   464    H   53  S      Ryd( 2S)     0.00411
   465    H   53  px     Ryd( 2p)     0.00011
   466    H   53  py     Ryd( 2p)     0.00026
   467    H   53  pz     Ryd( 2p)     0.00015

 WARNING:  1 low occupancy (<1.9990e) core orbital  found on Si    2
           1 low occupancy (<1.9990e) core orbital  found on Si    9
           1 low occupancy (<1.9990e) core orbital  found on Si   13


 Summary of Natural Population Analysis:                  
                                                          
                                       Natural Population 
                Natural  -----------------------------------------------
    Atom  No    Charge         Core      Valence    Rydberg      Total
 -----------------------------------------------------------------------
      C    1   -1.24196      1.99948     5.23277    0.00970     7.24196
     Si    2    2.03261      9.99771     1.91009    0.05959    11.96739
      C    3   -1.24268      1.99949     5.23358    0.00961     7.24268
      C    4   -0.99811      1.99937     4.98429    0.01445     6.99811
      C    5   -0.47009      1.99934     4.45892    0.01183     6.47009
      C    6   -0.25953      1.99935     4.24590    0.01428     6.25953
      N    7   -0.93384      1.99968     5.91912    0.01504     7.93384
      O    8   -1.27527      1.99982     7.26587    0.00958     9.27527
     Si    9    2.17652      9.99726     1.75207    0.07415    11.82348
      C   10   -1.25021      1.99948     5.24083    0.00990     7.25021
      C   11   -1.25299      1.99948     5.24335    0.01016     7.25299
      O   12   -1.28129      1.99983     7.27062    0.01083     9.28129
     Si   13    1.97339      9.99778     1.94167    0.08717    12.02661
      C   14   -1.24512      1.99946     5.23346    0.01220     7.24512
      C   15   -0.99620      1.99934     4.98106    0.01579     6.99620
      C   16   -0.45142      1.99927     4.44003    0.01212     6.45142
      C   17   -0.34166      1.99930     4.32596    0.01640     6.34166
      N   18   -0.35177      1.99938     5.34214    0.01025     7.35177
      C   19   -1.23665      1.99948     5.22695    0.01022     7.23665
      H   20    0.25147      0.00000     0.74654    0.00199     0.74853
      H   21    0.25443      0.00000     0.74351    0.00207     0.74557
      H   22    0.25191      0.00000     0.74509    0.00300     0.74809
      H   23    0.25332      0.00000     0.74410    0.00259     0.74668
      H   24    0.25409      0.00000     0.74381    0.00210     0.74591
      H   25    0.25199      0.00000     0.74585    0.00216     0.74801
      H   26    0.24801      0.00000     0.74911    0.00288     0.75199
      H   27    0.23929      0.00000     0.75406    0.00665     0.76071
      H   28    0.23126      0.00000     0.76550    0.00324     0.76874
      H   29    0.23438      0.00000     0.76333    0.00229     0.76562
      H   30    0.20037      0.00000     0.79675    0.00289     0.79963
      H   31    0.22822      0.00000     0.76989    0.00189     0.77178
      H   32    0.38286      0.00000     0.61400    0.00314     0.61714
      H   33    0.38981      0.00000     0.60757    0.00261     0.61019
      H   34    0.24721      0.00000     0.74860    0.00419     0.75279
      H   35    0.24589      0.00000     0.75077    0.00333     0.75411
      H   36    0.25224      0.00000     0.74426    0.00350     0.74776
      H   37    0.25214      0.00000     0.74441    0.00345     0.74786
      H   38    0.24321      0.00000     0.75251    0.00428     0.75679
      H   39    0.24801      0.00000     0.74792    0.00407     0.75199
      H   40    0.21517      0.00000     0.77076    0.01407     0.78483
      H   41    0.22712      0.00000     0.76138    0.01151     0.77288
      H   42    0.20621      0.00000     0.77648    0.01731     0.79379
      H   43    0.19711      0.00000     0.78203    0.02086     0.80289
      H   44    0.23495      0.00000     0.75363    0.01142     0.76505
      H   45    0.26006      0.00000     0.73025    0.00969     0.73994
      H   46    0.23530      0.00000     0.75215    0.01254     0.76470
      H   47    0.23466      0.00000     0.74535    0.01998     0.76534
      H   48    0.27056      0.00000     0.72209    0.00735     0.72944
      H   49    0.30058      0.00000     0.64135    0.05807     0.69942
      H   50    0.37587      0.00000     0.59451    0.02962     0.62413
      H   51    0.23623      0.00000     0.75821    0.00556     0.76377
      H   52    0.24575      0.00000     0.74845    0.00580     0.75425
      H   53    0.24494      0.00000     0.75044    0.00462     0.75506
 =======================================================================
   * Total *   -0.00164     61.98429   115.31336    0.70398   178.00164

                                 Natural Population      
 --------------------------------------------------------
   Core                      61.98429 ( 99.9747% of  62)
   Valence                  115.31336 ( 99.4081% of 116)
   Natural Minimal Basis    177.29765 ( 99.6054% of 178)
   Natural Rydberg Basis      0.70398 (  0.3955% of 178)
 --------------------------------------------------------

    Atom  No          Natural Electron Configuration
 ----------------------------------------------------------------------------
      C    1      [core]2S( 1.24)2p( 4.00)3p( 0.01)
     Si    2      [core]3S( 0.73)3p( 1.18)4S( 0.01)3d( 0.04)4p( 0.01)
      C    3      [core]2S( 1.24)2p( 4.00)3p( 0.01)
      C    4      [core]2S( 1.16)2p( 3.82)3p( 0.01)
      C    5      [core]2S( 1.03)2p( 3.42)3p( 0.01)
      C    6      [core]2S( 1.02)2p( 3.22)3p( 0.01)
      N    7      [core]2S( 1.45)2p( 4.47)3p( 0.01)
      O    8      [core]2S( 1.74)2p( 5.53)
     Si    9      [core]3S( 0.68)3p( 1.07)4S( 0.02)3d( 0.05)4p( 0.01)
      C   10      [core]2S( 1.25)2p( 3.99)3p( 0.01)
      C   11      [core]2S( 1.25)2p( 4.00)3p( 0.01)
      O   12      [core]2S( 1.75)2p( 5.53)
     Si   13      [core]3S( 0.74)3p( 1.20)4S( 0.04)3d( 0.04)4p( 0.01)
      C   14      [core]2S( 1.26)2p( 3.97)3p( 0.01)
      C   15      [core]2S( 1.17)2p( 3.81)3p( 0.01)
      C   16      [core]2S( 1.05)2p( 3.39)3p( 0.01)
      C   17      [core]2S( 1.06)2p( 3.27)3p( 0.01)
      N   18      [core]2S( 1.44)2p( 3.90)
      C   19      [core]2S( 1.24)2p( 3.99)3p( 0.01)
      H   20            1S( 0.75)
      H   21            1S( 0.74)
      H   22            1S( 0.75)
      H   23            1S( 0.74)
      H   24            1S( 0.74)
      H   25            1S( 0.75)
      H   26            1S( 0.75)
      H   27            1S( 0.75)2S( 0.01)
      H   28            1S( 0.77)
      H   29            1S( 0.76)
      H   30            1S( 0.80)
      H   31            1S( 0.77)
      H   32            1S( 0.61)
      H   33            1S( 0.61)
      H   34            1S( 0.75)
      H   35            1S( 0.75)
      H   36            1S( 0.74)
      H   37            1S( 0.74)
      H   38            1S( 0.75)
      H   39            1S( 0.75)
      H   40            1S( 0.77)2S( 0.01)
      H   41            1S( 0.76)2S( 0.01)
      H   42            1S( 0.78)2S( 0.02)
      H   43            1S( 0.78)2S( 0.02)
      H   44            1S( 0.75)2S( 0.01)
      H   45            1S( 0.73)2S( 0.01)
      H   46            1S( 0.75)2S( 0.01)
      H   47            1S( 0.75)2S( 0.02)
      H   48            1S( 0.72)2S( 0.01)
      H   49            1S( 0.64)2S( 0.06)
      H   50            1S( 0.59)2S( 0.03)
      H   51            1S( 0.76)2S( 0.01)
      H   52            1S( 0.75)2S( 0.01)
      H   53            1S( 0.75)


 NBO analysis skipped by request.
 1\1\GINC-DRG2-W004\SP\RB3LYP TD-FC\6-31G(d,p)\C12H34N2O2Si3\QDUEZ\21-J
 ul-2024\0\\# TD(NStates=10, Root=1) B3LYP/6-31G** SCRF=(Solvent=water)
  volume pop=NPA density=current Geom=AllCheck Guess=Read\\ZWRBLCDTKAWR
 HT-UHFFFAOYSA-N_conf_2\\0,1\C,0,-3.0471863391,-0.0546971983,-2.0904644
 287\Si,0,-2.5974946269,-0.7900385216,-0.4140228357\C,0,-3.4259807336,-
 2.4702956105,-0.1984680505\C,0,-3.0698742797,0.3841272189,0.9911410156
 \C,0,-4.5658483741,0.7419785525,1.0871854546\C,0,-4.9217185853,1.62036
 57794,2.2930784176\N,0,-4.2742480219,2.9400302312,2.21487324\O,0,-0.93
 8071856,-0.96690716,-0.3234911523\Si,0,0.4423088509,-1.8025578426,-0.6
 968639501\C,0,0.6920202823,-3.1892410031,0.5394576106\C,0,0.3592033224
 ,-2.4400252011,-2.4601158705\O,0,1.7284930375,-0.7681060944,-0.5483950
 39\Si,0,2.2603901441,0.813525255,-0.6774264911\C,0,1.6794251401,1.7881
 791758,0.830475086\C,0,4.1481813756,0.7495190491,-0.8483249117\C,0,4.9
 465407577,-0.2152158173,0.0522375904\C,0,4.9779649353,0.1402622736,1.5
 494767\N,0,5.5604983721,1.4415770704,1.9090638562\C,0,1.5504135084,1.6
 140221482,-2.2313887038\H,0,-4.1287948552,0.0976925086,-2.1780059075\H
 ,0,-2.7382994023,-0.7169177758,-2.9065606756\H,0,-2.559883325,0.914759
 6635,-2.2419631357\H,0,-3.1240435451,-3.1640270118,-0.9908958729\H,0,-
 3.1624998536,-2.9236535183,0.763296418\H,0,-4.5173927715,-2.3803978113
 ,-0.2374324723\H,0,-2.7370136147,-0.0710032124,1.9356684474\H,0,-2.472
 6967239,1.2983682303,0.8675280973\H,0,-4.8839324762,1.261687962,0.1743
 9122\H,0,-5.1650562566,-0.1755385825,1.1523807317\H,0,-4.6777652371,1.
 0677723628,3.2177894654\H,0,-6.0060801582,1.7845134749,2.3042511495\H,
 0,-3.2756744955,2.8288569728,2.3808805709\H,0,-4.6050608248,3.51470448
 48,2.9876725826\H,0,1.6267859903,-3.7264733736,0.3462343287\H,0,-0.127
 8234057,-3.9138734861,0.4887765188\H,0,0.7328358943,-2.7985648063,1.56
 17203818\H,0,0.2135195561,-1.6185046392,-3.169496576\H,0,-0.4700500461
 ,-3.1446694708,-2.5872654962\H,0,1.2841207911,-2.9596803638,-2.7328538
 519\H,0,0.5861755141,1.8605648133,0.8400240718\H,0,1.9893350446,1.3242
 559789,1.7720979745\H,0,2.0788055383,2.8088573935,0.8121951308\H,0,4.5
 363248751,1.7723875429,-0.737673266\H,0,4.3442298464,0.4867962791,-1.8
 972004315\H,0,4.5426517687,-1.2306241255,-0.050990643\H,0,5.9855024926
 ,-0.2637101497,-0.3053727057\H,0,3.9637415138,0.1048895513,1.964829437
 4\H,0,5.5485507705,-0.635001787,2.0761560679\H,0,5.0154180624,2.187627
 412,1.4810551282\H,0,6.4885776234,1.5154080094,1.4934780049\H,0,1.9296
 971815,2.635766967,-2.3493125878\H,0,0.4572399369,1.66934626,-2.187239
 8892\H,0,1.8235376818,1.0518819418,-3.1309843752\\Version=ES64L-G16Rev
 A.03\State=1-A\HF=-1606.5274453\RMSD=8.093e-09\Dipole=3.7951101,0.2975
 353,1.8397957\Quadrupole=29.4384885,-18.9060312,-10.5324573,12.3502674
 ,10.624984,5.5232938\PG=C01 [X(C12H34N2O2Si3)]\\@


 WE TEND TO MEET ANY NEW SITUATION BY REORGANIZING. IT CAN BE A
 WONDERFUL METHOD FOR CREATING THE ILLUSION OF PROGRESS WHILE PRODUCING
 CONFUSION, INEFFICIENCY, AND DEMORALIZATION.
     -- PETRONIUS ARBITER, 210 B.C.
 Job cpu time:       0 days  2 hours 18 minutes 11.3 seconds.
 Elapsed time:       0 days  0 hours 46 minutes 11.5 seconds.
 File lengths (MBytes):  RWF=   1726 Int=      0 D2E=      0 Chk=    109 Scr=      1
 Normal termination of Gaussian 16 at Sun Jul 21 21:59:51 2024.
