 Entering Gaussian System, Link 0=g16
 Initial command:
 /opt/sw/arch/manual/gaussian/G16_A03/g16/l1.exe "/scratch/1381532/Gau-185559.inp" -scrdir="/scratch/1381532/"
 Entering Link 1 = /opt/sw/arch/manual/gaussian/G16_A03/g16/l1.exe PID=    185560.
  
 Copyright (c) 1988,1990,1992,1993,1995,1998,2003,2009,2016,
            Gaussian, Inc.  All Rights Reserved.
  
 This is part of the Gaussian(R) 16 program.  It is based on
 the Gaussian(R) 09 system (copyright 2009, Gaussian, Inc.),
 the Gaussian(R) 03 system (copyright 2003, Gaussian, Inc.),
 the Gaussian(R) 98 system (copyright 1998, Gaussian, Inc.),
 the Gaussian(R) 94 system (copyright 1995, Gaussian, Inc.),
 the Gaussian 92(TM) system (copyright 1992, Gaussian, Inc.),
 the Gaussian 90(TM) system (copyright 1990, Gaussian, Inc.),
 the Gaussian 88(TM) system (copyright 1988, Gaussian, Inc.),
 the Gaussian 86(TM) system (copyright 1986, Carnegie Mellon
 University), and the Gaussian 82(TM) system (copyright 1983,
 Carnegie Mellon University). Gaussian is a federally registered
 trademark of Gaussian, Inc.
  
 This software contains proprietary and confidential information,
 including trade secrets, belonging to Gaussian, Inc.
  
 This software is provided under written license and may be
 used, copied, transmitted, or stored only in accord with that
 written license.
  
 The following legend is applicable only to US Government
 contracts under FAR:
  
                    RESTRICTED RIGHTS LEGEND
  
 Use, reproduction and disclosure by the US Government is
 subject to restrictions as set forth in subparagraphs (a)
 and (c) of the Commercial Computer Software - Restricted
 Rights clause in FAR 52.227-19.
  
 Gaussian, Inc.
 340 Quinnipiac St., Bldg. 40, Wallingford CT 06492
  
  
 ---------------------------------------------------------------
 Warning -- This program may not be used in any manner that
 competes with the business of Gaussian, Inc. or will provide
 assistance to any competitor of Gaussian, Inc.  The licensee
 of this program is prohibited from giving any competitor of
 Gaussian, Inc. access to this program.  By using this program,
 the user acknowledges that Gaussian, Inc. is engaged in the
 business of creating and licensing software in the field of
 computational chemistry and represents and warrants to the
 licensee that it is not a competitor of Gaussian, Inc. and that
 it will not use this program in any manner prohibited above.
 ---------------------------------------------------------------
  

 Cite this work as:
 Gaussian 16, Revision A.03,
 M. J. Frisch, G. W. Trucks, H. B. Schlegel, G. E. Scuseria, 
 M. A. Robb, J. R. Cheeseman, G. Scalmani, V. Barone, 
 G. A. Petersson, H. Nakatsuji, X. Li, M. Caricato, A. V. Marenich, 
 J. Bloino, B. G. Janesko, R. Gomperts, B. Mennucci, H. P. Hratchian, 
 J. V. Ortiz, A. F. Izmaylov, J. L. Sonnenberg, D. Williams-Young, 
 F. Ding, F. Lipparini, F. Egidi, J. Goings, B. Peng, A. Petrone, 
 T. Henderson, D. Ranasinghe, V. G. Zakrzewski, J. Gao, N. Rega, 
 G. Zheng, W. Liang, M. Hada, M. Ehara, K. Toyota, R. Fukuda, 
 J. Hasegawa, M. Ishida, T. Nakajima, Y. Honda, O. Kitao, H. Nakai, 
 T. Vreven, K. Throssell, J. A. Montgomery, Jr., J. E. Peralta, 
 F. Ogliaro, M. J. Bearpark, J. J. Heyd, E. N. Brothers, K. N. Kudin, 
 V. N. Staroverov, T. A. Keith, R. Kobayashi, J. Normand, 
 K. Raghavachari, A. P. Rendell, J. C. Burant, S. S. Iyengar, 
 J. Tomasi, M. Cossi, J. M. Millam, M. Klene, C. Adamo, R. Cammi, 
 J. W. Ochterski, R. L. Martin, K. Morokuma, O. Farkas, 
 J. B. Foresman, and D. J. Fox, Gaussian, Inc., Wallingford CT, 2016.
 
 ******************************************
 Gaussian 16:  ES64L-G16RevA.03 25-Dec-2016
                21-Jul-2024 
 ******************************************
 %nprocshared=8
 Will use up to    8 processors via shared memory.
 %mem=16GB
 %Chk=ZWRBLCDTKAWRHT-UHFFFAOYSA-N_conf_0_0.chk
 -------------------------------------------------------
 # opt=CalcFc B3LYP/6-31G** SCRF=(Solvent=water) scf=xqc
 -------------------------------------------------------
 1/10=4,18=20,19=15,26=3,38=1/1,3;
 2/9=110,12=2,17=6,18=5,40=1/2;
 3/5=1,6=6,7=101,11=2,25=1,30=1,70=2201,71=2,72=1,74=-5,140=1/1,2,3;
 4//1;
 5/5=2,8=3,13=1,38=5,53=1/2,8;
 8/6=4,10=90,11=11/1;
 11/6=1,8=1,9=11,15=111,16=1/1,2,10;
 10/6=1,13=1/2;
 6/7=2,8=2,9=2,10=2,28=1/1;
 7/10=1,18=20,25=1/1,2,3,16;
 1/10=4,18=20,19=15,26=3/3(2);
 2/9=110/2;
 99//99;
 2/9=110/2;
 3/5=1,6=6,7=101,11=2,25=1,30=1,70=2205,71=1,72=1,74=-5/1,2,3;
 4/5=5,16=3,69=1/1;
 5/5=2,8=3,13=1,38=5,53=1/2,8;
 7//1,2,3,16;
 1/18=20,19=15,26=3/3(-5);
 2/9=110/2;
 6/7=2,8=2,9=2,10=2,19=2,28=1/1;
 99/9=1/99;
 ----------------------------------
 ZWRBLCDTKAWRHT-UHFFFAOYSA-N_conf_0
 ----------------------------------
 Symbolic Z-matrix:
 Charge =  0 Multiplicity = 1
 C                    -2.16956   1.84538   2.0491 
 Si                   -2.26122   0.46747   0.77356 
 C                    -2.94476  -1.07537   1.59806 
 C                    -3.43561   1.00038  -0.63774 
 C                    -4.94684   0.83743  -0.42847 
 C                    -5.59189   1.72822   0.63804 
 N                    -5.38782   3.15002   0.3973 
 O                    -0.73578   0.19073   0.15228 
 Si                    0.16462  -0.9391   -0.67688 
 C                    -0.71418  -1.47331  -2.24768 
 C                     0.43114  -2.46693   0.38323 
 O                     1.62228  -0.21959  -1.0498 
 Si                    3.1756   -0.5772   -1.53787 
 C                     3.18358  -1.94769  -2.82865 
 C                     4.22798  -1.17022  -0.05492 
 C                     4.55943  -0.13977   1.03192 
 C                     3.36819   0.22273   1.92413 
 N                     3.7867    1.10961   3.00701 
 C                     3.99656   0.93878  -2.28558 
 H                    -1.42337   1.60471   2.8128 
 H                    -3.12926   1.99194   2.55024 
 H                    -1.88046   2.78784   1.57471 
 H                    -2.25716  -1.43602   2.36957 
 H                    -3.90918  -0.86962   2.07147 
 H                    -3.08736  -1.87449   0.86439 
 H                    -3.1929    2.03266  -0.91394 
 H                    -3.16116   0.38495  -1.50323 
 H                    -5.17561  -0.20924  -0.1897 
 H                    -5.4406    1.04022  -1.38876 
 H                    -6.67063   1.53407   0.64836 
 H                    -5.22676   1.47039   1.63644 
 H                    -5.66534   3.3821   -0.55614 
 H                    -4.39783   3.38233   0.46748 
 H                    -0.88404  -0.61509  -2.90466 
 H                    -1.68294  -1.92492  -2.01529 
 H                    -0.11722  -2.20971  -2.7934 
 H                     0.93135  -2.20347   1.31982 
 H                    -0.52397  -2.94111   0.62639 
 H                     1.05011  -3.20017  -0.14219 
 H                     4.20575  -2.16322  -3.15313 
 H                     2.75284  -2.86654  -2.42015 
 H                     2.59935  -1.65267  -3.70522 
 H                     3.7342   -2.04049   0.39254 
 H                     5.17322  -1.52927  -0.47985 
 H                     5.35028  -0.5684    1.66179 
 H                     4.98012   0.76839   0.58238 
 H                     2.58624   0.72763   1.35089 
 H                     2.92903  -0.68125   2.35954 
 H                     4.16681   1.96922   2.6127 
 H                     4.54656   0.67804   3.53072 
 H                     3.46542   1.25602  -3.18772 
 H                     5.03437   0.72226  -2.55593 
 H                     3.99173   1.77135  -1.57581 
 

 GradGradGradGradGradGradGradGradGradGradGradGradGradGradGradGradGradGrad
 Berny optimization.
 Initialization pass.
                           ----------------------------
                           !    Initial Parameters    !
                           ! (Angstroms and Degrees)  !
 --------------------------                            --------------------------
 ! Name  Definition              Value          Derivative Info.                !
 --------------------------------------------------------------------------------
 ! R1    R(1,2)                  1.8799         calculate D2E/DX2 analytically  !
 ! R2    R(1,20)                 1.0945         calculate D2E/DX2 analytically  !
 ! R3    R(1,21)                 1.0925         calculate D2E/DX2 analytically  !
 ! R4    R(1,22)                 1.094          calculate D2E/DX2 analytically  !
 ! R5    R(2,3)                  1.8781         calculate D2E/DX2 analytically  !
 ! R6    R(2,4)                  1.9118         calculate D2E/DX2 analytically  !
 ! R7    R(2,8)                  1.6702         calculate D2E/DX2 analytically  !
 ! R8    R(3,23)                 1.0946         calculate D2E/DX2 analytically  !
 ! R9    R(3,24)                 1.0939         calculate D2E/DX2 analytically  !
 ! R10   R(3,25)                 1.0942         calculate D2E/DX2 analytically  !
 ! R11   R(4,5)                  1.5343         calculate D2E/DX2 analytically  !
 ! R12   R(4,26)                 1.0958         calculate D2E/DX2 analytically  !
 ! R13   R(4,27)                 1.0969         calculate D2E/DX2 analytically  !
 ! R14   R(5,6)                  1.532          calculate D2E/DX2 analytically  !
 ! R15   R(5,28)                 1.0977         calculate D2E/DX2 analytically  !
 ! R16   R(5,29)                 1.0987         calculate D2E/DX2 analytically  !
 ! R17   R(6,7)                  1.4564         calculate D2E/DX2 analytically  !
 ! R18   R(6,30)                 1.0961         calculate D2E/DX2 analytically  !
 ! R19   R(6,31)                 1.0939         calculate D2E/DX2 analytically  !
 ! R20   R(7,32)                 1.0198         calculate D2E/DX2 analytically  !
 ! R21   R(7,33)                 1.0193         calculate D2E/DX2 analytically  !
 ! R22   R(8,9)                  1.6658         calculate D2E/DX2 analytically  !
 ! R23   R(9,10)                 1.8775         calculate D2E/DX2 analytically  !
 ! R24   R(9,11)                 1.8786         calculate D2E/DX2 analytically  !
 ! R25   R(9,12)                 1.6678         calculate D2E/DX2 analytically  !
 ! R26   R(10,34)                1.0941         calculate D2E/DX2 analytically  !
 ! R27   R(10,35)                1.0938         calculate D2E/DX2 analytically  !
 ! R28   R(10,36)                1.0938         calculate D2E/DX2 analytically  !
 ! R29   R(11,37)                1.094          calculate D2E/DX2 analytically  !
 ! R30   R(11,38)                1.0937         calculate D2E/DX2 analytically  !
 ! R31   R(11,39)                1.094          calculate D2E/DX2 analytically  !
 ! R32   R(12,13)                1.667          calculate D2E/DX2 analytically  !
 ! R33   R(13,14)                1.8827         calculate D2E/DX2 analytically  !
 ! R34   R(13,15)                1.9127         calculate D2E/DX2 analytically  !
 ! R35   R(13,19)                1.8792         calculate D2E/DX2 analytically  !
 ! R36   R(14,40)                1.0939         calculate D2E/DX2 analytically  !
 ! R37   R(14,41)                1.0939         calculate D2E/DX2 analytically  !
 ! R38   R(14,42)                1.094          calculate D2E/DX2 analytically  !
 ! R39   R(15,16)                1.5339         calculate D2E/DX2 analytically  !
 ! R40   R(15,43)                1.0961         calculate D2E/DX2 analytically  !
 ! R41   R(15,44)                1.0968         calculate D2E/DX2 analytically  !
 ! R42   R(16,17)                1.5318         calculate D2E/DX2 analytically  !
 ! R43   R(16,45)                1.0981         calculate D2E/DX2 analytically  !
 ! R44   R(16,46)                1.0972         calculate D2E/DX2 analytically  !
 ! R45   R(17,18)                1.4609         calculate D2E/DX2 analytically  !
 ! R46   R(17,47)                1.0931         calculate D2E/DX2 analytically  !
 ! R47   R(17,48)                1.0953         calculate D2E/DX2 analytically  !
 ! R48   R(18,49)                1.0193         calculate D2E/DX2 analytically  !
 ! R49   R(18,50)                1.0188         calculate D2E/DX2 analytically  !
 ! R50   R(19,51)                1.0939         calculate D2E/DX2 analytically  !
 ! R51   R(19,52)                1.0941         calculate D2E/DX2 analytically  !
 ! R52   R(19,53)                1.0941         calculate D2E/DX2 analytically  !
 ! A1    A(2,1,20)             110.2127         calculate D2E/DX2 analytically  !
 ! A2    A(2,1,21)             111.5136         calculate D2E/DX2 analytically  !
 ! A3    A(2,1,22)             110.4937         calculate D2E/DX2 analytically  !
 ! A4    A(20,1,21)            107.9572         calculate D2E/DX2 analytically  !
 ! A5    A(20,1,22)            108.1695         calculate D2E/DX2 analytically  !
 ! A6    A(21,1,22)            108.3884         calculate D2E/DX2 analytically  !
 ! A7    A(1,2,3)              108.7836         calculate D2E/DX2 analytically  !
 ! A8    A(1,2,4)              109.0578         calculate D2E/DX2 analytically  !
 ! A9    A(1,2,8)              109.227          calculate D2E/DX2 analytically  !
 ! A10   A(3,2,4)              109.2377         calculate D2E/DX2 analytically  !
 ! A11   A(3,2,8)              111.075          calculate D2E/DX2 analytically  !
 ! A12   A(4,2,8)              109.4289         calculate D2E/DX2 analytically  !
 ! A13   A(2,3,23)             110.5773         calculate D2E/DX2 analytically  !
 ! A14   A(2,3,24)             110.8767         calculate D2E/DX2 analytically  !
 ! A15   A(2,3,25)             110.673          calculate D2E/DX2 analytically  !
 ! A16   A(23,3,24)            108.1056         calculate D2E/DX2 analytically  !
 ! A17   A(23,3,25)            108.2913         calculate D2E/DX2 analytically  !
 ! A18   A(24,3,25)            108.2198         calculate D2E/DX2 analytically  !
 ! A19   A(2,4,5)              118.3433         calculate D2E/DX2 analytically  !
 ! A20   A(2,4,26)             108.2154         calculate D2E/DX2 analytically  !
 ! A21   A(2,4,27)             105.8062         calculate D2E/DX2 analytically  !
 ! A22   A(5,4,26)             110.6453         calculate D2E/DX2 analytically  !
 ! A23   A(5,4,27)             107.1261         calculate D2E/DX2 analytically  !
 ! A24   A(26,4,27)            105.9168         calculate D2E/DX2 analytically  !
 ! A25   A(4,5,6)              116.6094         calculate D2E/DX2 analytically  !
 ! A26   A(4,5,28)             109.6462         calculate D2E/DX2 analytically  !
 ! A27   A(4,5,29)             107.6882         calculate D2E/DX2 analytically  !
 ! A28   A(6,5,28)             108.3765         calculate D2E/DX2 analytically  !
 ! A29   A(6,5,29)             108.1752         calculate D2E/DX2 analytically  !
 ! A30   A(28,5,29)            105.811          calculate D2E/DX2 analytically  !
 ! A31   A(5,6,7)              113.1769         calculate D2E/DX2 analytically  !
 ! A32   A(5,6,30)             108.5379         calculate D2E/DX2 analytically  !
 ! A33   A(5,6,31)             110.9647         calculate D2E/DX2 analytically  !
 ! A34   A(7,6,30)             108.202          calculate D2E/DX2 analytically  !
 ! A35   A(7,6,31)             109.5244         calculate D2E/DX2 analytically  !
 ! A36   A(30,6,31)            106.1498         calculate D2E/DX2 analytically  !
 ! A37   A(6,7,32)             109.7912         calculate D2E/DX2 analytically  !
 ! A38   A(6,7,33)             110.3164         calculate D2E/DX2 analytically  !
 ! A39   A(32,7,33)            106.0701         calculate D2E/DX2 analytically  !
 ! A40   A(2,8,9)              142.3014         calculate D2E/DX2 analytically  !
 ! A41   A(8,9,10)             110.881          calculate D2E/DX2 analytically  !
 ! A42   A(8,9,11)             110.3294         calculate D2E/DX2 analytically  !
 ! A43   A(8,9,12)             106.9254         calculate D2E/DX2 analytically  !
 ! A44   A(10,9,11)            107.8859         calculate D2E/DX2 analytically  !
 ! A45   A(10,9,12)            110.1673         calculate D2E/DX2 analytically  !
 ! A46   A(11,9,12)            110.6737         calculate D2E/DX2 analytically  !
 ! A47   A(9,10,34)            110.6013         calculate D2E/DX2 analytically  !
 ! A48   A(9,10,35)            110.749          calculate D2E/DX2 analytically  !
 ! A49   A(9,10,36)            110.7022         calculate D2E/DX2 analytically  !
 ! A50   A(34,10,35)           108.2969         calculate D2E/DX2 analytically  !
 ! A51   A(34,10,36)           108.2546         calculate D2E/DX2 analytically  !
 ! A52   A(35,10,36)           108.1431         calculate D2E/DX2 analytically  !
 ! A53   A(9,11,37)            110.6173         calculate D2E/DX2 analytically  !
 ! A54   A(9,11,38)            110.7425         calculate D2E/DX2 analytically  !
 ! A55   A(9,11,39)            110.7529         calculate D2E/DX2 analytically  !
 ! A56   A(37,11,38)           108.2619         calculate D2E/DX2 analytically  !
 ! A57   A(37,11,39)           108.2937         calculate D2E/DX2 analytically  !
 ! A58   A(38,11,39)           108.0762         calculate D2E/DX2 analytically  !
 ! A59   A(9,12,13)            141.9358         calculate D2E/DX2 analytically  !
 ! A60   A(12,13,14)           111.1525         calculate D2E/DX2 analytically  !
 ! A61   A(12,13,15)           110.6222         calculate D2E/DX2 analytically  !
 ! A62   A(12,13,19)           110.5189         calculate D2E/DX2 analytically  !
 ! A63   A(14,13,15)           107.6705         calculate D2E/DX2 analytically  !
 ! A64   A(14,13,19)           108.2166         calculate D2E/DX2 analytically  !
 ! A65   A(15,13,19)           108.5568         calculate D2E/DX2 analytically  !
 ! A66   A(13,14,40)           110.5347         calculate D2E/DX2 analytically  !
 ! A67   A(13,14,41)           110.717          calculate D2E/DX2 analytically  !
 ! A68   A(13,14,42)           110.5361         calculate D2E/DX2 analytically  !
 ! A69   A(40,14,41)           108.2525         calculate D2E/DX2 analytically  !
 ! A70   A(40,14,42)           108.3303         calculate D2E/DX2 analytically  !
 ! A71   A(41,14,42)           108.3875         calculate D2E/DX2 analytically  !
 ! A72   A(13,15,16)           117.3843         calculate D2E/DX2 analytically  !
 ! A73   A(13,15,43)           108.3497         calculate D2E/DX2 analytically  !
 ! A74   A(13,15,44)           105.9803         calculate D2E/DX2 analytically  !
 ! A75   A(16,15,43)           109.9663         calculate D2E/DX2 analytically  !
 ! A76   A(16,15,44)           107.9507         calculate D2E/DX2 analytically  !
 ! A77   A(43,15,44)           106.6479         calculate D2E/DX2 analytically  !
 ! A78   A(15,16,17)           113.8048         calculate D2E/DX2 analytically  !
 ! A79   A(15,16,45)           107.4456         calculate D2E/DX2 analytically  !
 ! A80   A(15,16,46)           110.401          calculate D2E/DX2 analytically  !
 ! A81   A(17,16,45)           108.5622         calculate D2E/DX2 analytically  !
 ! A82   A(17,16,46)           109.9346         calculate D2E/DX2 analytically  !
 ! A83   A(45,16,46)           106.3771         calculate D2E/DX2 analytically  !
 ! A84   A(16,17,18)           110.6472         calculate D2E/DX2 analytically  !
 ! A85   A(16,17,47)           111.1094         calculate D2E/DX2 analytically  !
 ! A86   A(16,17,48)           110.3679         calculate D2E/DX2 analytically  !
 ! A87   A(18,17,47)           108.253          calculate D2E/DX2 analytically  !
 ! A88   A(18,17,48)           108.7374         calculate D2E/DX2 analytically  !
 ! A89   A(47,17,48)           107.6289         calculate D2E/DX2 analytically  !
 ! A90   A(17,18,49)           109.3935         calculate D2E/DX2 analytically  !
 ! A91   A(17,18,50)           109.7266         calculate D2E/DX2 analytically  !
 ! A92   A(49,18,50)           106.1394         calculate D2E/DX2 analytically  !
 ! A93   A(13,19,51)           110.4863         calculate D2E/DX2 analytically  !
 ! A94   A(13,19,52)           110.6756         calculate D2E/DX2 analytically  !
 ! A95   A(13,19,53)           110.7238         calculate D2E/DX2 analytically  !
 ! A96   A(51,19,52)           108.3111         calculate D2E/DX2 analytically  !
 ! A97   A(51,19,53)           108.1909         calculate D2E/DX2 analytically  !
 ! A98   A(52,19,53)           108.3661         calculate D2E/DX2 analytically  !
 ! D1    D(20,1,2,3)            66.7943         calculate D2E/DX2 analytically  !
 ! D2    D(20,1,2,4)          -174.1475         calculate D2E/DX2 analytically  !
 ! D3    D(20,1,2,8)           -54.5965         calculate D2E/DX2 analytically  !
 ! D4    D(21,1,2,3)           -53.0915         calculate D2E/DX2 analytically  !
 ! D5    D(21,1,2,4)            65.9667         calculate D2E/DX2 analytically  !
 ! D6    D(21,1,2,8)          -174.4824         calculate D2E/DX2 analytically  !
 ! D7    D(22,1,2,3)          -173.7102         calculate D2E/DX2 analytically  !
 ! D8    D(22,1,2,4)           -54.652          calculate D2E/DX2 analytically  !
 ! D9    D(22,1,2,8)            64.899          calculate D2E/DX2 analytically  !
 ! D10   D(1,2,3,23)           -64.5738         calculate D2E/DX2 analytically  !
 ! D11   D(1,2,3,24)            55.3241         calculate D2E/DX2 analytically  !
 ! D12   D(1,2,3,25)           175.4284         calculate D2E/DX2 analytically  !
 ! D13   D(4,2,3,23)           176.4807         calculate D2E/DX2 analytically  !
 ! D14   D(4,2,3,24)           -63.6214         calculate D2E/DX2 analytically  !
 ! D15   D(4,2,3,25)            56.4829         calculate D2E/DX2 analytically  !
 ! D16   D(8,2,3,23)            55.6804         calculate D2E/DX2 analytically  !
 ! D17   D(8,2,3,24)           175.5783         calculate D2E/DX2 analytically  !
 ! D18   D(8,2,3,25)           -64.3174         calculate D2E/DX2 analytically  !
 ! D19   D(1,2,4,5)            -81.5882         calculate D2E/DX2 analytically  !
 ! D20   D(1,2,4,26)            45.2283         calculate D2E/DX2 analytically  !
 ! D21   D(1,2,4,27)           158.3829         calculate D2E/DX2 analytically  !
 ! D22   D(3,2,4,5)             37.1868         calculate D2E/DX2 analytically  !
 ! D23   D(3,2,4,26)           164.0033         calculate D2E/DX2 analytically  !
 ! D24   D(3,2,4,27)           -82.8422         calculate D2E/DX2 analytically  !
 ! D25   D(8,2,4,5)            158.986          calculate D2E/DX2 analytically  !
 ! D26   D(8,2,4,26)           -74.1974         calculate D2E/DX2 analytically  !
 ! D27   D(8,2,4,27)            38.9571         calculate D2E/DX2 analytically  !
 ! D28   D(1,2,8,9)            161.6279         calculate D2E/DX2 analytically  !
 ! D29   D(3,2,8,9)             41.6369         calculate D2E/DX2 analytically  !
 ! D30   D(4,2,8,9)            -79.0506         calculate D2E/DX2 analytically  !
 ! D31   D(2,4,5,6)             67.1296         calculate D2E/DX2 analytically  !
 ! D32   D(2,4,5,28)           -56.4603         calculate D2E/DX2 analytically  !
 ! D33   D(2,4,5,29)          -171.1379         calculate D2E/DX2 analytically  !
 ! D34   D(26,4,5,6)           -58.517          calculate D2E/DX2 analytically  !
 ! D35   D(26,4,5,28)          177.8931         calculate D2E/DX2 analytically  !
 ! D36   D(26,4,5,29)           63.2155         calculate D2E/DX2 analytically  !
 ! D37   D(27,4,5,6)          -173.5258         calculate D2E/DX2 analytically  !
 ! D38   D(27,4,5,28)           62.8843         calculate D2E/DX2 analytically  !
 ! D39   D(27,4,5,29)          -51.7933         calculate D2E/DX2 analytically  !
 ! D40   D(4,5,6,7)             57.5916         calculate D2E/DX2 analytically  !
 ! D41   D(4,5,6,30)           177.7206         calculate D2E/DX2 analytically  !
 ! D42   D(4,5,6,31)           -66.0061         calculate D2E/DX2 analytically  !
 ! D43   D(28,5,6,7)          -178.1679         calculate D2E/DX2 analytically  !
 ! D44   D(28,5,6,30)          -58.0389         calculate D2E/DX2 analytically  !
 ! D45   D(28,5,6,31)           58.2344         calculate D2E/DX2 analytically  !
 ! D46   D(29,5,6,7)           -63.8848         calculate D2E/DX2 analytically  !
 ! D47   D(29,5,6,30)           56.2442         calculate D2E/DX2 analytically  !
 ! D48   D(29,5,6,31)          172.5175         calculate D2E/DX2 analytically  !
 ! D49   D(5,6,7,32)            51.6053         calculate D2E/DX2 analytically  !
 ! D50   D(5,6,7,33)           -64.942          calculate D2E/DX2 analytically  !
 ! D51   D(30,6,7,32)          -68.7151         calculate D2E/DX2 analytically  !
 ! D52   D(30,6,7,33)          174.7376         calculate D2E/DX2 analytically  !
 ! D53   D(31,6,7,32)          175.9909         calculate D2E/DX2 analytically  !
 ! D54   D(31,6,7,33)           59.4436         calculate D2E/DX2 analytically  !
 ! D55   D(2,8,9,10)            52.076          calculate D2E/DX2 analytically  !
 ! D56   D(2,8,9,11)           -67.3885         calculate D2E/DX2 analytically  !
 ! D57   D(2,8,9,12)           172.1946         calculate D2E/DX2 analytically  !
 ! D58   D(8,9,10,34)           59.6064         calculate D2E/DX2 analytically  !
 ! D59   D(8,9,10,35)          -60.4637         calculate D2E/DX2 analytically  !
 ! D60   D(8,9,10,36)          179.5929         calculate D2E/DX2 analytically  !
 ! D61   D(11,9,10,34)        -179.474          calculate D2E/DX2 analytically  !
 ! D62   D(11,9,10,35)          60.4559         calculate D2E/DX2 analytically  !
 ! D63   D(11,9,10,36)         -59.4875         calculate D2E/DX2 analytically  !
 ! D64   D(12,9,10,34)         -58.5612         calculate D2E/DX2 analytically  !
 ! D65   D(12,9,10,35)        -178.6313         calculate D2E/DX2 analytically  !
 ! D66   D(12,9,10,36)          61.4253         calculate D2E/DX2 analytically  !
 ! D67   D(8,9,11,37)          -58.0319         calculate D2E/DX2 analytically  !
 ! D68   D(8,9,11,38)           62.0006         calculate D2E/DX2 analytically  !
 ! D69   D(8,9,11,39)         -178.111          calculate D2E/DX2 analytically  !
 ! D70   D(10,9,11,37)        -179.2953         calculate D2E/DX2 analytically  !
 ! D71   D(10,9,11,38)         -59.2629         calculate D2E/DX2 analytically  !
 ! D72   D(10,9,11,39)          60.6256         calculate D2E/DX2 analytically  !
 ! D73   D(12,9,11,37)          60.1087         calculate D2E/DX2 analytically  !
 ! D74   D(12,9,11,38)        -179.8589         calculate D2E/DX2 analytically  !
 ! D75   D(12,9,11,39)         -59.9704         calculate D2E/DX2 analytically  !
 ! D76   D(8,9,12,13)          163.5551         calculate D2E/DX2 analytically  !
 ! D77   D(10,9,12,13)         -75.8699         calculate D2E/DX2 analytically  !
 ! D78   D(11,9,12,13)          43.3585         calculate D2E/DX2 analytically  !
 ! D79   D(9,12,13,14)          39.8976         calculate D2E/DX2 analytically  !
 ! D80   D(9,12,13,15)         -79.6642         calculate D2E/DX2 analytically  !
 ! D81   D(9,12,13,19)         160.077          calculate D2E/DX2 analytically  !
 ! D82   D(12,13,14,40)        179.109          calculate D2E/DX2 analytically  !
 ! D83   D(12,13,14,41)        -60.9409         calculate D2E/DX2 analytically  !
 ! D84   D(12,13,14,42)         59.1791         calculate D2E/DX2 analytically  !
 ! D85   D(15,13,14,40)        -59.5847         calculate D2E/DX2 analytically  !
 ! D86   D(15,13,14,41)         60.3654         calculate D2E/DX2 analytically  !
 ! D87   D(15,13,14,42)       -179.5146         calculate D2E/DX2 analytically  !
 ! D88   D(19,13,14,40)         57.5749         calculate D2E/DX2 analytically  !
 ! D89   D(19,13,14,41)        177.525          calculate D2E/DX2 analytically  !
 ! D90   D(19,13,14,42)        -62.355          calculate D2E/DX2 analytically  !
 ! D91   D(12,13,15,16)        -67.933          calculate D2E/DX2 analytically  !
 ! D92   D(12,13,15,43)         57.3049         calculate D2E/DX2 analytically  !
 ! D93   D(12,13,15,44)        171.444          calculate D2E/DX2 analytically  !
 ! D94   D(14,13,15,16)        170.4301         calculate D2E/DX2 analytically  !
 ! D95   D(14,13,15,43)        -64.332          calculate D2E/DX2 analytically  !
 ! D96   D(14,13,15,44)         49.8071         calculate D2E/DX2 analytically  !
 ! D97   D(19,13,15,16)         53.492          calculate D2E/DX2 analytically  !
 ! D98   D(19,13,15,43)        178.7299         calculate D2E/DX2 analytically  !
 ! D99   D(19,13,15,44)        -67.131          calculate D2E/DX2 analytically  !
 ! D100  D(12,13,19,51)        -63.1785         calculate D2E/DX2 analytically  !
 ! D101  D(12,13,19,52)        176.8566         calculate D2E/DX2 analytically  !
 ! D102  D(12,13,19,53)         56.6674         calculate D2E/DX2 analytically  !
 ! D103  D(14,13,19,51)         58.7456         calculate D2E/DX2 analytically  !
 ! D104  D(14,13,19,52)        -61.2193         calculate D2E/DX2 analytically  !
 ! D105  D(14,13,19,53)        178.5915         calculate D2E/DX2 analytically  !
 ! D106  D(15,13,19,51)        175.3331         calculate D2E/DX2 analytically  !
 ! D107  D(15,13,19,52)         55.3682         calculate D2E/DX2 analytically  !
 ! D108  D(15,13,19,53)        -64.821          calculate D2E/DX2 analytically  !
 ! D109  D(13,15,16,17)         73.163          calculate D2E/DX2 analytically  !
 ! D110  D(13,15,16,45)       -166.6155         calculate D2E/DX2 analytically  !
 ! D111  D(13,15,16,46)        -51.0077         calculate D2E/DX2 analytically  !
 ! D112  D(43,15,16,17)        -51.2678         calculate D2E/DX2 analytically  !
 ! D113  D(43,15,16,45)         68.9537         calculate D2E/DX2 analytically  !
 ! D114  D(43,15,16,46)       -175.4385         calculate D2E/DX2 analytically  !
 ! D115  D(44,15,16,17)       -167.2509         calculate D2E/DX2 analytically  !
 ! D116  D(44,15,16,45)        -47.0294         calculate D2E/DX2 analytically  !
 ! D117  D(44,15,16,46)         68.5784         calculate D2E/DX2 analytically  !
 ! D118  D(15,16,17,18)        174.7534         calculate D2E/DX2 analytically  !
 ! D119  D(15,16,17,47)        -64.9643         calculate D2E/DX2 analytically  !
 ! D120  D(15,16,17,48)         54.3509         calculate D2E/DX2 analytically  !
 ! D121  D(45,16,17,18)         55.1628         calculate D2E/DX2 analytically  !
 ! D122  D(45,16,17,47)        175.4451         calculate D2E/DX2 analytically  !
 ! D123  D(45,16,17,48)        -65.2397         calculate D2E/DX2 analytically  !
 ! D124  D(46,16,17,18)        -60.8247         calculate D2E/DX2 analytically  !
 ! D125  D(46,16,17,47)         59.4576         calculate D2E/DX2 analytically  !
 ! D126  D(46,16,17,48)        178.7728         calculate D2E/DX2 analytically  !
 ! D127  D(16,17,18,49)         60.6343         calculate D2E/DX2 analytically  !
 ! D128  D(16,17,18,50)        -55.4248         calculate D2E/DX2 analytically  !
 ! D129  D(47,17,18,49)        -61.34           calculate D2E/DX2 analytically  !
 ! D130  D(47,17,18,50)       -177.3991         calculate D2E/DX2 analytically  !
 ! D131  D(48,17,18,49)       -177.9951         calculate D2E/DX2 analytically  !
 ! D132  D(48,17,18,50)         65.9458         calculate D2E/DX2 analytically  !
 --------------------------------------------------------------------------------
 Trust Radius=3.00D-01 FncErr=1.00D-07 GrdErr=1.00D-06 EigMax=2.50D+02 EigMin=1.00D-04
 Number of steps in this run=    292 maximum allowed number of steps=    318.
 GradGradGradGradGradGradGradGradGradGradGradGradGradGradGradGradGradGrad

 Stoichiometry    C12H34N2O2Si3
 Framework group  C1[X(C12H34N2O2Si3)]
 Deg. of freedom   153
 Full point group                 C1      NOp   1
 Largest Abelian subgroup         C1      NOp   1
 Largest concise Abelian subgroup C1      NOp   1
                         Standard orientation:                         
 ---------------------------------------------------------------------
 Center     Atomic      Atomic             Coordinates (Angstroms)
 Number     Number       Type             X           Y           Z
 ---------------------------------------------------------------------
      1          6           0       -2.792079    2.194978   -0.304386
      2         14           0       -2.439934    0.455618    0.315807
      3          6           0       -2.863483    0.367928    2.143453
      4          6           0       -3.534514   -0.783116   -0.644603
      5          6           0       -4.988826   -0.971979   -0.193535
      6          6           0       -5.926932    0.224283   -0.383143
      7          7           0       -6.008282    0.675453   -1.765504
      8          8           0       -0.830538    0.093735    0.054243
      9         14           0        0.379972   -0.947992    0.527746
     10          6           0       -0.179873   -2.734274    0.383304
     11          6           0        0.848083   -0.633170    2.319641
     12          8           0        1.680841   -0.669996   -0.478230
     13         14           0        3.319668   -0.944854   -0.610864
     14          6           0        3.768588   -2.674478   -0.018188
     15          6           0        4.300775    0.306122    0.452532
     16          6           0        4.277409    1.775865    0.014098
     17          6           0        2.943085    2.479442    0.280648
     18          7           0        3.035552    3.900289   -0.046431
     19          6           0        3.873622   -0.774175   -2.398386
     20          1           0       -2.102691    2.908209    0.158211
     21          1           0       -3.811123    2.507315   -0.064275
     22          1           0       -2.661243    2.248619   -1.389224
     23          1           0       -2.205943    1.023881    2.722647
     24          1           0       -3.896722    0.680884    2.319597
     25          1           0       -2.746692   -0.653304    2.518468
     26          1           0       -3.490407   -0.525640   -1.708821
     27          1           0       -3.037920   -1.756537   -0.549792
     28          1           0       -5.012073   -1.265789    0.863821
     29          1           0       -5.403010   -1.823888   -0.750127
     30          1           0       -6.932568   -0.066521   -0.058142
     31          1           0       -5.629958    1.059909    0.257277
     32          1           0       -6.219803   -0.114540   -2.374670
     33          1           0       -5.106047    1.035856   -2.073834
     34          1           0       -0.455419   -2.969058   -0.649151
     35          1           0       -1.048414   -2.920973    1.021453
     36          1           0        0.619504   -3.415883    0.688044
     37          1           0        1.170698    0.403082    2.457158
     38          1           0       -0.003567   -0.817565    2.980622
     39          1           0        1.665832   -1.291209    2.628028
     40          1           0        4.843133   -2.849594   -0.124290
     41          1           0        3.502718   -2.803805    1.035040
     42          1           0        3.237319   -3.430667   -0.603570
     43          1           0        3.958888    0.219650    1.490339
     44          1           0        5.342982   -0.035159    0.435567
     45          1           0        5.065743    2.298446    0.572081
     46          1           0        4.540472    1.862517   -1.047553
     47          1           0        2.140538    2.041649   -0.318711
     48          1           0        2.662800    2.378546    1.334636
     49          1           0        3.263479    4.006062   -1.034234
     50          1           0        3.806460    4.322315    0.468856
     51          1           0        3.391952   -1.532490   -3.022534
     52          1           0        4.957437   -0.899129   -2.480541
     53          1           0        3.609326    0.211346   -2.793185
 ---------------------------------------------------------------------
 Rotational constants (GHZ):           0.4307893           0.1261812           0.1134701
 Standard basis: 6-31G(d,p) (6D, 7F)
 There are   467 symmetry adapted cartesian basis functions of A   symmetry.
 There are   467 symmetry adapted basis functions of A   symmetry.
   467 basis functions,   842 primitive gaussians,   467 cartesian basis functions
    89 alpha electrons       89 beta electrons
       nuclear repulsion energy      2041.1158739761 Hartrees.
 NAtoms=   53 NActive=   53 NUniq=   53 SFac= 1.00D+00 NAtFMM=   60 NAOKFM=F Big=F
 Integral buffers will be    131072 words long.
 Raffenetti 2 integral format.
 Two-electron integral symmetry is turned on.
 Force inversion solution in PCM.
 ------------------------------------------------------------------------------
 Polarizable Continuum Model (PCM)
 =================================
 Model                : PCM.
 Atomic radii         : UFF (Universal Force Field).
 Polarization charges : Total charges.
 Charge compensation  : None.
 Solution method      : Matrix inversion.
 Cavity type          : Scaled VdW (van der Waals Surface) (Alpha=1.100).
 Cavity algorithm     : GePol (No added spheres)
                        Default sphere list used, NSphG=   53.
                        Lebedev-Laikov grids with approx.  5.0 points / Ang**2.
                        Smoothing algorithm: York/Karplus (Gamma=1.0000).
                        Polarization charges: spherical gaussians, with
                                              point-specific exponents (IZeta= 3).
                        Self-potential: point-specific (ISelfS= 7).
                        Self-field    : sphere-specific E.n sum rule (ISelfD= 2).
 1st derivatives      : Analytical E(r).r(x)/FMM algorithm (CHGder, D1EAlg=3).
                        Cavity 1st derivative terms included.
 2nd derivatives      : Analytical E(r).r(xy)/FMM algorithm (CHGder, D2EAlg=3).
                        Cavity 2nd derivative terms included.
 Solvent              : Water, Eps=  78.355300 Eps(inf)=   1.777849
 ------------------------------------------------------------------------------
 One-electron integrals computed using PRISM.
 NBasis=   467 RedAO= T EigKep=  3.61D-03  NBF=   467
 NBsUse=   467 1.00D-06 EigRej= -1.00D+00 NBFU=   467
 ExpMin= 7.78D-02 ExpMax= 1.61D+04 ExpMxC= 2.43D+03 IAcc=3 IRadAn=         5 AccDes= 0.00D+00
 Harris functional with IExCor=  402 and IRadAn=       5 diagonalized for initial guess.
 HarFok:  IExCor=  402 AccDes= 0.00D+00 IRadAn=         5 IDoV= 1 UseB2=F ITyADJ=14
 ICtDFT=  3500011 ScaDFX=  1.000000  1.000000  1.000000  1.000000
 FoFCou: FMM=F IPFlag=           0 FMFlag=      100000 FMFlg1=           0
         NFxFlg=           0 DoJE=T BraDBF=F KetDBF=T FulRan=T
         wScrn=  0.000000 ICntrl=       500 IOpCl=  0 I1Cent=   200000004 NGrid=           0
         NMat0=    1 NMatS0=      1 NMatT0=    0 NMatD0=    1 NMtDS0=    0 NMtDT0=    0
 Petite list used in FoFCou.
 Requested convergence on RMS density matrix=1.00D-08 within  32 cycles.
 Requested convergence on MAX density matrix=1.00D-06.
 Requested convergence on             energy=1.00D-06.
 No special actions if energy rises.
 Inv3:  Mode=1 IEnd=    41761083.
 Iteration    1 A*A^-1 deviation from unit magnitude is 3.55D-15 for   2406.
 Iteration    1 A*A^-1 deviation from orthogonality  is 9.77D-15 for   1675    308.
 Iteration    1 A^-1*A deviation from unit magnitude is 7.99D-15 for   3619.
 Iteration    1 A^-1*A deviation from orthogonality  is 3.35D-13 for   3716   3691.
 Error on total polarization charges =  0.01370
 SCF Done:  E(RB3LYP) =  -1606.51966908     A.U. after   11 cycles
            NFock= 11  Conv=0.96D-08     -V/T= 2.0067
 QCSCF skips out because SCF is already converged.
 DoSCS=F DFT=T ScalE2(SS,OS)=  1.000000  1.000000
 Range of M.O.s used for correlation:     1   467
 NBasis=   467 NAE=    89 NBE=    89 NFC=     0 NFV=     0
 NROrb=    467 NOA=    89 NOB=    89 NVA=   378 NVB=   378
 Symmetrizing basis deriv contribution to polar:
 IMax=3 JMax=2 DiffMx= 0.00D+00
 G2DrvN: will do    54 centers at a time, making    1 passes.
 Calling FoFCou, ICntrl=  3107 FMM=F I1Cent=   0 AccDes= 0.00D+00.
 NEqPCM:  Using equilibrium solvation (IEInf=0, Eps=  78.3553, EpsInf=   1.7778)
 G2PCM: DoFxE=T DoFxN=T DoGrad=T DoDP/DQ/DG/TGxP=FFFF NFrqRd=   0 IEInf=0 SqF1=F DoCFld=F IF1Alg=4.
 End of G2Drv F.D. properties file   721 does not exist.
 End of G2Drv F.D. properties file   722 does not exist.
 End of G2Drv F.D. properties file   788 does not exist.
          IDoAtm=11111111111111111111111111111111111111111111111111
          IDoAtm=111
 NEqPCM:  Using equilibrium solvation (IEInf=0, Eps=  78.3553, EpsInf=   1.7778)
          Differentiating once with respect to nuclear coordinates.
 CalDSu exits because no D1Ps are significant.
          There are   162 degrees of freedom in the 1st order CPHF.  IDoFFX=6 NUNeed=     0.
    156 vectors produced by pass  0 Test12= 3.36D-14 1.00D-09 XBig12= 8.04D-02 4.53D-02.
 AX will form   156 AO Fock derivatives at one time.
    156 vectors produced by pass  1 Test12= 3.36D-14 1.00D-09 XBig12= 2.97D-02 1.69D-02.
    156 vectors produced by pass  2 Test12= 3.36D-14 1.00D-09 XBig12= 2.15D-04 1.16D-03.
    156 vectors produced by pass  3 Test12= 3.36D-14 1.00D-09 XBig12= 5.40D-07 6.27D-05.
    156 vectors produced by pass  4 Test12= 3.36D-14 1.00D-09 XBig12= 6.08D-10 1.73D-06.
     66 vectors produced by pass  5 Test12= 3.36D-14 1.00D-09 XBig12= 3.99D-13 3.44D-08.
      1 vectors produced by pass  6 Test12= 3.36D-14 1.00D-09 XBig12= 2.62D-16 1.22D-09.
 InvSVY:  IOpt=1 It=  1 EMax= 3.33D-16
 Solved reduced A of dimension   847 with   162 vectors.
 End of Minotr F.D. properties file   721 does not exist.
 End of Minotr F.D. properties file   722 does not exist.
 End of Minotr F.D. properties file   788 does not exist.

 **********************************************************************

            Population analysis using the SCF density.

 **********************************************************************

 Orbital symmetries:
       Occupied  (A) (A) (A) (A) (A) (A) (A) (A) (A) (A) (A) (A)
                 (A) (A) (A) (A) (A) (A) (A) (A) (A) (A) (A) (A)
                 (A) (A) (A) (A) (A) (A) (A) (A) (A) (A) (A) (A)
                 (A) (A) (A) (A) (A) (A) (A) (A) (A) (A) (A) (A)
                 (A) (A) (A) (A) (A) (A) (A) (A) (A) (A) (A) (A)
                 (A) (A) (A) (A) (A) (A) (A) (A) (A) (A) (A) (A)
                 (A) (A) (A) (A) (A) (A) (A) (A) (A) (A) (A) (A)
                 (A) (A) (A) (A) (A)
       Virtual   (A) (A) (A) (A) (A) (A) (A) (A) (A) (A) (A) (A)
                 (A) (A) (A) (A) (A) (A) (A) (A) (A) (A) (A) (A)
                 (A) (A) (A) (A) (A) (A) (A) (A) (A) (A) (A) (A)
                 (A) (A) (A) (A) (A) (A) (A) (A) (A) (A) (A) (A)
                 (A) (A) (A) (A) (A) (A) (A) (A) (A) (A) (A) (A)
                 (A) (A) (A) (A) (A) (A) (A) (A) (A) (A) (A) (A)
                 (A) (A) (A) (A) (A) (A) (A) (A) (A) (A) (A) (A)
                 (A) (A) (A) (A) (A) (A) (A) (A) (A) (A) (A) (A)
                 (A) (A) (A) (A) (A) (A) (A) (A) (A) (A) (A) (A)
                 (A) (A) (A) (A) (A) (A) (A) (A) (A) (A) (A) (A)
                 (A) (A) (A) (A) (A) (A) (A) (A) (A) (A) (A) (A)
                 (A) (A) (A) (A) (A) (A) (A) (A) (A) (A) (A) (A)
                 (A) (A) (A) (A) (A) (A) (A) (A) (A) (A) (A) (A)
                 (A) (A) (A) (A) (A) (A) (A) (A) (A) (A) (A) (A)
                 (A) (A) (A) (A) (A) (A) (A) (A) (A) (A) (A) (A)
                 (A) (A) (A) (A) (A) (A) (A) (A) (A) (A) (A) (A)
                 (A) (A) (A) (A) (A) (A) (A) (A) (A) (A) (A) (A)
                 (A) (A) (A) (A) (A) (A) (A) (A) (A) (A) (A) (A)
                 (A) (A) (A) (A) (A) (A) (A) (A) (A) (A) (A) (A)
                 (A) (A) (A) (A) (A) (A) (A) (A) (A) (A) (A) (A)
                 (A) (A) (A) (A) (A) (A) (A) (A) (A) (A) (A) (A)
                 (A) (A) (A) (A) (A) (A) (A) (A) (A) (A) (A) (A)
                 (A) (A) (A) (A) (A) (A) (A) (A) (A) (A) (A) (A)
                 (A) (A) (A) (A) (A) (A) (A) (A) (A) (A) (A) (A)
                 (A) (A) (A) (A) (A) (A) (A) (A) (A) (A) (A) (A)
                 (A) (A) (A) (A) (A) (A) (A) (A) (A) (A) (A) (A)
                 (A) (A) (A) (A) (A) (A) (A) (A) (A) (A) (A) (A)
                 (A) (A) (A) (A) (A) (A) (A) (A) (A) (A) (A) (A)
                 (A) (A) (A) (A) (A) (A) (A) (A) (A) (A) (A) (A)
                 (A) (A) (A) (A) (A) (A) (A) (A) (A) (A) (A) (A)
                 (A) (A) (A) (A) (A) (A) (A) (A) (A) (A) (A) (A)
                 (A) (A) (A) (A) (A) (A)
 The electronic state is 1-A.
 Alpha  occ. eigenvalues --  -66.16980 -66.14048 -66.13854 -19.13577 -19.13411
 Alpha  occ. eigenvalues --  -14.30747 -14.30404 -10.20010 -10.19675 -10.17562
 Alpha  occ. eigenvalues --  -10.17318 -10.15899 -10.15813 -10.15796 -10.15696
 Alpha  occ. eigenvalues --  -10.15642 -10.15622 -10.15618 -10.15548  -5.30579
 Alpha  occ. eigenvalues --   -5.28091  -5.27907  -3.66670  -3.66537  -3.66320
 Alpha  occ. eigenvalues --   -3.64177  -3.63997  -3.63898  -3.63885  -3.63718
 Alpha  occ. eigenvalues --   -3.63691  -0.98148  -0.96211  -0.87713  -0.87401
 Alpha  occ. eigenvalues --   -0.75431  -0.75376  -0.70205  -0.69789  -0.69693
 Alpha  occ. eigenvalues --   -0.67660  -0.67432  -0.67336  -0.65929  -0.64548
 Alpha  occ. eigenvalues --   -0.58146  -0.57595  -0.55029  -0.49917  -0.49115
 Alpha  occ. eigenvalues --   -0.48980  -0.44793  -0.43979  -0.43519  -0.42932
 Alpha  occ. eigenvalues --   -0.42574  -0.41872  -0.41494  -0.40991  -0.40758
 Alpha  occ. eigenvalues --   -0.40588  -0.40111  -0.39949  -0.39563  -0.39176
 Alpha  occ. eigenvalues --   -0.39030  -0.38841  -0.38517  -0.38378  -0.38230
 Alpha  occ. eigenvalues --   -0.37753  -0.37266  -0.36373  -0.36005  -0.35264
 Alpha  occ. eigenvalues --   -0.34991  -0.34424  -0.33855  -0.33660  -0.33404
 Alpha  occ. eigenvalues --   -0.32911  -0.32748  -0.28604  -0.28179  -0.28088
 Alpha  occ. eigenvalues --   -0.26300  -0.25744  -0.23064  -0.22687
 Alpha virt. eigenvalues --    0.04601   0.06310   0.06912   0.07686   0.08116
 Alpha virt. eigenvalues --    0.09022   0.09582   0.10011   0.10794   0.11219
 Alpha virt. eigenvalues --    0.11637   0.11780   0.12552   0.12913   0.13299
 Alpha virt. eigenvalues --    0.13446   0.14184   0.14223   0.14939   0.15252
 Alpha virt. eigenvalues --    0.15308   0.15763   0.16396   0.16788   0.16941
 Alpha virt. eigenvalues --    0.17470   0.17634   0.17897   0.18093   0.18468
 Alpha virt. eigenvalues --    0.18679   0.19117   0.19827   0.20055   0.20331
 Alpha virt. eigenvalues --    0.20897   0.21370   0.21626   0.22142   0.22691
 Alpha virt. eigenvalues --    0.23040   0.23424   0.23906   0.24186   0.24748
 Alpha virt. eigenvalues --    0.25516   0.26161   0.26835   0.27234   0.28070
 Alpha virt. eigenvalues --    0.28375   0.30013   0.31155   0.34792   0.36282
 Alpha virt. eigenvalues --    0.37944   0.38717   0.39775   0.40037   0.41891
 Alpha virt. eigenvalues --    0.42429   0.43932   0.44178   0.46718   0.47947
 Alpha virt. eigenvalues --    0.48744   0.50746   0.53740   0.54201   0.55329
 Alpha virt. eigenvalues --    0.57547   0.57880   0.58271   0.59064   0.60078
 Alpha virt. eigenvalues --    0.60478   0.61668   0.62176   0.63712   0.64582
 Alpha virt. eigenvalues --    0.65002   0.65131   0.65712   0.65772   0.66756
 Alpha virt. eigenvalues --    0.68222   0.68846   0.69644   0.70730   0.71712
 Alpha virt. eigenvalues --    0.72528   0.72932   0.73216   0.73919   0.74762
 Alpha virt. eigenvalues --    0.75083   0.75921   0.76242   0.76784   0.76969
 Alpha virt. eigenvalues --    0.77244   0.77627   0.78782   0.79339   0.79844
 Alpha virt. eigenvalues --    0.81167   0.82475   0.83468   0.83945   0.84502
 Alpha virt. eigenvalues --    0.84888   0.85493   0.86129   0.86560   0.87292
 Alpha virt. eigenvalues --    0.87507   0.88081   0.88502   0.88662   0.89439
 Alpha virt. eigenvalues --    0.89525   0.89821   0.90098   0.90373   0.90826
 Alpha virt. eigenvalues --    0.91180   0.91687   0.92182   0.92393   0.92749
 Alpha virt. eigenvalues --    0.92885   0.93297   0.93647   0.93864   0.94430
 Alpha virt. eigenvalues --    0.95001   0.95397   0.96142   0.96912   0.97099
 Alpha virt. eigenvalues --    0.97817   0.98570   1.00555   1.00625   1.01169
 Alpha virt. eigenvalues --    1.01259   1.02706   1.03502   1.04060   1.04856
 Alpha virt. eigenvalues --    1.06575   1.06829   1.07819   1.08666   1.11350
 Alpha virt. eigenvalues --    1.12684   1.13010   1.18344   1.21599   1.23135
 Alpha virt. eigenvalues --    1.24097   1.26513   1.27821   1.28648   1.30883
 Alpha virt. eigenvalues --    1.31931   1.32379   1.33640   1.34322   1.35203
 Alpha virt. eigenvalues --    1.36081   1.37141   1.40154   1.41782   1.43021
 Alpha virt. eigenvalues --    1.45055   1.46462   1.46957   1.47454   1.48034
 Alpha virt. eigenvalues --    1.49659   1.51716   1.53867   1.54431   1.55998
 Alpha virt. eigenvalues --    1.56272   1.57805   1.58957   1.60022   1.61168
 Alpha virt. eigenvalues --    1.61966   1.64561   1.65623   1.67005   1.70195
 Alpha virt. eigenvalues --    1.71422   1.71745   1.73537   1.74696   1.78746
 Alpha virt. eigenvalues --    1.79321   1.81693   1.83241   1.84508   1.86062
 Alpha virt. eigenvalues --    1.86865   1.88180   1.88327   1.91512   1.91763
 Alpha virt. eigenvalues --    1.93296   1.97681   1.97770   1.98183   1.99073
 Alpha virt. eigenvalues --    1.99559   2.00478   2.01929   2.03491   2.04262
 Alpha virt. eigenvalues --    2.04892   2.05022   2.05090   2.05178   2.05634
 Alpha virt. eigenvalues --    2.05855   2.08374   2.08475   2.09536   2.10110
 Alpha virt. eigenvalues --    2.10724   2.10935   2.11027   2.11218   2.11911
 Alpha virt. eigenvalues --    2.12445   2.12683   2.13341   2.13546   2.14666
 Alpha virt. eigenvalues --    2.14970   2.15850   2.16187   2.16467   2.16795
 Alpha virt. eigenvalues --    2.16806   2.17375   2.19158   2.19350   2.20840
 Alpha virt. eigenvalues --    2.22097   2.23714   2.25403   2.25949   2.26378
 Alpha virt. eigenvalues --    2.27941   2.28195   2.29588   2.30390   2.32677
 Alpha virt. eigenvalues --    2.32978   2.33394   2.33702   2.34061   2.34344
 Alpha virt. eigenvalues --    2.34861   2.35328   2.35899   2.36123   2.36960
 Alpha virt. eigenvalues --    2.37426   2.37851   2.38090   2.38737   2.39345
 Alpha virt. eigenvalues --    2.43218   2.45956   2.46820   2.48379   2.51194
 Alpha virt. eigenvalues --    2.53429   2.54638   2.56237   2.57901   2.59527
 Alpha virt. eigenvalues --    2.63209   2.63855   2.65256   2.65463   2.65699
 Alpha virt. eigenvalues --    2.68159   2.68347   2.68811   2.68983   2.69471
 Alpha virt. eigenvalues --    2.69829   2.71969   2.72918   2.73473   2.74359
 Alpha virt. eigenvalues --    2.74805   2.77447   2.80356   2.81777   2.82596
 Alpha virt. eigenvalues --    2.82757   2.82880   2.83222   2.84017   2.84664
 Alpha virt. eigenvalues --    2.84970   2.85206   2.85498   2.85846   2.86341
 Alpha virt. eigenvalues --    2.86744   2.88082   2.89241   2.89449   2.92392
 Alpha virt. eigenvalues --    2.92638   2.93362   2.94365   2.98769   2.99875
 Alpha virt. eigenvalues --    3.08706   3.10957   3.11174   3.19503   3.20050
 Alpha virt. eigenvalues --    3.20831   3.21052   3.21691   3.22156   3.25533
 Alpha virt. eigenvalues --    3.27158   3.30415   3.30568   3.31585   3.33140
 Alpha virt. eigenvalues --    3.34251   3.35201   3.37625   3.39898   3.43083
 Alpha virt. eigenvalues --    3.43707   3.43920   3.44332   3.44580   3.44811
 Alpha virt. eigenvalues --    3.45048   3.45381   3.45483   3.45855   3.46648
 Alpha virt. eigenvalues --    3.47205   3.47813   3.49103   3.55026   3.55801
 Alpha virt. eigenvalues --    3.59908   3.61200   3.91243   3.97080   3.97917
 Alpha virt. eigenvalues --    4.00874   4.37338   4.38499   4.44556   4.45902
 Alpha virt. eigenvalues --    4.46812   4.47526   4.50232   4.51578   4.53256
 Alpha virt. eigenvalues --    4.54670   4.67868   4.68016
          Condensed to atoms (all electrons):
 Mulliken charges:
               1
     1  C   -0.552002
     2  Si   0.919454
     3  C   -0.559273
     4  C   -0.408002
     5  C   -0.185977
     6  C   -0.061893
     7  N   -0.635957
     8  O   -0.667084
     9  Si   1.047933
    10  C   -0.561464
    11  C   -0.569480
    12  O   -0.677401
    13  Si   0.910897
    14  C   -0.556131
    15  C   -0.398582
    16  C   -0.188145
    17  C   -0.060737
    18  N   -0.643480
    19  C   -0.543716
    20  H    0.119918
    21  H    0.124123
    22  H    0.119437
    23  H    0.120800
    24  H    0.123892
    25  H    0.120384
    26  H    0.096393
    27  H    0.110734
    28  H    0.089459
    29  H    0.089273
    30  H    0.099133
    31  H    0.108220
    32  H    0.249491
    33  H    0.251959
    34  H    0.119973
    35  H    0.124959
    36  H    0.125155
    37  H    0.121998
    38  H    0.125256
    39  H    0.125114
    40  H    0.122512
    41  H    0.118831
    42  H    0.119208
    43  H    0.102048
    44  H    0.104721
    45  H    0.085597
    46  H    0.092272
    47  H    0.120395
    48  H    0.102224
    49  H    0.247453
    50  H    0.246159
    51  H    0.119035
    52  H    0.124746
    53  H    0.120165
 Sum of Mulliken charges =  -0.00000
 Mulliken charges with hydrogens summed into heavy atoms:
               1
     1  C   -0.188524
     2  Si   0.919454
     3  C   -0.194196
     4  C   -0.200874
     5  C   -0.007245
     6  C    0.145460
     7  N   -0.134507
     8  O   -0.667084
     9  Si   1.047933
    10  C   -0.191376
    11  C   -0.197112
    12  O   -0.677401
    13  Si   0.910897
    14  C   -0.195579
    15  C   -0.191813
    16  C   -0.010275
    17  C    0.161882
    18  N   -0.149867
    19  C   -0.179770
 APT charges:
               1
     1  C   -1.282801
     2  Si   0.590190
     3  C   -1.315954
     4  C   -0.401217
     5  C   -0.914388
     6  C   -1.154659
     7  N   -0.300846
     8  O   -0.902666
     9  Si   0.567027
    10  C   -1.312134
    11  C   -1.291015
    12  O   -0.902661
    13  Si   0.624373
    14  C   -1.335212
    15  C   -1.004846
    16  C   -1.178950
    17  C    0.165899
    18  N   -1.857716
    19  C   -1.321900
    20  H    0.221258
    21  H    0.746729
    22  H    0.300442
    23  H    0.240418
    24  H    0.749081
    25  H    0.300819
    26  H    0.278580
    27  H    0.174044
    28  H    0.304097
    29  H    0.585516
    30  H    0.986715
    31  H    0.081698
    32  H    0.703160
    33  H   -0.321536
    34  H    0.332994
    35  H    0.422276
    36  H    0.545092
    37  H    0.283070
    38  H    0.425228
    39  H    0.540837
    40  H    0.892037
    41  H    0.198105
    42  H    0.293211
    43  H    0.156693
    44  H    0.818937
    45  H    0.749749
    46  H    0.413318
    47  H   -0.131933
    48  H    0.217387
    49  H    0.594818
    50  H    1.034428
    51  H    0.318975
    52  H    0.896686
    53  H    0.176545
 Sum of APT charges =  -0.00000
 APT charges with hydrogens summed into heavy atoms:
               1
     1  C   -0.014373
     2  Si   0.590190
     3  C   -0.025636
     4  C    0.051407
     5  C   -0.024775
     6  C   -0.086246
     7  N    0.080778
     8  O   -0.902666
     9  Si   0.567027
    10  C   -0.011772
    11  C   -0.041879
    12  O   -0.902661
    13  Si   0.624373
    14  C    0.048140
    15  C   -0.029216
    16  C   -0.015883
    17  C    0.251353
    18  N   -0.228470
    19  C    0.070306
 Electronic spatial extent (au):  <R**2>=          10228.7376
 Charge=             -0.0000 electrons
 Dipole moment (field-independent basis, Debye):
    X=              2.6291    Y=             -3.0698    Z=              1.0431  Tot=              4.1742
 Quadrupole moment (field-independent basis, Debye-Ang):
   XX=           -139.3210   YY=           -146.6464   ZZ=           -138.4539
   XY=             11.2566   XZ=             -4.1743   YZ=              0.4159
 Traceless Quadrupole moment (field-independent basis, Debye-Ang):
   XX=              2.1528   YY=             -5.1726   ZZ=              3.0199
   XY=             11.2566   XZ=             -4.1743   YZ=              0.4159
 Octapole moment (field-independent basis, Debye-Ang**2):
  XXX=            173.2347  YYY=            -23.0145  ZZZ=            -13.6018  XYY=             26.1437
  XXY=            -34.4246  XXZ=             22.6232  XZZ=              0.6645  YZZ=              1.8954
  YYZ=             -4.8475  XYZ=            -21.8832
 Hexadecapole moment (field-independent basis, Debye-Ang**3):
 XXXX=         -10738.8753 YYYY=          -2598.5161 ZZZZ=          -1245.6842 XXXY=            585.7943
 XXXZ=           -260.5566 YYYX=             94.6229 YYYZ=            -15.8269 ZZZX=             56.3693
 ZZZY=             -1.6302 XXYY=          -2033.4105 XXZZ=          -1892.5756 YYZZ=           -582.6268
 XXYZ=            136.0436 YYXZ=            -34.9314 ZZXY=             62.7404
 N-N= 2.041115873976D+03 E-N=-7.864499820495D+03  KE= 1.595856008184D+03
  Exact polarizability:   0.000   0.000   0.000   0.000   0.000   0.000
 Approx polarizability: 276.556   4.055 271.342  -0.116  -0.756 271.480
 D2PCM: PCM CHGder 2nd derivatives, FixD1E=F FixD2E=F DoIter=F DoCFld=F I1PDM=0
 Calling FoFJK, ICntrl=    100147 FMM=F ISym2X=0 I1Cent= 0 IOpClX= 0 NMat=1 NMatS=1 NMatT=0.
 ***** Axes restored to original set *****
 -------------------------------------------------------------------
 Center     Atomic                   Forces (Hartrees/Bohr)
 Number     Number              X              Y              Z
 -------------------------------------------------------------------
      1        6           0.007828472   -0.001092975   -0.001340166
      2       14          -0.015022285    0.004960291   -0.000099083
      3        6           0.004037350   -0.002261593   -0.000996927
      4        6           0.009198987   -0.005390603    0.002007675
      5        6          -0.002846456   -0.008029575    0.000206151
      6        6           0.000973692   -0.001541497   -0.008569039
      7        7          -0.001060319    0.012515273    0.006358009
      8        8           0.005113768   -0.001162716   -0.002848337
      9       14           0.000096637   -0.004966370   -0.001329268
     10        6           0.001106578    0.005965834    0.000317722
     11        6           0.001853195    0.004965518    0.002145354
     12        8          -0.009364195    0.001303579    0.001207382
     13       14           0.015857160   -0.006660843    0.004139634
     14        6          -0.004355695    0.000938255    0.001680914
     15        6          -0.004302677    0.003588593   -0.009506003
     16        6          -0.004313358   -0.010547426   -0.004603976
     17        6           0.014236299    0.006102189    0.000605157
     18        7          -0.008294623    0.007337592    0.011740011
     19        6          -0.006545810    0.002693307    0.001937606
     20        1           0.000296960    0.001587662    0.001594012
     21        1          -0.001144068   -0.000260606   -0.000021694
     22        1           0.000525705    0.001682590    0.001172044
     23        1          -0.000575169   -0.001296941    0.000686845
     24        1          -0.000486909   -0.000003159    0.000068558
     25        1          -0.000901065   -0.001915059    0.000799413
     26        1          -0.000205764    0.001090989   -0.001640028
     27        1           0.001141816    0.001116731   -0.001872311
     28        1           0.000262363   -0.001239077   -0.000871155
     29        1          -0.002357070    0.000437514    0.000419203
     30        1          -0.000802833   -0.000298974    0.000521535
     31        1           0.001320516    0.001421069    0.001451986
     32        1           0.000794716   -0.001032153    0.001105416
     33        1          -0.002072502   -0.000838439   -0.000921299
     34        1          -0.001023929   -0.000484910   -0.001927854
     35        1          -0.000740550   -0.000457248   -0.000069751
     36        1           0.000289007   -0.000357198   -0.000315750
     37        1           0.000303886   -0.001750770    0.001280239
     38        1          -0.000478512   -0.000294978    0.000135781
     39        1           0.000369533   -0.000612323   -0.000128362
     40        1           0.000565441   -0.000145910   -0.000208999
     41        1          -0.000017294   -0.001870547   -0.001355681
     42        1          -0.000205531   -0.001327449   -0.001567671
     43        1           0.000972494   -0.002101115    0.001158923
     44        1          -0.000252259   -0.002830476   -0.002302439
     45        1           0.000071474    0.002595721    0.003220705
     46        1          -0.000705280    0.001180870    0.000908711
     47        1          -0.001352986   -0.000895348   -0.001145050
     48        1          -0.000606768   -0.001236475   -0.000293268
     49        1           0.000760633   -0.001772264    0.000424136
     50        1           0.000172988    0.000473434   -0.001582491
     51        1           0.000572889    0.001559551   -0.001042412
     52        1           0.000238278   -0.000689411    0.000193886
     53        1           0.001073070    0.001847863   -0.000927994
 -------------------------------------------------------------------
 Cartesian Forces:  Max     0.015857160 RMS     0.003823625
 FormGI is forming the generalized inverse of G from B-inverse, IUseBI=4.

 GradGradGradGradGradGradGradGradGradGradGradGradGradGradGradGradGradGrad
 Berny optimization.
 Internal  Forces:  Max     0.019518402 RMS     0.002612473
 Search for a local minimum.
 Step number   1 out of a maximum of  292
 All quantities printed in internal units (Hartrees-Bohrs-Radians)
 Mixed Optimization -- RFO/linear search
 Second derivative matrix not updated -- analytic derivatives used.
 ITU=  0
     Eigenvalues ---    0.00019   0.00037   0.00079   0.00101   0.00115
     Eigenvalues ---    0.00123   0.00130   0.00148   0.00161   0.00187
     Eigenvalues ---    0.00248   0.00262   0.00280   0.00301   0.00355
     Eigenvalues ---    0.00403   0.00495   0.01120   0.02279   0.02374
     Eigenvalues ---    0.02630   0.02712   0.02806   0.02860   0.02960
     Eigenvalues ---    0.03048   0.03068   0.03143   0.03225   0.03231
     Eigenvalues ---    0.03295   0.03324   0.03385   0.03416   0.03446
     Eigenvalues ---    0.03501   0.03712   0.03750   0.03785   0.03833
     Eigenvalues ---    0.03972   0.04015   0.04057   0.04218   0.04348
     Eigenvalues ---    0.04411   0.04432   0.04576   0.04659   0.04663
     Eigenvalues ---    0.04879   0.05055   0.05203   0.05262   0.05902
     Eigenvalues ---    0.06023   0.06249   0.07036   0.07206   0.07277
     Eigenvalues ---    0.07438   0.07656   0.07781   0.07998   0.08051
     Eigenvalues ---    0.08394   0.08722   0.09723   0.10096   0.10216
     Eigenvalues ---    0.10406   0.10478   0.10501   0.10504   0.10524
     Eigenvalues ---    0.10581   0.10619   0.10779   0.10955   0.10986
     Eigenvalues ---    0.11228   0.11345   0.11617   0.11870   0.12207
     Eigenvalues ---    0.12326   0.12732   0.12818   0.13014   0.13293
     Eigenvalues ---    0.13926   0.14594   0.14596   0.14795   0.15359
     Eigenvalues ---    0.17369   0.18024   0.18395   0.18449   0.18580
     Eigenvalues ---    0.18607   0.18862   0.19346   0.19628   0.19824
     Eigenvalues ---    0.19956   0.23176   0.24521   0.24852   0.26846
     Eigenvalues ---    0.27842   0.28558   0.29661   0.30391   0.31141
     Eigenvalues ---    0.31622   0.32388   0.32412   0.32483   0.32912
     Eigenvalues ---    0.32984   0.33149   0.33333   0.33338   0.33349
     Eigenvalues ---    0.33668   0.33698   0.33922   0.33973   0.33998
     Eigenvalues ---    0.33999   0.34050   0.34054   0.34058   0.34063
     Eigenvalues ---    0.34086   0.34120   0.34150   0.34190   0.34239
     Eigenvalues ---    0.34264   0.34571   0.34589   0.34615   0.34633
     Eigenvalues ---    0.34682   0.34842   0.38195   0.38202   0.43974
     Eigenvalues ---    0.44053   0.44274   0.44299
 RFO step:  Lambda=-1.11458685D-02 EMin= 1.89138787D-04
 Linear search not attempted -- first point.
 Iteration  1 RMS(Cart)=  0.19908447 RMS(Int)=  0.00689118
 Iteration  2 RMS(Cart)=  0.04362182 RMS(Int)=  0.00031456
 Iteration  3 RMS(Cart)=  0.00050379 RMS(Int)=  0.00023264
 Iteration  4 RMS(Cart)=  0.00000014 RMS(Int)=  0.00023264
 Variable       Old X    -DE/DX   Delta X   Delta X   Delta X     New X
                                 (Linear)    (Quad)   (Total)
    R1        3.55249   0.00272   0.00000   0.00862   0.00862   3.56111
    R2        2.06832   0.00097   0.00000   0.00208   0.00208   2.07040
    R3        2.06461   0.00096   0.00000   0.00500   0.00500   2.06962
    R4        2.06739   0.00108   0.00000   0.00299   0.00299   2.07038
    R5        3.54915   0.00399   0.00000   0.01396   0.01396   3.56311
    R6        3.61277  -0.00184   0.00000  -0.02129  -0.02129   3.59147
    R7        3.15620   0.00096   0.00000   0.00119   0.00119   3.15739
    R8        2.06845   0.00055   0.00000   0.00146   0.00146   2.06991
    R9        2.06711   0.00046   0.00000   0.00322   0.00322   2.07033
   R10        2.06767   0.00098   0.00000   0.00261   0.00261   2.07028
   R11        2.89946   0.00551   0.00000   0.01600   0.01600   2.91545
   R12        2.07078   0.00139   0.00000   0.00540   0.00540   2.07618
   R13        2.07280   0.00114   0.00000   0.00307   0.00307   2.07587
   R14        2.89507   0.00626   0.00000   0.01345   0.01345   2.90852
   R15        2.07429   0.00094   0.00000   0.00082   0.00082   2.07511
   R16        2.07620   0.00077   0.00000   0.00202   0.00202   2.07822
   R17        2.75219   0.00898   0.00000   0.02321   0.02321   2.77541
   R18        2.07138   0.00085   0.00000   0.00201   0.00201   2.07339
   R19        2.06716   0.00143   0.00000   0.00580   0.00580   2.07296
   R20        1.92707  -0.00148   0.00000  -0.00097  -0.00097   1.92610
   R21        1.92621  -0.00227   0.00000  -0.00247  -0.00247   1.92374
   R22        3.14782  -0.00462   0.00000  -0.01870  -0.01870   3.12911
   R23        3.54800   0.00051   0.00000  -0.00219  -0.00219   3.54581
   R24        3.55003   0.00035   0.00000  -0.00370  -0.00370   3.54634
   R25        3.15167  -0.00586   0.00000  -0.02303  -0.02303   3.12864
   R26        2.06751   0.00094   0.00000   0.00188   0.00188   2.06939
   R27        2.06703   0.00083   0.00000   0.00345   0.00345   2.07048
   R28        2.06704   0.00056   0.00000   0.00310   0.00310   2.07013
   R29        2.06734   0.00081   0.00000   0.00176   0.00176   2.06910
   R30        2.06682   0.00058   0.00000   0.00323   0.00323   2.07004
   R31        2.06736   0.00068   0.00000   0.00271   0.00271   2.07007
   R32        3.15018   0.00327   0.00000   0.00777   0.00777   3.15795
   R33        3.55770   0.00273   0.00000   0.00739   0.00739   3.56510
   R34        3.61443  -0.00365   0.00000  -0.03045  -0.03045   3.58398
   R35        3.55109   0.00226   0.00000   0.00791   0.00791   3.55900
   R36        2.06713   0.00062   0.00000   0.00351   0.00351   2.07065
   R37        2.06724   0.00107   0.00000   0.00304   0.00304   2.07028
   R38        2.06728   0.00101   0.00000   0.00268   0.00268   2.06996
   R39        2.89869   0.00874   0.00000   0.01785   0.01785   2.91654
   R40        2.07131   0.00170   0.00000   0.00620   0.00620   2.07751
   R41        2.07264   0.00160   0.00000   0.00490   0.00490   2.07754
   R42        2.89473   0.00422   0.00000   0.00800   0.00800   2.90273
   R43        2.07518   0.00089   0.00000   0.00306   0.00306   2.07824
   R44        2.07338   0.00034   0.00000   0.00285   0.00285   2.07623
   R45        2.76077   0.00940   0.00000   0.01637   0.01637   2.77714
   R46        2.06575   0.00116   0.00000   0.00434   0.00434   2.07010
   R47        2.06977   0.00115   0.00000   0.00525   0.00525   2.07502
   R48        1.92612  -0.00137   0.00000  -0.00007  -0.00007   1.92606
   R49        1.92523  -0.00089   0.00000   0.00116   0.00116   1.92639
   R50        2.06716   0.00103   0.00000   0.00275   0.00275   2.06991
   R51        2.06752   0.00031   0.00000   0.00299   0.00299   2.07050
   R52        2.06748   0.00080   0.00000   0.00198   0.00198   2.06946
    A1        1.92357   0.00280   0.00000   0.01000   0.00996   1.93353
    A2        1.94628  -0.00196   0.00000   0.00026   0.00026   1.94654
    A3        1.92848   0.00233   0.00000   0.01262   0.01257   1.94105
    A4        1.88421  -0.00065   0.00000  -0.00626  -0.00626   1.87795
    A5        1.88791  -0.00215   0.00000  -0.00889  -0.00898   1.87894
    A6        1.89174  -0.00050   0.00000  -0.00873  -0.00873   1.88300
    A7        1.89863   0.00108   0.00000   0.02060   0.01913   1.91776
    A8        1.90342   0.00321   0.00000   0.04696   0.04597   1.94939
    A9        1.90637  -0.00334   0.00000  -0.04868  -0.04810   1.85827
   A10        1.90656   0.00025   0.00000   0.01800   0.01661   1.92316
   A11        1.93862   0.00026   0.00000  -0.00824  -0.00797   1.93065
   A12        1.90989  -0.00138   0.00000  -0.02713  -0.02639   1.88350
   A13        1.92994   0.00173   0.00000   0.01020   0.01013   1.94007
   A14        1.93516  -0.00086   0.00000  -0.00254  -0.00252   1.93264
   A15        1.93161   0.00266   0.00000   0.01603   0.01596   1.94757
   A16        1.88680  -0.00070   0.00000  -0.00733  -0.00732   1.87948
   A17        1.89004  -0.00184   0.00000  -0.00646  -0.00660   1.88344
   A18        1.88879  -0.00114   0.00000  -0.01096  -0.01095   1.87785
   A19        2.06548  -0.00053   0.00000  -0.00106  -0.00110   2.06438
   A20        1.88871   0.00092   0.00000   0.00760   0.00757   1.89628
   A21        1.84667   0.00024   0.00000   0.00092   0.00085   1.84752
   A22        1.93113  -0.00068   0.00000  -0.01338  -0.01334   1.91778
   A23        1.86970   0.00096   0.00000   0.01767   0.01767   1.88737
   A24        1.84860  -0.00094   0.00000  -0.01254  -0.01248   1.83612
   A25        2.03522  -0.00059   0.00000  -0.01483  -0.01482   2.02040
   A26        1.91369  -0.00104   0.00000   0.00106   0.00098   1.91467
   A27        1.87951   0.00232   0.00000   0.02050   0.02047   1.89998
   A28        1.89153   0.00143   0.00000   0.00037   0.00034   1.89187
   A29        1.88801  -0.00175   0.00000  -0.00561  -0.00551   1.88250
   A30        1.84675  -0.00038   0.00000  -0.00027  -0.00034   1.84641
   A31        1.97531   0.01523   0.00000   0.05480   0.05480   2.03010
   A32        1.89434  -0.00372   0.00000  -0.00431  -0.00453   1.88981
   A33        1.93670  -0.00376   0.00000  -0.01264  -0.01229   1.92441
   A34        1.88848  -0.00429   0.00000  -0.01010  -0.01056   1.87792
   A35        1.91156  -0.00633   0.00000  -0.03080  -0.03074   1.88082
   A36        1.85266   0.00207   0.00000   0.00002  -0.00026   1.85240
   A37        1.91622  -0.00117   0.00000  -0.01138  -0.01149   1.90473
   A38        1.92538  -0.00034   0.00000  -0.01141  -0.01152   1.91386
   A39        1.85127   0.00003   0.00000  -0.00992  -0.01015   1.84112
   A40        2.48363   0.00525   0.00000   0.10701   0.10701   2.59063
   A41        1.93524  -0.00079   0.00000  -0.00923  -0.00961   1.92563
   A42        1.92561  -0.00070   0.00000  -0.00670  -0.00684   1.91877
   A43        1.86620  -0.00203   0.00000  -0.02820  -0.02843   1.83777
   A44        1.88297   0.00470   0.00000   0.05183   0.05175   1.93471
   A45        1.92278  -0.00105   0.00000  -0.01048  -0.01108   1.91170
   A46        1.93162  -0.00024   0.00000   0.00166   0.00142   1.93304
   A47        1.93036   0.00300   0.00000   0.01150   0.01148   1.94183
   A48        1.93293  -0.00015   0.00000   0.00345   0.00343   1.93637
   A49        1.93212  -0.00056   0.00000   0.00211   0.00210   1.93422
   A50        1.89014  -0.00119   0.00000  -0.00585  -0.00589   1.88425
   A51        1.88940  -0.00110   0.00000  -0.00620  -0.00622   1.88317
   A52        1.88745  -0.00011   0.00000  -0.00575  -0.00575   1.88170
   A53        1.93064   0.00299   0.00000   0.01300   0.01297   1.94360
   A54        1.93282  -0.00053   0.00000  -0.00037  -0.00038   1.93245
   A55        1.93300  -0.00016   0.00000   0.00485   0.00483   1.93783
   A56        1.88953  -0.00110   0.00000  -0.00509  -0.00510   1.88443
   A57        1.89008  -0.00121   0.00000  -0.00610  -0.00615   1.88393
   A58        1.88629  -0.00010   0.00000  -0.00709  -0.00708   1.87920
   A59        2.47725   0.00489   0.00000   0.10103   0.10103   2.57827
   A60        1.93998  -0.00086   0.00000  -0.01886  -0.01872   1.92126
   A61        1.93072   0.00136   0.00000   0.00984   0.01030   1.94102
   A62        1.92892  -0.00376   0.00000  -0.05343  -0.05323   1.87569
   A63        1.87921  -0.00043   0.00000   0.00976   0.00898   1.88819
   A64        1.88874   0.00244   0.00000   0.02722   0.02634   1.91508
   A65        1.89467   0.00142   0.00000   0.02858   0.02811   1.92279
   A66        1.92919  -0.00095   0.00000  -0.00044  -0.00043   1.92876
   A67        1.93238   0.00261   0.00000   0.01470   0.01463   1.94700
   A68        1.92922   0.00220   0.00000   0.01360   0.01353   1.94274
   A69        1.88936  -0.00108   0.00000  -0.00996  -0.00995   1.87941
   A70        1.89072  -0.00090   0.00000  -0.00953  -0.00953   1.88119
   A71        1.89172  -0.00203   0.00000  -0.00953  -0.00967   1.88205
   A72        2.04874   0.00132   0.00000   0.01252   0.01245   2.06119
   A73        1.89106   0.00071   0.00000   0.00382   0.00380   1.89486
   A74        1.84970  -0.00213   0.00000  -0.00964  -0.00979   1.83992
   A75        1.91927  -0.00133   0.00000  -0.00574  -0.00576   1.91351
   A76        1.88409   0.00201   0.00000   0.01469   0.01470   1.89879
   A77        1.86136  -0.00079   0.00000  -0.01891  -0.01889   1.84247
   A78        1.98627   0.00567   0.00000   0.01041   0.01034   1.99661
   A79        1.87528   0.00159   0.00000   0.03044   0.03044   1.90572
   A80        1.92686  -0.00158   0.00000  -0.00427  -0.00420   1.92266
   A81        1.89477  -0.00367   0.00000  -0.01195  -0.01234   1.88243
   A82        1.91872  -0.00288   0.00000  -0.01837  -0.01843   1.90029
   A83        1.85663   0.00063   0.00000  -0.00634  -0.00655   1.85008
   A84        1.93116   0.01952   0.00000   0.07354   0.07342   2.00458
   A85        1.93923  -0.00549   0.00000  -0.02019  -0.02082   1.91840
   A86        1.92628  -0.00562   0.00000  -0.02131  -0.02167   1.90461
   A87        1.88937  -0.00547   0.00000  -0.00659  -0.00666   1.88271
   A88        1.89783  -0.00567   0.00000  -0.01314  -0.01304   1.88479
   A89        1.87848   0.00221   0.00000  -0.01446  -0.01508   1.86340
   A90        1.90928  -0.00037   0.00000  -0.00980  -0.00994   1.89934
   A91        1.91509  -0.00128   0.00000  -0.01442  -0.01456   1.90053
   A92        1.85248  -0.00040   0.00000  -0.01646  -0.01677   1.83571
   A93        1.92835   0.00215   0.00000   0.00945   0.00939   1.93774
   A94        1.93165  -0.00205   0.00000  -0.00210  -0.00208   1.92957
   A95        1.93249   0.00305   0.00000   0.01682   0.01676   1.94925
   A96        1.89038  -0.00044   0.00000  -0.00816  -0.00814   1.88224
   A97        1.88829  -0.00205   0.00000  -0.00765  -0.00778   1.88051
   A98        1.89135  -0.00078   0.00000  -0.00936  -0.00936   1.88199
    D1        1.16578  -0.00165   0.00000  -0.03865  -0.03899   1.12679
    D2       -3.03945   0.00115   0.00000   0.02239   0.02285  -3.01659
    D3       -0.95289  -0.00059   0.00000  -0.01150  -0.01170  -0.96459
    D4       -0.92662  -0.00142   0.00000  -0.03762  -0.03794  -0.96456
    D5        1.15134   0.00138   0.00000   0.02342   0.02391   1.17524
    D6       -3.04529  -0.00036   0.00000  -0.01047  -0.01064  -3.05593
    D7       -3.03181  -0.00106   0.00000  -0.03531  -0.03561  -3.06742
    D8       -0.95386   0.00174   0.00000   0.02572   0.02623  -0.92762
    D9        1.13270  -0.00000   0.00000  -0.00817  -0.00832   1.12438
   D10       -1.12703   0.00295   0.00000   0.04616   0.04620  -1.08083
   D11        0.96559   0.00264   0.00000   0.04201   0.04200   1.00759
   D12        3.06180   0.00240   0.00000   0.03715   0.03710   3.09890
   D13        3.08017  -0.00171   0.00000  -0.03314  -0.03304   3.04713
   D14       -1.11040  -0.00202   0.00000  -0.03729  -0.03724  -1.14764
   D15        0.98581  -0.00226   0.00000  -0.04215  -0.04214   0.94367
   D16        0.97181  -0.00033   0.00000  -0.00590  -0.00590   0.96590
   D17        3.06442  -0.00064   0.00000  -0.01005  -0.01010   3.05432
   D18       -1.12255  -0.00088   0.00000  -0.01492  -0.01500  -1.13755
   D19       -1.42398  -0.00152   0.00000  -0.01756  -0.01790  -1.44188
   D20        0.78938  -0.00206   0.00000  -0.03014  -0.03049   0.75889
   D21        2.76430  -0.00261   0.00000  -0.04065  -0.04098   2.72332
   D22        0.64903   0.00183   0.00000   0.04551   0.04579   0.69483
   D23        2.86240   0.00128   0.00000   0.03293   0.03320   2.89560
   D24       -1.44587   0.00073   0.00000   0.02243   0.02271  -1.42316
   D25        2.77483   0.00144   0.00000   0.02964   0.02970   2.80453
   D26       -1.29499   0.00090   0.00000   0.01706   0.01711  -1.27788
   D27        0.67993   0.00035   0.00000   0.00655   0.00662   0.68655
   D28        2.82094  -0.00074   0.00000  -0.01952  -0.01988   2.80106
   D29        0.72670  -0.00009   0.00000  -0.00846  -0.00864   0.71806
   D30       -1.37969   0.00033   0.00000  -0.00781  -0.00727  -1.38696
   D31        1.17163   0.00035   0.00000  -0.00630  -0.00627   1.16536
   D32       -0.98542  -0.00027   0.00000   0.00359   0.00360  -0.98182
   D33       -2.98692  -0.00053   0.00000  -0.00769  -0.00775  -2.99467
   D34       -1.02131   0.00013   0.00000  -0.00368  -0.00368  -1.02499
   D35        3.10482  -0.00048   0.00000   0.00620   0.00619   3.11101
   D36        1.10332  -0.00075   0.00000  -0.00508  -0.00516   1.09816
   D37       -3.02860   0.00106   0.00000   0.00821   0.00829  -3.02031
   D38        1.09754   0.00045   0.00000   0.01810   0.01815   1.11569
   D39       -0.90396   0.00019   0.00000   0.00682   0.00680  -0.89716
   D40        1.00516   0.00033   0.00000   0.00742   0.00736   1.01252
   D41        3.10181   0.00204   0.00000   0.02658   0.02667   3.12848
   D42       -1.15202   0.00022   0.00000   0.01693   0.01693  -1.13510
   D43       -3.10962  -0.00032   0.00000  -0.00185  -0.00191  -3.11152
   D44       -1.01297   0.00139   0.00000   0.01731   0.01740  -0.99557
   D45        1.01638  -0.00043   0.00000   0.00766   0.00766   1.02404
   D46       -1.11500  -0.00094   0.00000  -0.00486  -0.00494  -1.11994
   D47        0.98165   0.00077   0.00000   0.01430   0.01437   0.99601
   D48        3.01100  -0.00105   0.00000   0.00466   0.00462   3.01562
   D49        0.90068  -0.00013   0.00000   0.00333   0.00356   0.90424
   D50       -1.13345   0.00073   0.00000   0.02887   0.02896  -1.10449
   D51       -1.19931  -0.00210   0.00000  -0.01889  -0.01871  -1.21802
   D52        3.04975  -0.00124   0.00000   0.00665   0.00669   3.05644
   D53        3.07162   0.00115   0.00000   0.00298   0.00277   3.07439
   D54        1.03749   0.00201   0.00000   0.02851   0.02818   1.06567
   D55        0.90890   0.00239   0.00000   0.01510   0.01492   0.92382
   D56       -1.17615  -0.00252   0.00000  -0.03930  -0.03910  -1.21525
   D57        3.00536  -0.00059   0.00000  -0.02032  -0.02034   2.98502
   D58        1.04033  -0.00174   0.00000  -0.02238  -0.02237   1.01796
   D59       -1.05529  -0.00212   0.00000  -0.02484  -0.02483  -1.08012
   D60        3.13449  -0.00153   0.00000  -0.02126  -0.02124   3.11324
   D61       -3.13241  -0.00008   0.00000  -0.00314  -0.00311  -3.13553
   D62        1.05515  -0.00046   0.00000  -0.00560  -0.00558   1.04957
   D63       -1.03825   0.00014   0.00000  -0.00202  -0.00199  -1.04024
[...]
   273    N   18  px     Ryd( 3p)     0.00622
   274    N   18  py     Val( 2p)     1.28888
   275    N   18  py     Ryd( 3p)     0.00219
   276    N   18  pz     Val( 2p)     1.39571
   277    N   18  pz     Ryd( 3p)     0.00202
   278    N   18  dxy    Ryd( 3d)     0.00138
   279    N   18  dxz    Ryd( 3d)     0.00102
   280    N   18  dyz    Ryd( 3d)     0.00029
   281    N   18  dx2y2  Ryd( 3d)     0.00096
   282    N   18  dz2    Ryd( 3d)     0.00089

   283    C   19  S      Cor( 1S)     1.99949
   284    C   19  S      Val( 2S)     1.23599
   285    C   19  S      Ryd( 3S)     0.00196
   286    C   19  S      Ryd( 4S)     0.00001
   287    C   19  px     Val( 2p)     1.27850
   288    C   19  px     Ryd( 3p)     0.00105
   289    C   19  py     Val( 2p)     1.28216
   290    C   19  py     Ryd( 3p)     0.00066
   291    C   19  pz     Val( 2p)     1.43634
   292    C   19  pz     Ryd( 3p)     0.00330
   293    C   19  dxy    Ryd( 3d)     0.00050
   294    C   19  dxz    Ryd( 3d)     0.00016
   295    C   19  dyz    Ryd( 3d)     0.00053
   296    C   19  dx2y2  Ryd( 3d)     0.00054
   297    C   19  dz2    Ryd( 3d)     0.00063

   298    H   20  S      Val( 1S)     0.75968
   299    H   20  S      Ryd( 2S)     0.00896
   300    H   20  px     Ryd( 2p)     0.00023
   301    H   20  py     Ryd( 2p)     0.00019
   302    H   20  pz     Ryd( 2p)     0.00010

   303    H   21  S      Val( 1S)     0.76344
   304    H   21  S      Ryd( 2S)     0.01017
   305    H   21  px     Ryd( 2p)     0.00027
   306    H   21  py     Ryd( 2p)     0.00016
   307    H   21  pz     Ryd( 2p)     0.00010

   308    H   22  S      Val( 1S)     0.76883
   309    H   22  S      Ryd( 2S)     0.01467
   310    H   22  px     Ryd( 2p)     0.00008
   311    H   22  py     Ryd( 2p)     0.00012
   312    H   22  pz     Ryd( 2p)     0.00031

   313    H   23  S      Val( 1S)     0.75881
   314    H   23  S      Ryd( 2S)     0.00698
   315    H   23  px     Ryd( 2p)     0.00021
   316    H   23  py     Ryd( 2p)     0.00016
   317    H   23  pz     Ryd( 2p)     0.00014

   318    H   24  S      Val( 1S)     0.75151
   319    H   24  S      Ryd( 2S)     0.00499
   320    H   24  px     Ryd( 2p)     0.00025
   321    H   24  py     Ryd( 2p)     0.00013
   322    H   24  pz     Ryd( 2p)     0.00013

   323    H   25  S      Val( 1S)     0.75644
   324    H   25  S      Ryd( 2S)     0.00589
   325    H   25  px     Ryd( 2p)     0.00008
   326    H   25  py     Ryd( 2p)     0.00025
   327    H   25  pz     Ryd( 2p)     0.00018

   328    H   26  S      Val( 1S)     0.78171
   329    H   26  S      Ryd( 2S)     0.02185
   330    H   26  px     Ryd( 2p)     0.00011
   331    H   26  py     Ryd( 2p)     0.00011
   332    H   26  pz     Ryd( 2p)     0.00033

   333    H   27  S      Val( 1S)     0.77392
   334    H   27  S      Ryd( 2S)     0.01598
   335    H   27  px     Ryd( 2p)     0.00013
   336    H   27  py     Ryd( 2p)     0.00029
   337    H   27  pz     Ryd( 2p)     0.00012

   338    H   28  S      Val( 1S)     0.73614
   339    H   28  S      Ryd( 2S)     0.00711
   340    H   28  px     Ryd( 2p)     0.00010
   341    H   28  py     Ryd( 2p)     0.00008
   342    H   28  pz     Ryd( 2p)     0.00037

   343    H   29  S      Val( 1S)     0.75822
   344    H   29  S      Ryd( 2S)     0.01565
   345    H   29  px     Ryd( 2p)     0.00016
   346    H   29  py     Ryd( 2p)     0.00030
   347    H   29  pz     Ryd( 2p)     0.00010

   348    H   30  S      Val( 1S)     0.73091
   349    H   30  S      Ryd( 2S)     0.00920
   350    H   30  px     Ryd( 2p)     0.00033
   351    H   30  py     Ryd( 2p)     0.00008
   352    H   30  pz     Ryd( 2p)     0.00016

   353    H   31  S      Val( 1S)     0.75187
   354    H   31  S      Ryd( 2S)     0.02104
   355    H   31  px     Ryd( 2p)     0.00016
   356    H   31  py     Ryd( 2p)     0.00028
   357    H   31  pz     Ryd( 2p)     0.00010

   358    H   32  S      Val( 1S)     0.61180
   359    H   32  S      Ryd( 2S)     0.03735
   360    H   32  px     Ryd( 2p)     0.00030
   361    H   32  py     Ryd( 2p)     0.00060
   362    H   32  pz     Ryd( 2p)     0.00029

   363    H   33  S      Val( 1S)     0.66709
   364    H   33  S      Ryd( 2S)     0.06432
   365    H   33  px     Ryd( 2p)     0.00066
   366    H   33  py     Ryd( 2p)     0.00020
   367    H   33  pz     Ryd( 2p)     0.00028

   368    H   34  S      Val( 1S)     0.74367
   369    H   34  S      Ryd( 2S)     0.00183
   370    H   34  px     Ryd( 2p)     0.00009
   371    H   34  py     Ryd( 2p)     0.00011
   372    H   34  pz     Ryd( 2p)     0.00031

   373    H   35  S      Val( 1S)     0.74835
   374    H   35  S      Ryd( 2S)     0.00454
   375    H   35  px     Ryd( 2p)     0.00024
   376    H   35  py     Ryd( 2p)     0.00016
   377    H   35  pz     Ryd( 2p)     0.00012

   378    H   36  S      Val( 1S)     0.74648
   379    H   36  S      Ryd( 2S)     0.00160
   380    H   36  px     Ryd( 2p)     0.00021
   381    H   36  py     Ryd( 2p)     0.00021
   382    H   36  pz     Ryd( 2p)     0.00009

   383    H   37  S      Val( 1S)     0.74472
   384    H   37  S      Ryd( 2S)     0.00331
   385    H   37  px     Ryd( 2p)     0.00009
   386    H   37  py     Ryd( 2p)     0.00026
   387    H   37  pz     Ryd( 2p)     0.00016

   388    H   38  S      Val( 1S)     0.74557
   389    H   38  S      Ryd( 2S)     0.00372
   390    H   38  px     Ryd( 2p)     0.00023
   391    H   38  py     Ryd( 2p)     0.00012
   392    H   38  pz     Ryd( 2p)     0.00017

   393    H   39  S      Val( 1S)     0.74592
   394    H   39  S      Ryd( 2S)     0.00174
   395    H   39  px     Ryd( 2p)     0.00022
   396    H   39  py     Ryd( 2p)     0.00017
   397    H   39  pz     Ryd( 2p)     0.00012

   398    H   40  S      Val( 1S)     0.74251
   399    H   40  S      Ryd( 2S)     0.00080
   400    H   40  px     Ryd( 2p)     0.00032
   401    H   40  py     Ryd( 2p)     0.00010
   402    H   40  pz     Ryd( 2p)     0.00008

   403    H   41  S      Val( 1S)     0.74377
   404    H   41  S      Ryd( 2S)     0.00109
   405    H   41  px     Ryd( 2p)     0.00010
   406    H   41  py     Ryd( 2p)     0.00011
   407    H   41  pz     Ryd( 2p)     0.00030

   408    H   42  S      Val( 1S)     0.74277
   409    H   42  S      Ryd( 2S)     0.00100
   410    H   42  px     Ryd( 2p)     0.00010
   411    H   42  py     Ryd( 2p)     0.00026
   412    H   42  pz     Ryd( 2p)     0.00015

   413    H   43  S      Val( 1S)     0.74720
   414    H   43  S      Ryd( 2S)     0.00204
   415    H   43  px     Ryd( 2p)     0.00010
   416    H   43  py     Ryd( 2p)     0.00012
   417    H   43  pz     Ryd( 2p)     0.00033

   418    H   44  S      Val( 1S)     0.73911
   419    H   44  S      Ryd( 2S)     0.00128
   420    H   44  px     Ryd( 2p)     0.00034
   421    H   44  py     Ryd( 2p)     0.00011
   422    H   44  pz     Ryd( 2p)     0.00010

   423    H   45  S      Val( 1S)     0.76744
   424    H   45  S      Ryd( 2S)     0.00244
   425    H   45  px     Ryd( 2p)     0.00016
   426    H   45  py     Ryd( 2p)     0.00024
   427    H   45  pz     Ryd( 2p)     0.00017

   428    H   46  S      Val( 1S)     0.77043
   429    H   46  S      Ryd( 2S)     0.00236
   430    H   46  px     Ryd( 2p)     0.00011
   431    H   46  py     Ryd( 2p)     0.00011
   432    H   46  pz     Ryd( 2p)     0.00034

   433    H   47  S      Val( 1S)     0.76649
   434    H   47  S      Ryd( 2S)     0.00515
   435    H   47  px     Ryd( 2p)     0.00018
   436    H   47  py     Ryd( 2p)     0.00025
   437    H   47  pz     Ryd( 2p)     0.00014

   438    H   48  S      Val( 1S)     0.78070
   439    H   48  S      Ryd( 2S)     0.00522
   440    H   48  px     Ryd( 2p)     0.00011
   441    H   48  py     Ryd( 2p)     0.00007
   442    H   48  pz     Ryd( 2p)     0.00036

   443    H   49  S      Val( 1S)     0.61350
   444    H   49  S      Ryd( 2S)     0.00356
   445    H   49  px     Ryd( 2p)     0.00055
   446    H   49  py     Ryd( 2p)     0.00030
   447    H   49  pz     Ryd( 2p)     0.00057

   448    H   50  S      Val( 1S)     0.61451
   449    H   50  S      Ryd( 2S)     0.00303
   450    H   50  px     Ryd( 2p)     0.00059
   451    H   50  py     Ryd( 2p)     0.00044
   452    H   50  pz     Ryd( 2p)     0.00038

   453    H   51  S      Val( 1S)     0.74181
   454    H   51  S      Ryd( 2S)     0.00090
   455    H   51  px     Ryd( 2p)     0.00009
   456    H   51  py     Ryd( 2p)     0.00023
   457    H   51  pz     Ryd( 2p)     0.00019

   458    H   52  S      Val( 1S)     0.74279
   459    H   52  S      Ryd( 2S)     0.00073
   460    H   52  px     Ryd( 2p)     0.00030
   461    H   52  py     Ryd( 2p)     0.00010
   462    H   52  pz     Ryd( 2p)     0.00012

   463    H   53  S      Val( 1S)     0.74267
   464    H   53  S      Ryd( 2S)     0.00101
   465    H   53  px     Ryd( 2p)     0.00016
   466    H   53  py     Ryd( 2p)     0.00021
   467    H   53  pz     Ryd( 2p)     0.00014

 WARNING:  1 low occupancy (<1.9990e) core orbital  found on Si    2
           1 low occupancy (<1.9990e) core orbital  found on Si    9
           1 low occupancy (<1.9990e) core orbital  found on Si   13


 Summary of Natural Population Analysis:                  
                                                          
                                       Natural Population 
                Natural  -----------------------------------------------
    Atom  No    Charge         Core      Valence    Rydberg      Total
 -----------------------------------------------------------------------
      C    1   -1.24911      1.99945     5.23758    0.01208     7.24911
     Si    2    1.99891      9.99769     1.90622    0.09718    12.00109
      C    3   -1.24548      1.99947     5.23545    0.01056     7.24548
      C    4   -1.00226      1.99933     4.98616    0.01677     7.00226
      C    5   -0.45282      1.99927     4.44190    0.01166     6.45282
      C    6   -0.34376      1.99931     4.32700    0.01746     6.34376
      N    7   -0.37264      1.99938     5.36149    0.01177     7.37264
      O    8   -1.27558      1.99982     7.26680    0.00896     9.27558
     Si    9    2.21538      9.99710     1.71907    0.06844    11.78462
      C   10   -1.25102      1.99948     5.24178    0.00976     7.25102
      C   11   -1.25469      1.99948     5.24556    0.00965     7.25469
      O   12   -1.27645      1.99982     7.26762    0.00902     9.27645
     Si   13    2.05400      9.99764     1.90066    0.04770    11.94600
      C   14   -1.23978      1.99949     5.23114    0.00915     7.23978
      C   15   -0.99456      1.99936     4.98173    0.01347     6.99456
      C   16   -0.47607      1.99934     4.46411    0.01263     6.47607
      C   17   -0.26950      1.99935     4.25346    0.01670     6.26950
      N   18   -0.90946      1.99969     5.89447    0.01531     7.90946
      C   19   -1.24181      1.99949     5.23299    0.00934     7.24181
      H   20    0.23085      0.00000     0.75968    0.00947     0.76915
      H   21    0.22587      0.00000     0.76344    0.01070     0.77413
      H   22    0.21599      0.00000     0.76883    0.01518     0.78401
      H   23    0.23370      0.00000     0.75881    0.00749     0.76630
      H   24    0.24298      0.00000     0.75151    0.00551     0.75702
      H   25    0.23717      0.00000     0.75644    0.00639     0.76283
      H   26    0.19588      0.00000     0.78171    0.02241     0.80412
      H   27    0.20955      0.00000     0.77392    0.01652     0.79045
      H   28    0.25619      0.00000     0.73614    0.00767     0.74381
      H   29    0.22558      0.00000     0.75822    0.01621     0.77442
      H   30    0.25932      0.00000     0.73091    0.00977     0.74068
      H   31    0.22654      0.00000     0.75187    0.02159     0.77346
      H   32    0.34968      0.00000     0.61180    0.03853     0.65032
      H   33    0.26745      0.00000     0.66709    0.06546     0.73255
      H   34    0.25398      0.00000     0.74367    0.00235     0.74602
      H   35    0.24659      0.00000     0.74835    0.00506     0.75341
      H   36    0.25140      0.00000     0.74648    0.00212     0.74860
      H   37    0.25146      0.00000     0.74472    0.00382     0.74854
      H   38    0.25019      0.00000     0.74557    0.00424     0.74981
      H   39    0.25184      0.00000     0.74592    0.00225     0.74816
      H   40    0.25619      0.00000     0.74251    0.00130     0.74381
      H   41    0.25462      0.00000     0.74377    0.00160     0.74538
      H   42    0.25572      0.00000     0.74277    0.00151     0.74428
      H   43    0.25021      0.00000     0.74720    0.00259     0.74979
      H   44    0.25906      0.00000     0.73911    0.00183     0.74094
      H   45    0.22956      0.00000     0.76744    0.00300     0.77044
      H   46    0.22666      0.00000     0.77043    0.00292     0.77334
      H   47    0.22780      0.00000     0.76649    0.00572     0.77220
      H   48    0.21354      0.00000     0.78070    0.00577     0.78646
      H   49    0.38151      0.00000     0.61350    0.00499     0.61849
      H   50    0.38105      0.00000     0.61451    0.00445     0.61895
      H   51    0.25678      0.00000     0.74181    0.00141     0.74322
      H   52    0.25597      0.00000     0.74279    0.00124     0.74403
      H   53    0.25581      0.00000     0.74267    0.00152     0.74419
 =======================================================================
   * Total *   -0.00002     61.98394   115.29590    0.72017   178.00002

                                 Natural Population      
 --------------------------------------------------------
   Core                      61.98394 ( 99.9741% of  62)
   Valence                  115.29590 ( 99.3930% of 116)
   Natural Minimal Basis    177.27985 ( 99.5954% of 178)
   Natural Rydberg Basis      0.72017 (  0.4046% of 178)
 --------------------------------------------------------

    Atom  No          Natural Electron Configuration
 ----------------------------------------------------------------------------
      C    1      [core]2S( 1.26)2p( 3.98)3p( 0.01)
     Si    2      [core]3S( 0.73)3p( 1.17)4S( 0.05)3d( 0.04)4p( 0.01)
      C    3      [core]2S( 1.25)2p( 3.99)3p( 0.01)
      C    4      [core]2S( 1.18)2p( 3.80)3p( 0.01)
      C    5      [core]2S( 1.05)2p( 3.39)3p( 0.01)
      C    6      [core]2S( 1.06)2p( 3.27)3p( 0.01)
      N    7      [core]2S( 1.45)2p( 3.91)3S( 0.01)
      O    8      [core]2S( 1.73)2p( 5.54)
     Si    9      [core]3S( 0.66)3p( 1.06)4S( 0.01)3d( 0.05)4p( 0.01)
      C   10      [core]2S( 1.25)2p( 4.00)3p( 0.01)
      C   11      [core]2S( 1.25)2p( 4.00)
      O   12      [core]2S( 1.73)2p( 5.54)
     Si   13      [core]3S( 0.72)3p( 1.18)3d( 0.04)4p( 0.01)
      C   14      [core]2S( 1.24)2p( 4.00)
      C   15      [core]2S( 1.16)2p( 3.82)3p( 0.01)
      C   16      [core]2S( 1.04)2p( 3.42)3p( 0.01)
      C   17      [core]2S( 1.02)2p( 3.23)3p( 0.01)
      N   18      [core]2S( 1.44)2p( 4.45)3p( 0.01)
      C   19      [core]2S( 1.24)2p( 4.00)3p( 0.01)
      H   20            1S( 0.76)2S( 0.01)
      H   21            1S( 0.76)2S( 0.01)
      H   22            1S( 0.77)2S( 0.01)
      H   23            1S( 0.76)2S( 0.01)
      H   24            1S( 0.75)
      H   25            1S( 0.76)2S( 0.01)
      H   26            1S( 0.78)2S( 0.02)
      H   27            1S( 0.77)2S( 0.02)
      H   28            1S( 0.74)2S( 0.01)
      H   29            1S( 0.76)2S( 0.02)
      H   30            1S( 0.73)2S( 0.01)
      H   31            1S( 0.75)2S( 0.02)
      H   32            1S( 0.61)2S( 0.04)
      H   33            1S( 0.67)2S( 0.06)
      H   34            1S( 0.74)
      H   35            1S( 0.75)
      H   36            1S( 0.75)
      H   37            1S( 0.74)
      H   38            1S( 0.75)
      H   39            1S( 0.75)
      H   40            1S( 0.74)
      H   41            1S( 0.74)
      H   42            1S( 0.74)
      H   43            1S( 0.75)
      H   44            1S( 0.74)
      H   45            1S( 0.77)
      H   46            1S( 0.77)
      H   47            1S( 0.77)2S( 0.01)
      H   48            1S( 0.78)2S( 0.01)
      H   49            1S( 0.61)
      H   50            1S( 0.61)
      H   51            1S( 0.74)
      H   52            1S( 0.74)
      H   53            1S( 0.74)


 NBO analysis skipped by request.
 1\1\GINC-DRG2-W012\SP\RB3LYP TD-FC\6-31G(d,p)\C12H34N2O2Si3\QDUEZ\21-J
 ul-2024\0\\# TD(NStates=10, Root=1) B3LYP/6-31G** SCRF=(Solvent=water)
  volume pop=NPA density=current Geom=AllCheck Guess=Read\\ZWRBLCDTKAWR
 HT-UHFFFAOYSA-N_conf_0\\0,1\C,0,-1.3624586369,1.9802096525,1.502334376
 8\Si,0,-1.9477360454,0.3784750958,0.7007117103\C,0,-2.2047847467,-0.95
 33466898,2.011322362\C,0,-3.5163938112,0.5916665865,-0.3484961446\C,0,
 -4.8818846872,0.7200644336,0.358587005\C,0,-5.1040050847,2.019600463,1
 .1540933343\N,0,-5.0298491897,3.2780305903,0.3978357236\O,0,-0.7395113
 575,-0.0888393994,-0.3530595995\Si,0,0.0896484235,-1.1639377933,-1.293
 9956873\C,0,-0.6632230141,-1.1803772406,-3.012183228\C,0,0.0752528574,
 -2.868625474,-0.5076183979\O,0,1.6385617896,-0.5961044269,-1.408853824
 3\Si,0,3.2986679503,-0.7648574509,-1.4299739653\C,0,3.7581550442,-2.25
 49508734,-2.49169469\C,0,3.9948874382,-1.0335745809,0.3132720419\C,0,3
 .8637314066,0.1123570049,1.3390683376\C,0,2.4310844156,0.3256628786,1.
 8501657012\N,0,2.2567549511,1.4073370014,2.8311402878\C,0,3.9960190716
 ,0.8150141605,-2.183966414\H,0,-0.4039364244,1.8309221193,2.013379864\
 H,0,-2.081658714,2.3474675431,2.2426995723\H,0,-1.2249686069,2.7682033
 545,0.753237124\H,0,-1.2753935088,-1.151585516,2.5560987104\H,0,-2.958
 9620182,-0.644039783,2.7437804692\H,0,-2.5408390921,-1.8957865891,1.56
 55760873\H,0,-3.3672892197,1.4421929656,-1.0285319349\H,0,-3.547557667
 2,-0.2905730667,-1.0032438971\H,0,-5.029549315,-0.1289453706,1.0396395
 335\H,0,-5.6822223504,0.6445349872,-0.391873168\H,0,-6.0949183472,1.97
 17961369,1.62276489\H,0,-4.3825020888,2.0856858114,1.9774447783\H,0,-5
 .6613132549,3.222982671,-0.4007257486\H,0,-4.0991524465,3.3787852525,-
 0.002758675\H,0,-0.6430282616,-0.1795580362,-3.4565476131\H,0,-1.70599
 91023,-1.5149517637,-2.9845096061\H,0,-0.1123815505,-1.8544909176,-3.6
 772161808\H,0,0.5197914436,-2.8471356231,0.4929298343\H,0,-0.947224763
 8,-3.2499698989,-0.412409804\H,0,0.6431782341,-3.5839840596,-1.1125795
 714\H,0,4.8460690141,-2.3607525076,-2.5703577309\H,0,3.3640321184,-3.1
 844203982,-2.0661438582\H,0,3.3585199151,-2.1553421535,-3.5068227919\H
 ,0,3.5549711534,-1.9522387074,0.7280416151\H,0,5.0601388336,-1.2655404
 347,0.1682372341\H,0,4.5117087321,-0.089837087,2.2042140001\H,0,4.2284
 431206,1.0529544728,0.9030539051\H,0,1.7615933639,0.5263411617,1.00827
 64392\H,0,2.0734763549,-0.6055039472,2.3102646758\H,0,2.5785914161,2.2
 818569392,2.4187076431\H,0,2.8758521202,1.2429338463,3.6244149937\H,0,
 3.6340469172,0.9509810031,-3.2088553473\H,0,5.0909313691,0.7839422889,
 -2.2174599572\H,0,3.7046358513,1.6992713688,-1.6072753065\\Version=ES6
 4L-G16RevA.03\State=1-A\HF=-1606.5273213\RMSD=8.175e-09\Dipole=-1.7817
 399,0.9120521,-0.0627885\Quadrupole=25.2267814,-7.1932045,-18.0335769,
 -15.1922815,0.1409949,0.4541065\PG=C01 [X(C12H34N2O2Si3)]\\@


 THE SCIENTIFIC THEORIST IS NOT TO BE ENVIED. FOR NATURE, OR MORE
 PRECISELY EXPERIMENT, IS AN INEXORABLE AND NOT VERY FRIENDLY JUDGE OF HIS
 WORK.  IT NEVER SAYS "YES" TO A THEORY. IN THE MOST FAVORABLE CASES
 IT SAYS "MAYBE", AND IN THE GREAT MAJORITY OF CASES SIMPLY "NO"...
 PROBABLY EVERY THEORY WILL SOME DAY EXPERIENCE ITS "NO" - MOST
 THEORIES, SOON AFTER CONCEPTION.  -- A.EINSTEIN, NOV 11, 1922.
 Job cpu time:       0 days  2 hours  3 minutes 52.6 seconds.
 Elapsed time:       0 days  0 hours 41 minutes 24.0 seconds.
 File lengths (MBytes):  RWF=   1711 Int=      0 D2E=      0 Chk=    109 Scr=      1
 Normal termination of Gaussian 16 at Sun Jul 21 18:25:35 2024.
