 Entering Gaussian System, Link 0=g16
 Initial command:
 /opt/sw/arch/manual/gaussian/G16_A03/g16/l1.exe "/scratch/1032097.jesse.materianova.be/Gau-3306.inp" -scrdir="/scratch/1032097.jesse.materianova.be/"
 Entering Link 1 = /opt/sw/arch/manual/gaussian/G16_A03/g16/l1.exe PID=      3307.
  
 Copyright (c) 1988,1990,1992,1993,1995,1998,2003,2009,2016,
            Gaussian, Inc.  All Rights Reserved.
  
 This is part of the Gaussian(R) 16 program.  It is based on
 the Gaussian(R) 09 system (copyright 2009, Gaussian, Inc.),
 the Gaussian(R) 03 system (copyright 2003, Gaussian, Inc.),
 the Gaussian(R) 98 system (copyright 1998, Gaussian, Inc.),
 the Gaussian(R) 94 system (copyright 1995, Gaussian, Inc.),
 the Gaussian 92(TM) system (copyright 1992, Gaussian, Inc.),
 the Gaussian 90(TM) system (copyright 1990, Gaussian, Inc.),
 the Gaussian 88(TM) system (copyright 1988, Gaussian, Inc.),
 the Gaussian 86(TM) system (copyright 1986, Carnegie Mellon
 University), and the Gaussian 82(TM) system (copyright 1983,
 Carnegie Mellon University). Gaussian is a federally registered
 trademark of Gaussian, Inc.
  
 This software contains proprietary and confidential information,
 including trade secrets, belonging to Gaussian, Inc.
  
 This software is provided under written license and may be
 used, copied, transmitted, or stored only in accord with that
 written license.
  
 The following legend is applicable only to US Government
 contracts under FAR:
  
                    RESTRICTED RIGHTS LEGEND
  
 Use, reproduction and disclosure by the US Government is
 subject to restrictions as set forth in subparagraphs (a)
 and (c) of the Commercial Computer Software - Restricted
 Rights clause in FAR 52.227-19.
  
 Gaussian, Inc.
 340 Quinnipiac St., Bldg. 40, Wallingford CT 06492
  
  
 ---------------------------------------------------------------
 Warning -- This program may not be used in any manner that
 competes with the business of Gaussian, Inc. or will provide
 assistance to any competitor of Gaussian, Inc.  The licensee
 of this program is prohibited from giving any competitor of
 Gaussian, Inc. access to this program.  By using this program,
 the user acknowledges that Gaussian, Inc. is engaged in the
 business of creating and licensing software in the field of
 computational chemistry and represents and warrants to the
 licensee that it is not a competitor of Gaussian, Inc. and that
 it will not use this program in any manner prohibited above.
 ---------------------------------------------------------------
  

 Cite this work as:
 Gaussian 16, Revision A.03,
 M. J. Frisch, G. W. Trucks, H. B. Schlegel, G. E. Scuseria, 
 M. A. Robb, J. R. Cheeseman, G. Scalmani, V. Barone, 
 G. A. Petersson, H. Nakatsuji, X. Li, M. Caricato, A. V. Marenich, 
 J. Bloino, B. G. Janesko, R. Gomperts, B. Mennucci, H. P. Hratchian, 
 J. V. Ortiz, A. F. Izmaylov, J. L. Sonnenberg, D. Williams-Young, 
 F. Ding, F. Lipparini, F. Egidi, J. Goings, B. Peng, A. Petrone, 
 T. Henderson, D. Ranasinghe, V. G. Zakrzewski, J. Gao, N. Rega, 
 G. Zheng, W. Liang, M. Hada, M. Ehara, K. Toyota, R. Fukuda, 
 J. Hasegawa, M. Ishida, T. Nakajima, Y. Honda, O. Kitao, H. Nakai, 
 T. Vreven, K. Throssell, J. A. Montgomery, Jr., J. E. Peralta, 
 F. Ogliaro, M. J. Bearpark, J. J. Heyd, E. N. Brothers, K. N. Kudin, 
 V. N. Staroverov, T. A. Keith, R. Kobayashi, J. Normand, 
 K. Raghavachari, A. P. Rendell, J. C. Burant, S. S. Iyengar, 
 J. Tomasi, M. Cossi, J. M. Millam, M. Klene, C. Adamo, R. Cammi, 
 J. W. Ochterski, R. L. Martin, K. Morokuma, O. Farkas, 
 J. B. Foresman, and D. J. Fox, Gaussian, Inc., Wallingford CT, 2016.
 
 ******************************************
 Gaussian 16:  EM64L-G16RevA.03 25-Dec-2016
                11-Jul-2024 
 ******************************************
 %nprocshared=3
 Will use up to    3 processors via shared memory.
 %mem=6GB
 %Chk=RAUWPNXIALNKQM-UHFFFAOYSA-N_conf_1_0.chk
 -------------------------------------------------------
 # opt=CalcFc B3LYP/6-31G** SCRF=(Solvent=water) scf=xqc
 -------------------------------------------------------
 1/10=4,18=20,19=15,26=3,38=1/1,3;
 2/9=110,12=2,17=6,18=5,40=1/2;
 3/5=1,6=6,7=101,11=2,25=1,30=1,70=2201,71=2,72=1,74=-5,140=1/1,2,3;
 4//1;
 5/5=2,8=3,13=1,38=5,53=1/2,8;
 8/6=4,10=90,11=11/1;
 11/6=1,8=1,9=11,15=111,16=1/1,2,10;
 10/6=1,13=1/2;
 6/7=2,8=2,9=2,10=2,28=1/1;
 7/10=1,18=20,25=1/1,2,3,16;
 1/10=4,18=20,19=15,26=3/3(2);
 2/9=110/2;
 99//99;
 2/9=110/2;
 3/5=1,6=6,7=101,11=2,25=1,30=1,70=2205,71=1,72=1,74=-5/1,2,3;
 4/5=5,16=3,69=1/1;
 5/5=2,8=3,13=1,38=5,53=1/2,8;
 7//1,2,3,16;
 1/18=20,19=15,26=3/3(-5);
 2/9=110/2;
 6/7=2,8=2,9=2,10=2,19=2,28=1/1;
 99/9=1/99;
 ----------------------------------
 RAUWPNXIALNKQM-UHFFFAOYSA-N_conf_1
 ----------------------------------
 Symbolic Z-matrix:
 Charge =  0 Multiplicity = 1
 N                    -2.27763  -1.32294  -0.45907 
 C                    -1.00909  -0.77898  -0.16202 
 C                     0.09282  -1.6233    0.0033 
 C                     1.35692  -1.08977   0.26156 
 C                     1.51603   0.29994   0.32814 
 N                     2.83535   0.86557   0.63209 
 O                     3.75183   0.07679   0.90436 
 O                     2.9576    2.09843   0.5972 
 C                     0.43336   1.15745   0.09406 
 C                    -0.81255   0.61897  -0.23399 
 N                    -1.92137   1.47089  -0.4345 
 H                    -2.3965   -2.26409  -0.09593 
 H                    -3.00874  -0.70541  -0.10875 
 H                    -0.03043  -2.70229  -0.043 
 H                     2.19596  -1.76504   0.41545 
 H                     0.55687   2.23638   0.14127 
 H                    -2.58276   1.03277  -1.0745 
 H                    -1.65769   2.39462  -0.76566 
 

 GradGradGradGradGradGradGradGradGradGradGradGradGradGradGradGradGradGrad
 Berny optimization.
 Initialization pass.
                           ----------------------------
                           !    Initial Parameters    !
                           ! (Angstroms and Degrees)  !
 --------------------------                            --------------------------
 ! Name  Definition              Value          Derivative Info.                !
 --------------------------------------------------------------------------------
 ! R1    R(1,2)                  1.4118         calculate D2E/DX2 analytically  !
 ! R2    R(1,12)                 1.0158         calculate D2E/DX2 analytically  !
 ! R3    R(1,13)                 1.0191         calculate D2E/DX2 analytically  !
 ! R4    R(2,3)                  1.398          calculate D2E/DX2 analytically  !
 ! R5    R(2,10)                 1.4135         calculate D2E/DX2 analytically  !
 ! R6    R(3,4)                  1.3962         calculate D2E/DX2 analytically  !
 ! R7    R(3,14)                 1.087          calculate D2E/DX2 analytically  !
 ! R8    R(4,5)                  1.4004         calculate D2E/DX2 analytically  !
 ! R9    R(4,15)                 1.088          calculate D2E/DX2 analytically  !
 ! R10   R(5,6)                  1.4673         calculate D2E/DX2 analytically  !
 ! R11   R(5,9)                  1.4008         calculate D2E/DX2 analytically  !
 ! R12   R(6,7)                  1.2395         calculate D2E/DX2 analytically  !
 ! R13   R(6,8)                  1.2394         calculate D2E/DX2 analytically  !
 ! R14   R(9,10)                 1.3964         calculate D2E/DX2 analytically  !
 ! R15   R(9,16)                 1.087          calculate D2E/DX2 analytically  !
 ! R16   R(10,11)                1.4126         calculate D2E/DX2 analytically  !
 ! R17   R(11,17)                1.0193         calculate D2E/DX2 analytically  !
 ! R18   R(11,18)                1.0161         calculate D2E/DX2 analytically  !
 ! A1    A(2,1,12)             112.7626         calculate D2E/DX2 analytically  !
 ! A2    A(2,1,13)             109.8035         calculate D2E/DX2 analytically  !
 ! A3    A(12,1,13)            110.7687         calculate D2E/DX2 analytically  !
 ! A4    A(1,2,3)              120.0257         calculate D2E/DX2 analytically  !
 ! A5    A(1,2,10)             119.6859         calculate D2E/DX2 analytically  !
 ! A6    A(3,2,10)             119.5856         calculate D2E/DX2 analytically  !
 ! A7    A(2,3,4)              120.3134         calculate D2E/DX2 analytically  !
 ! A8    A(2,3,14)             120.3372         calculate D2E/DX2 analytically  !
 ! A9    A(4,3,14)             119.3315         calculate D2E/DX2 analytically  !
 ! A10   A(3,4,5)              119.399          calculate D2E/DX2 analytically  !
 ! A11   A(3,4,15)             119.159          calculate D2E/DX2 analytically  !
 ! A12   A(5,4,15)             121.4397         calculate D2E/DX2 analytically  !
 ! A13   A(4,5,6)              119.6413         calculate D2E/DX2 analytically  !
 ! A14   A(4,5,9)              120.779          calculate D2E/DX2 analytically  !
 ! A15   A(6,5,9)              119.5762         calculate D2E/DX2 analytically  !
 ! A16   A(5,6,7)              117.7128         calculate D2E/DX2 analytically  !
 ! A17   A(5,6,8)              117.796          calculate D2E/DX2 analytically  !
 ! A18   A(7,6,8)              124.4912         calculate D2E/DX2 analytically  !
 ! A19   A(5,9,10)             119.525          calculate D2E/DX2 analytically  !
 ! A20   A(5,9,16)             120.8321         calculate D2E/DX2 analytically  !
 ! A21   A(10,9,16)            119.6266         calculate D2E/DX2 analytically  !
 ! A22   A(2,10,9)             119.5686         calculate D2E/DX2 analytically  !
 ! A23   A(2,10,11)            119.6387         calculate D2E/DX2 analytically  !
 ! A24   A(9,10,11)            120.0759         calculate D2E/DX2 analytically  !
 ! A25   A(10,11,17)           109.83           calculate D2E/DX2 analytically  !
 ! A26   A(10,11,18)           113.0058         calculate D2E/DX2 analytically  !
 ! A27   A(17,11,18)           110.7623         calculate D2E/DX2 analytically  !
 ! D1    D(12,1,2,3)            28.2571         calculate D2E/DX2 analytically  !
 ! D2    D(12,1,2,10)         -161.3875         calculate D2E/DX2 analytically  !
 ! D3    D(13,1,2,3)           152.2997         calculate D2E/DX2 analytically  !
 ! D4    D(13,1,2,10)          -37.3448         calculate D2E/DX2 analytically  !
 ! D5    D(1,2,3,4)            178.2739         calculate D2E/DX2 analytically  !
 ! D6    D(1,2,3,14)            -3.2732         calculate D2E/DX2 analytically  !
 ! D7    D(10,2,3,4)             7.9088         calculate D2E/DX2 analytically  !
 ! D8    D(10,2,3,14)         -173.6384         calculate D2E/DX2 analytically  !
 ! D9    D(1,2,10,9)           178.3362         calculate D2E/DX2 analytically  !
 ! D10   D(1,2,10,11)            8.0263         calculate D2E/DX2 analytically  !
 ! D11   D(3,2,10,9)           -11.2656         calculate D2E/DX2 analytically  !
 ! D12   D(3,2,10,11)          178.4245         calculate D2E/DX2 analytically  !
 ! D13   D(2,3,4,5)             -1.2148         calculate D2E/DX2 analytically  !
 ! D14   D(2,3,4,15)           178.2532         calculate D2E/DX2 analytically  !
 ! D15   D(14,3,4,5)          -179.6831         calculate D2E/DX2 analytically  !
 ! D16   D(14,3,4,15)           -0.2151         calculate D2E/DX2 analytically  !
 ! D17   D(3,4,5,6)            178.4931         calculate D2E/DX2 analytically  !
 ! D18   D(3,4,5,9)             -2.1851         calculate D2E/DX2 analytically  !
 ! D19   D(15,4,5,6)            -0.9624         calculate D2E/DX2 analytically  !
 ! D20   D(15,4,5,9)           178.3595         calculate D2E/DX2 analytically  !
 ! D21   D(4,5,6,7)             -4.4852         calculate D2E/DX2 analytically  !
 ! D22   D(4,5,6,8)            175.4144         calculate D2E/DX2 analytically  !
 ! D23   D(9,5,6,7)            176.1848         calculate D2E/DX2 analytically  !
 ! D24   D(9,5,6,8)             -3.9156         calculate D2E/DX2 analytically  !
 ! D25   D(4,5,9,10)            -1.2073         calculate D2E/DX2 analytically  !
 ! D26   D(4,5,9,16)          -179.732          calculate D2E/DX2 analytically  !
 ! D27   D(6,5,9,10)           178.1149         calculate D2E/DX2 analytically  !
 ! D28   D(6,5,9,16)            -0.4097         calculate D2E/DX2 analytically  !
 ! D29   D(5,9,10,2)             7.9028         calculate D2E/DX2 analytically  !
 ! D30   D(5,9,10,11)          178.1698         calculate D2E/DX2 analytically  !
 ! D31   D(16,9,10,2)         -173.5546         calculate D2E/DX2 analytically  !
 ! D32   D(16,9,10,11)          -3.2876         calculate D2E/DX2 analytically  !
 ! D33   D(2,10,11,17)         -37.2201         calculate D2E/DX2 analytically  !
 ! D34   D(2,10,11,18)        -161.4498         calculate D2E/DX2 analytically  !
 ! D35   D(9,10,11,17)         152.5198         calculate D2E/DX2 analytically  !
 ! D36   D(9,10,11,18)          28.29           calculate D2E/DX2 analytically  !
 --------------------------------------------------------------------------------
 Trust Radius=3.00D-01 FncErr=1.00D-07 GrdErr=1.00D-06 EigMax=2.50D+02 EigMin=1.00D-04
 Number of steps in this run=     91 maximum allowed number of steps=    108.
 GradGradGradGradGradGradGradGradGradGradGradGradGradGradGradGradGradGrad

                          Input orientation:                          
 ---------------------------------------------------------------------
 Center     Atomic      Atomic             Coordinates (Angstroms)
 Number     Number       Type             X           Y           Z
 ---------------------------------------------------------------------
      1          7           0       -2.277626   -1.322941   -0.459067
      2          6           0       -1.009085   -0.778983   -0.162023
      3          6           0        0.092823   -1.623300    0.003299
      4          6           0        1.356923   -1.089775    0.261563
      5          6           0        1.516031    0.299941    0.328145
      6          7           0        2.835349    0.865571    0.632085
      7          8           0        3.751834    0.076794    0.904355
      8          8           0        2.957604    2.098430    0.597197
      9          6           0        0.433357    1.157450    0.094061
     10          6           0       -0.812555    0.618974   -0.233993
     11          7           0       -1.921369    1.470891   -0.434499
     12          1           0       -2.396496   -2.264087   -0.095930
     13          1           0       -3.008736   -0.705409   -0.108748
     14          1           0       -0.030430   -2.702292   -0.043002
     15          1           0        2.195956   -1.765038    0.415450
     16          1           0        0.556869    2.236376    0.141265
     17          1           0       -2.582760    1.032775   -1.074496
     18          1           0       -1.657689    2.394624   -0.765661
 ---------------------------------------------------------------------
                    Distance matrix (angstroms):
                    1          2          3          4          5
     1  N    0.000000
     2  C    1.411850   0.000000
     3  C    2.433727   1.398001   0.000000
     4  C    3.712630   2.423637   1.396173   0.000000
     5  C    4.200628   2.789364   2.414519   1.400378   0.000000
     6  N    5.667689   4.256153   3.756500   2.479194   1.467282
     7  O    6.338183   4.953369   4.134075   2.740376   2.319618
     8  O    6.342642   4.958886   4.734021   3.583222   2.320579
     9  C    3.715874   2.428166   2.802993   2.435375   1.400821
    10  C    2.442975   1.413537   2.429775   2.805714   2.416628
    11  N    2.816562   2.443038   3.717883   4.217666   3.710588
    12  H    1.015753   2.033424   2.572385   3.949047   4.697015
    13  H    1.019114   2.001712   3.236471   4.398164   4.655654
    14  H    2.669383   2.161261   1.086995   2.148888   3.397454
    15  H    4.579646   3.402657   2.147819   1.087951   2.175790
    16  H    4.589499   3.411244   3.889919   3.423132   2.169030
    17  H    2.453825   2.567396   3.921112   4.670265   4.393692
    18  H    3.781350   3.294972   4.449641   4.720605   3.956842
                    6          7          8          9         10
     6  N    0.000000
     7  O    1.239454   0.000000
     8  O    1.239397   2.193663   0.000000
     9  C    2.478756   3.582832   2.740514   0.000000
    10  C    3.757406   4.735339   4.134461   1.396378   0.000000
    11  N    4.912268   5.993435   5.026189   2.433588   1.412598
    12  H    6.139785   6.654492   6.941064   4.444219   3.292411
    13  H    6.096731   6.880663   6.630014   3.919104   2.567661
    14  H    4.625805   4.788144   5.690794   3.889922   3.417455
    15  H    2.715853   2.460108   3.942021   3.427971   3.893125
    16  H    2.703975   3.931145   2.447536   1.086997   2.152238
    17  H    5.682981   6.704986   5.884370   3.236978   2.002824
    18  H    4.947634   6.117534   4.821415   2.577245   2.037120
                   11         12         13         14         15
    11  N    0.000000
    12  H    3.780269   0.000000
    13  H    2.454538   1.674659   0.000000
    14  H    4.598301   2.406885   3.586387   0.000000
    15  H    5.305282   4.647707   5.337266   2.458743   0.000000
    16  H    2.656903   5.388209   4.629270   4.976878   4.332793
    17  H    1.019303   3.444065   2.033570   4.639945   5.734442
    18  H    1.016109   4.764238   3.444860   5.398959   5.792097
                   16         17         18
    16  H    0.000000
    17  H    3.575472   0.000000
    18  H    2.398296   1.675042   0.000000
 Stoichiometry    C6H7N3O2
 Framework group  C1[X(C6H7N3O2)]
 Deg. of freedom    48
 Full point group                 C1      NOp   1
 Largest Abelian subgroup         C1      NOp   1
 Largest concise Abelian subgroup C1      NOp   1
                         Standard orientation:                         
 ---------------------------------------------------------------------
 Center     Atomic      Atomic             Coordinates (Angstroms)
 Number     Number       Type             X           Y           Z
 ---------------------------------------------------------------------
      1          7           0       -3.194475   -0.761672    0.003359
      2          6           0       -1.799690   -0.544833    0.032958
      3          6           0       -0.921085   -1.626969   -0.073996
      4          6           0        0.459043   -1.416050   -0.081581
      5          6           0        0.955063   -0.108594   -0.006863
      6          7           0        2.404630    0.117237    0.019046
      7          8           0        3.142400   -0.877934    0.058744
      8          8           0        2.807458    1.289152   -0.002164
      9          6           0        0.083758    0.987683    0.029247
     10          6           0       -1.294600    0.773614   -0.035369
     11          7           0       -2.185165    1.867595    0.039027
     12          1           0       -3.457211   -1.678327    0.353313
     13          1           0       -3.669399   -0.026039    0.524784
     14          1           0       -1.304829   -2.642602   -0.126809
     15          1           0        1.126071   -2.273761   -0.136748
     16          1           0        0.467917    2.003118    0.082881
     17          1           0       -3.048722    1.644653   -0.454477
     18          1           0       -1.782561    2.731989   -0.311985
 ---------------------------------------------------------------------
 Rotational constants (GHZ):           2.4667901           0.7229934           0.5603685
 Standard basis: 6-31G(d,p) (6D, 7F)
 There are   200 symmetry adapted cartesian basis functions of A   symmetry.
 There are   200 symmetry adapted basis functions of A   symmetry.
   200 basis functions,   357 primitive gaussians,   200 cartesian basis functions
    40 alpha electrons       40 beta electrons
       nuclear repulsion energy       589.1920455737 Hartrees.
 NAtoms=   18 NActive=   18 NUniq=   18 SFac= 1.00D+00 NAtFMM=   60 NAOKFM=F Big=F
 Integral buffers will be    131072 words long.
 Raffenetti 2 integral format.
 Two-electron integral symmetry is turned on.
 Force inversion solution in PCM.
 ------------------------------------------------------------------------------
 Polarizable Continuum Model (PCM)
 =================================
 Model                : PCM.
 Atomic radii         : UFF (Universal Force Field).
 Polarization charges : Total charges.
 Charge compensation  : None.
 Solution method      : Matrix inversion.
 Cavity type          : Scaled VdW (van der Waals Surface) (Alpha=1.100).
 Cavity algorithm     : GePol (No added spheres)
                        Default sphere list used, NSphG=   18.
                        Lebedev-Laikov grids with approx.  5.0 points / Ang**2.
                        Smoothing algorithm: York/Karplus (Gamma=1.0000).
                        Polarization charges: spherical gaussians, with
                                              point-specific exponents (IZeta= 3).
                        Self-potential: point-specific (ISelfS= 7).
                        Self-field    : sphere-specific E.n sum rule (ISelfD= 2).
 1st derivatives      : Analytical E(r).r(x)/FMM algorithm (CHGder, D1EAlg=3).
                        Cavity 1st derivative terms included.
 2nd derivatives      : Analytical E(r).r(xy)/FMM algorithm (CHGder, D2EAlg=3).
                        Cavity 2nd derivative terms included.
 Solvent              : Water, Eps=  78.355300 Eps(inf)=   1.777849
 ------------------------------------------------------------------------------
 Spheres list:
 ISph  on   Nord     Re0    Alpha      Xe            Ye            Ze
    1   N      1    1.8300  1.100     -3.194475     -0.761672      0.003359
    2   C      2    1.9255  1.100     -1.799690     -0.544833      0.032958
    3   C      3    1.9255  1.100     -0.921085     -1.626969     -0.073996
    4   C      4    1.9255  1.100      0.459043     -1.416050     -0.081581
    5   C      5    1.9255  1.100      0.955063     -0.108594     -0.006863
    6   N      6    1.8300  1.100      2.404630      0.117237      0.019046
    7   O      7    1.7500  1.100      3.142400     -0.877934      0.058744
    8   O      8    1.7500  1.100      2.807458      1.289152     -0.002164
    9   C      9    1.9255  1.100      0.083758      0.987683      0.029247
   10   C     10    1.9255  1.100     -1.294600      0.773614     -0.035369
   11   N     11    1.8300  1.100     -2.185165      1.867595      0.039027
   12   H     12    1.4430  1.100     -3.457211     -1.678327      0.353313
   13   H     13    1.4430  1.100     -3.669399     -0.026039      0.524784
   14   H     14    1.4430  1.100     -1.304829     -2.642602     -0.126809
   15   H     15    1.4430  1.100      1.126071     -2.273761     -0.136748
   16   H     16    1.4430  1.100      0.467917      2.003118      0.082881
   17   H     17    1.4430  1.100     -3.048722      1.644653     -0.454477
   18   H     18    1.4430  1.100     -1.782561      2.731989     -0.311985
 ------------------------------------------------------------------------------
 One-electron integrals computed using PRISM.
 NBasis=   200 RedAO= T EigKep=  4.32D-04  NBF=   200
 NBsUse=   200 1.00D-06 EigRej= -1.00D+00 NBFU=   200
 ExpMin= 1.61D-01 ExpMax= 5.48D+03 ExpMxC= 8.25D+02 IAcc=3 IRadAn=         5 AccDes= 0.00D+00
 Harris functional with IExCor=  402 and IRadAn=       5 diagonalized for initial guess.
 HarFok:  IExCor=  402 AccDes= 0.00D+00 IRadAn=         5 IDoV= 1 UseB2=F ITyADJ=14
 ICtDFT=  3500011 ScaDFX=  1.000000  1.000000  1.000000  1.000000
 FoFCou: FMM=F IPFlag=           0 FMFlag=      100000 FMFlg1=           0
         NFxFlg=           0 DoJE=T BraDBF=F KetDBF=T FulRan=T
         wScrn=  0.000000 ICntrl=       500 IOpCl=  0 I1Cent=   200000004 NGrid=           0
         NMat0=    1 NMatS0=      1 NMatT0=    0 NMatD0=    1 NMtDS0=    0 NMtDT0=    0
 Petite list used in FoFCou.
 Keep R1 ints in memory in canonical form, NReq=206076500.
 Requested convergence on RMS density matrix=1.00D-08 within  32 cycles.
 Requested convergence on MAX density matrix=1.00D-06.
 Requested convergence on             energy=1.00D-06.
 No special actions if energy rises.
 Inv3:  Mode=1 IEnd=     7291443.
 Iteration    1 A*A^-1 deviation from unit magnitude is 6.66D-15 for    387.
 Iteration    1 A*A^-1 deviation from orthogonality  is 3.16D-15 for   1130    291.
 Iteration    1 A^-1*A deviation from unit magnitude is 6.11D-15 for    477.
 Iteration    1 A^-1*A deviation from orthogonality  is 3.11D-15 for    949     82.
 Error on total polarization charges =  0.00539
 SCF Done:  E(RB3LYP) =  -547.490647036     A.U. after   13 cycles
            NFock= 13  Conv=0.73D-08     -V/T= 2.0094
 QCSCF skips out because SCF is already converged.
 DoSCS=F DFT=T ScalE2(SS,OS)=  1.000000  1.000000
 Range of M.O.s used for correlation:     1   200
 NBasis=   200 NAE=    40 NBE=    40 NFC=     0 NFV=     0
 NROrb=    200 NOA=    40 NOB=    40 NVA=   160 NVB=   160
 Symmetrizing basis deriv contribution to polar:
 IMax=3 JMax=2 DiffMx= 0.00D+00
 G2DrvN: will do    19 centers at a time, making    1 passes.
 Calling FoFCou, ICntrl=  3107 FMM=F I1Cent=   0 AccDes= 0.00D+00.
 NEqPCM:  Using equilibrium solvation (IEInf=0, Eps=  78.3553, EpsInf=   1.7778)
 G2PCM: DoFxE=T DoFxN=T DoGrad=T DoDP/DQ/DG/TGxP=FFFF NFrqRd=   0 IEInf=0 SqF1=F DoCFld=F IF1Alg=4.
 End of G2Drv F.D. properties file   721 does not exist.
 End of G2Drv F.D. properties file   722 does not exist.
 End of G2Drv F.D. properties file   788 does not exist.
          IDoAtm=111111111111111111
 NEqPCM:  Using equilibrium solvation (IEInf=0, Eps=  78.3553, EpsInf=   1.7778)
          Differentiating once with respect to nuclear coordinates.
 Keep R1 ints in memory in canonical form, NReq=208878516.
          There are    57 degrees of freedom in the 1st order CPHF.  IDoFFX=6 NUNeed=     0.
     51 vectors produced by pass  0 Test12= 1.12D-14 1.75D-09 XBig12= 2.48D-01 2.09D-01.
 AX will form    51 AO Fock derivatives at one time.
     51 vectors produced by pass  1 Test12= 1.12D-14 1.75D-09 XBig12= 4.29D-02 7.57D-02.
     51 vectors produced by pass  2 Test12= 1.12D-14 1.75D-09 XBig12= 6.95D-04 4.12D-03.
     51 vectors produced by pass  3 Test12= 1.12D-14 1.75D-09 XBig12= 2.51D-06 2.30D-04.
     51 vectors produced by pass  4 Test12= 1.12D-14 1.75D-09 XBig12= 4.54D-09 6.35D-06.
     41 vectors produced by pass  5 Test12= 1.12D-14 1.75D-09 XBig12= 4.62D-12 2.75D-07.
     15 vectors produced by pass  6 Test12= 1.12D-14 1.75D-09 XBig12= 4.28D-15 1.07D-08.
 InvSVY:  IOpt=1 It=  1 EMax= 7.77D-16
 Solved reduced A of dimension   311 with    57 vectors.
 End of Minotr F.D. properties file   721 does not exist.
 End of Minotr F.D. properties file   722 does not exist.
 End of Minotr F.D. properties file   788 does not exist.

 **********************************************************************

            Population analysis using the SCF density.

 **********************************************************************

 Orbital symmetries:
       Occupied  (A) (A) (A) (A) (A) (A) (A) (A) (A) (A) (A) (A)
                 (A) (A) (A) (A) (A) (A) (A) (A) (A) (A) (A) (A)
                 (A) (A) (A) (A) (A) (A) (A) (A) (A) (A) (A) (A)
                 (A) (A) (A) (A)
       Virtual   (A) (A) (A) (A) (A) (A) (A) (A) (A) (A) (A) (A)
                 (A) (A) (A) (A) (A) (A) (A) (A) (A) (A) (A) (A)
                 (A) (A) (A) (A) (A) (A) (A) (A) (A) (A) (A) (A)
                 (A) (A) (A) (A) (A) (A) (A) (A) (A) (A) (A) (A)
                 (A) (A) (A) (A) (A) (A) (A) (A) (A) (A) (A) (A)
                 (A) (A) (A) (A) (A) (A) (A) (A) (A) (A) (A) (A)
                 (A) (A) (A) (A) (A) (A) (A) (A) (A) (A) (A) (A)
                 (A) (A) (A) (A) (A) (A) (A) (A) (A) (A) (A) (A)
                 (A) (A) (A) (A) (A) (A) (A) (A) (A) (A) (A) (A)
                 (A) (A) (A) (A) (A) (A) (A) (A) (A) (A) (A) (A)
                 (A) (A) (A) (A) (A) (A) (A) (A) (A) (A) (A) (A)
                 (A) (A) (A) (A) (A) (A) (A) (A) (A) (A) (A) (A)
                 (A) (A) (A) (A) (A) (A) (A) (A) (A) (A) (A) (A)
                 (A) (A) (A) (A)
 The electronic state is 1-A.
 Alpha  occ. eigenvalues --  -19.17973 -19.17925 -14.57006 -14.35536 -14.34839
 Alpha  occ. eigenvalues --  -10.24615 -10.24136 -10.24127 -10.20668 -10.20655
 Alpha  occ. eigenvalues --  -10.20130  -1.21592  -1.04488  -0.94748  -0.90104
 Alpha  occ. eigenvalues --   -0.86226  -0.78134  -0.74638  -0.68475  -0.63051
 Alpha  occ. eigenvalues --   -0.58954  -0.55511  -0.53989  -0.52586  -0.51386
 Alpha  occ. eigenvalues --   -0.50595  -0.49055  -0.46786  -0.44175  -0.43647
 Alpha  occ. eigenvalues --   -0.41582  -0.39521  -0.37015  -0.33049  -0.32597
 Alpha  occ. eigenvalues --   -0.31074  -0.30846  -0.29175  -0.24583  -0.21130
 Alpha virt. eigenvalues --   -0.08418  -0.00815   0.02155   0.06931   0.09496
 Alpha virt. eigenvalues --    0.11012   0.14552   0.14917   0.15980   0.17662
 Alpha virt. eigenvalues --    0.17949   0.19862   0.24086   0.24340   0.26525
 Alpha virt. eigenvalues --    0.29852   0.32426   0.34265   0.36116   0.40630
 Alpha virt. eigenvalues --    0.47077   0.48473   0.50677   0.52648   0.54935
 Alpha virt. eigenvalues --    0.55957   0.56756   0.57923   0.58498   0.59544
 Alpha virt. eigenvalues --    0.60381   0.62447   0.65391   0.66039   0.67686
 Alpha virt. eigenvalues --    0.69815   0.70460   0.71782   0.75259   0.75748
 Alpha virt. eigenvalues --    0.79144   0.79460   0.80595   0.80785   0.82695
 Alpha virt. eigenvalues --    0.83828   0.84445   0.85866   0.86347   0.90854
 Alpha virt. eigenvalues --    0.92678   0.94124   0.95119   0.96023   0.97327
 Alpha virt. eigenvalues --    0.97890   0.98390   0.99789   1.03545   1.06289
 Alpha virt. eigenvalues --    1.08027   1.10985   1.16612   1.17894   1.21149
 Alpha virt. eigenvalues --    1.24848   1.26720   1.27990   1.32076   1.34644
 Alpha virt. eigenvalues --    1.36635   1.37130   1.37875   1.42130   1.42724
 Alpha virt. eigenvalues --    1.42856   1.50489   1.59829   1.64856   1.67880
 Alpha virt. eigenvalues --    1.70525   1.72871   1.74256   1.75662   1.79140
 Alpha virt. eigenvalues --    1.79744   1.80721   1.81922   1.83830   1.85588
 Alpha virt. eigenvalues --    1.88166   1.90156   1.91796   1.92728   1.97122
 Alpha virt. eigenvalues --    1.98275   1.98852   2.00682   2.05420   2.09536
 Alpha virt. eigenvalues --    2.10417   2.11573   2.12532   2.17807   2.19738
 Alpha virt. eigenvalues --    2.20844   2.23977   2.26073   2.28274   2.29570
 Alpha virt. eigenvalues --    2.33592   2.35525   2.37231   2.38787   2.40828
 Alpha virt. eigenvalues --    2.43234   2.45277   2.45552   2.50522   2.52028
 Alpha virt. eigenvalues --    2.53495   2.56008   2.58721   2.59379   2.63543
 Alpha virt. eigenvalues --    2.67542   2.69191   2.70022   2.74845   2.76142
 Alpha virt. eigenvalues --    2.80070   2.83300   2.88162   2.88485   2.91151
 Alpha virt. eigenvalues --    2.93742   2.96841   3.04490   3.06857   3.15817
 Alpha virt. eigenvalues --    3.17477   3.25950   3.28303   3.32180   3.33263
 Alpha virt. eigenvalues --    3.42801   3.47768   3.50170   3.71952   3.74409
 Alpha virt. eigenvalues --    3.92077   3.95883   4.01944   4.11353   4.12138
 Alpha virt. eigenvalues --    4.15899   4.17565   4.42738   4.43698   4.79731
          Condensed to atoms (all electrons):
               1          2          3          4          5          6
     1  N    6.834665   0.295603  -0.070797   0.004476   0.000399   0.000001
     2  C    0.295603   4.714605   0.512037  -0.025964  -0.039055   0.000266
     3  C   -0.070797   0.512037   4.955078   0.489311  -0.017881   0.003705
     4  C    0.004476  -0.025964   0.489311   4.984387   0.484599  -0.042823
     5  C    0.000399  -0.039055  -0.017881   0.484599   4.936876   0.187309
     6  N    0.000001   0.000266   0.003705  -0.042823   0.187309   5.943322
     7  O   -0.000000  -0.000015   0.001023   0.000563  -0.095643   0.298480
     8  O    0.000000  -0.000002  -0.000034   0.006578  -0.094663   0.294042
     9  C    0.004618  -0.039535  -0.048238  -0.085339   0.463401  -0.037559
    10  C   -0.065636   0.492135  -0.027393  -0.038755  -0.010376   0.003241
    11  N   -0.013098  -0.066750   0.004412   0.000661   0.003475  -0.000049
    12  H    0.343718  -0.023485  -0.009828  -0.000082   0.000001  -0.000000
    13  H    0.325902  -0.022488   0.006457  -0.000271   0.000075   0.000000
    14  H   -0.006674  -0.038565   0.368739  -0.029671   0.003299  -0.000079
    15  H   -0.000101   0.004093  -0.033044   0.363228  -0.033063  -0.010633
    16  H   -0.000088   0.004446   0.000110   0.005276  -0.027697  -0.010956
    17  H    0.014009  -0.019125  -0.000485   0.000061  -0.000220   0.000001
    18  H    0.000146   0.005940  -0.000144  -0.000010  -0.000052   0.000000
               7          8          9         10         11         12
     1  N   -0.000000   0.000000   0.004618  -0.065636  -0.013098   0.343718
     2  C   -0.000015  -0.000002  -0.039535   0.492135  -0.066750  -0.023485
     3  C    0.001023  -0.000034  -0.048238  -0.027393   0.004412  -0.009828
     4  C    0.000563   0.006578  -0.085339  -0.038755   0.000661  -0.000082
     5  C   -0.095643  -0.094663   0.463401  -0.010376   0.003475   0.000001
     6  N    0.298480   0.294042  -0.037559   0.003241  -0.000049  -0.000000
     7  O    8.313170  -0.099040   0.006606  -0.000004   0.000000   0.000000
     8  O   -0.099040   8.314628   0.001101   0.001142  -0.000002   0.000000
     9  C    0.006606   0.001101   5.098543   0.478794  -0.064863  -0.000156
    10  C   -0.000004   0.001142   0.478794   4.743530   0.287072   0.005877
    11  N    0.000000  -0.000002  -0.064863   0.287072   6.849348   0.000154
    12  H    0.000000   0.000000  -0.000156   0.005877   0.000154   0.411300
    13  H   -0.000000   0.000000  -0.000588  -0.018610   0.014644  -0.024962
    14  H    0.000002   0.000001   0.000771   0.004004  -0.000099   0.004292
    15  H    0.014095   0.000125   0.005270   0.000362   0.000005  -0.000008
    16  H    0.000145   0.015594   0.356614  -0.034749  -0.006777   0.000003
    17  H   -0.000000  -0.000000   0.006557  -0.024059   0.327750  -0.000233
    18  H    0.000000  -0.000006  -0.010074  -0.023344   0.344188  -0.000001
              13         14         15         16         17         18
     1  N    0.325902  -0.006674  -0.000101  -0.000088   0.014009   0.000146
     2  C   -0.022488  -0.038565   0.004093   0.004446  -0.019125   0.005940
     3  C    0.006457   0.368739  -0.033044   0.000110  -0.000485  -0.000144
     4  C   -0.000271  -0.029671   0.363228   0.005276   0.000061  -0.000010
     5  C    0.000075   0.003299  -0.033063  -0.027697  -0.000220  -0.000052
     6  N    0.000000  -0.000079  -0.010633  -0.010956   0.000001   0.000000
     7  O   -0.000000   0.000002   0.014095   0.000145  -0.000000   0.000000
     8  O    0.000000   0.000001   0.000125   0.015594  -0.000000  -0.000006
     9  C   -0.000588   0.000771   0.005270   0.356614   0.006557  -0.010074
    10  C   -0.018610   0.004004   0.000362  -0.034749  -0.024059  -0.023344
    11  N    0.014644  -0.000099   0.000005  -0.006777   0.327750   0.344188
    12  H   -0.024962   0.004292  -0.000008   0.000003  -0.000233  -0.000001
    13  H    0.440197   0.000036   0.000002  -0.000008  -0.005433  -0.000256
    14  H    0.000036   0.578600  -0.005604   0.000012  -0.000006   0.000003
    15  H    0.000002  -0.005604   0.568100  -0.000133   0.000000  -0.000000
    16  H   -0.000008   0.000012  -0.000133   0.563171   0.000046   0.004045
    17  H   -0.005433  -0.000006   0.000000   0.000046   0.445566  -0.025164
    18  H   -0.000256   0.000003  -0.000000   0.004045  -0.025164   0.415698
 Mulliken charges:
               1
     1  N   -0.667143
     2  C    0.245858
     3  C   -0.133030
     4  C   -0.116225
     5  C    0.239218
     6  N    0.371732
     7  O   -0.439383
     8  O   -0.439464
     9  C   -0.135926
    10  C    0.226768
    11  N   -0.680073
    12  H    0.293410
    13  H    0.285302
    14  H    0.120940
    15  H    0.127306
    16  H    0.130945
    17  H    0.280735
    18  H    0.289030
 Sum of Mulliken charges =  -0.00000
 Mulliken charges with hydrogens summed into heavy atoms:
               1
     1  N   -0.088431
     2  C    0.245858
     3  C   -0.012090
     4  C    0.011081
     5  C    0.239218
     6  N    0.371732
     7  O   -0.439383
     8  O   -0.439464
     9  C   -0.004981
    10  C    0.226768
    11  N   -0.110307
 APT charges:
               1
     1  N   -1.185818
     2  C    0.014319
     3  C   -0.422961
     4  C   -0.539418
     5  C   -0.070861
     6  N   -0.245687
     7  O   -0.022773
     8  O   -0.084963
     9  C   -0.467914
    10  C    0.014021
    11  N   -1.199686
    12  H    0.744761
    13  H    0.600911
    14  H    0.602872
    15  H    0.537491
    16  H    0.449970
    17  H    0.683648
    18  H    0.592089
 Sum of APT charges =  -0.00000
 APT charges with hydrogens summed into heavy atoms:
               1
     1  N    0.159854
     2  C    0.014319
     3  C    0.179911
     4  C   -0.001928
     5  C   -0.070861
     6  N   -0.245687
     7  O   -0.022773
     8  O   -0.084963
     9  C   -0.017944
    10  C    0.014021
    11  N    0.076051
 Electronic spatial extent (au):  <R**2>=           1876.9284
 Charge=              0.0000 electrons
 Dipole moment (field-independent basis, Debye):
    X=             -8.7536    Y=             -0.3383    Z=             -0.0531  Tot=              8.7603
 Quadrupole moment (field-independent basis, Debye-Ang):
   XX=            -67.0312   YY=            -53.6133   ZZ=            -64.2642
   XY=             -0.3969   XZ=             -2.0143   YZ=             -3.7483
 Traceless Quadrupole moment (field-independent basis, Debye-Ang):
   XX=             -5.3950   YY=              8.0229   ZZ=             -2.6279
   XY=             -0.3969   XZ=             -2.0143   YZ=             -3.7483
 Octapole moment (field-independent basis, Debye-Ang**2):
  XXX=           -104.0560  YYY=              4.1802  ZZZ=              0.6649  XYY=            -24.7134
  XXY=             -4.9920  XXZ=              9.5701  XZZ=              8.4808  YZZ=              2.3363
  YYZ=             -6.2399  XYZ=             12.2074
 Hexadecapole moment (field-independent basis, Debye-Ang**3):
 XXXX=          -1676.8412 YYYY=           -480.0245 ZZZZ=            -63.2653 XXXY=              9.8619
 XXXZ=            -51.2056 YYYX=             -4.4027 YYYZ=            -19.5983 ZZZX=             -0.9803
 ZZZY=             -4.1476 XXYY=           -352.3079 XXZZ=           -285.1463 YYZZ=           -112.8023
 XXYZ=            -33.4350 YYXZ=             10.5840 ZZXY=              0.7075
 N-N= 5.891920455737D+02 E-N=-2.455422995273D+03  KE= 5.423821071577D+02
  Exact polarizability:   0.000   0.000   0.000   0.000   0.000   0.000
 Approx polarizability: 273.739   6.846 201.196   1.018   2.249  53.785
 D2PCM: PCM CHGder 2nd derivatives, FixD1E=F FixD2E=F DoIter=F DoCFld=F I1PDM=0
 Calling FoFJK, ICntrl=    100147 FMM=F ISym2X=0 I1Cent= 0 IOpClX= 0 NMat=1 NMatS=1 NMatT=0.
 ***** Axes restored to original set *****
 -------------------------------------------------------------------
 Center     Atomic                   Forces (Hartrees/Bohr)
 Number     Number              X              Y              Z
 -------------------------------------------------------------------
      1        7           0.008570844    0.015280599    0.009797980
      2        6          -0.010517108   -0.016242916   -0.017277210
      3        6           0.012073894    0.005986311    0.006017550
      4        6           0.001021816   -0.006854753    0.000815739
      5        6           0.002912374   -0.001073964    0.000567570
      6        7          -0.013407041   -0.006314707   -0.002873740
      7        8           0.000320760    0.006665146   -0.000603978
      8        8           0.003941240   -0.004374633    0.001700128
      9        6           0.001259585   -0.001536910   -0.004110482
     10        6          -0.001637407    0.017760178    0.013645191
     11        7           0.001414572   -0.013419747   -0.004151108
     12        1          -0.001257597    0.001688567   -0.001672488
     13        1          -0.002647377   -0.007119879   -0.000854768
     14        1          -0.001255738    0.001481436    0.000714243
     15        1          -0.001053458    0.005167622   -0.000354915
     16        1           0.001644700   -0.002910107   -0.000884908
     17        1           0.000532089    0.008251601   -0.000814343
     18        1          -0.001916150   -0.002433847    0.000339540
 -------------------------------------------------------------------
 Cartesian Forces:  Max     0.017760178 RMS     0.006906473
 FormGI is forming the generalized inverse of G from B-inverse, IUseBI=4.

 GradGradGradGradGradGradGradGradGradGradGradGradGradGradGradGradGradGrad
 Berny optimization.
 Internal  Forces:  Max     0.010142404 RMS     0.003583985
 Search for a local minimum.
 Step number   1 out of a maximum of   91
 All quantities printed in internal units (Hartrees-Bohrs-Radians)
 Mixed Optimization -- RFO/linear search
 Second derivative matrix not updated -- analytic derivatives used.
 ITU=  0
     Eigenvalues ---    0.00392   0.00437   0.00806   0.01574   0.01670
     Eigenvalues ---    0.01745   0.01950   0.02068   0.02227   0.02364
     Eigenvalues ---    0.02594   0.02700   0.02880   0.03423   0.10829
     Eigenvalues ---    0.11207   0.11517   0.12025   0.13794   0.14271
     Eigenvalues ---    0.15948   0.16400   0.16759   0.17963   0.19290
     Eigenvalues ---    0.21589   0.22641   0.22776   0.23759   0.32147
     Eigenvalues ---    0.34561   0.35459   0.35902   0.36444   0.37131
     Eigenvalues ---    0.38071   0.39805   0.43337   0.44310   0.44518
     Eigenvalues ---    0.45381   0.45589   0.45733   0.46721   0.47064
     Eigenvalues ---    0.50974   0.56413   0.72421
 RFO step:  Lambda=-7.50700412D-03 EMin= 3.92215558D-03
 Linear search not attempted -- first point.
 Iteration  1 RMS(Cart)=  0.04865522 RMS(Int)=  0.00306976
 Iteration  2 RMS(Cart)=  0.00337527 RMS(Int)=  0.00096438
 Iteration  3 RMS(Cart)=  0.00001441 RMS(Int)=  0.00096432
 Iteration  4 RMS(Cart)=  0.00000001 RMS(Int)=  0.00096432
 Variable       Old X    -DE/DX   Delta X   Delta X   Delta X     New X
                                 (Linear)    (Quad)   (Total)
    R1        2.66801  -0.00952   0.00000  -0.05642  -0.05642   2.61159
    R2        1.91950  -0.00202   0.00000  -0.00667  -0.00667   1.91282
    R3        1.92585  -0.00271   0.00000  -0.00921  -0.00921   1.91663
    R4        2.64184   0.00586   0.00000   0.01152   0.01153   2.65337
    R5        2.67120   0.00524   0.00000   0.02482   0.02484   2.69603
    R6        2.63838  -0.00611   0.00000  -0.01565  -0.01561   2.62277
    R7        2.05412  -0.00136   0.00000  -0.00225  -0.00225   2.05188
    R8        2.64633  -0.00551   0.00000  -0.00822  -0.00819   2.63814
    R9        2.05593  -0.00407   0.00000  -0.01191  -0.01191   2.04402
   R10        2.77276  -0.01014   0.00000  -0.04540  -0.04540   2.72736
   R11        2.64717  -0.00193   0.00000   0.00237   0.00234   2.64951
   R12        2.34223  -0.00414   0.00000   0.00120   0.00120   2.34343
   R13        2.34212  -0.00401   0.00000   0.00153   0.00153   2.34365
   R14        2.63877  -0.00256   0.00000  -0.01493  -0.01499   2.62378
   R15        2.05413  -0.00274   0.00000  -0.00739  -0.00739   2.04674
   R16        2.66942  -0.00395   0.00000  -0.02337  -0.02337   2.64605
   R17        1.92620  -0.00338   0.00000  -0.00699  -0.00699   1.91921
   R18        1.92017  -0.00282   0.00000  -0.00565  -0.00565   1.91452
    A1        1.96808   0.00067   0.00000   0.04175   0.03874   2.00682
    A2        1.91643   0.00992   0.00000   0.07789   0.07484   1.99127
    A3        1.93328  -0.00487   0.00000   0.01110   0.00655   1.93983
    A4        2.09484   0.00579   0.00000   0.03571   0.03474   2.12958
    A5        2.08891  -0.00331   0.00000  -0.02090  -0.02214   2.06677
    A6        2.08716  -0.00208   0.00000  -0.00139  -0.00285   2.08431
    A7        2.09986   0.00342   0.00000   0.01494   0.01469   2.11455
    A8        2.10028  -0.00303   0.00000  -0.02254  -0.02240   2.07788
    A9        2.08273  -0.00040   0.00000   0.00757   0.00768   2.09041
   A10        2.08391  -0.00358   0.00000  -0.01381  -0.01403   2.06988
   A11        2.07972   0.00525   0.00000   0.03496   0.03508   2.11479
   A12        2.11952  -0.00167   0.00000  -0.02116  -0.02106   2.09846
   A13        2.08813  -0.00182   0.00000  -0.00461  -0.00447   2.08367
   A14        2.10799   0.00483   0.00000   0.01488   0.01458   2.12257
   A15        2.08700  -0.00301   0.00000  -0.01026  -0.01011   2.07689
   A16        2.05448   0.00461   0.00000   0.01704   0.01704   2.07152
   A17        2.05593   0.00310   0.00000   0.01418   0.01418   2.07011
   A18        2.17278  -0.00771   0.00000  -0.03122  -0.03122   2.14156
   A19        2.08610   0.00140   0.00000   0.00594   0.00554   2.09165
   A20        2.10892  -0.00247   0.00000  -0.02168  -0.02151   2.08741
   A21        2.08788   0.00107   0.00000   0.01584   0.01604   2.10392
   A22        2.08687  -0.00364   0.00000  -0.00565  -0.00694   2.07993
   A23        2.08809  -0.00210   0.00000  -0.02460  -0.02556   2.06253
   A24        2.09572   0.00610   0.00000   0.04223   0.04161   2.13733
   A25        1.91689   0.00889   0.00000   0.05093   0.05064   1.96753
   A26        1.97232  -0.00062   0.00000   0.00803   0.00775   1.98007
   A27        1.93317  -0.00521   0.00000  -0.02204  -0.02251   1.91065
    D1        0.49318  -0.00344   0.00000  -0.16668  -0.16844   0.32474
    D2       -2.81674  -0.00091   0.00000  -0.07552  -0.07685  -2.89359
    D3        2.65813  -0.00186   0.00000  -0.06388  -0.06255   2.59558
    D4       -0.65179   0.00068   0.00000   0.02728   0.02904  -0.62275
    D5        3.11147   0.00087   0.00000   0.02199   0.02351   3.13498
    D6       -0.05713   0.00072   0.00000   0.02115   0.02236  -0.03477
    D7        0.13803  -0.00155   0.00000  -0.06719  -0.06717   0.07087
    D8       -3.03056  -0.00169   0.00000  -0.06803  -0.06832  -3.09888
    D9        3.11255  -0.00036   0.00000   0.00825   0.00899   3.12155
   D10        0.14008  -0.00341   0.00000  -0.07624  -0.07379   0.06630
   D11       -0.19662   0.00293   0.00000   0.10262   0.10188  -0.09474
   D12        3.11409  -0.00012   0.00000   0.01814   0.01910   3.13320
   D13       -0.02120   0.00002   0.00000   0.01057   0.01077  -0.01043
   D14        3.11111   0.00021   0.00000   0.00917   0.00924   3.12034
   D15       -3.13606   0.00020   0.00000   0.01187   0.01239  -3.12367
   D16       -0.00375   0.00039   0.00000   0.01047   0.01086   0.00710
   D17        3.11529   0.00023   0.00000   0.01075   0.01098   3.12627
   D18       -0.03814   0.00040   0.00000   0.01138   0.01146  -0.02668
   D19       -0.01680  -0.00000   0.00000   0.01188   0.01219  -0.00461
   D20        3.11296   0.00017   0.00000   0.01251   0.01267   3.12563
   D21       -0.07828   0.00044   0.00000   0.03797   0.03789  -0.04039
   D22        3.06156   0.00059   0.00000   0.03913   0.03906   3.10062
   D23        3.07500   0.00022   0.00000   0.03718   0.03725   3.11226
   D24       -0.06834   0.00037   0.00000   0.03834   0.03842  -0.02992
   D25       -0.02107   0.00028   0.00000   0.02233   0.02262   0.00155
   D26       -3.13691   0.00023   0.00000   0.01805   0.01874  -3.11818
   D27        3.10869   0.00046   0.00000   0.02299   0.02314   3.13183
   D28       -0.00715   0.00041   0.00000   0.01872   0.01925   0.01210
   D29        0.13793  -0.00187   0.00000  -0.07901  -0.07880   0.05913
   D30        3.10965   0.00039   0.00000  -0.00074   0.00086   3.11051
   D31       -3.02910  -0.00187   0.00000  -0.07535  -0.07543  -3.10453
   D32       -0.05738   0.00039   0.00000   0.00293   0.00422  -0.05316
   D33       -0.64961  -0.00093   0.00000  -0.08243  -0.08203  -0.73165
   D34       -2.81783  -0.00042   0.00000  -0.09811  -0.09806  -2.91589
   D35        2.66197  -0.00304   0.00000  -0.16261  -0.16266   2.49931
   D36        0.49375  -0.00253   0.00000  -0.17830  -0.17869   0.31506
         Item               Value     Threshold  Converged?
 Maximum Force            0.010142     0.000450     NO 
 RMS     Force            0.003584     0.000300     NO 
 Maximum Displacement     0.225013     0.001800     NO 
 RMS     Displacement     0.049019     0.001200     NO 
 Predicted change in Energy=-4.458565D-03
 GradGradGradGradGradGradGradGradGradGradGradGradGradGradGradGradGradGrad

                          Input orientation:                          
 ---------------------------------------------------------------------
 Center     Atomic      Atomic             Coordinates (Angstroms)
 Number     Number       Type             X           Y           Z
 ---------------------------------------------------------------------
      1          7           0       -2.262463   -1.290141   -0.443677
      2          6           0       -1.003017   -0.786733   -0.178568
      3          6           0        0.104683   -1.624086    0.029611
      4          6           0        1.363401   -1.099026    0.286976
      5          6           0        1.513962    0.288399    0.323390
      6          7           0        2.811384    0.852701    0.608425
      7          8           0        3.752884    0.084926    0.857259
      8          8           0        2.938676    2.086271    0.593708
      9          6           0        0.436882    1.151298    0.076247
     10          6           0       -0.816324    0.627299   -0.211287
     11          7           0       -1.937230    1.437251   -0.430811
     12          1           0       -2.396625   -2.261113   -0.191072
     13          1           0       -3.020592   -0.713395   -0.095419
     14          1           0       -0.037524   -2.700419    0.013448
     15          1           0        2.212962   -1.743948    0.466652
     16          1           0        0.595295    2.222629    0.091454
     17          1           0       -2.552803    1.068938   -1.149745
     18          1           0       -1.703549    2.399149   -0.646590
 ---------------------------------------------------------------------
                    Distance matrix (angstroms):
                    1          2          3          4          5
     1  N    0.000000
     2  C    1.381994   0.000000
     3  C    2.436986   1.404100   0.000000
     4  C    3.703684   2.431912   1.387912   0.000000
     5  C    4.164321   2.782635   2.393736   1.396045   0.000000
     6  N    5.607372   4.225726   3.714261   2.451372   1.443256
     7  O    6.306159   4.944828   4.112797   2.727011   2.310669
     8  O    6.287143   4.938370   4.702815   3.566747   2.309810
     9  C    3.676603   2.427799   2.795584   2.442704   1.402062
    10  C    2.412862   1.426679   2.444386   2.824831   2.414739
    11  N    2.746745   2.425383   3.708528   4.223989   3.714755
    12  H    1.012222   2.028816   2.590569   3.964439   4.696528
    13  H    1.014238   2.020618   3.257657   4.417503   4.662743
    14  H    2.673612   2.152032   1.085807   2.145197   3.381746
    15  H    4.589561   3.416883   2.156436   1.081648   2.153964
    16  H    4.559902   3.418154   3.878369   3.414909   2.153831
    17  H    2.479533   2.605482   3.963015   4.701159   4.395219
    18  H    3.736900   3.295396   4.462440   4.744993   3.968438
                    6          7          8          9         10
     6  N    0.000000
     7  O    1.240088   0.000000
     8  O    1.240207   2.176643   0.000000
     9  C    2.451660   3.569734   2.720462   0.000000
    10  C    3.725990   4.723730   4.108118   1.388444   0.000000
    11  N    4.896024   5.988765   5.024472   2.444439   1.400229
    12  H    6.120327   6.664785   6.926836   4.443509   3.292520
    13  H    6.079474   6.886573   6.620112   3.932006   2.582573
    14  H    4.592923   4.778844   5.666292   3.881331   3.425018
    15  H    2.668482   2.422543   3.900433   3.418966   3.906276
    16  H    2.656127   3.889293   2.400476   1.083086   2.151603
    17  H    5.649109   6.690145   5.850721   3.232345   2.022649
    18  H    4.934692   6.114724   4.815234   2.580904   2.028819
                   11         12         13         14         15
    11  N    0.000000
    12  H    3.734490   0.000000
    13  H    2.431345   1.671501   0.000000
    14  H    4.574556   2.408356   3.585918   0.000000
    15  H    5.305616   4.684907   5.363585   2.486949   0.000000
    16  H    2.702455   5.397717   4.661523   4.964166   4.300157
    17  H    1.015603   3.468816   2.123003   4.678429   5.765205
    18  H    1.013122   4.733486   3.424372   5.405264   5.808926
                   16         17         18
    16  H    0.000000
    17  H    3.575206   0.000000
    18  H    2.420858   1.656460   0.000000
 Stoichiometry    C6H7N3O2
 Framework group  C1[X(C6H7N3O2)]
 Deg. of freedom    48
 Full point group                 C1      NOp   1
 Largest Abelian subgroup         C1      NOp   1
 Largest concise Abelian subgroup C1      NOp   1
                         Standard orientation:                         
 ---------------------------------------------------------------------
 Center     Atomic      Atomic             Coordinates (Angstroms)
 Number     Number       Type             X           Y           Z
 ---------------------------------------------------------------------
      1          7           0       -3.162593   -0.746654    0.002940
      2          6           0       -1.793515   -0.558236    0.008631
      3          6           0       -0.893742   -1.634333   -0.053996
      4          6           0        0.478151   -1.424078   -0.054977
      5          6           0        0.953117   -0.112271   -0.004853
      6          7           0        2.376564    0.125267    0.014201
      7          8           0        3.142669   -0.849759    0.029252
      8          8           0        2.783145    1.296934    0.014205
      9          6           0        0.080617    0.985073    0.014035
     10          6           0       -1.291844    0.777111   -0.015580
     11          7           0       -2.212867    1.830440    0.037879
     12          1           0       -3.466514   -1.681210    0.245493
     13          1           0       -3.678967   -0.046989    0.524961
     14          1           0       -1.283949   -2.647371   -0.075634
     15          1           0        1.171628   -2.253676   -0.083567
     16          1           0        0.484880    1.989740    0.031095
     17          1           0       -3.029019    1.668038   -0.544333
     18          1           0       -1.808998    2.731109   -0.190375
 ---------------------------------------------------------------------
 Rotational constants (GHZ):           2.4931584           0.7292182           0.5651999
 Standard basis: 6-31G(d,p) (6D, 7F)
 There are   200 symmetry adapted cartesian basis functions of A   symmetry.
 There are   200 symmetry adapted basis functions of A   symmetry.
   200 basis functions,   357 primitive gaussians,   200 cartesian basis functions
    40 alpha electrons       40 beta electrons
       nuclear repulsion energy       591.5595864821 Hartrees.
 NAtoms=   18 NActive=   18 NUniq=   18 SFac= 1.00D+00 NAtFMM=   60 NAOKFM=F Big=F
 Integral buffers will be    131072 words long.
 Raffenetti 2 integral format.
 Two-electron integral symmetry is turned on.
 ------------------------------------------------------------------------------
 Polarizable Continuum Model (PCM)
 =================================
 Model                : PCM.
 Atomic radii         : UFF (Universal Force Field).
 Polarization charges : Total charges.
 Charge compensation  : None.
 Solution method      : Matrix inversion.
 Cavity type          : Scaled VdW (van der Waals Surface) (Alpha=1.100).
 Cavity algorithm     : GePol (No added spheres)
                        Default sphere list used, NSphG=   18.
                        Lebedev-Laikov grids with approx.  5.0 points / Ang**2.
                        Smoothing algorithm: York/Karplus (Gamma=1.0000).
                        Polarization charges: spherical gaussians, with
                                              point-specific exponents (IZeta= 3).
                        Self-potential: point-specific (ISelfS= 7).
                        Self-field    : sphere-specific E.n sum rule (ISelfD= 2).
 1st derivatives      : Analytical E(r).r(x)/FMM algorithm (CHGder, D1EAlg=3).
                        Cavity 1st derivative terms included.
 Solvent              : Water, Eps=  78.355300 Eps(inf)=   1.777849
 ------------------------------------------------------------------------------
 Spheres list:
 ISph  on   Nord     Re0    Alpha      Xe            Ye            Ze
    1   N      1    1.8300  1.100     -3.162593     -0.746654      0.002940
    2   C      2    1.9255  1.100     -1.793515     -0.558236      0.008631
    3   C      3    1.9255  1.100     -0.893742     -1.634333     -0.053996
    4   C      4    1.9255  1.100      0.478151     -1.424078     -0.054977
    5   C      5    1.9255  1.100      0.953117     -0.112271     -0.004853
    6   N      6    1.8300  1.100      2.376564      0.125267      0.014201
    7   O      7    1.7500  1.100      3.142669     -0.849759      0.029252
    8   O      8    1.7500  1.100      2.783145      1.296934      0.014205
    9   C      9    1.9255  1.100      0.080617      0.985073      0.014035
   10   C     10    1.9255  1.100     -1.291844      0.777111     -0.015580
   11   N     11    1.8300  1.100     -2.212867      1.830440      0.037879
   12   H     12    1.4430  1.100     -3.466514     -1.681210      0.245493
   13   H     13    1.4430  1.100     -3.678967     -0.046989      0.524961
   14   H     14    1.4430  1.100     -1.283949     -2.647371     -0.075634
   15   H     15    1.4430  1.100      1.171628     -2.253676     -0.083567
   16   H     16    1.4430  1.100      0.484880      1.989740      0.031095
   17   H     17    1.4430  1.100     -3.029019      1.668038     -0.544333
   18   H     18    1.4430  1.100     -1.808998      2.731109     -0.190375
 ------------------------------------------------------------------------------
 One-electron integrals computed using PRISM.
 NBasis=   200 RedAO= T EigKep=  3.63D-04  NBF=   200
 NBsUse=   200 1.00D-06 EigRej= -1.00D+00 NBFU=   200
 Initial guess from the checkpoint file:  "RAUWPNXIALNKQM-UHFFFAOYSA-N_conf_1_0.chk"
 B after Tr=     0.000000    0.000000    0.000000
         Rot=    0.999996   -0.000176    0.000126   -0.002906 Ang=  -0.33 deg.
 ExpMin= 1.61D-01 ExpMax= 5.48D+03 ExpMxC= 8.25D+02 IAcc=2 IRadAn=         4 AccDes= 0.00D+00
 Harris functional with IExCor=  402 and IRadAn=       4 diagonalized for initial guess.
 HarFok:  IExCor=  402 AccDes= 0.00D+00 IRadAn=         4 IDoV= 1 UseB2=F ITyADJ=14
 ICtDFT=  3500011 ScaDFX=  1.000000  1.000000  1.000000  1.000000
 FoFCou: FMM=F IPFlag=           0 FMFlag=      100000 FMFlg1=           0
         NFxFlg=           0 DoJE=T BraDBF=F KetDBF=T FulRan=T
         wScrn=  0.000000 ICntrl=       500 IOpCl=  0 I1Cent=   200000004 NGrid=           0
         NMat0=    1 NMatS0=      1 NMatT0=    0 NMatD0=    1 NMtDS0=    0 NMtDT0=    0
 Petite list used in FoFCou.
 Keep R1 ints in memory in canonical form, NReq=206076500.
 Requested convergence on RMS density matrix=1.00D-08 within  32 cycles.
 Requested convergence on MAX density matrix=1.00D-06.
 Requested convergence on             energy=1.00D-06.
 No special actions if energy rises.
 Inv3:  Mode=1 IEnd=     7263408.
 Iteration    1 A*A^-1 deviation from unit magnitude is 7.55D-15 for    697.
 Iteration    1 A*A^-1 deviation from orthogonality  is 3.83D-15 for   1486   1166.
 Iteration    1 A^-1*A deviation from unit magnitude is 7.55D-15 for    697.
 Iteration    1 A^-1*A deviation from orthogonality  is 3.10D-15 for    860    707.
 Error on total polarization charges =  0.00537
 SCF Done:  E(RB3LYP) =  -547.495057853     A.U. after   12 cycles
            NFock= 12  Conv=0.68D-08     -V/T= 2.0091
 QCSCF skips out because SCF is already converged.
 D1PCM: PCM CHGder 1st derivatives, ID1Alg=3 FixD1E=F DoIter=F DoCFld=F I1PDM=0.
 Calling FoFJK, ICntrl=      2127 FMM=F ISym2X=0 I1Cent= 0 IOpClX= 0 NMat=1 NMatS=1 NMatT=0.
 ***** Axes restored to original set *****
 -------------------------------------------------------------------
 Center     Atomic                   Forces (Hartrees/Bohr)
 Number     Number              X              Y              Z
 -------------------------------------------------------------------
      1        7          -0.001346648    0.000325449    0.002700078
      2        6           0.001733538   -0.000287388   -0.003728543
      3        6           0.000440637   -0.000057872    0.001557158
      4        6          -0.000157364   -0.000566423   -0.000137218
      5        6          -0.000348312    0.000059628    0.000266832
      6        7           0.000153171    0.000082691    0.000091728
      7        8           0.000284991   -0.000161516   -0.000205456
      8        8           0.000018600    0.000240127    0.000276169
      9        6           0.000627931    0.000002854   -0.002028938
     10        6          -0.000287416    0.000910072    0.003928927
     11        7          -0.000791628   -0.001159980   -0.001314569
     12        1           0.000035413   -0.000544702   -0.001097381
     13        1          -0.000720822   -0.000448856   -0.000457362
     14        1          -0.000155483    0.000031964    0.000205754
     15        1           0.000161885    0.000177210    0.000051116
     16        1           0.000163477   -0.000094294   -0.000319445
     17        1           0.000229858    0.001111950   -0.000640494
     18        1          -0.000041828    0.000379085    0.000851644
 -------------------------------------------------------------------
 Cartesian Forces:  Max     0.003928927 RMS     0.001049969

 GradGradGradGradGradGradGradGradGradGradGradGradGradGradGradGradGradGrad
 Berny optimization.
 Using GEDIIS/GDIIS optimizer.
 FormGI is forming the generalized inverse of G from B-inverse, IUseBI=4.
 Internal  Forces:  Max     0.001873645 RMS     0.000525055
 Search for a local minimum.
 Step number   2 out of a maximum of   91
 All quantities printed in internal units (Hartrees-Bohrs-Radians)
 Mixed Optimization -- En-DIIS/RFO-DIIS
 Update second derivatives using D2CorX and points    1    2
 DE= -4.41D-03 DEPred=-4.46D-03 R= 9.89D-01
 TightC=F SS=  1.41D+00  RLast= 4.34D-01 DXNew= 5.0454D-01 1.3005D+00
 Trust test= 9.89D-01 RLast= 4.34D-01 DXMaxT set to 5.05D-01
 ITU=  1  0
 Use linear search instead of GDIIS.
     Eigenvalues ---    0.00394   0.00437   0.00835   0.01571   0.01669
     Eigenvalues ---    0.01744   0.01945   0.02051   0.02228   0.02340
     Eigenvalues ---    0.02590   0.02697   0.02864   0.03414   0.10818
     Eigenvalues ---    0.11186   0.11517   0.12023   0.13735   0.14187
     Eigenvalues ---    0.15807   0.16215   0.16773   0.17843   0.19258
     Eigenvalues ---    0.21685   0.22648   0.22934   0.23886   0.32163
     Eigenvalues ---    0.34656   0.35469   0.35912   0.36565   0.37128
     Eigenvalues ---    0.38074   0.39761   0.43302   0.44299   0.44544
     Eigenvalues ---    0.45267   0.45565   0.45742   0.46614   0.47212
     Eigenvalues ---    0.51219   0.56413   0.72557
 RFO step:  Lambda=-6.21667823D-04 EMin= 3.94057282D-03
 Quartic linear search produced a step of  0.19750.
 Iteration  1 RMS(Cart)=  0.04417756 RMS(Int)=  0.00247853
 Iteration  2 RMS(Cart)=  0.00251767 RMS(Int)=  0.00033912
 Iteration  3 RMS(Cart)=  0.00000953 RMS(Int)=  0.00033904
 Iteration  4 RMS(Cart)=  0.00000000 RMS(Int)=  0.00033904
 Variable       Old X    -DE/DX   Delta X   Delta X   Delta X     New X
                                 (Linear)    (Quad)   (Total)
    R1        2.61159   0.00187  -0.01114   0.00587  -0.00527   2.60632
    R2        1.91282   0.00025  -0.00132  -0.00001  -0.00133   1.91149
    R3        1.91663   0.00012  -0.00182   0.00069  -0.00113   1.91550
    R4        2.65337   0.00067   0.00228  -0.00090   0.00138   2.65474
    R5        2.69603   0.00120   0.00490  -0.00202   0.00284   2.69887
    R6        2.62277  -0.00008  -0.00308   0.00280  -0.00024   2.62254
    R7        2.05188  -0.00001  -0.00044   0.00037  -0.00007   2.05180
    R8        2.63814   0.00014  -0.00162   0.00229   0.00073   2.63887
    R9        2.04402   0.00003  -0.00235   0.00254   0.00018   2.04420
   R10        2.72736   0.00051  -0.00897   0.00953   0.00056   2.72792
   R11        2.64951   0.00008   0.00046   0.00142   0.00188   2.65139
   R12        2.34343   0.00027   0.00024   0.00060   0.00084   2.34427
   R13        2.34365   0.00024   0.00030   0.00052   0.00082   2.34447
   R14        2.62378   0.00039  -0.00296   0.00055  -0.00246   2.62132
   R15        2.04674  -0.00007  -0.00146   0.00139  -0.00007   2.04666
   R16        2.64605   0.00085  -0.00462   0.00626   0.00164   2.64769
   R17        1.91921  -0.00009  -0.00138   0.00266   0.00128   1.92049
   R18        1.91452   0.00017  -0.00111   0.00124   0.00013   1.91465
    A1        2.00682   0.00035   0.00765   0.00777   0.01426   2.02107
    A2        1.99127   0.00158   0.01478   0.00074   0.01434   2.00562
    A3        1.93983  -0.00034   0.00129   0.02261   0.02225   1.96207
    A4        2.12958  -0.00042   0.00686  -0.00218   0.00443   2.13401
    A5        2.06677   0.00074  -0.00437   0.00125  -0.00342   2.06335
    A6        2.08431  -0.00027  -0.00056   0.00185   0.00066   2.08498
    A7        2.11455   0.00029   0.00290  -0.00365  -0.00090   2.11366
    A8        2.07788  -0.00026  -0.00442   0.00409  -0.00025   2.07763
    A9        2.09041  -0.00003   0.00152  -0.00037   0.00121   2.09163
   A10        2.06988  -0.00003  -0.00277   0.00434   0.00148   2.07136
   A11        2.11479   0.00027   0.00693  -0.00514   0.00183   2.11662
   A12        2.09846  -0.00024  -0.00416   0.00075  -0.00337   2.09509
   A13        2.08367  -0.00011  -0.00088   0.00063  -0.00019   2.08348
   A14        2.12257   0.00009   0.00288  -0.00310  -0.00036   2.12221
   A15        2.07689   0.00002  -0.00200   0.00242   0.00049   2.07738
   A16        2.07152   0.00000   0.00337  -0.00291   0.00046   2.07197
   A17        2.07011   0.00006   0.00280  -0.00252   0.00028   2.07039
   A18        2.14156  -0.00006  -0.00617   0.00543  -0.00074   2.14082
   A19        2.09165   0.00030   0.00109  -0.00084   0.00001   2.09165
   A20        2.08741  -0.00025  -0.00425   0.00250  -0.00164   2.08577
   A21        2.10392  -0.00005   0.00317  -0.00153   0.00175   2.10567
   A22        2.07993  -0.00032  -0.00137   0.00365   0.00168   2.08161
   A23        2.06253   0.00066  -0.00505  -0.00461  -0.00985   2.05268
   A24        2.13733  -0.00028   0.00822   0.00194   0.01002   2.14735
   A25        1.96753   0.00098   0.01000  -0.00553   0.00441   1.97194
   A26        1.98007  -0.00014   0.00153  -0.00186  -0.00039   1.97968
   A27        1.91065  -0.00042  -0.00445   0.00850   0.00395   1.91460
    D1        0.32474  -0.00148  -0.03327  -0.02267  -0.05652   0.26822
    D2       -2.89359  -0.00077  -0.01518  -0.00847  -0.02413  -2.91771
    D3        2.59558  -0.00008  -0.01235   0.01898   0.00710   2.60268
    D4       -0.62275   0.00063   0.00574   0.03318   0.03949  -0.58325
    D5        3.13498   0.00020   0.00464  -0.00692  -0.00184   3.13314
    D6       -0.03477   0.00024   0.00442  -0.00382   0.00092  -0.03385
    D7        0.07087  -0.00056  -0.01327  -0.02123  -0.03445   0.03642
    D8       -3.09888  -0.00052  -0.01349  -0.01814  -0.03169  -3.13057
    D9        3.12155   0.00015   0.00178   0.01910   0.02107  -3.14056
   D10        0.06630  -0.00051  -0.01457   0.00659  -0.00729   0.05901
   D11       -0.09474   0.00083   0.02012   0.03274   0.05271  -0.04203
   D12        3.13320   0.00017   0.00377   0.02023   0.02434  -3.12564
   D13       -0.01043   0.00011   0.00213   0.00513   0.00730  -0.00313
   D14        3.12034   0.00009   0.00182   0.00021   0.00203   3.12237
   D15       -3.12367   0.00007   0.00245   0.00194   0.00455  -3.11912
   D16        0.00710   0.00006   0.00214  -0.00298  -0.00073   0.00638
   D17        3.12627   0.00007   0.00217   0.00466   0.00688   3.13315
   D18       -0.02668   0.00007   0.00226  -0.00068   0.00158  -0.02509
   D19       -0.00461   0.00009   0.00241   0.00957   0.01205   0.00745
   D20        3.12563   0.00009   0.00250   0.00423   0.00676   3.13239
   D21       -0.04039   0.00028   0.00748   0.04649   0.05395   0.01356
   D22        3.10062   0.00028   0.00771   0.04662   0.05430  -3.12827
   D23        3.11226   0.00028   0.00736   0.05173   0.05912  -3.11181
   D24       -0.02992   0.00028   0.00759   0.05186   0.05947   0.02955
   D25        0.00155   0.00018   0.00447   0.01297   0.01750   0.01905
   D26       -3.11818   0.00011   0.00370   0.00597   0.00987  -3.10831
   D27        3.13183   0.00018   0.00457   0.00764   0.01222  -3.13913
   D28        0.01210   0.00012   0.00380   0.00063   0.00459   0.01669
   D29        0.05913  -0.00062  -0.01556  -0.02878  -0.04429   0.01485
   D30        3.11051   0.00011   0.00017  -0.01604  -0.01536   3.09515
   D31       -3.10453  -0.00056  -0.01490  -0.02166  -0.03661  -3.14114
   D32       -0.05316   0.00018   0.00083  -0.00892  -0.00768  -0.06084
   D33       -0.73165  -0.00050  -0.01620  -0.10873  -0.12485  -0.85650
   D34       -2.91589  -0.00062  -0.01937  -0.11422  -0.13359  -3.04948
   D35        2.49931  -0.00118  -0.03213  -0.12175  -0.15388   2.34543
   D36        0.31506  -0.00130  -0.03529  -0.12725  -0.16262   0.15244
         Item               Value     Threshold  Converged?
 Maximum Force            0.001874     0.000450     NO 
 RMS     Force            0.000525     0.000300     NO 
 Maximum Displacement     0.248083     0.001800     NO 
 RMS     Displacement     0.044296     0.001200     NO 
 Predicted change in Energy=-4.804847D-04
 GradGradGradGradGradGradGradGradGradGradGradGradGradGradGradGradGradGrad

                          Input orientation:                          
 ---------------------------------------------------------------------
 Center     Atomic      Atomic             Coordinates (Angstroms)
 Number     Number       Type             X           Y           Z
 ---------------------------------------------------------------------
      1          7           0       -2.259714   -1.294393   -0.444765
      2          6           0       -1.001594   -0.794345   -0.181529
      3          6           0        0.103050   -1.629413    0.055047
      4          6           0        1.360784   -1.100104    0.307814
      5          6           0        1.513727    0.287873    0.319801
      6          7           0        2.813220    0.854731    0.591523
      7          8           0        3.767384    0.088206    0.793841
      8          8           0        2.930298    2.089650    0.612937
      9          6           0        0.437708    1.148262    0.054326
     10          6           0       -0.818995    0.621904   -0.206081
     11          7           0       -1.950281    1.418756   -0.425825
     12          1           0       -2.400282   -2.271371   -0.223574
     13          1           0       -3.025871   -0.711903   -0.126681
     14          1           0       -0.041630   -2.705476    0.061963
     15          1           0        2.209610   -1.740184    0.507726
     16          1           0        0.601241    2.218820    0.041978
     17          1           0       -2.501675    1.113800   -1.223191
     18          1           0       -1.736980    2.405189   -0.515310
 ---------------------------------------------------------------------
                    Distance matrix (angstroms):
                    1          2          3          4          5
     1  N    0.000000
     2  C    1.379206   0.000000
     3  C    2.438177   1.404829   0.000000
     4  C    3.702989   2.431825   1.387787   0.000000
     5  C    4.162570   2.783768   2.395014   1.396430   0.000000
     6  N    5.606005   4.227276   3.715346   2.451824   1.443552
     7  O    6.306476   4.947059   4.113803   2.727641   2.311612
     8  O    6.285436   4.940483   4.704891   3.568054   2.310628
     9  C    3.673110   2.429185   2.797762   2.443660   1.403055
    10  C    2.409322   1.428183   2.446790   2.825037   2.414482
    11  N    2.730803   2.420229   3.706581   4.224457   3.719437
    12  H    1.011518   2.034626   2.599310   3.974903   4.707914
    13  H    1.013641   2.026697   3.265730   4.425181   4.669780
    14  H    2.677279   2.152496   1.085768   2.145793   3.383158
    15  H    4.591386   3.417822   2.157494   1.081745   2.152344
    16  H    4.556824   3.420263   3.880369   3.415089   2.153688
    17  H    2.542418   2.641273   3.992957   4.707860   4.380233
    18  H    3.736995   3.299882   4.470909   4.749816   3.968317
                    6          7          8          9         10
     6  N    0.000000
     7  O    1.240533   0.000000
     8  O    1.240641   2.176975   0.000000
     9  C    2.453120   3.571742   2.722363   0.000000
    10  C    3.726039   4.724357   4.108803   1.387143   0.000000
    11  N    4.903475   5.995802   5.034797   2.450756   1.401096
    12  H    6.133311   6.681530   6.937819   4.452561   3.297243
    13  H    6.088114   6.901872   6.623570   3.935651   2.579853
    14  H    4.594092   4.780052   5.668259   3.883442   3.427477
    15  H    2.665512   2.418994   3.898473   3.418819   3.906587
    16  H    2.656236   3.889637   2.401496   1.083047   2.151452
    17  H    5.622136   6.664936   5.816355   3.205185   2.026793
    18  H    4.932882   6.113944   4.812067   2.575582   2.029390
                   11         12         13         14         15
    11  N    0.000000
    12  H    3.722962   0.000000
    13  H    2.405429   1.683060   0.000000
    14  H    4.570578   2.415206   3.593830   0.000000
    15  H    5.306140   4.697666   5.373089   2.489693   0.000000
    16  H    2.714629   5.407538   4.666210   4.966123   4.298545
    17  H    1.016280   3.531132   2.193241   4.721262   5.773864
    18  H    1.013190   4.732366   3.395369   5.415381   5.814318
                   16         17         18
    16  H    0.000000
    17  H    3.528429   0.000000
    18  H    2.410930   1.659378   0.000000
 Stoichiometry    C6H7N3O2
 Framework group  C1[X(C6H7N3O2)]
 Deg. of freedom    48
 Full point group                 C1      NOp   1
 Largest Abelian subgroup         C1      NOp   1
 Largest concise Abelian subgroup C1      NOp   1
                         Standard orientation:                         
 ---------------------------------------------------------------------
 Center     Atomic      Atomic             Coordinates (Angstroms)
 Number     Number       Type             X           Y           Z
 ---------------------------------------------------------------------
      1          7           0       -3.160645   -0.744713   -0.007288
      2          6           0       -1.793747   -0.561104    0.002038
      3          6           0       -0.892088   -1.638007   -0.026828
      4          6           0        0.479261   -1.425038   -0.026677
      5          6           0        0.953532   -0.111866   -0.000952
      6          7           0        2.377187    0.126722    0.010189
      7          8           0        3.144988   -0.847237   -0.018232
      8          8           0        2.783189    1.298453    0.047574
      9          6           0        0.079384    0.985589   -0.005499
     10          6           0       -1.291793    0.775876   -0.013233
     11          7           0       -2.224484    1.820239    0.036409
     12          1           0       -3.480614   -1.680312    0.205890
     13          1           0       -3.690345   -0.033686    0.483961
     14          1           0       -1.281438   -2.651564   -0.025445
     15          1           0        1.176053   -2.252464   -0.031096
     16          1           0        0.484316    1.990031   -0.016335
     17          1           0       -2.977946    1.711726   -0.636901
     18          1           0       -1.807142    2.738109   -0.063060
 ---------------------------------------------------------------------
 Rotational constants (GHZ):           2.4954597           0.7285176           0.5648583
 Standard basis: 6-31G(d,p) (6D, 7F)
 There are   200 symmetry adapted cartesian basis functions of A   symmetry.
 There are   200 symmetry adapted basis functions of A   symmetry.
   200 basis functions,   357 primitive gaussians,   200 cartesian basis functions
    40 alpha electrons       40 beta electrons
       nuclear repulsion energy       591.4365748907 Hartrees.
 NAtoms=   18 NActive=   18 NUniq=   18 SFac= 1.00D+00 NAtFMM=   60 NAOKFM=F Big=F
 Integral buffers will be    131072 words long.
 Raffenetti 2 integral format.
 Two-electron integral symmetry is turned on.
 ------------------------------------------------------------------------------
 Polarizable Continuum Model (PCM)
 =================================
 Model                : PCM.
 Atomic radii         : UFF (Universal Force Field).
 Polarization charges : Total charges.
 Charge compensation  : None.
 Solution method      : Matrix inversion.
 Cavity type          : Scaled VdW (van der Waals Surface) (Alpha=1.100).
 Cavity algorithm     : GePol (No added spheres)
                        Default sphere list used, NSphG=   18.
                        Lebedev-Laikov grids with approx.  5.0 points / Ang**2.
                        Smoothing algorithm: York/Karplus (Gamma=1.0000).
                        Polarization charges: spherical gaussians, with
                                              point-specific exponents (IZeta= 3).
                        Self-potential: point-specific (ISelfS= 7).
                        Self-field    : sphere-specific E.n sum rule (ISelfD= 2).
 1st derivatives      : Analytical E(r).r(x)/FMM algorithm (CHGder, D1EAlg=3).
                        Cavity 1st derivative terms included.
 Solvent              : Water, Eps=  78.355300 Eps(inf)=   1.777849
 ------------------------------------------------------------------------------
 Spheres list:
 ISph  on   Nord     Re0    Alpha      Xe            Ye            Ze
    1   N      1    1.8300  1.100     -3.160645     -0.744713     -0.007288
    2   C      2    1.9255  1.100     -1.793747     -0.561104      0.002038
    3   C      3    1.9255  1.100     -0.892088     -1.638007     -0.026828
    4   C      4    1.9255  1.100      0.479261     -1.425038     -0.026677
    5   C      5    1.9255  1.100      0.953532     -0.111866     -0.000952
    6   N      6    1.8300  1.100      2.377187      0.126722      0.010189
    7   O      7    1.7500  1.100      3.144988     -0.847237     -0.018232
    8   O      8    1.7500  1.100      2.783189      1.298453      0.047574
    9   C      9    1.9255  1.100      0.079384      0.985589     -0.005499
   10   C     10    1.9255  1.100     -1.291793      0.775876     -0.013233
   11   N     11    1.8300  1.100     -2.224484      1.820239      0.036409
   12   H     12    1.4430  1.100     -3.480614     -1.680312      0.205890
   13   H     13    1.4430  1.100     -3.690345     -0.033686      0.483961
   14   H     14    1.4430  1.100     -1.281438     -2.651564     -0.025445
   15   H     15    1.4430  1.100      1.176053     -2.252464     -0.031096
[...]
    13  H   -0.000000   0.000000  -0.000104  -0.016626   0.010943  -0.024583
    14  H    0.000002   0.000001   0.000771   0.004665  -0.000096   0.004566
    15  H    0.021720   0.000271   0.005487   0.000406   0.000005  -0.000007
    16  H    0.000296   0.023772   0.351103  -0.034361  -0.006845   0.000003
    17  H   -0.000000  -0.000000   0.004444  -0.024803   0.334570  -0.000118
    18  H    0.000000  -0.000006  -0.005680  -0.026558   0.343883   0.000001
              13         14         15         16         17         18
     1  N    0.341891  -0.007604  -0.000089  -0.000082   0.008435   0.000085
     2  C   -0.023583  -0.036814   0.003645   0.004392  -0.011890   0.005226
     3  C    0.005064   0.366083  -0.030198   0.000009  -0.000181  -0.000088
     4  C   -0.000134  -0.030090   0.358593   0.005301   0.000016  -0.000012
     5  C    0.000004   0.003088  -0.035763  -0.025507  -0.000051   0.000105
     6  N   -0.000000  -0.000086  -0.011088  -0.011294   0.000000  -0.000003
     7  O   -0.000000   0.000002   0.021720   0.000296  -0.000000   0.000000
     8  O    0.000000   0.000001   0.000271   0.023772  -0.000000  -0.000006
     9  C   -0.000104   0.000771   0.005487   0.351103   0.004444  -0.005680
    10  C   -0.016626   0.004665   0.000406  -0.034361  -0.024803  -0.026558
    11  N    0.010943  -0.000096   0.000005  -0.006845   0.334570   0.343883
    12  H   -0.024583   0.004566  -0.000007   0.000003  -0.000118   0.000001
    13  H    0.407347  -0.000056   0.000002  -0.000006  -0.002720  -0.000114
    14  H   -0.000056   0.578711  -0.005137   0.000013  -0.000003   0.000003
    15  H    0.000002  -0.005137   0.566609  -0.000146  -0.000000  -0.000000
    16  H   -0.000006   0.000013  -0.000146   0.546382  -0.000001   0.004109
    17  H   -0.002720  -0.000003  -0.000000  -0.000001   0.384735  -0.022412
    18  H   -0.000114   0.000003  -0.000000   0.004109  -0.022412   0.373420
 Mulliken charges:
               1
     1  N   -0.658267
     2  C    0.297295
     3  C   -0.131147
     4  C   -0.120983
     5  C    0.269743
     6  N    0.288648
     7  O   -0.569963
     8  O   -0.571336
     9  C   -0.118105
    10  C    0.253222
    11  N   -0.596066
    12  H    0.305731
    13  H    0.302675
    14  H    0.121984
    15  H    0.125689
    16  H    0.142861
    17  H    0.329977
    18  H    0.328041
 Sum of Mulliken charges =  -0.00000
 Mulliken charges with hydrogens summed into heavy atoms:
               1
     1  N   -0.049861
     2  C    0.297295
     3  C   -0.009162
     4  C    0.004706
     5  C    0.269743
     6  N    0.288648
     7  O   -0.569963
     8  O   -0.571336
     9  C    0.024756
    10  C    0.253222
    11  N    0.061952
 Electronic spatial extent (au):  <R**2>=           1864.4976
 Charge=              0.0000 electrons
 Dipole moment (field-independent basis, Debye):
    X=            -17.1428    Y=              1.4009    Z=             -0.1882  Tot=             17.2010
 Quadrupole moment (field-independent basis, Debye-Ang):
   XX=            -71.2946   YY=            -50.0257   ZZ=            -63.7377
   XY=             -5.3699   XZ=             -0.7086   YZ=             -3.2732
 Traceless Quadrupole moment (field-independent basis, Debye-Ang):
   XX=             -9.6086   YY=             11.6603   ZZ=             -2.0517
   XY=             -5.3699   XZ=             -0.7086   YZ=             -3.2732
 Octapole moment (field-independent basis, Debye-Ang**2):
  XXX=           -184.7180  YYY=             15.7515  ZZZ=             -0.2101  XYY=            -45.8359
  XXY=              0.4343  XXZ=              4.7479  XZZ=              3.3541  YZZ=              4.4084
  YYZ=             -3.9286  XYZ=              8.7974
 Hexadecapole moment (field-independent basis, Debye-Ang**3):
 XXXX=          -1691.7628 YYYY=           -447.6969 ZZZZ=            -61.0160 XXXY=             -1.8270
 XXXZ=            -28.7362 YYYX=            -35.8147 YYYZ=            -12.4438 ZZZX=              0.7039
 ZZZY=             -3.1846 XXYY=           -335.0038 XXZZ=           -283.2237 YYZZ=           -110.0582
 XXYZ=            -31.8746 YYXZ=              8.9397 ZZXY=             -5.0767
 N-N= 5.913254213090D+02 E-N=-2.460602704639D+03  KE= 5.427383488294D+02
 Evaluate density.
 Using the total density.
 Monte-Carlo method of calculating molar volume:
 based on  0.001 e/bohr**3 density envelope.
 Number of points per bohr**3 =   20 CutOff= 1.00D-04
 Using the CI density.
 There are       351 points.  Will hold       351 in memory.
 LenV=   805194564 MDV=   805306368.
 Box volume = 5423.532 fraction occupied=0.177
 Integrated density= 5.2841990108535924D+01 error=-2.7158009891464076D+01
 Molar volume =  958.003 bohr**3/mol ( 85.491 cm**3/mol)
 Recommended a0 for SCRF calculation =  4.06 angstrom (  7.68 bohr)
 ******************************Gaussian NBO Version 3.1******************************
             N A T U R A L   A T O M I C   O R B I T A L   A N D
          N A T U R A L   B O N D   O R B I T A L   A N A L Y S I S
 ******************************Gaussian NBO Version 3.1******************************
       /RESON  / : Allow strongly delocalized NBO set

 Analyzing the CI density

 Job title: RAUWPNXIALNKQM-UHFFFAOYSA-N_conf_1                              

 Storage needed:    121190 in NPA ( 805304604 available)
 GSVD:  LWork=       24166 too small for GESVD, short by        6719 words or        6719 for optimal perf.


 NATURAL POPULATIONS:  Natural atomic orbital occupancies 
                                                          
   NAO  Atom  No  lang   Type(AO)    Occupancy
 --------------------------------------------
     1    N    1  S      Cor( 1S)     1.99948
     2    N    1  S      Val( 2S)     1.34760
     3    N    1  S      Ryd( 3S)     0.00018
     4    N    1  S      Ryd( 4S)     0.00001
     5    N    1  px     Val( 2p)     1.32586
     6    N    1  px     Ryd( 3p)     0.00282
     7    N    1  py     Val( 2p)     1.43761
     8    N    1  py     Ryd( 3p)     0.00196
     9    N    1  pz     Val( 2p)     1.67628
    10    N    1  pz     Ryd( 3p)     0.00408
    11    N    1  dxy    Ryd( 3d)     0.00031
    12    N    1  dxz    Ryd( 3d)     0.00089
    13    N    1  dyz    Ryd( 3d)     0.00063
    14    N    1  dx2y2  Ryd( 3d)     0.00053
    15    N    1  dz2    Ryd( 3d)     0.00065

    16    C    2  S      Cor( 1S)     1.99898
    17    C    2  S      Val( 2S)     0.84203
    18    C    2  S      Ryd( 3S)     0.00122
    19    C    2  S      Ryd( 4S)     0.00009
    20    C    2  px     Val( 2p)     0.91989
    21    C    2  px     Ryd( 3p)     0.00608
    22    C    2  py     Val( 2p)     1.07442
    23    C    2  py     Ryd( 3p)     0.00433
    24    C    2  pz     Val( 2p)     0.99704
    25    C    2  pz     Ryd( 3p)     0.00142
    26    C    2  dxy    Ryd( 3d)     0.00084
    27    C    2  dxz    Ryd( 3d)     0.00169
    28    C    2  dyz    Ryd( 3d)     0.00051
    29    C    2  dx2y2  Ryd( 3d)     0.00114
    30    C    2  dz2    Ryd( 3d)     0.00041

    31    C    3  S      Cor( 1S)     1.99907
    32    C    3  S      Val( 2S)     0.95599
    33    C    3  S      Ryd( 3S)     0.00073
    34    C    3  S      Ryd( 4S)     0.00005
    35    C    3  px     Val( 2p)     1.08013
    36    C    3  px     Ryd( 3p)     0.00452
    37    C    3  py     Val( 2p)     1.17799
    38    C    3  py     Ryd( 3p)     0.00460
    39    C    3  pz     Val( 2p)     1.04763
    40    C    3  pz     Ryd( 3p)     0.00075
    41    C    3  dxy    Ryd( 3d)     0.00073
    42    C    3  dxz    Ryd( 3d)     0.00057
    43    C    3  dyz    Ryd( 3d)     0.00039
    44    C    3  dx2y2  Ryd( 3d)     0.00052
    45    C    3  dz2    Ryd( 3d)     0.00038

    46    C    4  S      Cor( 1S)     1.99903
    47    C    4  S      Val( 2S)     0.96206
    48    C    4  S      Ryd( 3S)     0.00068
    49    C    4  S      Ryd( 4S)     0.00004
    50    C    4  px     Val( 2p)     1.12496
    51    C    4  px     Ryd( 3p)     0.00571
    52    C    4  py     Val( 2p)     1.14827
    53    C    4  py     Ryd( 3p)     0.00496
    54    C    4  pz     Val( 2p)     0.97997
    55    C    4  pz     Ryd( 3p)     0.00218
    56    C    4  dxy    Ryd( 3d)     0.00065
    57    C    4  dxz    Ryd( 3d)     0.00056
    58    C    4  dyz    Ryd( 3d)     0.00046
    59    C    4  dx2y2  Ryd( 3d)     0.00062
    60    C    4  dz2    Ryd( 3d)     0.00037

    61    C    5  S      Cor( 1S)     1.99884
    62    C    5  S      Val( 2S)     0.87488
    63    C    5  S      Ryd( 3S)     0.00104
    64    C    5  S      Ryd( 4S)     0.00007
    65    C    5  px     Val( 2p)     0.90563
    66    C    5  px     Ryd( 3p)     0.00586
    67    C    5  py     Val( 2p)     1.08550
    68    C    5  py     Ryd( 3p)     0.00829
    69    C    5  pz     Val( 2p)     1.03892
    70    C    5  pz     Ryd( 3p)     0.00101
    71    C    5  dxy    Ryd( 3d)     0.00076
    72    C    5  dxz    Ryd( 3d)     0.00110
    73    C    5  dyz    Ryd( 3d)     0.00066
    74    C    5  dx2y2  Ryd( 3d)     0.00128
    75    C    5  dz2    Ryd( 3d)     0.00042

    76    N    6  S      Cor( 1S)     1.99953
    77    N    6  S      Val( 2S)     1.05949
    78    N    6  S      Ryd( 3S)     0.00394
    79    N    6  S      Ryd( 4S)     0.00042
    80    N    6  px     Val( 2p)     1.14932
    81    N    6  px     Ryd( 3p)     0.01093
    82    N    6  py     Val( 2p)     0.97968
    83    N    6  py     Ryd( 3p)     0.01647
    84    N    6  pz     Val( 2p)     1.36887
    85    N    6  pz     Ryd( 3p)     0.00212
    86    N    6  dxy    Ryd( 3d)     0.00351
    87    N    6  dxz    Ryd( 3d)     0.00141
    88    N    6  dyz    Ryd( 3d)     0.00463
    89    N    6  dx2y2  Ryd( 3d)     0.00438
    90    N    6  dz2    Ryd( 3d)     0.00046

    91    O    7  S      Cor( 1S)     1.99984
    92    O    7  S      Val( 2S)     1.74544
    93    O    7  S      Ryd( 3S)     0.00228
    94    O    7  S      Ryd( 4S)     0.00012
    95    O    7  px     Val( 2p)     1.66662
    96    O    7  px     Ryd( 3p)     0.00125
    97    O    7  py     Val( 2p)     1.53175
    98    O    7  py     Ryd( 3p)     0.00161
    99    O    7  pz     Val( 2p)     1.60553
   100    O    7  pz     Ryd( 3p)     0.00325
   101    O    7  dxy    Ryd( 3d)     0.00139
   102    O    7  dxz    Ryd( 3d)     0.00116
   103    O    7  dyz    Ryd( 3d)     0.00140
   104    O    7  dx2y2  Ryd( 3d)     0.00166
   105    O    7  dz2    Ryd( 3d)     0.00035

   106    O    8  S      Cor( 1S)     1.99984
   107    O    8  S      Val( 2S)     1.74549
   108    O    8  S      Ryd( 3S)     0.00224
   109    O    8  S      Ryd( 4S)     0.00013
   110    O    8  px     Val( 2p)     1.83489
   111    O    8  px     Ryd( 3p)     0.00160
   112    O    8  py     Val( 2p)     1.36379
   113    O    8  py     Ryd( 3p)     0.00113
   114    O    8  pz     Val( 2p)     1.60926
   115    O    8  pz     Ryd( 3p)     0.00304
   116    O    8  dxy    Ryd( 3d)     0.00148
   117    O    8  dxz    Ryd( 3d)     0.00042
   118    O    8  dyz    Ryd( 3d)     0.00213
   119    O    8  dx2y2  Ryd( 3d)     0.00156
   120    O    8  dz2    Ryd( 3d)     0.00035

   121    C    9  S      Cor( 1S)     1.99897
   122    C    9  S      Val( 2S)     0.96214
   123    C    9  S      Ryd( 3S)     0.00085
   124    C    9  S      Ryd( 4S)     0.00005
   125    C    9  px     Val( 2p)     1.06485
   126    C    9  px     Ryd( 3p)     0.00538
   127    C    9  py     Val( 2p)     1.21019
   128    C    9  py     Ryd( 3p)     0.00459
   129    C    9  pz     Val( 2p)     0.97872
   130    C    9  pz     Ryd( 3p)     0.00166
   131    C    9  dxy    Ryd( 3d)     0.00054
   132    C    9  dxz    Ryd( 3d)     0.00056
   133    C    9  dyz    Ryd( 3d)     0.00042
   134    C    9  dx2y2  Ryd( 3d)     0.00064
   135    C    9  dz2    Ryd( 3d)     0.00038

   136    C   10  S      Cor( 1S)     1.99892
   137    C   10  S      Val( 2S)     0.85193
   138    C   10  S      Ryd( 3S)     0.00115
   139    C   10  S      Ryd( 4S)     0.00010
   140    C   10  px     Val( 2p)     1.01815
   141    C   10  px     Ryd( 3p)     0.00465
   142    C   10  py     Val( 2p)     0.96836
   143    C   10  py     Ryd( 3p)     0.00468
   144    C   10  pz     Val( 2p)     0.95845
   145    C   10  pz     Ryd( 3p)     0.00128
   146    C   10  dxy    Ryd( 3d)     0.00118
   147    C   10  dxz    Ryd( 3d)     0.00109
   148    C   10  dyz    Ryd( 3d)     0.00091
   149    C   10  dx2y2  Ryd( 3d)     0.00097
   150    C   10  dz2    Ryd( 3d)     0.00040

   151    N   11  S      Cor( 1S)     1.99948
   152    N   11  S      Val( 2S)     1.38792
   153    N   11  S      Ryd( 3S)     0.00015
   154    N   11  S      Ryd( 4S)     0.00001
   155    N   11  px     Val( 2p)     1.42195
   156    N   11  px     Ryd( 3p)     0.00240
   157    N   11  py     Val( 2p)     1.36286
   158    N   11  py     Ryd( 3p)     0.00205
   159    N   11  pz     Val( 2p)     1.52440
   160    N   11  pz     Ryd( 3p)     0.00214
   161    N   11  dxy    Ryd( 3d)     0.00066
   162    N   11  dxz    Ryd( 3d)     0.00115
   163    N   11  dyz    Ryd( 3d)     0.00054
   164    N   11  dx2y2  Ryd( 3d)     0.00031
   165    N   11  dz2    Ryd( 3d)     0.00077

   166    H   12  S      Val( 1S)     0.56111
   167    H   12  S      Ryd( 2S)     0.00107
   168    H   12  px     Ryd( 2p)     0.00022
   169    H   12  py     Ryd( 2p)     0.00053
   170    H   12  pz     Ryd( 2p)     0.00043

   171    H   13  S      Val( 1S)     0.56794
   172    H   13  S      Ryd( 2S)     0.00162
   173    H   13  px     Ryd( 2p)     0.00034
   174    H   13  py     Ryd( 2p)     0.00037
   175    H   13  pz     Ryd( 2p)     0.00054

   176    H   14  S      Val( 1S)     0.73919
   177    H   14  S      Ryd( 2S)     0.00080
   178    H   14  px     Ryd( 2p)     0.00010
   179    H   14  py     Ryd( 2p)     0.00038
   180    H   14  pz     Ryd( 2p)     0.00012

   181    H   15  S      Val( 1S)     0.72426
   182    H   15  S      Ryd( 2S)     0.00199
   183    H   15  px     Ryd( 2p)     0.00024
   184    H   15  py     Ryd( 2p)     0.00024
   185    H   15  pz     Ryd( 2p)     0.00011

   186    H   16  S      Val( 1S)     0.71909
   187    H   16  S      Ryd( 2S)     0.00200
   188    H   16  px     Ryd( 2p)     0.00015
   189    H   16  py     Ryd( 2p)     0.00033
   190    H   16  pz     Ryd( 2p)     0.00011

   191    H   17  S      Val( 1S)     0.55429
   192    H   17  S      Ryd( 2S)     0.00159
   193    H   17  px     Ryd( 2p)     0.00046
   194    H   17  py     Ryd( 2p)     0.00022
   195    H   17  pz     Ryd( 2p)     0.00061

   196    H   18  S      Val( 1S)     0.55463
   197    H   18  S      Ryd( 2S)     0.00075
   198    H   18  px     Ryd( 2p)     0.00030
   199    H   18  py     Ryd( 2p)     0.00054
   200    H   18  pz     Ryd( 2p)     0.00034

 WARNING:  1 low occupancy (<1.9990e) core orbital  found on  C    2
           1 low occupancy (<1.9990e) core orbital  found on  C    5
           1 low occupancy (<1.9990e) core orbital  found on  C    9
           1 low occupancy (<1.9990e) core orbital  found on  C   10


 Summary of Natural Population Analysis:                  
                                                          
                                       Natural Population 
                Natural  -----------------------------------------------
    Atom  No    Charge         Core      Valence    Rydberg      Total
 -----------------------------------------------------------------------
      N    1   -0.79890      1.99948     5.78735    0.01207     7.79890
      C    2    0.14991      1.99898     3.83338    0.01772     5.85009
      C    3   -0.27406      1.99907     4.26174    0.01325     6.27406
      C    4   -0.23054      1.99903     4.21526    0.01624     6.23054
      C    5    0.07574      1.99884     3.90493    0.02049     5.92426
      N    6    0.39483      1.99953     4.55736    0.04828     6.60517
      O    7   -0.56365      1.99984     6.54935    0.01446     8.56365
      O    8   -0.56734      1.99984     6.55343    0.01408     8.56734
      C    9   -0.22995      1.99897     4.21590    0.01508     6.22995
      C   10    0.18778      1.99892     3.79689    0.01641     5.81222
      N   11   -0.70678      1.99948     5.69713    0.01017     7.70678
      H   12    0.43663      0.00000     0.56111    0.00226     0.56337
      H   13    0.42918      0.00000     0.56794    0.00287     0.57082
      H   14    0.25941      0.00000     0.73919    0.00140     0.74059
      H   15    0.27316      0.00000     0.72426    0.00259     0.72684
      H   16    0.27832      0.00000     0.71909    0.00260     0.72168
      H   17    0.44282      0.00000     0.55429    0.00289     0.55718
      H   18    0.44344      0.00000     0.55463    0.00194     0.55656
 =======================================================================
   * Total *    0.00000     21.99197    57.79322    0.21480    80.00000

                                 Natural Population      
 --------------------------------------------------------
   Core                      21.99197 ( 99.9635% of  22)
   Valence                   57.79322 ( 99.6435% of  58)
   Natural Minimal Basis     79.78520 ( 99.7315% of  80)
   Natural Rydberg Basis      0.21480 (  0.2685% of  80)
 --------------------------------------------------------

    Atom  No          Natural Electron Configuration
 ----------------------------------------------------------------------------
      N    1      [core]2S( 1.35)2p( 4.44)3p( 0.01)
      C    2      [core]2S( 0.84)2p( 2.99)3p( 0.01)
      C    3      [core]2S( 0.96)2p( 3.31)3p( 0.01)
      C    4      [core]2S( 0.96)2p( 3.25)3p( 0.01)
      C    5      [core]2S( 0.87)2p( 3.03)3p( 0.02)
      N    6      [core]2S( 1.06)2p( 3.50)3p( 0.03)3d( 0.01)
      O    7      [core]2S( 1.75)2p( 4.80)3p( 0.01)3d( 0.01)
      O    8      [core]2S( 1.75)2p( 4.81)3p( 0.01)3d( 0.01)
      C    9      [core]2S( 0.96)2p( 3.25)3p( 0.01)
      C   10      [core]2S( 0.85)2p( 2.94)3p( 0.01)
      N   11      [core]2S( 1.39)2p( 4.31)3p( 0.01)
      H   12            1S( 0.56)
      H   13            1S( 0.57)
      H   14            1S( 0.74)
      H   15            1S( 0.72)
      H   16            1S( 0.72)
      H   17            1S( 0.55)
      H   18            1S( 0.55)


 NBO analysis skipped by request.
 1\1\GINC-CN11\SP\RB3LYP TD-FC\6-31G(d,p)\C6H7N3O2\QDUEZ\11-Jul-2024\0\
 \# TD(NStates=10, Root=1) B3LYP/6-31G** SCRF=(Solvent=water) volume po
 p=NPA density=current Geom=AllCheck Guess=Read\\RAUWPNXIALNKQM-UHFFFAO
 YSA-N_conf_1\\0,1\N,0,-2.2570024185,-1.3020871818,-0.435734308\C,0,-1.
 003245641,-0.7964247332,-0.1771018293\C,0,0.1036940301,-1.630542297,0.
 0611298886\C,0,1.360911691,-1.1003429207,0.3095564073\C,0,1.5142730462
 ,0.2880528998,0.318662533\N,0,2.8127398768,0.8556400669,0.586486021\O,
 0,3.7689019116,0.0900086306,0.7844932537\O,0,2.9284647556,2.0909224533
 ,0.6091966183\C,0,0.436293384,1.1464604517,0.0548727484\C,0,-0.8216219
 711,0.6202684245,-0.2006909968\N,0,-1.9526658063,1.4218616984,-0.42223
 37763\H,0,-2.4011918141,-2.2797317574,-0.2219618707\H,0,-3.032784638,-
 0.7148965109,-0.1539749063\H,0,-0.0406612241,-2.7065613068,0.070368831
 8\H,0,2.2103338431,-1.7399719921,0.5087175345\H,0,0.5980879932,2.21731
 17759,0.0435836063\H,0,-2.4929006871,1.132270868,-1.2329146936\H,0,-1.
 7316263316,2.407761431,-0.5024550619\\Version=EM64L-G16RevA.03\State=1
 -A\HF=-547.4955628\RMSD=4.739e-10\Dipole=-6.528875,-1.0586526,-1.43194
 24\Quadrupole=-4.4213886,5.7781437,-1.3567551,-6.4397447,-0.349334,-4.
 1731397\PG=C01 [X(C6H7N3O2)]\\@


 SUPPORT THE RIGHT TO ARM BEARS!
 (ADD A CLAWS TO THE BILL OF RIGHTS)
 Job cpu time:       0 days  0 hours 35 minutes 54.7 seconds.
 Elapsed time:       0 days  0 hours 18 minutes  6.2 seconds.
 File lengths (MBytes):  RWF=    398 Int=      0 D2E=      0 Chk=     23 Scr=      1
 Normal termination of Gaussian 16 at Thu Jul 11 19:13:48 2024.
