 Entering Gaussian System, Link 0=g16
 Initial command:
 /opt/sw/arch/manual/gaussian/G16_A03/g16/l1.exe "/scratch/1032021.jesse.materianova.be/Gau-3844.inp" -scrdir="/scratch/1032021.jesse.materianova.be/"
 Entering Link 1 = /opt/sw/arch/manual/gaussian/G16_A03/g16/l1.exe PID=      3848.
  
 Copyright (c) 1988,1990,1992,1993,1995,1998,2003,2009,2016,
            Gaussian, Inc.  All Rights Reserved.
  
 This is part of the Gaussian(R) 16 program.  It is based on
 the Gaussian(R) 09 system (copyright 2009, Gaussian, Inc.),
 the Gaussian(R) 03 system (copyright 2003, Gaussian, Inc.),
 the Gaussian(R) 98 system (copyright 1998, Gaussian, Inc.),
 the Gaussian(R) 94 system (copyright 1995, Gaussian, Inc.),
 the Gaussian 92(TM) system (copyright 1992, Gaussian, Inc.),
 the Gaussian 90(TM) system (copyright 1990, Gaussian, Inc.),
 the Gaussian 88(TM) system (copyright 1988, Gaussian, Inc.),
 the Gaussian 86(TM) system (copyright 1986, Carnegie Mellon
 University), and the Gaussian 82(TM) system (copyright 1983,
 Carnegie Mellon University). Gaussian is a federally registered
 trademark of Gaussian, Inc.
  
 This software contains proprietary and confidential information,
 including trade secrets, belonging to Gaussian, Inc.
  
 This software is provided under written license and may be
 used, copied, transmitted, or stored only in accord with that
 written license.
  
 The following legend is applicable only to US Government
 contracts under FAR:
  
                    RESTRICTED RIGHTS LEGEND
  
 Use, reproduction and disclosure by the US Government is
 subject to restrictions as set forth in subparagraphs (a)
 and (c) of the Commercial Computer Software - Restricted
 Rights clause in FAR 52.227-19.
  
 Gaussian, Inc.
 340 Quinnipiac St., Bldg. 40, Wallingford CT 06492
  
  
 ---------------------------------------------------------------
 Warning -- This program may not be used in any manner that
 competes with the business of Gaussian, Inc. or will provide
 assistance to any competitor of Gaussian, Inc.  The licensee
 of this program is prohibited from giving any competitor of
 Gaussian, Inc. access to this program.  By using this program,
 the user acknowledges that Gaussian, Inc. is engaged in the
 business of creating and licensing software in the field of
 computational chemistry and represents and warrants to the
 licensee that it is not a competitor of Gaussian, Inc. and that
 it will not use this program in any manner prohibited above.
 ---------------------------------------------------------------
  

 Cite this work as:
 Gaussian 16, Revision A.03,
 M. J. Frisch, G. W. Trucks, H. B. Schlegel, G. E. Scuseria, 
 M. A. Robb, J. R. Cheeseman, G. Scalmani, V. Barone, 
 G. A. Petersson, H. Nakatsuji, X. Li, M. Caricato, A. V. Marenich, 
 J. Bloino, B. G. Janesko, R. Gomperts, B. Mennucci, H. P. Hratchian, 
 J. V. Ortiz, A. F. Izmaylov, J. L. Sonnenberg, D. Williams-Young, 
 F. Ding, F. Lipparini, F. Egidi, J. Goings, B. Peng, A. Petrone, 
 T. Henderson, D. Ranasinghe, V. G. Zakrzewski, J. Gao, N. Rega, 
 G. Zheng, W. Liang, M. Hada, M. Ehara, K. Toyota, R. Fukuda, 
 J. Hasegawa, M. Ishida, T. Nakajima, Y. Honda, O. Kitao, H. Nakai, 
 T. Vreven, K. Throssell, J. A. Montgomery, Jr., J. E. Peralta, 
 F. Ogliaro, M. J. Bearpark, J. J. Heyd, E. N. Brothers, K. N. Kudin, 
 V. N. Staroverov, T. A. Keith, R. Kobayashi, J. Normand, 
 K. Raghavachari, A. P. Rendell, J. C. Burant, S. S. Iyengar, 
 J. Tomasi, M. Cossi, J. M. Millam, M. Klene, C. Adamo, R. Cammi, 
 J. W. Ochterski, R. L. Martin, K. Morokuma, O. Farkas, 
 J. B. Foresman, and D. J. Fox, Gaussian, Inc., Wallingford CT, 2016.
 
 ******************************************
 Gaussian 16:  EM64L-G16RevA.03 25-Dec-2016
                11-Jul-2024 
 ******************************************
 %nprocshared=3
 Will use up to    3 processors via shared memory.
 %mem=6GB
 %Chk=APQPRKLAWCIJEK-UHFFFAOYSA-N_conf_2_0.chk
 -------------------------------------------------------
 # opt=CalcFc B3LYP/6-31G** SCRF=(Solvent=water) scf=xqc
 -------------------------------------------------------
 1/10=4,18=20,19=15,26=3,38=1/1,3;
 2/9=110,12=2,17=6,18=5,40=1/2;
 3/5=1,6=6,7=101,11=2,25=1,30=1,70=2201,71=2,72=1,74=-5,140=1/1,2,3;
 4//1;
 5/5=2,8=3,13=1,38=5,53=1/2,8;
 8/6=4,10=90,11=11/1;
 11/6=1,8=1,9=11,15=111,16=1/1,2,10;
 10/6=1,13=1/2;
 6/7=2,8=2,9=2,10=2,28=1/1;
 7/10=1,18=20,25=1/1,2,3,16;
 1/10=4,18=20,19=15,26=3/3(2);
 2/9=110/2;
 99//99;
 2/9=110/2;
 3/5=1,6=6,7=101,11=2,25=1,30=1,70=2205,71=1,72=1,74=-5/1,2,3;
 4/5=5,16=3,69=1/1;
 5/5=2,8=3,13=1,38=5,53=1/2,8;
 7//1,2,3,16;
 1/18=20,19=15,26=3/3(-5);
 2/9=110/2;
 6/7=2,8=2,9=2,10=2,19=2,28=1/1;
 99/9=1/99;
 ----------------------------------
 APQPRKLAWCIJEK-UHFFFAOYSA-N_conf_2
 ----------------------------------
 Symbolic Z-matrix:
 Charge =  0 Multiplicity = 1
 N                    -2.59806   0.11135  -0.50784 
 C                    -2.12647  -1.13314   0.09719 
 C                    -1.84127  -1.00009   1.59755 
 S                    -0.15262  -0.43025   2.03843 
 S                     0.03392   1.42812   1.17759 
 C                     0.93095   1.08506  -0.37952 
 C                     2.39753   0.72095  -0.13067 
 N                     3.1025    0.48108  -1.3938 
 H                    -2.595     0.02642  -1.52291 
 H                    -1.95679   0.87046  -0.27161 
 H                    -1.24696  -1.50714  -0.43831 
 H                    -2.92063  -1.87568  -0.04004 
 H                    -1.94292  -1.99137   2.05372 
 H                    -2.57751  -0.35652   2.09228 
 H                     0.87527   1.99428  -0.98862 
 H                     0.41605   0.29493  -0.93521 
 H                     2.484    -0.17828   0.48801 
 H                     2.90305   1.53877   0.39515 
 H                     4.08244   0.28018  -1.1921 
 H                     2.73255  -0.35914  -1.83775 
 

 GradGradGradGradGradGradGradGradGradGradGradGradGradGradGradGradGradGrad
 Berny optimization.
 Initialization pass.
                           ----------------------------
                           !    Initial Parameters    !
                           ! (Angstroms and Degrees)  !
 --------------------------                            --------------------------
 ! Name  Definition              Value          Derivative Info.                !
 --------------------------------------------------------------------------------
 ! R1    R(1,2)                  1.4619         calculate D2E/DX2 analytically  !
 ! R2    R(1,9)                  1.0186         calculate D2E/DX2 analytically  !
 ! R3    R(1,10)                 1.0214         calculate D2E/DX2 analytically  !
 ! R4    R(2,3)                  1.533          calculate D2E/DX2 analytically  !
 ! R5    R(2,11)                 1.0955         calculate D2E/DX2 analytically  !
 ! R6    R(2,12)                 1.0958         calculate D2E/DX2 analytically  !
 ! R7    R(3,4)                  1.8359         calculate D2E/DX2 analytically  !
 ! R8    R(3,13)                 1.0959         calculate D2E/DX2 analytically  !
 ! R9    R(3,14)                 1.0959         calculate D2E/DX2 analytically  !
 ! R10   R(4,5)                  2.0565         calculate D2E/DX2 analytically  !
 ! R11   R(5,6)                  1.8295         calculate D2E/DX2 analytically  !
 ! R12   R(6,7)                  1.5315         calculate D2E/DX2 analytically  !
 ! R13   R(6,15)                 1.0958         calculate D2E/DX2 analytically  !
 ! R14   R(6,16)                 1.0946         calculate D2E/DX2 analytically  !
 ! R15   R(7,8)                  1.4663         calculate D2E/DX2 analytically  !
 ! R16   R(7,17)                 1.0949         calculate D2E/DX2 analytically  !
 ! R17   R(7,18)                 1.0959         calculate D2E/DX2 analytically  !
 ! R18   R(8,19)                 1.0205         calculate D2E/DX2 analytically  !
 ! R19   R(8,20)                 1.0198         calculate D2E/DX2 analytically  !
 ! A1    A(2,1,9)              109.9049         calculate D2E/DX2 analytically  !
 ! A2    A(2,1,10)             109.5371         calculate D2E/DX2 analytically  !
 ! A3    A(9,1,10)             106.8908         calculate D2E/DX2 analytically  !
 ! A4    A(1,2,3)              113.0274         calculate D2E/DX2 analytically  !
 ! A5    A(1,2,11)             110.3223         calculate D2E/DX2 analytically  !
 ! A6    A(1,2,12)             106.9306         calculate D2E/DX2 analytically  !
 ! A7    A(3,2,11)             111.0187         calculate D2E/DX2 analytically  !
 ! A8    A(3,2,12)             108.4328         calculate D2E/DX2 analytically  !
 ! A9    A(11,2,12)            106.8136         calculate D2E/DX2 analytically  !
 ! A10   A(2,3,4)              115.6629         calculate D2E/DX2 analytically  !
 ! A11   A(2,3,13)             108.1567         calculate D2E/DX2 analytically  !
 ! A12   A(2,3,14)             111.5803         calculate D2E/DX2 analytically  !
 ! A13   A(4,3,13)             105.4321         calculate D2E/DX2 analytically  !
 ! A14   A(4,3,14)             109.1015         calculate D2E/DX2 analytically  !
 ! A15   A(13,3,14)            106.3181         calculate D2E/DX2 analytically  !
 ! A16   A(3,4,5)              105.271          calculate D2E/DX2 analytically  !
 ! A17   A(4,5,6)              103.373          calculate D2E/DX2 analytically  !
 ! A18   A(5,6,7)              112.076          calculate D2E/DX2 analytically  !
 ! A19   A(5,6,15)             107.0131         calculate D2E/DX2 analytically  !
 ! A20   A(5,6,16)             109.6819         calculate D2E/DX2 analytically  !
 ! A21   A(7,6,15)             109.6485         calculate D2E/DX2 analytically  !
 ! A22   A(7,6,16)             111.1818         calculate D2E/DX2 analytically  !
 ! A23   A(15,6,16)            107.028          calculate D2E/DX2 analytically  !
 ! A24   A(6,7,8)              111.0594         calculate D2E/DX2 analytically  !
 ! A25   A(6,7,17)             111.2664         calculate D2E/DX2 analytically  !
 ! A26   A(6,7,18)             110.0172         calculate D2E/DX2 analytically  !
 ! A27   A(8,7,17)             108.3269         calculate D2E/DX2 analytically  !
 ! A28   A(8,7,18)             108.2788         calculate D2E/DX2 analytically  !
 ! A29   A(17,7,18)            107.7789         calculate D2E/DX2 analytically  !
 ! A30   A(7,8,19)             108.8827         calculate D2E/DX2 analytically  !
 ! A31   A(7,8,20)             109.5965         calculate D2E/DX2 analytically  !
 ! A32   A(19,8,20)            105.7958         calculate D2E/DX2 analytically  !
 ! D1    D(9,1,2,3)            168.7765         calculate D2E/DX2 analytically  !
 ! D2    D(9,1,2,11)            43.8161         calculate D2E/DX2 analytically  !
 ! D3    D(9,1,2,12)           -71.9802         calculate D2E/DX2 analytically  !
 ! D4    D(10,1,2,3)            51.6231         calculate D2E/DX2 analytically  !
 ! D5    D(10,1,2,11)          -73.3373         calculate D2E/DX2 analytically  !
 ! D6    D(10,1,2,12)          170.8664         calculate D2E/DX2 analytically  !
 ! D7    D(1,2,3,4)            -87.4065         calculate D2E/DX2 analytically  !
 ! D8    D(1,2,3,13)           154.6725         calculate D2E/DX2 analytically  !
 ! D9    D(1,2,3,14)            38.0766         calculate D2E/DX2 analytically  !
 ! D10   D(11,2,3,4)            37.1755         calculate D2E/DX2 analytically  !
 ! D11   D(11,2,3,13)          -80.7455         calculate D2E/DX2 analytically  !
 ! D12   D(11,2,3,14)          162.6586         calculate D2E/DX2 analytically  !
 ! D13   D(12,2,3,4)           154.221          calculate D2E/DX2 analytically  !
 ! D14   D(12,2,3,13)           36.3            calculate D2E/DX2 analytically  !
 ! D15   D(12,2,3,14)          -80.2959         calculate D2E/DX2 analytically  !
 ! D16   D(2,3,4,5)             60.4808         calculate D2E/DX2 analytically  !
 ! D17   D(13,3,4,5)           179.9057         calculate D2E/DX2 analytically  !
 ! D18   D(14,3,4,5)           -66.262          calculate D2E/DX2 analytically  !
 ! D19   D(3,4,5,6)            -97.8065         calculate D2E/DX2 analytically  !
 ! D20   D(4,5,6,7)            -71.7108         calculate D2E/DX2 analytically  !
 ! D21   D(4,5,6,15)           168.0539         calculate D2E/DX2 analytically  !
 ! D22   D(4,5,6,16)            52.2883         calculate D2E/DX2 analytically  !
 ! D23   D(5,6,7,8)           -178.685          calculate D2E/DX2 analytically  !
 ! D24   D(5,6,7,17)            60.5559         calculate D2E/DX2 analytically  !
 ! D25   D(5,6,7,18)           -58.8187         calculate D2E/DX2 analytically  !
 ! D26   D(15,6,7,8)           -59.9954         calculate D2E/DX2 analytically  !
 ! D27   D(15,6,7,17)          179.2454         calculate D2E/DX2 analytically  !
 ! D28   D(15,6,7,18)           59.8708         calculate D2E/DX2 analytically  !
 ! D29   D(16,6,7,8)            58.1577         calculate D2E/DX2 analytically  !
 ! D30   D(16,6,7,17)          -62.6015         calculate D2E/DX2 analytically  !
 ! D31   D(16,6,7,18)          178.024          calculate D2E/DX2 analytically  !
 ! D32   D(6,7,8,19)           177.6606         calculate D2E/DX2 analytically  !
 ! D33   D(6,7,8,20)           -67.0525         calculate D2E/DX2 analytically  !
 ! D34   D(17,7,8,19)          -59.8613         calculate D2E/DX2 analytically  !
 ! D35   D(17,7,8,20)           55.4256         calculate D2E/DX2 analytically  !
 ! D36   D(18,7,8,19)           56.7646         calculate D2E/DX2 analytically  !
 ! D37   D(18,7,8,20)          172.0516         calculate D2E/DX2 analytically  !
 --------------------------------------------------------------------------------
 Trust Radius=3.00D-01 FncErr=1.00D-07 GrdErr=1.00D-06 EigMax=2.50D+02 EigMin=1.00D-04
 Number of steps in this run=     98 maximum allowed number of steps=    120.
 GradGradGradGradGradGradGradGradGradGradGradGradGradGradGradGradGradGrad

                          Input orientation:                          
 ---------------------------------------------------------------------
 Center     Atomic      Atomic             Coordinates (Angstroms)
 Number     Number       Type             X           Y           Z
 ---------------------------------------------------------------------
      1          7           0       -2.598065    0.111353   -0.507835
      2          6           0       -2.126472   -1.133139    0.097188
      3          6           0       -1.841274   -1.000089    1.597551
      4         16           0       -0.152623   -0.430251    2.038425
      5         16           0        0.033919    1.428124    1.177592
      6          6           0        0.930945    1.085056   -0.379517
      7          6           0        2.397525    0.720946   -0.130671
      8          7           0        3.102497    0.481080   -1.393802
      9          1           0       -2.595000    0.026418   -1.522913
     10          1           0       -1.956794    0.870455   -0.271610
     11          1           0       -1.246965   -1.507145   -0.438312
     12          1           0       -2.920628   -1.875678   -0.040045
     13          1           0       -1.942916   -1.991365    2.053716
     14          1           0       -2.577512   -0.356516    2.092276
     15          1           0        0.875267    1.994282   -0.988620
     16          1           0        0.416053    0.294933   -0.935208
     17          1           0        2.483998   -0.178276    0.488010
     18          1           0        2.903053    1.538770    0.395154
     19          1           0        4.082438    0.280178   -1.192101
     20          1           0        2.732552   -0.359138   -1.837753
 ---------------------------------------------------------------------
                    Distance matrix (angstroms):
                    1          2          3          4          5
     1  N    0.000000
     2  C    1.461922   0.000000
     3  C    2.498136   1.533013   0.000000
     4  S    3.571689   2.856315   1.835927   0.000000
     5  S    3.391443   3.520600   3.096599   2.056548   0.000000
     6  C    3.663124   3.807287   3.992721   3.052330   1.829464
     7  C    5.046759   4.894497   4.890412   3.540267   2.792541
     8  N    5.780834   5.671937   5.965142   4.817314   4.114016
     9  H    1.018630   2.046661   3.370328   4.342452   4.021034
    10  H    1.021404   2.044308   2.646893   3.206732   2.524701
    11  H    2.109465   1.095524   2.180607   2.914020   3.587145
    12  H    2.066681   1.095847   2.147878   3.751153   4.596422
    13  H    3.378193   2.144352   1.095923   2.375387   4.045785
    14  H    2.641950   2.187911   1.095896   2.426608   3.292591
    15  H    3.980026   4.468801   4.799388   4.012222   2.391835
    16  H    3.049796   3.093487   3.631455   3.113162   2.427770
    17  H    5.186806   4.724504   4.540311   3.069046   3.009805
    18  H    5.754582   5.702982   5.513638   3.989303   2.975968
    19  H    6.717577   6.496945   6.671701   5.373709   4.829465
    20  H    5.514120   5.287077   5.756041   4.832602   4.423712
                    6          7          8          9         10
     6  C    0.000000
     7  C    1.531456   0.000000
     8  N    2.471679   1.466294   0.000000
     9  H    3.854913   5.229341   5.717067   0.000000
    10  H    2.897712   4.359164   5.196859   1.638739   0.000000
    11  H    3.386186   4.282679   4.876865   2.312006   2.486892
    12  H    4.869888   5.918904   6.607950   2.433702   2.919563
    13  H    4.862517   5.564855   6.592007   4.157997   3.687458
    14  H    4.527379   5.554585   6.716905   3.635455   2.734722
    15  H    1.095810   2.162112   2.722959   4.025010   3.130121
    16  H    1.094623   2.180596   2.731655   3.079600   2.530215
    17  H    2.181876   1.094918   2.087704   5.466436   4.625742
    18  H    2.166837   1.095850   2.087786   6.016210   4.950690
    19  H    3.352615   2.039569   1.020456   6.690441   6.137430
    20  H    2.730922   2.047670   1.019764   5.350755   5.094572
                   11         12         13         14         15
    11  H    0.000000
    12  H    1.759427   0.000000
    13  H    2.632304   2.313685   0.000000
    14  H    3.081912   2.640525   1.754119   0.000000
    15  H    4.131186   5.503200   5.751813   5.190362   0.000000
    16  H    2.502003   4.079989   4.441347   4.307142   1.761113
    17  H    4.067438   5.689464   5.033517   5.312657   3.080334
    18  H    5.214875   6.764845   6.220619   6.042262   2.496846
    19  H    5.671442   7.417404   7.211111   7.453016   3.642184
    20  H    4.371831   6.122915   6.298229   6.606203   3.115946
                   16         17         18         19         20
    16  H    0.000000
    17  H    2.554579   0.000000
    18  H    3.082558   1.769881   0.000000
    19  H    3.675404   2.363888   2.344010   0.000000
    20  H    2.570713   2.345989   2.935473   1.627201   0.000000
 Stoichiometry    C4H12N2S2
 Framework group  C1[X(C4H12N2S2)]
 Deg. of freedom    54
 Full point group                 C1      NOp   1
 Largest Abelian subgroup         C1      NOp   1
 Largest concise Abelian subgroup C1      NOp   1
                         Standard orientation:                         
 ---------------------------------------------------------------------
 Center     Atomic      Atomic             Coordinates (Angstroms)
 Number     Number       Type             X           Y           Z
 ---------------------------------------------------------------------
      1          7           0       -2.051063    1.756898    0.639672
      2          6           0       -2.163926    1.123374   -0.673005
      3          6           0       -2.323314   -0.399195   -0.592329
      4         16           0       -0.760145   -1.360213   -0.532552
      5         16           0        0.204514   -0.720190    1.167210
      6          6           0        1.394749    0.518192    0.537377
      7          6           0        2.546664   -0.131425   -0.234922
      8          7           0        3.502596    0.877349   -0.702455
      9          1           0       -1.763723    2.728256    0.532403
     10          1           0       -1.322661    1.290186    1.182699
     11          1           0       -1.309395    1.396225   -1.301895
     12          1           0       -3.056571    1.540267   -1.152866
     13          1           0       -2.838899   -0.737084   -1.498447
     14          1           0       -2.957954   -0.693909    0.251094
     15          1           0        1.790438    1.054069    1.407471
     16          1           0        0.869464    1.253528   -0.080326
     17          1           0        2.178902   -0.686267   -1.104258
     18          1           0        3.080481   -0.837383    0.411260
     19          1           0        4.273666    0.406721   -1.177103
     20          1           0        3.060589    1.466440   -1.407806
 ---------------------------------------------------------------------
 Rotational constants (GHZ):           1.9190555           0.7839878           0.6995941
 Standard basis: 6-31G(d,p) (6D, 7F)
 There are   188 symmetry adapted cartesian basis functions of A   symmetry.
 There are   188 symmetry adapted basis functions of A   symmetry.
   188 basis functions,   356 primitive gaussians,   188 cartesian basis functions
    41 alpha electrons       41 beta electrons
       nuclear repulsion energy       561.2303451231 Hartrees.
 NAtoms=   20 NActive=   20 NUniq=   20 SFac= 1.00D+00 NAtFMM=   60 NAOKFM=F Big=F
 Integral buffers will be    131072 words long.
 Raffenetti 2 integral format.
 Two-electron integral symmetry is turned on.
 Force inversion solution in PCM.
 ------------------------------------------------------------------------------
 Polarizable Continuum Model (PCM)
 =================================
 Model                : PCM.
 Atomic radii         : UFF (Universal Force Field).
 Polarization charges : Total charges.
 Charge compensation  : None.
 Solution method      : Matrix inversion.
 Cavity type          : Scaled VdW (van der Waals Surface) (Alpha=1.100).
 Cavity algorithm     : GePol (No added spheres)
                        Default sphere list used, NSphG=   20.
                        Lebedev-Laikov grids with approx.  5.0 points / Ang**2.
                        Smoothing algorithm: York/Karplus (Gamma=1.0000).
                        Polarization charges: spherical gaussians, with
                                              point-specific exponents (IZeta= 3).
                        Self-potential: point-specific (ISelfS= 7).
                        Self-field    : sphere-specific E.n sum rule (ISelfD= 2).
 1st derivatives      : Analytical E(r).r(x)/FMM algorithm (CHGder, D1EAlg=3).
                        Cavity 1st derivative terms included.
 2nd derivatives      : Analytical E(r).r(xy)/FMM algorithm (CHGder, D2EAlg=3).
                        Cavity 2nd derivative terms included.
 Solvent              : Water, Eps=  78.355300 Eps(inf)=   1.777849
 ------------------------------------------------------------------------------
 Spheres list:
 ISph  on   Nord     Re0    Alpha      Xe            Ye            Ze
    1   N      1    1.8300  1.100     -2.051063      1.756898      0.639672
    2   C      2    1.9255  1.100     -2.163926      1.123374     -0.673005
    3   C      3    1.9255  1.100     -2.323314     -0.399195     -0.592329
    4   S      4    2.0175  1.100     -0.760145     -1.360213     -0.532552
    5   S      5    2.0175  1.100      0.204514     -0.720190      1.167210
    6   C      6    1.9255  1.100      1.394749      0.518192      0.537377
    7   C      7    1.9255  1.100      2.546664     -0.131425     -0.234922
    8   N      8    1.8300  1.100      3.502596      0.877349     -0.702455
    9   H      9    1.4430  1.100     -1.763723      2.728256      0.532403
   10   H     10    1.4430  1.100     -1.322661      1.290186      1.182699
   11   H     11    1.4430  1.100     -1.309395      1.396225     -1.301895
   12   H     12    1.4430  1.100     -3.056571      1.540267     -1.152866
   13   H     13    1.4430  1.100     -2.838899     -0.737084     -1.498447
   14   H     14    1.4430  1.100     -2.957954     -0.693909      0.251094
   15   H     15    1.4430  1.100      1.790438      1.054069      1.407471
   16   H     16    1.4430  1.100      0.869464      1.253528     -0.080326
   17   H     17    1.4430  1.100      2.178902     -0.686267     -1.104258
   18   H     18    1.4430  1.100      3.080481     -0.837383      0.411260
   19   H     19    1.4430  1.100      4.273666      0.406721     -1.177103
   20   H     20    1.4430  1.100      3.060589      1.466440     -1.407806
 ------------------------------------------------------------------------------
 One-electron integrals computed using PRISM.
 NBasis=   188 RedAO= T EigKep=  4.82D-03  NBF=   188
 NBsUse=   188 1.00D-06 EigRej= -1.00D+00 NBFU=   188
 ExpMin= 1.17D-01 ExpMax= 2.19D+04 ExpMxC= 3.30D+03 IAcc=3 IRadAn=         5 AccDes= 0.00D+00
 Harris functional with IExCor=  402 and IRadAn=       5 diagonalized for initial guess.
 HarFok:  IExCor=  402 AccDes= 0.00D+00 IRadAn=         5 IDoV= 1 UseB2=F ITyADJ=14
 ICtDFT=  3500011 ScaDFX=  1.000000  1.000000  1.000000  1.000000
 FoFCou: FMM=F IPFlag=           0 FMFlag=      100000 FMFlg1=           0
         NFxFlg=           0 DoJE=T BraDBF=F KetDBF=T FulRan=T
         wScrn=  0.000000 ICntrl=       500 IOpCl=  0 I1Cent=   200000004 NGrid=           0
         NMat0=    1 NMatS0=      1 NMatT0=    0 NMatD0=    1 NMtDS0=    0 NMtDT0=    0
 Petite list used in FoFCou.
 Keep R1 ints in memory in canonical form, NReq=161201114.
 Requested convergence on RMS density matrix=1.00D-08 within  32 cycles.
 Requested convergence on MAX density matrix=1.00D-06.
 Requested convergence on             energy=1.00D-06.
 No special actions if energy rises.
 Inv3:  Mode=1 IEnd=     8436987.
 Iteration    1 A*A^-1 deviation from unit magnitude is 7.22D-15 for    175.
 Iteration    1 A*A^-1 deviation from orthogonality  is 4.44D-15 for   1170    676.
 Iteration    1 A^-1*A deviation from unit magnitude is 6.99D-15 for    175.
 Iteration    1 A^-1*A deviation from orthogonality  is 3.14D-15 for   1564    106.
 Error on total polarization charges =  0.01129
 SCF Done:  E(RB3LYP) =  -1065.54393755     A.U. after   12 cycles
            NFock= 12  Conv=0.33D-08     -V/T= 2.0048
 QCSCF skips out because SCF is already converged.
 DoSCS=F DFT=T ScalE2(SS,OS)=  1.000000  1.000000
 Range of M.O.s used for correlation:     1   188
 NBasis=   188 NAE=    41 NBE=    41 NFC=     0 NFV=     0
 NROrb=    188 NOA=    41 NOB=    41 NVA=   147 NVB=   147
 Symmetrizing basis deriv contribution to polar:
 IMax=3 JMax=2 DiffMx= 0.00D+00
 G2DrvN: will do    21 centers at a time, making    1 passes.
 Calling FoFCou, ICntrl=  3107 FMM=F I1Cent=   0 AccDes= 0.00D+00.
 NEqPCM:  Using equilibrium solvation (IEInf=0, Eps=  78.3553, EpsInf=   1.7778)
 G2PCM: DoFxE=T DoFxN=T DoGrad=T DoDP/DQ/DG/TGxP=FFFF NFrqRd=   0 IEInf=0 SqF1=F DoCFld=F IF1Alg=4.
 End of G2Drv F.D. properties file   721 does not exist.
 End of G2Drv F.D. properties file   722 does not exist.
 End of G2Drv F.D. properties file   788 does not exist.
          IDoAtm=11111111111111111111
 NEqPCM:  Using equilibrium solvation (IEInf=0, Eps=  78.3553, EpsInf=   1.7778)
          Differentiating once with respect to nuclear coordinates.
 Keep R1 ints in memory in canonical form, NReq=165517102.
          There are    63 degrees of freedom in the 1st order CPHF.  IDoFFX=6 NUNeed=     0.
     57 vectors produced by pass  0 Test12= 9.57D-15 1.59D-09 XBig12= 7.43D-02 9.62D-02.
 AX will form    57 AO Fock derivatives at one time.
     57 vectors produced by pass  1 Test12= 9.57D-15 1.59D-09 XBig12= 9.98D-03 1.96D-02.
     57 vectors produced by pass  2 Test12= 9.57D-15 1.59D-09 XBig12= 1.47D-04 1.96D-03.
     57 vectors produced by pass  3 Test12= 9.57D-15 1.59D-09 XBig12= 5.44D-07 7.97D-05.
     57 vectors produced by pass  4 Test12= 9.57D-15 1.59D-09 XBig12= 5.75D-10 3.12D-06.
     29 vectors produced by pass  5 Test12= 9.57D-15 1.59D-09 XBig12= 4.06D-13 6.74D-08.
      1 vectors produced by pass  6 Test12= 9.57D-15 1.59D-09 XBig12= 3.17D-16 1.59D-09.
 InvSVY:  IOpt=1 It=  1 EMax= 4.44D-16
 Solved reduced A of dimension   315 with    63 vectors.
 End of Minotr F.D. properties file   721 does not exist.
 End of Minotr F.D. properties file   722 does not exist.
 End of Minotr F.D. properties file   788 does not exist.

 **********************************************************************

            Population analysis using the SCF density.

 **********************************************************************

 Orbital symmetries:
       Occupied  (A) (A) (A) (A) (A) (A) (A) (A) (A) (A) (A) (A)
                 (A) (A) (A) (A) (A) (A) (A) (A) (A) (A) (A) (A)
                 (A) (A) (A) (A) (A) (A) (A) (A) (A) (A) (A) (A)
                 (A) (A) (A) (A) (A)
       Virtual   (A) (A) (A) (A) (A) (A) (A) (A) (A) (A) (A) (A)
                 (A) (A) (A) (A) (A) (A) (A) (A) (A) (A) (A) (A)
                 (A) (A) (A) (A) (A) (A) (A) (A) (A) (A) (A) (A)
                 (A) (A) (A) (A) (A) (A) (A) (A) (A) (A) (A) (A)
                 (A) (A) (A) (A) (A) (A) (A) (A) (A) (A) (A) (A)
                 (A) (A) (A) (A) (A) (A) (A) (A) (A) (A) (A) (A)
                 (A) (A) (A) (A) (A) (A) (A) (A) (A) (A) (A) (A)
                 (A) (A) (A) (A) (A) (A) (A) (A) (A) (A) (A) (A)
                 (A) (A) (A) (A) (A) (A) (A) (A) (A) (A) (A) (A)
                 (A) (A) (A) (A) (A) (A) (A) (A) (A) (A) (A) (A)
                 (A) (A) (A) (A) (A) (A) (A) (A) (A) (A) (A) (A)
                 (A) (A) (A) (A) (A) (A) (A) (A) (A) (A) (A) (A)
                 (A) (A) (A)
 The electronic state is 1-A.
 Alpha  occ. eigenvalues --  -88.89863 -88.89644 -14.31199 -14.30758 -10.21952
 Alpha  occ. eigenvalues --  -10.21848 -10.21254 -10.21151  -7.96054  -7.95826
 Alpha  occ. eigenvalues --   -5.92601  -5.92389  -5.92150  -5.91920  -5.91487
 Alpha  occ. eigenvalues --   -5.91247  -0.88305  -0.88000  -0.82418  -0.76901
 Alpha  occ. eigenvalues --   -0.70935  -0.64554  -0.60694  -0.57293  -0.49313
 Alpha  occ. eigenvalues --   -0.48700  -0.47136  -0.45730  -0.44067  -0.42453
 Alpha  occ. eigenvalues --   -0.40476  -0.39095  -0.38196  -0.36725  -0.36228
 Alpha  occ. eigenvalues --   -0.35311  -0.32086  -0.25500  -0.24598  -0.23453
 Alpha  occ. eigenvalues --   -0.22872
 Alpha virt. eigenvalues --   -0.02357   0.03283   0.04523   0.07903   0.09467
 Alpha virt. eigenvalues --    0.11736   0.12544   0.13982   0.14591   0.15825
 Alpha virt. eigenvalues --    0.16673   0.17370   0.18699   0.19252   0.20964
 Alpha virt. eigenvalues --    0.21907   0.23523   0.24810   0.26399   0.33071
 Alpha virt. eigenvalues --    0.33673   0.35831   0.38947   0.40667   0.41902
 Alpha virt. eigenvalues --    0.43682   0.46655   0.50269   0.52050   0.55217
 Alpha virt. eigenvalues --    0.56843   0.58039   0.59024   0.60577   0.62402
 Alpha virt. eigenvalues --    0.63788   0.67011   0.68190   0.69348   0.71486
 Alpha virt. eigenvalues --    0.72389   0.74523   0.75852   0.77148   0.80326
 Alpha virt. eigenvalues --    0.82857   0.84493   0.84750   0.85796   0.86396
 Alpha virt. eigenvalues --    0.87098   0.88191   0.88642   0.89577   0.90202
 Alpha virt. eigenvalues --    0.91301   0.92796   0.92972   0.94471   0.95750
 Alpha virt. eigenvalues --    0.97867   0.99706   1.01957   1.03924   1.05007
 Alpha virt. eigenvalues --    1.07365   1.12687   1.17501   1.23502   1.30373
 Alpha virt. eigenvalues --    1.32835   1.34329   1.36358   1.39328   1.41440
 Alpha virt. eigenvalues --    1.56073   1.58456   1.61594   1.63606   1.66405
 Alpha virt. eigenvalues --    1.74490   1.78266   1.80958   1.84267   1.85982
 Alpha virt. eigenvalues --    1.87333   1.89434   1.97298   1.99425   2.03798
 Alpha virt. eigenvalues --    2.05373   2.06127   2.08460   2.11255   2.13607
 Alpha virt. eigenvalues --    2.14484   2.17736   2.21619   2.23262   2.23768
 Alpha virt. eigenvalues --    2.25422   2.29580   2.29637   2.31568   2.36317
 Alpha virt. eigenvalues --    2.38411   2.40349   2.40879   2.43735   2.51982
 Alpha virt. eigenvalues --    2.53567   2.55423   2.57804   2.62277   2.63920
 Alpha virt. eigenvalues --    2.65988   2.67965   2.77045   2.78901   2.80300
 Alpha virt. eigenvalues --    2.82227   2.82628   2.85353   2.91734   2.92932
 Alpha virt. eigenvalues --    2.96813   2.98768   3.21859   3.24734   3.28774
 Alpha virt. eigenvalues --    3.30346   3.31319   3.33827   3.36317   3.40121
 Alpha virt. eigenvalues --    3.49088   3.49887   3.54615   3.56932   3.84491
 Alpha virt. eigenvalues --    3.96206   3.97800   3.99843   4.30675   4.39137
 Alpha virt. eigenvalues --    4.57375   4.60784
          Condensed to atoms (all electrons):
               1          2          3          4          5          6
     1  N    6.814876   0.314371  -0.052861  -0.003406  -0.011774  -0.002199
     2  C    0.314371   4.806068   0.349938  -0.053573  -0.001985   0.000848
     3  C   -0.052861   0.349938   5.202121   0.222177  -0.036252  -0.000729
     4  S   -0.003406  -0.053573   0.222177  15.827526   0.125575  -0.036683
     5  S   -0.011774  -0.001985  -0.036252   0.125575  15.867715   0.192401
     6  C   -0.002199   0.000848  -0.000729  -0.036683   0.192401   5.244431
     7  C    0.000071   0.000010  -0.000006  -0.009074  -0.051820   0.340804
     8  N    0.000000   0.000000   0.000000  -0.000154   0.004844  -0.049842
     9  H    0.341345  -0.033219   0.005763  -0.000034   0.000586   0.000180
    10  H    0.342902  -0.044452  -0.005609  -0.001239   0.013676  -0.000832
    11  H   -0.055908   0.386098  -0.049354  -0.001662  -0.002223   0.001024
    12  H   -0.049237   0.385371  -0.029002   0.005448  -0.000308  -0.000010
    13  H    0.003237  -0.028405   0.370698  -0.030104   0.004129  -0.000027
    14  H    0.003383  -0.036475   0.368070  -0.048372  -0.002967  -0.000111
    15  H    0.000022  -0.000042  -0.000005   0.004073  -0.025187   0.361929
    16  H    0.003393   0.000417   0.000862  -0.004615  -0.045594   0.378715
    17  H   -0.000000  -0.000013   0.000003   0.009457  -0.002774  -0.049806
    18  H   -0.000001  -0.000000   0.000001  -0.000342   0.002244  -0.036977
    19  H    0.000000  -0.000000  -0.000000   0.000021  -0.000371   0.005609
    20  H   -0.000001  -0.000002  -0.000000   0.000058  -0.000120  -0.004715
               7          8          9         10         11         12
     1  N    0.000071   0.000000   0.341345   0.342902  -0.055908  -0.049237
     2  C    0.000010   0.000000  -0.033219  -0.044452   0.386098   0.385371
     3  C   -0.000006   0.000000   0.005763  -0.005609  -0.049354  -0.029002
     4  S   -0.009074  -0.000154  -0.000034  -0.001239  -0.001662   0.005448
     5  S   -0.051820   0.004844   0.000586   0.013676  -0.002223  -0.000308
     6  C    0.340804  -0.049842   0.000180  -0.000832   0.001024  -0.000010
     7  C    4.832517   0.280613   0.000008   0.000108  -0.000176  -0.000000
     8  N    0.280613   6.819750  -0.000000  -0.000003  -0.000001   0.000000
     9  H    0.000008  -0.000000   0.468717  -0.030425  -0.006365  -0.001590
    10  H    0.000108  -0.000003  -0.030425   0.456903  -0.000816   0.006044
    11  H   -0.000176  -0.000001  -0.006365  -0.000816   0.666145  -0.047698
    12  H   -0.000000   0.000000  -0.001590   0.006044  -0.047698   0.624769
    13  H    0.000000  -0.000000  -0.000182  -0.000087   0.001410  -0.007921
    14  H   -0.000004   0.000000  -0.000032   0.000416   0.006327  -0.002206
    15  H   -0.034350   0.004631  -0.000038  -0.000142   0.000040   0.000000
    16  H   -0.034897  -0.002058   0.000382   0.001593   0.000026   0.000078
    17  H    0.396967  -0.051776  -0.000000   0.000005   0.000047  -0.000000
    18  H    0.392087  -0.041267  -0.000000   0.000005   0.000002   0.000000
    19  H   -0.032984   0.341874   0.000000   0.000000  -0.000000   0.000000
    20  H   -0.037389   0.340538  -0.000000   0.000000   0.000016  -0.000000
              13         14         15         16         17         18
     1  N    0.003237   0.003383   0.000022   0.003393  -0.000000  -0.000001
     2  C   -0.028405  -0.036475  -0.000042   0.000417  -0.000013  -0.000000
     3  C    0.370698   0.368070  -0.000005   0.000862   0.000003   0.000001
     4  S   -0.030104  -0.048372   0.004073  -0.004615   0.009457  -0.000342
     5  S    0.004129  -0.002967  -0.025187  -0.045594  -0.002774   0.002244
     6  C   -0.000027  -0.000111   0.361929   0.378715  -0.049806  -0.036977
     7  C    0.000000  -0.000004  -0.034350  -0.034897   0.396967   0.392087
     8  N   -0.000000   0.000000   0.004631  -0.002058  -0.051776  -0.041267
     9  H   -0.000182  -0.000032  -0.000038   0.000382  -0.000000  -0.000000
    10  H   -0.000087   0.000416  -0.000142   0.001593   0.000005   0.000005
    11  H    0.001410   0.006327   0.000040   0.000026   0.000047   0.000002
    12  H   -0.007921  -0.002206   0.000000   0.000078  -0.000000   0.000000
    13  H    0.549258  -0.025105   0.000001  -0.000064   0.000002  -0.000000
    14  H   -0.025105   0.581736   0.000005   0.000004   0.000002   0.000000
    15  H    0.000001   0.000005   0.558485  -0.027977   0.005651  -0.005801
    16  H   -0.000064   0.000004  -0.027977   0.571666  -0.005557   0.004966
    17  H    0.000002   0.000002   0.005651  -0.005557   0.640273  -0.042553
    18  H   -0.000000   0.000000  -0.005801   0.004966  -0.042553   0.607069
    19  H    0.000000   0.000000  -0.000079  -0.000031  -0.002295  -0.004480
    20  H    0.000000   0.000000  -0.000551   0.004319  -0.005625   0.006294
              19         20
     1  N    0.000000  -0.000001
     2  C   -0.000000  -0.000002
     3  C   -0.000000  -0.000000
     4  S    0.000021   0.000058
     5  S   -0.000371  -0.000120
     6  C    0.005609  -0.004715
     7  C   -0.032984  -0.037389
     8  N    0.341874   0.340538
     9  H    0.000000  -0.000000
    10  H    0.000000   0.000000
    11  H   -0.000000   0.000016
    12  H    0.000000  -0.000000
    13  H    0.000000   0.000000
    14  H    0.000000   0.000000
    15  H   -0.000079  -0.000551
    16  H   -0.000031   0.004319
    17  H   -0.002295  -0.005625
    18  H   -0.004480   0.006294
    19  H    0.466055  -0.031673
    20  H   -0.031673   0.474839
 Mulliken charges:
               1
     1  N   -0.648212
     2  C   -0.044956
     3  C   -0.345813
     4  S   -0.005079
     5  S   -0.029798
     6  C   -0.344009
     7  C   -0.042485
     8  N   -0.647149
     9  H    0.254904
    10  H    0.261953
    11  H    0.103068
    12  H    0.116262
    13  H    0.163160
    14  H    0.155330
    15  H    0.159336
    16  H    0.154373
    17  H    0.107991
    18  H    0.118754
    19  H    0.258357
    20  H    0.254013
 Sum of Mulliken charges =  -0.00000
 Mulliken charges with hydrogens summed into heavy atoms:
               1
     1  N   -0.131354
     2  C    0.174374
     3  C   -0.027323
     4  S   -0.005079
     5  S   -0.029798
     6  C   -0.030299
     7  C    0.184259
     8  N   -0.134780
 APT charges:
               1
     1  N   -0.750553
     2  C   -0.738247
     3  C   -1.043302
     4  S   -0.037044
     5  S   -0.052259
     6  C   -0.706775
     7  C   -0.559527
     8  N   -1.359599
     9  H    0.594242
    10  H    0.087023
    11  H    0.167936
    12  H    0.649048
    13  H    0.608171
    14  H    0.460306
    15  H    0.501977
    16  H    0.227286
    17  H    0.267693
    18  H    0.484338
    19  H    0.853265
    20  H    0.346021
 Sum of APT charges =  -0.00000
 APT charges with hydrogens summed into heavy atoms:
               1
     1  N   -0.069288
     2  C    0.078736
     3  C    0.025175
     4  S   -0.037044
     5  S   -0.052259
     6  C    0.022488
     7  C    0.192504
     8  N   -0.160313
 Electronic spatial extent (au):  <R**2>=           1802.0794
 Charge=             -0.0000 electrons
 Dipole moment (field-independent basis, Debye):
    X=              0.7432    Y=              1.7881    Z=             -2.9239  Tot=              3.5070
 Quadrupole moment (field-independent basis, Debye-Ang):
   XX=            -64.9377   YY=            -66.7617   ZZ=            -63.8268
   XY=             -0.7035   XZ=              0.6106   YZ=             -1.7142
 Traceless Quadrupole moment (field-independent basis, Debye-Ang):
   XX=              0.2377   YY=             -1.5863   ZZ=              1.3486
   XY=             -0.7035   XZ=              0.6106   YZ=             -1.7142
 Octapole moment (field-independent basis, Debye-Ang**2):
  XXX=              9.4956  YYY=             24.8584  ZZZ=             -7.6993  XYY=             -2.0353
  XXY=            -27.0562  XXZ=            -36.4739  XZZ=             11.4912  YZZ=              6.0937
  YYZ=             -4.7891  XYZ=              2.0727
 Hexadecapole moment (field-independent basis, Debye-Ang**3):
 XXXX=          -1529.2179 YYYY=           -499.3994 ZZZZ=           -317.4548 XXXY=            -30.6981
 XXXZ=            -43.9993 YYYX=            -22.1916 YYYZ=             -2.2664 ZZZX=             -7.8408
 ZZZY=              0.7342 XXYY=           -376.3362 XXZZ=           -271.4960 YYZZ=           -138.3140
 XXYZ=            -29.5939 YYXZ=             -0.9911 ZZXY=             20.8311
 N-N= 5.612303451231D+02 E-N=-3.639483097141D+03  KE= 1.060465782254D+03
  Exact polarizability:   0.000   0.000   0.000   0.000   0.000   0.000
 Approx polarizability: 143.697   6.724 124.672  19.115   4.796 132.454
 D2PCM: PCM CHGder 2nd derivatives, FixD1E=F FixD2E=F DoIter=F DoCFld=F I1PDM=0
 Calling FoFJK, ICntrl=    100147 FMM=F ISym2X=0 I1Cent= 0 IOpClX= 0 NMat=1 NMatS=1 NMatT=0.
 ***** Axes restored to original set *****
 -------------------------------------------------------------------
 Center     Atomic                   Forces (Hartrees/Bohr)
 Number     Number              X              Y              Z
 -------------------------------------------------------------------
      1        7          -0.005023654    0.011766152    0.003124960
      2        6          -0.002562549    0.000694375   -0.006880920
      3        6          -0.007225215   -0.002144097   -0.005467628
      4       16           0.000891363   -0.010820160    0.009159161
      5       16          -0.000033091    0.012189246   -0.000711958
      6        6           0.009335012   -0.003196029   -0.005214503
      7        6           0.006377978   -0.007122042   -0.003209450
      8        7           0.001529687    0.006219943   -0.009734450
      9        1           0.000442712   -0.000389275    0.001595765
     10        1          -0.002519902   -0.002608692   -0.002997978
     11        1           0.004716032   -0.007129056    0.005049092
     12        1           0.000148025   -0.002398946    0.001452851
     13        1           0.005854174    0.000950123    0.002547733
     14        1           0.000581742    0.000581713   -0.003364232
     15        1          -0.001323395    0.001417815    0.002691337
     16        1          -0.000520342    0.000183742    0.001210680
     17        1          -0.007089826    0.001233365    0.009570996
     18        1          -0.001729538    0.000145459    0.000048941
     19        1          -0.002687566    0.000137500   -0.000551388
     20        1           0.000838353    0.000288864    0.001680991
 -------------------------------------------------------------------
 Cartesian Forces:  Max     0.012189246 RMS     0.004800871
 FormGI is forming the generalized inverse of G from B-inverse, IUseBI=4.

 GradGradGradGradGradGradGradGradGradGradGradGradGradGradGradGradGradGrad
 Berny optimization.
 Internal  Forces:  Max     0.012830430 RMS     0.004115184
 Search for a local minimum.
 Step number   1 out of a maximum of   98
 All quantities printed in internal units (Hartrees-Bohrs-Radians)
 Mixed Optimization -- RFO/linear search
 Second derivative matrix not updated -- analytic derivatives used.
 ITU=  0
     Eigenvalues ---    0.00101   0.00190   0.00282   0.00368   0.00530
     Eigenvalues ---    0.00616   0.03008   0.03291   0.04248   0.04340
     Eigenvalues ---    0.04435   0.04447   0.04504   0.04597   0.05027
     Eigenvalues ---    0.05299   0.05792   0.08234   0.08553   0.08986
     Eigenvalues ---    0.09148   0.10643   0.11029   0.12887   0.13571
     Eigenvalues ---    0.14667   0.15012   0.15891   0.16728   0.17463
     Eigenvalues ---    0.17655   0.18207   0.19558   0.22556   0.23472
     Eigenvalues ---    0.24620   0.28373   0.28509   0.29493   0.32268
     Eigenvalues ---    0.32541   0.32673   0.33206   0.33491   0.33696
     Eigenvalues ---    0.33974   0.34135   0.36688   0.37454   0.42925
     Eigenvalues ---    0.43781   0.44029   0.44350   0.51586
 RFO step:  Lambda=-7.79696255D-03 EMin= 1.00898508D-03
 Linear search not attempted -- first point.
 Iteration  1 RMS(Cart)=  0.08459867 RMS(Int)=  0.00244685
 Iteration  2 RMS(Cart)=  0.00412288 RMS(Int)=  0.00031366
 Iteration  3 RMS(Cart)=  0.00001268 RMS(Int)=  0.00031360
 Iteration  4 RMS(Cart)=  0.00000000 RMS(Int)=  0.00031360
 Variable       Old X    -DE/DX   Delta X   Delta X   Delta X     New X
                                 (Linear)    (Quad)   (Total)
    R1        2.76263   0.00905   0.00000   0.01483   0.01483   2.77746
    R2        1.92493  -0.00155   0.00000  -0.00156  -0.00156   1.92338
    R3        1.93017  -0.00421   0.00000  -0.00660  -0.00660   1.92358
    R4        2.89697  -0.00041   0.00000  -0.00654  -0.00654   2.89043
    R5        2.07024   0.00375   0.00000   0.01127   0.01127   2.08151
    R6        2.07085   0.00134   0.00000   0.00306   0.00306   2.07391
    R7        3.46940   0.00654   0.00000   0.02145   0.02145   3.49085
    R8        2.07099  -0.00034   0.00000  -0.00051  -0.00051   2.07049
    R9        2.07094  -0.00157   0.00000  -0.00512  -0.00512   2.06582
   R10        3.88631   0.01256   0.00000   0.06261   0.06261   3.94893
   R11        3.45719   0.00543   0.00000   0.02652   0.02652   3.48371
   R12        2.89403  -0.00321   0.00000  -0.00845  -0.00845   2.88558
   R13        2.07078  -0.00025   0.00000  -0.00076  -0.00076   2.07002
   R14        2.06854  -0.00050   0.00000  -0.00108  -0.00108   2.06746
   R15        2.77089   0.00617   0.00000   0.00590   0.00590   2.77680
   R16        2.06909   0.00384   0.00000   0.01167   0.01167   2.08076
   R17        2.07086  -0.00067   0.00000  -0.00118  -0.00118   2.06968
   R18        1.92838  -0.00271   0.00000  -0.00443  -0.00443   1.92395
   R19        1.92707  -0.00127   0.00000  -0.00138  -0.00138   1.92569
    A1        1.91820  -0.00163   0.00000  -0.01127  -0.01131   1.90690
    A2        1.91178   0.00215   0.00000   0.00162   0.00158   1.91337
    A3        1.86560  -0.00082   0.00000  -0.01307  -0.01314   1.85245
    A4        1.97270  -0.00272   0.00000  -0.02697  -0.02677   1.94593
    A5        1.92549   0.00850   0.00000   0.06599   0.06570   1.99119
    A6        1.86629   0.00074   0.00000   0.01214   0.01150   1.87779
    A7        1.93764  -0.00524   0.00000  -0.03159  -0.03128   1.90636
    A8        1.89251  -0.00062   0.00000  -0.01361  -0.01372   1.87879
    A9        1.86425  -0.00049   0.00000  -0.00478  -0.00600   1.85825
   A10        2.01870   0.01274   0.00000   0.02910   0.02922   2.04792
   A11        1.88769   0.00114   0.00000   0.03538   0.03567   1.92336
   A12        1.94744  -0.00553   0.00000  -0.02017  -0.02014   1.92731
   A13        1.84014  -0.00950   0.00000  -0.07111  -0.07116   1.76897
   A14        1.90418  -0.00209   0.00000   0.00021   0.00024   1.90442
   A15        1.85560   0.00239   0.00000   0.02478   0.02458   1.88018
   A16        1.83733   0.01283   0.00000   0.02241   0.02241   1.85973
   A17        1.80420   0.00675   0.00000   0.02124   0.02124   1.82544
   A18        1.95609   0.00608   0.00000   0.03110   0.03113   1.98722
   A19        1.86773  -0.00417   0.00000  -0.04698  -0.04706   1.82067
   A20        1.91431  -0.00251   0.00000  -0.01565  -0.01596   1.89835
   A21        1.91373  -0.00005   0.00000   0.01164   0.01185   1.92557
   A22        1.94049  -0.00072   0.00000   0.00633   0.00627   1.94676
   A23        1.86799   0.00102   0.00000   0.01079   0.01034   1.87833
   A24        1.93835  -0.00675   0.00000  -0.02701  -0.02688   1.91147
   A25        1.94197  -0.00477   0.00000  -0.03505  -0.03486   1.90710
   A26        1.92016   0.00089   0.00000  -0.01547  -0.01591   1.90425
   A27        1.89066   0.01099   0.00000   0.08889   0.08880   1.97946
   A28        1.88982   0.00116   0.00000   0.00122   0.00042   1.89024
   A29        1.88110  -0.00109   0.00000  -0.00990  -0.01136   1.86974
   A30        1.90036   0.00002   0.00000  -0.00086  -0.00089   1.89947
   A31        1.91282  -0.00142   0.00000  -0.01036  -0.01039   1.90244
   A32        1.84649  -0.00013   0.00000  -0.00885  -0.00892   1.83757
    D1        2.94571  -0.00008   0.00000   0.03802   0.03789   2.98360
    D2        0.76474   0.00227   0.00000   0.04861   0.04920   0.81393
    D3       -1.25629  -0.00196   0.00000   0.01337   0.01296  -1.24333
    D4        0.90099   0.00061   0.00000   0.05952   0.05935   0.96035
    D5       -1.27998   0.00295   0.00000   0.07011   0.07066  -1.20932
    D6        2.98218  -0.00127   0.00000   0.03487   0.03442   3.01660
    D7       -1.52553  -0.00457   0.00000  -0.02500  -0.02490  -1.55043
    D8        2.69954  -0.00126   0.00000   0.02198   0.02194   2.72148
    D9        0.66456  -0.00173   0.00000  -0.01820  -0.01821   0.64635
   D10        0.64884   0.00053   0.00000   0.01733   0.01737   0.66620
   D11       -1.40927   0.00384   0.00000   0.06430   0.06421  -1.34507
   D12        2.83893   0.00337   0.00000   0.02413   0.02405   2.86298
   D13        2.69166  -0.00342   0.00000  -0.01468  -0.01457   2.67710
   D14        0.63356  -0.00011   0.00000   0.03230   0.03227   0.66583
   D15       -1.40143  -0.00059   0.00000  -0.00788  -0.00788  -1.40931
   D16        1.05559   0.00121   0.00000   0.04720   0.04757   1.10316
   D17        3.13995   0.00341   0.00000   0.05844   0.05794  -3.08530
   D18       -1.15649   0.00046   0.00000   0.05148   0.05162  -1.10487
   D19       -1.70705   0.00018   0.00000   0.03197   0.03197  -1.67507
   D20       -1.25159  -0.00043   0.00000   0.00181   0.00167  -1.24992
   D21        2.93309  -0.00126   0.00000  -0.00044   0.00012   2.93322
   D22        0.91260   0.00110   0.00000   0.02046   0.02004   0.93264
   D23       -3.11864   0.00343   0.00000   0.03840   0.03831  -3.08033
   D24        1.05690  -0.00269   0.00000  -0.03227  -0.03203   1.02487
   D25       -1.02658   0.00113   0.00000   0.01250   0.01247  -1.01411
   D26       -1.04712   0.00201   0.00000   0.00693   0.00681  -1.04031
   D27        3.12842  -0.00411   0.00000  -0.06374  -0.06354   3.06488
   D28        1.04494  -0.00029   0.00000  -0.01897  -0.01904   1.02590
   D29        1.01504   0.00280   0.00000   0.03146   0.03130   1.04634
   D30       -1.09260  -0.00332   0.00000  -0.03920  -0.03904  -1.13165
   D31        3.10710   0.00050   0.00000   0.00557   0.00545   3.11256
   D32        3.10076   0.00042   0.00000  -0.02543  -0.02529   3.07547
   D33       -1.17029  -0.00050   0.00000  -0.04214  -0.04196  -1.21225
   D34       -1.04478  -0.00250   0.00000  -0.02705  -0.02756  -1.07234
   D35        0.96736  -0.00342   0.00000  -0.04375  -0.04424   0.92312
   D36        0.99073   0.00272   0.00000   0.00951   0.00984   1.00057
   D37        3.00287   0.00180   0.00000  -0.00720  -0.00683   2.99603
         Item               Value     Threshold  Converged?
 Maximum Force            0.012830     0.000450     NO 
 RMS     Force            0.004115     0.000300     NO 
 Maximum Displacement     0.221547     0.001800     NO 
 RMS     Displacement     0.085440     0.001200     NO 
 Predicted change in Energy=-4.217515D-03
 GradGradGradGradGradGradGradGradGradGradGradGradGradGradGradGradGradGrad

                          Input orientation:                          
 ---------------------------------------------------------------------
 Center     Atomic      Atomic             Coordinates (Angstroms)
 Number     Number       Type             X           Y           Z
 ---------------------------------------------------------------------
      1          7           0       -2.611792    0.065225   -0.543605
      2          6           0       -2.156921   -1.178324    0.094286
      3          6           0       -1.893027   -0.978185    1.587546
      4         16           0       -0.198909   -0.434359    2.084194
      5         16           0        0.092165    1.454084    1.238128
      6          6           0        0.997214    1.124239   -0.333679
      7          6           0        2.447650    0.691475   -0.132119
      8          7           0        3.099917    0.536261   -1.439652
      9          1           0       -2.632553   -0.063421   -1.553035
     10          1           0       -1.937318    0.806805   -0.366712
     11          1           0       -1.265785   -1.624383   -0.374956
     12          1           0       -2.963196   -1.916211   -0.005106
     13          1           0       -1.977166   -1.933202    2.117945
     14          1           0       -2.629049   -0.293182    2.016607
     15          1           0        0.955704    2.075679   -0.874933
     16          1           0        0.435335    0.387486   -0.915432
     17          1           0        2.472164   -0.223184    0.480419
     18          1           0        2.979192    1.468664    0.427309
     19          1           0        4.081467    0.309490   -1.292402
     20          1           0        2.704907   -0.274958   -1.913276
 ---------------------------------------------------------------------
                    Distance matrix (angstroms):
                    1          2          3          4          5
     1  N    0.000000
     2  C    1.469771   0.000000
     3  C    2.479341   1.529550   0.000000
     4  S    3.602349   2.889123   1.847279   0.000000
     5  S    3.523477   3.646414   3.158958   2.089682   0.000000
     6  C    3.767029   3.928552   4.057682   3.115453   1.843499
     7  C    5.114632   4.974885   4.958476   3.630953   2.829745
     8  N    5.800724   5.738216   6.032161   4.923602   4.130312
     9  H    1.017806   2.045214   3.353646   4.391999   4.185392
    10  H    1.017913   2.049752   2.647126   3.251076   2.667074
    11  H    2.166784   1.101490   2.159263   2.932882   3.731357
    12  H    2.083160   1.097468   2.135813   3.768600   4.715905
    13  H    3.388261   2.167337   1.095655   2.325912   4.065700
    14  H    2.585236   2.168340   1.093184   2.435175   3.326255
    15  H    4.108373   4.606121   4.848211   4.048438   2.365820
    16  H    3.086598   3.192348   3.681199   3.174186   2.427595
    17  H    5.194075   4.742344   4.566251   3.122711   3.008612
    18  H    5.845632   5.787669   5.574203   4.057967   2.998760
    19  H    6.739442   6.561553   6.756240   5.502394   4.860885
    20  H    5.500819   5.337017   5.821622   4.943412   4.443799
                    6          7          8          9         10
     6  C    0.000000
     7  C    1.526982   0.000000
     8  N    2.447500   1.469417   0.000000
     9  H    4.009062   5.328914   5.764867   0.000000
    10  H    2.951836   4.392753   5.157338   1.627270   0.000000
    11  H    3.560588   4.383122   4.986112   2.385902   2.522241
    12  H    5.003713   6.007779   6.695811   2.436851   2.932235
    13  H    4.919892   5.615221   6.673194   4.171536   3.699020
    14  H    4.547825   5.599950   6.742014   3.577031   2.714530
    15  H    1.095407   2.166494   2.699327   4.232157   3.199673
    16  H    1.094052   2.180688   2.719732   3.165721   2.471114
    17  H    2.157262   1.101092   2.158125   5.497145   4.606739
    18  H    2.150806   1.095226   2.090334   6.144976   5.024003
    19  H    3.331003   2.039982   1.018109   6.729417   6.109828
    20  H    2.714607   2.042717   1.019033   5.353784   5.011220
                   11         12         13         14         15
    11  H    0.000000
    12  H    1.761578   0.000000
    13  H    2.610745   2.340916   0.000000
    14  H    3.057803   2.614040   1.767734   0.000000
    15  H    4.344588   5.661233   5.799152   5.179089   0.000000
    16  H    2.689524   4.205440   4.517426   4.295418   1.767036
    17  H    4.082559   5.713600   5.040059   5.327959   3.069430
    18  H    5.313228   6.852470   6.244712   6.089527   2.481694
    19  H    5.759746   7.499210   7.305284   7.506249   3.614429
    20  H    4.466965   6.201792   6.397056   6.625360   3.108595
                   16         17         18         19         20
    16  H    0.000000
    17  H    2.543618   0.000000
    18  H    3.072965   1.766988   0.000000
    19  H    3.666397   2.452854   2.348638   0.000000
    20  H    2.566220   2.405540   2.931516   1.619252   0.000000
 Stoichiometry    C4H12N2S2
 Framework group  C1[X(C4H12N2S2)]
 Deg. of freedom    54
 Full point group                 C1      NOp   1
 Largest Abelian subgroup         C1      NOp   1
 Largest concise Abelian subgroup C1      NOp   1
                         Standard orientation:                         
 ---------------------------------------------------------------------
 Center     Atomic      Atomic             Coordinates (Angstroms)
 Number     Number       Type             X           Y           Z
 ---------------------------------------------------------------------
      1          7           0       -2.059194    1.776214    0.717344
      2          6           0       -2.211998    1.187825   -0.620817
      3          6           0       -2.366420   -0.332277   -0.550336
      4         16           0       -0.821683   -1.344572   -0.588862
      5         16           0        0.261716   -0.843149    1.126244
      6          6           0        1.459150    0.439347    0.560694
      7          6           0        2.581539   -0.108237   -0.317981
      8          7           0        3.522142    0.972768   -0.643375
      9          1           0       -1.810171    2.758808    0.625556
     10          1           0       -1.281239    1.331055    1.199802
     11          1           0       -1.396261    1.437632   -1.317560
     12          1           0       -3.131639    1.595673   -1.059402
     13          1           0       -2.888343   -0.701206   -1.440251
     14          1           0       -2.958313   -0.615506    0.324018
     15          1           0        1.869587    0.854267    1.487678
     16          1           0        0.907337    1.238038    0.056172
     17          1           0        2.145071   -0.590640   -1.206343
     18          1           0        3.124733   -0.881930    0.235066
     19          1           0        4.298118    0.584066   -1.175651
     20          1           0        3.066330    1.630459   -1.274331
 ---------------------------------------------------------------------
 Rotational constants (GHZ):           1.8642371           0.7648205           0.6748544
 Standard basis: 6-31G(d,p) (6D, 7F)
 There are   188 symmetry adapted cartesian basis functions of A   symmetry.
 There are   188 symmetry adapted basis functions of A   symmetry.
   188 basis functions,   356 primitive gaussians,   188 cartesian basis functions
    41 alpha electrons       41 beta electrons
       nuclear repulsion energy       555.0091845928 Hartrees.
 NAtoms=   20 NActive=   20 NUniq=   20 SFac= 1.00D+00 NAtFMM=   60 NAOKFM=F Big=F
 Integral buffers will be    131072 words long.
 Raffenetti 2 integral format.
 Two-electron integral symmetry is turned on.
 ------------------------------------------------------------------------------
 Polarizable Continuum Model (PCM)
 =================================
 Model                : PCM.
 Atomic radii         : UFF (Universal Force Field).
 Polarization charges : Total charges.
 Charge compensation  : None.
 Solution method      : Matrix inversion.
 Cavity type          : Scaled VdW (van der Waals Surface) (Alpha=1.100).
 Cavity algorithm     : GePol (No added spheres)
                        Default sphere list used, NSphG=   20.
                        Lebedev-Laikov grids with approx.  5.0 points / Ang**2.
                        Smoothing algorithm: York/Karplus (Gamma=1.0000).
                        Polarization charges: spherical gaussians, with
                                              point-specific exponents (IZeta= 3).
                        Self-potential: point-specific (ISelfS= 7).
                        Self-field    : sphere-specific E.n sum rule (ISelfD= 2).
 1st derivatives      : Analytical E(r).r(x)/FMM algorithm (CHGder, D1EAlg=3).
                        Cavity 1st derivative terms included.
 Solvent              : Water, Eps=  78.355300 Eps(inf)=   1.777849
 ------------------------------------------------------------------------------
 Spheres list:
 ISph  on   Nord     Re0    Alpha      Xe            Ye            Ze
    1   N      1    1.8300  1.100     -2.059194      1.776214      0.717344
    2   C      2    1.9255  1.100     -2.211998      1.187825     -0.620817
    3   C      3    1.9255  1.100     -2.366420     -0.332277     -0.550336
    4   S      4    2.0175  1.100     -0.821683     -1.344572     -0.588862
    5   S      5    2.0175  1.100      0.261716     -0.843149      1.126244
    6   C      6    1.9255  1.100      1.459150      0.439347      0.560694
    7   C      7    1.9255  1.100      2.581539     -0.108237     -0.317981
    8   N      8    1.8300  1.100      3.522142      0.972768     -0.643375
    9   H      9    1.4430  1.100     -1.810171      2.758808      0.625556
   10   H     10    1.4430  1.100     -1.281239      1.331055      1.199802
   11   H     11    1.4430  1.100     -1.396261      1.437632     -1.317560
   12   H     12    1.4430  1.100     -3.131639      1.595673     -1.059402
   13   H     13    1.4430  1.100     -2.888343     -0.701206     -1.440251
   14   H     14    1.4430  1.100     -2.958313     -0.615506      0.324018
   15   H     15    1.4430  1.100      1.869587      0.854267      1.487678
   16   H     16    1.4430  1.100      0.907337      1.238038      0.056172
   17   H     17    1.4430  1.100      2.145071     -0.590640     -1.206343
   18   H     18    1.4430  1.100      3.124733     -0.881930      0.235066
   19   H     19    1.4430  1.100      4.298118      0.584066     -1.175651
   20   H     20    1.4430  1.100      3.066330      1.630459     -1.274331
 ------------------------------------------------------------------------------
 One-electron integrals computed using PRISM.
 NBasis=   188 RedAO= T EigKep=  4.91D-03  NBF=   188
 NBsUse=   188 1.00D-06 EigRej= -1.00D+00 NBFU=   188
 Initial guess from the checkpoint file:  "APQPRKLAWCIJEK-UHFFFAOYSA-N_conf_2_0.chk"
 B after Tr=     0.000000   -0.000000    0.000000
         Rot=    0.999543   -0.029515   -0.006401    0.000988 Ang=  -3.46 deg.
 ExpMin= 1.17D-01 ExpMax= 2.19D+04 ExpMxC= 3.30D+03 IAcc=2 IRadAn=         4 AccDes= 0.00D+00
 Harris functional with IExCor=  402 and IRadAn=       4 diagonalized for initial guess.
 HarFok:  IExCor=  402 AccDes= 0.00D+00 IRadAn=         4 IDoV= 1 UseB2=F ITyADJ=14
 ICtDFT=  3500011 ScaDFX=  1.000000  1.000000  1.000000  1.000000
 FoFCou: FMM=F IPFlag=           0 FMFlag=      100000 FMFlg1=           0
         NFxFlg=           0 DoJE=T BraDBF=F KetDBF=T FulRan=T
         wScrn=  0.000000 ICntrl=       500 IOpCl=  0 I1Cent=   200000004 NGrid=           0
         NMat0=    1 NMatS0=      1 NMatT0=    0 NMatD0=    1 NMtDS0=    0 NMtDT0=    0
 Petite list used in FoFCou.
 Keep R1 ints in memory in canonical form, NReq=161201114.
 Requested convergence on RMS density matrix=1.00D-08 within  32 cycles.
 Requested convergence on MAX density matrix=1.00D-06.
 Requested convergence on             energy=1.00D-06.
 No special actions if energy rises.
 Inv3:  Mode=1 IEnd=     8507568.
 Iteration    1 A*A^-1 deviation from unit magnitude is 7.77D-15 for    101.
 Iteration    1 A*A^-1 deviation from orthogonality  is 3.34D-15 for    895    605.
 Iteration    1 A^-1*A deviation from unit magnitude is 7.77D-15 for    101.
 Iteration    1 A^-1*A deviation from orthogonality  is 2.17D-15 for    887    731.
 Error on total polarization charges =  0.01136
 SCF Done:  E(RB3LYP) =  -1065.54828443     A.U. after   10 cycles
            NFock= 10  Conv=0.60D-08     -V/T= 2.0049
 QCSCF skips out because SCF is already converged.
 D1PCM: PCM CHGder 1st derivatives, ID1Alg=3 FixD1E=F DoIter=F DoCFld=F I1PDM=0.
 Calling FoFJK, ICntrl=      2127 FMM=F ISym2X=0 I1Cent= 0 IOpClX= 0 NMat=1 NMatS=1 NMatT=0.
 ***** Axes restored to original set *****
 -------------------------------------------------------------------
 Center     Atomic                   Forces (Hartrees/Bohr)
 Number     Number              X              Y              Z
 -------------------------------------------------------------------
      1        7          -0.000517524    0.000952486    0.000752030
      2        6           0.000223797   -0.000200981   -0.001223910
      3        6          -0.001409964   -0.000266480   -0.000085349
      4       16           0.000229584   -0.001112002    0.000620605
      5       16           0.000353520    0.001450585    0.000367160
      6        6           0.000467353   -0.000078109   -0.000809216
      7        6           0.000876668   -0.001184202   -0.000081097
      8        7          -0.000430880    0.000680049   -0.001011794
      9        1          -0.000383247   -0.000111347    0.000034502
     10        1           0.000143518   -0.000263121   -0.000703792
     11        1           0.000276022   -0.000547338    0.000756701
     12        1           0.000072642   -0.000162874    0.000028299
     13        1           0.000623565    0.000019719    0.000214368
     14        1          -0.000015163    0.000187019   -0.000277008
     15        1          -0.000051655    0.000242501    0.000374110
     16        1           0.000015532    0.000104770    0.000019641
     17        1          -0.000670527    0.000366031    0.000876386
     18        1          -0.000114454    0.000029147    0.000086128
     19        1           0.000002541    0.000144541   -0.000038345
     20        1           0.000308670   -0.000250394    0.000100579
 -------------------------------------------------------------------
 Cartesian Forces:  Max     0.001450585 RMS     0.000550948

 GradGradGradGradGradGradGradGradGradGradGradGradGradGradGradGradGradGrad
 Berny optimization.
 Using GEDIIS/GDIIS optimizer.
 FormGI is forming the generalized inverse of G from B-inverse, IUseBI=4.
 Internal  Forces:  Max     0.002838751 RMS     0.000551365
 Search for a local minimum.
 Step number   2 out of a maximum of   98
 All quantities printed in internal units (Hartrees-Bohrs-Radians)
 Mixed Optimization -- En-DIIS/RFO-DIIS
 Update second derivatives using D2CorX and points    1    2
 DE= -4.35D-03 DEPred=-4.22D-03 R= 1.03D+00
 TightC=F SS=  1.41D+00  RLast= 2.86D-01 DXNew= 5.0454D-01 8.5825D-01
 Trust test= 1.03D+00 RLast= 2.86D-01 DXMaxT set to 5.05D-01
 ITU=  1  0
 Use linear search instead of GDIIS.
     Eigenvalues ---    0.00101   0.00191   0.00282   0.00368   0.00529
     Eigenvalues ---    0.00613   0.03008   0.03291   0.04245   0.04346
     Eigenvalues ---    0.04434   0.04446   0.04508   0.04601   0.05028
     Eigenvalues ---    0.05274   0.05782   0.08229   0.08514   0.08986
     Eigenvalues ---    0.09140   0.10636   0.11069   0.12943   0.13566
     Eigenvalues ---    0.14656   0.15019   0.15814   0.16722   0.17440
     Eigenvalues ---    0.17651   0.18187   0.19485   0.22554   0.23430
     Eigenvalues ---    0.24578   0.28337   0.28493   0.29356   0.32267
     Eigenvalues ---    0.32534   0.32670   0.33196   0.33491   0.33695
     Eigenvalues ---    0.33978   0.34133   0.36578   0.37452   0.42906
     Eigenvalues ---    0.43790   0.44028   0.44327   0.49980
 RFO step:  Lambda=-4.76664357D-04 EMin= 1.01079515D-03
 Quartic linear search produced a step of  0.15359.
 Iteration  1 RMS(Cart)=  0.06095590 RMS(Int)=  0.00430967
 Iteration  2 RMS(Cart)=  0.00450935 RMS(Int)=  0.00005239
 Iteration  3 RMS(Cart)=  0.00002410 RMS(Int)=  0.00004928
 Iteration  4 RMS(Cart)=  0.00000000 RMS(Int)=  0.00004928
 Variable       Old X    -DE/DX   Delta X   Delta X   Delta X     New X
                                 (Linear)    (Quad)   (Total)
    R1        2.77746   0.00069   0.00228  -0.00394  -0.00166   2.77580
    R2        1.92338  -0.00001  -0.00024   0.00093   0.00069   1.92407
    R3        1.92358  -0.00022  -0.00101   0.00045  -0.00056   1.92302
    R4        2.89043   0.00043  -0.00101   0.00240   0.00140   2.89183
    R5        2.08151   0.00012   0.00173  -0.00033   0.00140   2.08292
    R6        2.07391   0.00005   0.00047  -0.00133  -0.00086   2.07306
    R7        3.49085   0.00116   0.00329   0.00016   0.00345   3.49430
    R8        2.07049   0.00004  -0.00008   0.00059   0.00052   2.07100
    R9        2.06582   0.00002  -0.00079   0.00003  -0.00076   2.06506
   R10        3.94893   0.00151   0.00962  -0.00054   0.00907   3.95800
   R11        3.48371   0.00060   0.00407   0.00093   0.00500   3.48871
   R12        2.88558   0.00003  -0.00130   0.00317   0.00187   2.88745
   R13        2.07002   0.00003  -0.00012  -0.00004  -0.00016   2.06986
   R14        2.06746  -0.00009  -0.00017   0.00033   0.00017   2.06763
   R15        2.77680   0.00073   0.00091  -0.00092  -0.00001   2.77679
   R16        2.08076   0.00017   0.00179  -0.00136   0.00043   2.08119
   R17        2.06968   0.00001  -0.00018  -0.00008  -0.00026   2.06942
   R18        1.92395  -0.00003  -0.00068   0.00052  -0.00016   1.92379
   R19        1.92569   0.00003  -0.00021  -0.00004  -0.00025   1.92544
    A1        1.90690  -0.00005  -0.00174  -0.00392  -0.00566   1.90123
    A2        1.91337   0.00016   0.00024   0.00285   0.00309   1.91646
    A3        1.85245  -0.00015  -0.00202   0.00191  -0.00012   1.85234
    A4        1.94593   0.00028  -0.00411   0.00136  -0.00274   1.94319
    A5        1.99119   0.00066   0.01009   0.00277   0.01282   2.00402
    A6        1.87779  -0.00013   0.00177  -0.00858  -0.00692   1.87087
    A7        1.90636  -0.00052  -0.00480   0.00154  -0.00322   1.90315
    A8        1.87879  -0.00036  -0.00211   0.00056  -0.00159   1.87720
    A9        1.85825  -0.00000  -0.00092   0.00208   0.00098   1.85923
   A10        2.04792   0.00170   0.00449  -0.00390   0.00060   2.04852
   A11        1.92336  -0.00033   0.00548  -0.00174   0.00377   1.92713
   A12        1.92731  -0.00034  -0.00309   0.00157  -0.00152   1.92578
   A13        1.76897  -0.00105  -0.01093   0.00069  -0.01024   1.75873
   A14        1.90442  -0.00042   0.00004   0.00096   0.00101   1.90543
   A15        1.88018   0.00033   0.00378   0.00285   0.00659   1.88677
   A16        1.85973   0.00284   0.00344   0.00017   0.00362   1.86335
   A17        1.82544   0.00106   0.00326  -0.00285   0.00042   1.82585
   A18        1.98722   0.00038   0.00478  -0.00305   0.00174   1.98896
   A19        1.82067  -0.00035  -0.00723   0.00174  -0.00550   1.81517
   A20        1.89835  -0.00012  -0.00245   0.00365   0.00115   1.89950
   A21        1.92557   0.00001   0.00182  -0.00166   0.00019   1.92577
   A22        1.94676  -0.00004   0.00096  -0.00131  -0.00036   1.94640
   A23        1.87833   0.00010   0.00159   0.00106   0.00258   1.88090
   A24        1.91147  -0.00068  -0.00413   0.00095  -0.00316   1.90831
   A25        1.90710  -0.00030  -0.00535   0.00319  -0.00214   1.90497
   A26        1.90425  -0.00003  -0.00244  -0.00144  -0.00396   1.90029
   A27        1.97946   0.00103   0.01364  -0.00257   0.01106   1.99052
   A28        1.89024   0.00016   0.00006  -0.00004  -0.00012   1.89012
   A29        1.86974  -0.00018  -0.00174  -0.00017  -0.00216   1.86758
   A30        1.89947   0.00001  -0.00014   0.00143   0.00128   1.90075
   A31        1.90244   0.00007  -0.00160   0.00349   0.00189   1.90432
   A32        1.83757  -0.00012  -0.00137   0.00129  -0.00009   1.83748
    D1        2.98360   0.00042   0.00582   0.15531   0.16110  -3.13849
    D2        0.81393   0.00037   0.00756   0.14996   0.15760   0.97153
    D3       -1.24333   0.00006   0.00199   0.15150   0.15344  -1.08988
    D4        0.96035   0.00053   0.00912   0.15363   0.16272   1.12306
    D5       -1.20932   0.00048   0.01085   0.14829   0.15922  -1.05010
    D6        3.01660   0.00018   0.00529   0.14983   0.15506  -3.11152
    D7       -1.55043  -0.00066  -0.00382  -0.00453  -0.00834  -1.55877
    D8        2.72148  -0.00016   0.00337  -0.00159   0.00178   2.72327
    D9        0.64635  -0.00014  -0.00280  -0.00501  -0.00781   0.63854
   D10        0.66620   0.00002   0.00267   0.00123   0.00390   0.67010
   D11       -1.34507   0.00052   0.00986   0.00417   0.01402  -1.33104
   D12        2.86298   0.00053   0.00369   0.00076   0.00443   2.86742
   D13        2.67710  -0.00044  -0.00224   0.00478   0.00256   2.67965
   D14        0.66583   0.00006   0.00496   0.00772   0.01268   0.67850
   D15       -1.40931   0.00007  -0.00121   0.00430   0.00309  -1.40622
   D16        1.10316   0.00095   0.00731   0.02992   0.03727   1.14043
   D17       -3.08530   0.00069   0.00890   0.02617   0.03500  -3.05030
   D18       -1.10487   0.00042   0.00793   0.03005   0.03799  -1.06688
   D19       -1.67507   0.00010   0.00491  -0.02644  -0.02153  -1.69661
   D20       -1.24992   0.00001   0.00026   0.00397   0.00420  -1.24572
   D21        2.93322   0.00002   0.00002   0.00653   0.00664   2.93985
   D22        0.93264   0.00013   0.00308   0.00288   0.00589   0.93853
   D23       -3.08033   0.00033   0.00588  -0.02261  -0.01675  -3.09707
   D24        1.02487  -0.00031  -0.00492  -0.02218  -0.02706   0.99781
   D25       -1.01411   0.00010   0.00192  -0.02296  -0.02104  -1.03516
   D26       -1.04031   0.00012   0.00105  -0.02349  -0.02247  -1.06278
   D27        3.06488  -0.00051  -0.00976  -0.02305  -0.03278   3.03211
   D28        1.02590  -0.00010  -0.00292  -0.02383  -0.02676   0.99914
   D29        1.04634   0.00023   0.00481  -0.02411  -0.01933   1.02701
   D30       -1.13165  -0.00040  -0.00600  -0.02367  -0.02964  -1.16129
   D31        3.11256   0.00001   0.00084  -0.02445  -0.02363   3.08893
   D32        3.07547  -0.00017  -0.00388  -0.07657  -0.08043   2.99504
   D33       -1.21225  -0.00027  -0.00644  -0.07243  -0.07885  -1.29110
   D34       -1.07234  -0.00035  -0.00423  -0.07353  -0.07785  -1.15019
   D35        0.92312  -0.00044  -0.00679  -0.06940  -0.07627   0.84685
   D36        1.00057   0.00016   0.00151  -0.07535  -0.07379   0.92678
   D37        2.99603   0.00007  -0.00105  -0.07122  -0.07221   2.92383
         Item               Value     Threshold  Converged?
 Maximum Force            0.002839     0.000450     NO 
 RMS     Force            0.000551     0.000300     NO 
 Maximum Displacement     0.334507     0.001800     NO 
 RMS     Displacement     0.061218     0.001200     NO 
 Predicted change in Energy=-3.200342D-04
 GradGradGradGradGradGradGradGradGradGradGradGradGradGradGradGradGradGrad

                          Input orientation:                          
 ---------------------------------------------------------------------
 Center     Atomic      Atomic             Coordinates (Angstroms)
 Number     Number       Type             X           Y           Z
 ---------------------------------------------------------------------
      1          7           0       -2.628624    0.063135   -0.538640
      2          6           0       -2.185158   -1.183582    0.099069
      3          6           0       -1.901074   -0.976707    1.588459
      4         16           0       -0.188580   -0.466845    2.064483
      5         16           0        0.117734    1.443654    1.262597
      6          6           0        1.022826    1.145511   -0.318596
      7          6           0        2.469471    0.691523   -0.129372
      8          7           0        3.109040    0.543903   -1.444033
      9          1           0       -2.809566   -0.116239   -1.524419
     10          1           0       -1.879210    0.750932   -0.509330
     11          1           0       -1.308588   -1.657783   -0.371756
     12          1           0       -3.010437   -1.901560    0.016232
     13          1           0       -1.990280   -1.925283    2.130034
     14          1           0       -2.617666   -0.272025    2.017518
     15          1           0        0.991481    2.114331   -0.828633
     16          1           0        0.453887    0.431901   -0.922098
     17          1           0        2.483584   -0.224430    0.481967
     18          1           0        3.011351    1.459767    0.432225
     19          1           0        4.104557    0.378633   -1.309834
     20          1           0        2.755253   -0.298836   -1.894346
 ---------------------------------------------------------------------
                    Distance matrix (angstroms):
                    1          2          3          4          5
     1  N    0.000000
     2  C    1.468890   0.000000
     3  C    2.476924   1.530288   0.000000
     4  S    3.607068   2.891866   1.849106   0.000000
     5  S    3.562691   3.682320   3.168583   2.094482   0.000000
     6  C    3.814845   3.986261   4.085322   3.121900   1.846145
     7  C    5.152955   5.023324   4.983533   3.635939   2.834421
     8  N    5.828521   5.778746   6.050579   4.919918   4.133196
     9  H    1.018172   2.040789   3.354962   4.457881   4.332414
    10  H    1.017616   2.050877   2.717707   3.311453   2.758147
    11  H    2.175294   1.102234   2.158089   2.933941   3.784761
    12  H    2.076943   1.097014   2.134933   3.770493   4.746508
    13  H    3.388674   2.170925   1.095928   2.318935   4.067666
    14  H    2.578060   2.167589   1.092782   2.437339   3.316003
    15  H    4.170930   4.672033   4.874805   4.052793   2.363574
    16  H    3.128083   3.258394   3.719262   3.184363   2.430953
    17  H    5.221016   4.781605   4.584263   3.115057   2.998188
    18  H    5.890880   5.839691   5.604034   4.076230   3.010447
    19  H    6.784541   6.632197   6.804752   5.525565   4.862759
    20  H    5.563730   5.400384   5.854128   4.936263   4.467556
                    6          7          8          9         10
     6  C    0.000000
     7  C    1.527970   0.000000
     8  N    2.445573   1.469413   0.000000
     9  H    4.211087   5.519680   5.955850   0.000000
    10  H    2.934942   4.365653   5.079289   1.627253   0.000000
    11  H    3.646474   4.455527   5.051004   2.440886   2.479202
    12  H    5.065961   6.064213   6.749864   2.366712   2.931143
    13  H    4.950189   5.642869   6.698798   4.159194   3.760412
    14  H    4.551924   5.605045   6.741160   3.550550   2.824308
    15  H    1.095323   2.167442   2.707216   4.461784   3.194007
    16  H    1.094141   2.181375   2.708283   3.363536   2.390712
    17  H    2.156723   1.101320   2.165874   5.661690   4.579080
    18  H    2.148655   1.095090   2.090142   6.339978   5.030562
    19  H    3.326818   2.040808   1.018026   6.935131   6.048544
    20  H    2.751441   2.043921   1.018899   5.580090   4.949599
                   11         12         13         14         15
    11  H    0.000000
    12  H    1.762456   0.000000
    13  H    2.606763   2.347220   0.000000
    14  H    3.056573   2.610517   1.771874   0.000000
    15  H    4.441610   5.732061   5.827786   5.178920   0.000000
    16  H    2.788544   4.281010   4.565717   4.309442   1.768703
[...]
    19  H   -0.031799   0.340149   0.000000   0.000000  -0.000000   0.000000
    20  H   -0.035321   0.339133   0.000000  -0.000001   0.000005  -0.000000
              13         14         15         16         17         18
     1  N    0.003620   0.005214   0.000024   0.001463   0.000000  -0.000001
     2  C   -0.032302  -0.031137  -0.000022   0.001278  -0.000009   0.000000
     3  C    0.381398   0.349470  -0.000000  -0.000023   0.000009  -0.000002
     4  S   -0.048990  -0.067940  -0.001388   0.014936   0.003971   0.001762
     5  S   -0.001598   0.021464  -0.040917  -0.064764   0.002516  -0.000564
     6  C   -0.000026  -0.000089   0.382141   0.361250  -0.054518  -0.038589
     7  C    0.000000  -0.000003  -0.031263  -0.023442   0.389459   0.395163
     8  N   -0.000000   0.000000   0.004903  -0.003050  -0.041685  -0.040282
     9  H   -0.000209   0.000114  -0.000002   0.000184  -0.000000  -0.000000
    10  H   -0.000097  -0.000739  -0.000199   0.005462   0.000005   0.000005
    11  H    0.001880   0.006733   0.000007  -0.000525   0.000023   0.000001
    12  H   -0.005979  -0.003633  -0.000000   0.000012  -0.000000  -0.000000
    13  H    0.562952  -0.026150   0.000000  -0.000008   0.000001   0.000000
    14  H   -0.026150   0.594403   0.000007  -0.000105   0.000003  -0.000000
    15  H    0.000000   0.000007   0.559762  -0.037360   0.005932  -0.007608
    16  H   -0.000008  -0.000105  -0.037360   0.588272  -0.006016   0.005385
    17  H    0.000001   0.000003   0.005932  -0.006016   0.642521  -0.043560
    18  H    0.000000  -0.000000  -0.007608   0.005385  -0.043560   0.603496
    19  H    0.000000   0.000000  -0.000051  -0.000044  -0.001444  -0.005351
    20  H    0.000000   0.000000  -0.000593   0.003860  -0.006310   0.006132
              19         20
     1  N    0.000000  -0.000001
     2  C   -0.000000  -0.000000
     3  C   -0.000000  -0.000000
     4  S    0.000012   0.000035
     5  S   -0.000340  -0.000168
     6  C    0.005818  -0.004229
     7  C   -0.031799  -0.035321
     8  N    0.340149   0.339133
     9  H    0.000000   0.000000
    10  H    0.000000  -0.000001
    11  H   -0.000000   0.000005
    12  H    0.000000  -0.000000
    13  H    0.000000   0.000000
    14  H    0.000000   0.000000
    15  H   -0.000051  -0.000593
    16  H   -0.000044   0.003860
    17  H   -0.001444  -0.006310
    18  H   -0.005351   0.006132
    19  H    0.462516  -0.031287
    20  H   -0.031287   0.470214
 Mulliken charges:
               1
     1  N   -0.635410
     2  C   -0.054492
     3  C   -0.326166
     4  S   -0.058675
     5  S   -0.069941
     6  C   -0.325005
     7  C   -0.053270
     8  N   -0.638840
     9  H    0.263054
    10  H    0.256615
    11  H    0.111419
    12  H    0.139489
    13  H    0.165508
    14  H    0.152386
    15  H    0.166626
    16  H    0.153235
    17  H    0.109102
    18  H    0.124013
    19  H    0.261821
    20  H    0.258531
 Sum of Mulliken charges =  -0.00000
 Mulliken charges with hydrogens summed into heavy atoms:
               1
     1  N   -0.115740
     2  C    0.196416
     3  C   -0.008273
     4  S   -0.058675
     5  S   -0.069941
     6  C   -0.005143
     7  C    0.179845
     8  N   -0.118488
 Electronic spatial extent (au):  <R**2>=           1887.0531
 Charge=             -0.0000 electrons
 Dipole moment (field-independent basis, Debye):
    X=              0.3306    Y=              2.8884    Z=             -3.1477  Tot=              4.2849
 Quadrupole moment (field-independent basis, Debye-Ang):
   XX=            -59.8203   YY=            -63.3877   ZZ=            -69.6346
   XY=             -2.8108   XZ=             -1.9082   YZ=             -3.4609
 Traceless Quadrupole moment (field-independent basis, Debye-Ang):
   XX=              4.4606   YY=              0.8932   ZZ=             -5.3537
   XY=             -2.8108   XZ=             -1.9082   YZ=             -3.4609
 Octapole moment (field-independent basis, Debye-Ang**2):
  XXX=              5.7575  YYY=             28.1725  ZZZ=            -10.5543  XYY=             -7.7747
  XXY=            -11.8738  XXZ=            -38.5925  XZZ=             13.1804  YZZ=             10.7240
  YYZ=             -2.6304  XYZ=              1.9411
 Hexadecapole moment (field-independent basis, Debye-Ang**3):
 XXXX=          -1539.2174 YYYY=           -499.0605 ZZZZ=           -341.4206 XXXY=            -40.4986
 XXXZ=            -61.2167 YYYX=            -36.4160 YYYZ=             -6.8162 ZZZX=            -14.1948
 ZZZY=             -4.7990 XXYY=           -367.7614 XXZZ=           -299.0994 YYZZ=           -148.6305
 XXYZ=            -42.6991 YYXZ=            -12.7542 ZZXY=             19.9028
 N-N= 5.518546843763D+02 E-N=-3.621061809766D+03  KE= 1.060713560286D+03
 Evaluate density.
 Using the total density.
 Monte-Carlo method of calculating molar volume:
 based on  0.001 e/bohr**3 density envelope.
 Number of points per bohr**3 =   20 CutOff= 1.00D-04
 Using the CI density.
 There are       422 points.  Will hold       422 in memory.
 LenV=   805189812 MDV=   805306368.
 Box volume = 9412.931 fraction occupied=0.130
 Integrated density= 3.1671355534669964D+01 error=-5.0328644465330036D+01
 Molar volume = 1226.804 bohr**3/mol (109.479 cm**3/mol)
 Recommended a0 for SCRF calculation =  4.37 angstrom (  8.25 bohr)
 ******************************Gaussian NBO Version 3.1******************************
             N A T U R A L   A T O M I C   O R B I T A L   A N D
          N A T U R A L   B O N D   O R B I T A L   A N A L Y S I S
 ******************************Gaussian NBO Version 3.1******************************
       /RESON  / : Allow strongly delocalized NBO set

 Analyzing the CI density

 Job title: APQPRKLAWCIJEK-UHFFFAOYSA-N_conf_2                              

 Storage needed:    107440 in NPA ( 805304168 available)
 GSVD:  LWork=       20560 too small for GESVD, short by        8252 words or        8252 for optimal perf.


 NATURAL POPULATIONS:  Natural atomic orbital occupancies 
                                                          
   NAO  Atom  No  lang   Type(AO)    Occupancy
 --------------------------------------------
     1    N    1  S      Cor( 1S)     1.99968
     2    N    1  S      Val( 2S)     1.44309
     3    N    1  S      Ryd( 3S)     0.00054
     4    N    1  S      Ryd( 4S)     0.00000
     5    N    1  px     Val( 2p)     1.57674
     6    N    1  px     Ryd( 3p)     0.00380
     7    N    1  py     Val( 2p)     1.39436
     8    N    1  py     Ryd( 3p)     0.00284
     9    N    1  pz     Val( 2p)     1.49557
    10    N    1  pz     Ryd( 3p)     0.00377
    11    N    1  dxy    Ryd( 3d)     0.00041
    12    N    1  dxz    Ryd( 3d)     0.00098
    13    N    1  dyz    Ryd( 3d)     0.00068
    14    N    1  dx2y2  Ryd( 3d)     0.00129
    15    N    1  dz2    Ryd( 3d)     0.00118

    16    C    2  S      Cor( 1S)     1.99929
    17    C    2  S      Val( 2S)     1.03069
    18    C    2  S      Ryd( 3S)     0.00211
    19    C    2  S      Ryd( 4S)     0.00004
    20    C    2  px     Val( 2p)     1.22833
    21    C    2  px     Ryd( 3p)     0.00373
    22    C    2  py     Val( 2p)     1.00258
    23    C    2  py     Ryd( 3p)     0.00150
    24    C    2  pz     Val( 2p)     1.00123
    25    C    2  pz     Ryd( 3p)     0.00308
    26    C    2  dxy    Ryd( 3d)     0.00048
    27    C    2  dxz    Ryd( 3d)     0.00117
    28    C    2  dyz    Ryd( 3d)     0.00089
    29    C    2  dx2y2  Ryd( 3d)     0.00091
    30    C    2  dz2    Ryd( 3d)     0.00145

    31    C    3  S      Cor( 1S)     1.99926
    32    C    3  S      Val( 2S)     1.13023
    33    C    3  S      Ryd( 3S)     0.00168
    34    C    3  S      Ryd( 4S)     0.00003
    35    C    3  px     Val( 2p)     1.09546
    36    C    3  px     Ryd( 3p)     0.00240
    37    C    3  py     Val( 2p)     1.08380
    38    C    3  py     Ryd( 3p)     0.00218
    39    C    3  pz     Val( 2p)     1.29119
    40    C    3  pz     Ryd( 3p)     0.00326
    41    C    3  dxy    Ryd( 3d)     0.00115
    42    C    3  dxz    Ryd( 3d)     0.00087
    43    C    3  dyz    Ryd( 3d)     0.00068
    44    C    3  dx2y2  Ryd( 3d)     0.00079
    45    C    3  dz2    Ryd( 3d)     0.00088

    46    S    4  S      Cor( 1S)     2.00000
    47    S    4  S      Cor( 2S)     1.99963
    48    S    4  S      Val( 3S)     1.79831
    49    S    4  S      Ryd( 4S)     0.01199
    50    S    4  S      Ryd( 5S)     0.00002
    51    S    4  px     Cor( 2p)     1.99986
    52    S    4  px     Val( 3p)     1.16680
    53    S    4  px     Ryd( 4p)     0.01235
    54    S    4  py     Cor( 2p)     1.99986
    55    S    4  py     Val( 3p)     1.36137
    56    S    4  py     Ryd( 4p)     0.00339
    57    S    4  pz     Cor( 2p)     1.99994
    58    S    4  pz     Val( 3p)     1.58363
    59    S    4  pz     Ryd( 4p)     0.01180
    60    S    4  dxy    Ryd( 3d)     0.00431
    61    S    4  dxz    Ryd( 3d)     0.00687
    62    S    4  dyz    Ryd( 3d)     0.00285
    63    S    4  dx2y2  Ryd( 3d)     0.00265
    64    S    4  dz2    Ryd( 3d)     0.00437

    65    S    5  S      Cor( 1S)     2.00000
    66    S    5  S      Cor( 2S)     1.99962
    67    S    5  S      Val( 3S)     1.79230
    68    S    5  S      Ryd( 4S)     0.00960
    69    S    5  S      Ryd( 5S)     0.00002
    70    S    5  px     Cor( 2p)     1.99988
    71    S    5  px     Val( 3p)     1.30833
    72    S    5  px     Ryd( 4p)     0.01294
    73    S    5  py     Cor( 2p)     1.99983
    74    S    5  py     Val( 3p)     1.23905
    75    S    5  py     Ryd( 4p)     0.00729
    76    S    5  pz     Cor( 2p)     1.99994
    77    S    5  pz     Val( 3p)     1.55980
    78    S    5  pz     Ryd( 4p)     0.01003
    79    S    5  dxy    Ryd( 3d)     0.00454
    80    S    5  dxz    Ryd( 3d)     0.00701
    81    S    5  dyz    Ryd( 3d)     0.00417
    82    S    5  dx2y2  Ryd( 3d)     0.00184
    83    S    5  dz2    Ryd( 3d)     0.00449

    84    C    6  S      Cor( 1S)     1.99927
    85    C    6  S      Val( 2S)     1.13398
    86    C    6  S      Ryd( 3S)     0.00190
    87    C    6  S      Ryd( 4S)     0.00003
    88    C    6  px     Val( 2p)     1.11683
    89    C    6  px     Ryd( 3p)     0.00336
    90    C    6  py     Val( 2p)     1.12259
    91    C    6  py     Ryd( 3p)     0.00247
    92    C    6  pz     Val( 2p)     1.22166
    93    C    6  pz     Ryd( 3p)     0.00271
    94    C    6  dxy    Ryd( 3d)     0.00144
    95    C    6  dxz    Ryd( 3d)     0.00078
    96    C    6  dyz    Ryd( 3d)     0.00078
    97    C    6  dx2y2  Ryd( 3d)     0.00047
    98    C    6  dz2    Ryd( 3d)     0.00097

    99    C    7  S      Cor( 1S)     1.99932
   100    C    7  S      Val( 2S)     1.02746
   101    C    7  S      Ryd( 3S)     0.00251
   102    C    7  S      Ryd( 4S)     0.00004
   103    C    7  px     Val( 2p)     1.02915
   104    C    7  px     Ryd( 3p)     0.00321
   105    C    7  py     Val( 2p)     1.04369
   106    C    7  py     Ryd( 3p)     0.00220
   107    C    7  pz     Val( 2p)     1.16303
   108    C    7  pz     Ryd( 3p)     0.00277
   109    C    7  dxy    Ryd( 3d)     0.00142
   110    C    7  dxz    Ryd( 3d)     0.00108
   111    C    7  dyz    Ryd( 3d)     0.00110
   112    C    7  dx2y2  Ryd( 3d)     0.00062
   113    C    7  dz2    Ryd( 3d)     0.00067

   114    N    8  S      Cor( 1S)     1.99967
   115    N    8  S      Val( 2S)     1.44731
   116    N    8  S      Ryd( 3S)     0.00069
   117    N    8  S      Ryd( 4S)     0.00001
   118    N    8  px     Val( 2p)     1.37109
   119    N    8  px     Ryd( 3p)     0.00230
   120    N    8  py     Val( 2p)     1.39888
   121    N    8  py     Ryd( 3p)     0.00278
   122    N    8  pz     Val( 2p)     1.69318
   123    N    8  pz     Ryd( 3p)     0.00506
   124    N    8  dxy    Ryd( 3d)     0.00076
   125    N    8  dxz    Ryd( 3d)     0.00125
   126    N    8  dyz    Ryd( 3d)     0.00127
   127    N    8  dx2y2  Ryd( 3d)     0.00028
   128    N    8  dz2    Ryd( 3d)     0.00104

   129    H    9  S      Val( 1S)     0.59890
   130    H    9  S      Ryd( 2S)     0.00105
   131    H    9  px     Ryd( 2p)     0.00042
   132    H    9  py     Ryd( 2p)     0.00059
   133    H    9  pz     Ryd( 2p)     0.00039

   134    H   10  S      Val( 1S)     0.61505
   135    H   10  S      Ryd( 2S)     0.00207
   136    H   10  px     Ryd( 2p)     0.00066
   137    H   10  py     Ryd( 2p)     0.00034
   138    H   10  pz     Ryd( 2p)     0.00042

   139    H   11  S      Val( 1S)     0.77661
   140    H   11  S      Ryd( 2S)     0.00252
   141    H   11  px     Ryd( 2p)     0.00021
   142    H   11  py     Ryd( 2p)     0.00013
   143    H   11  pz     Ryd( 2p)     0.00023

   144    H   12  S      Val( 1S)     0.74137
   145    H   12  S      Ryd( 2S)     0.00146
   146    H   12  px     Ryd( 2p)     0.00034
   147    H   12  py     Ryd( 2p)     0.00013
   148    H   12  pz     Ryd( 2p)     0.00009

   149    H   13  S      Val( 1S)     0.71996
   150    H   13  S      Ryd( 2S)     0.00160
   151    H   13  px     Ryd( 2p)     0.00018
   152    H   13  py     Ryd( 2p)     0.00015
   153    H   13  pz     Ryd( 2p)     0.00025

   154    H   14  S      Val( 1S)     0.73663
   155    H   14  S      Ryd( 2S)     0.00428
   156    H   14  px     Ryd( 2p)     0.00012
   157    H   14  py     Ryd( 2p)     0.00011
   158    H   14  pz     Ryd( 2p)     0.00030

   159    H   15  S      Val( 1S)     0.72202
   160    H   15  S      Ryd( 2S)     0.00221
   161    H   15  px     Ryd( 2p)     0.00012
   162    H   15  py     Ryd( 2p)     0.00010
   163    H   15  pz     Ryd( 2p)     0.00032

   164    H   16  S      Val( 1S)     0.74484
   165    H   16  S      Ryd( 2S)     0.00353
   166    H   16  px     Ryd( 2p)     0.00017
   167    H   16  py     Ryd( 2p)     0.00026
   168    H   16  pz     Ryd( 2p)     0.00013

   169    H   17  S      Val( 1S)     0.78172
   170    H   17  S      Ryd( 2S)     0.00220
   171    H   17  px     Ryd( 2p)     0.00013
   172    H   17  py     Ryd( 2p)     0.00012
   173    H   17  pz     Ryd( 2p)     0.00031

   174    H   18  S      Val( 1S)     0.75913
   175    H   18  S      Ryd( 2S)     0.00190
   176    H   18  px     Ryd( 2p)     0.00015
   177    H   18  py     Ryd( 2p)     0.00023
   178    H   18  pz     Ryd( 2p)     0.00016

   179    H   19  S      Val( 1S)     0.60012
   180    H   19  S      Ryd( 2S)     0.00112
   181    H   19  px     Ryd( 2p)     0.00048
   182    H   19  py     Ryd( 2p)     0.00036
   183    H   19  pz     Ryd( 2p)     0.00058

   184    H   20  S      Val( 1S)     0.60820
   185    H   20  S      Ryd( 2S)     0.00138
   186    H   20  px     Ryd( 2p)     0.00034
   187    H   20  py     Ryd( 2p)     0.00044
   188    H   20  pz     Ryd( 2p)     0.00062


 Summary of Natural Population Analysis:                  
                                                          
                                       Natural Population 
                Natural  -----------------------------------------------
    Atom  No    Charge         Core      Valence    Rydberg      Total
 -----------------------------------------------------------------------
      N    1   -0.92495      1.99968     5.90975    0.01552     7.92495
      C    2   -0.27748      1.99929     4.26282    0.01536     6.27748
      C    3   -0.61385      1.99926     4.60069    0.01391     6.61385
      S    4    0.02999      9.99930     5.91011    0.06060    15.97001
      S    5    0.03931      9.99928     5.89948    0.06193    15.96069
      C    6   -0.60925      1.99927     4.59507    0.01492     6.60925
      C    7   -0.27826      1.99932     4.26332    0.01562     6.27826
      N    8   -0.92553      1.99967     5.91044    0.01541     7.92553
      H    9    0.39865      0.00000     0.59890    0.00245     0.60135
      H   10    0.38145      0.00000     0.61505    0.00349     0.61855
      H   11    0.22029      0.00000     0.77661    0.00309     0.77971
      H   12    0.25660      0.00000     0.74137    0.00203     0.74340
      H   13    0.27787      0.00000     0.71996    0.00217     0.72213
      H   14    0.25856      0.00000     0.73663    0.00481     0.74144
      H   15    0.27522      0.00000     0.72202    0.00276     0.72478
      H   16    0.25108      0.00000     0.74484    0.00408     0.74892
      H   17    0.21552      0.00000     0.78172    0.00276     0.78448
      H   18    0.23842      0.00000     0.75913    0.00244     0.76158
      H   19    0.39734      0.00000     0.60012    0.00254     0.60266
      H   20    0.38901      0.00000     0.60820    0.00279     0.61099
 =======================================================================
   * Total *    0.00000     31.99506    49.75624    0.24869    82.00000

                                 Natural Population      
 --------------------------------------------------------
   Core                      31.99506 ( 99.9846% of  32)
   Valence                   49.75624 ( 99.5125% of  50)
   Natural Minimal Basis     81.75131 ( 99.6967% of  82)
   Natural Rydberg Basis      0.24869 (  0.3033% of  82)
 --------------------------------------------------------

    Atom  No          Natural Electron Configuration
 ----------------------------------------------------------------------------
      N    1      [core]2S( 1.44)2p( 4.47)3p( 0.01)
      C    2      [core]2S( 1.03)2p( 3.23)3p( 0.01)
      C    3      [core]2S( 1.13)2p( 3.47)3p( 0.01)
      S    4      [core]3S( 1.80)3p( 4.11)4S( 0.01)3d( 0.02)4p( 0.03)
      S    5      [core]3S( 1.79)3p( 4.11)4S( 0.01)3d( 0.02)4p( 0.03)
      C    6      [core]2S( 1.13)2p( 3.46)3p( 0.01)
      C    7      [core]2S( 1.03)2p( 3.24)3p( 0.01)
      N    8      [core]2S( 1.45)2p( 4.46)3p( 0.01)
      H    9            1S( 0.60)
      H   10            1S( 0.62)
      H   11            1S( 0.78)
      H   12            1S( 0.74)
      H   13            1S( 0.72)
      H   14            1S( 0.74)
      H   15            1S( 0.72)
      H   16            1S( 0.74)
      H   17            1S( 0.78)
      H   18            1S( 0.76)
      H   19            1S( 0.60)
      H   20            1S( 0.61)


 NBO analysis skipped by request.
 1\1\GINC-CN13\SP\RB3LYP TD-FC\6-31G(d,p)\C4H12N2S2\QDUEZ\11-Jul-2024\0
 \\# TD(NStates=10, Root=1) B3LYP/6-31G** SCRF=(Solvent=water) volume p
 op=NPA density=current Geom=AllCheck Guess=Read\\APQPRKLAWCIJEK-UHFFFA
 OYSA-N_conf_2\\0,1\N,0,-2.5775510162,0.0218947068,-0.5921157191\C,0,-2
 .2508793311,-1.2189211687,0.1228532275\C,0,-1.926453759,-0.9574994036,
 1.5939884681\S,0,-0.1787281171,-0.5294985328,2.0234292978\S,0,0.165229
 7319,1.4124748129,1.3189451541\C,0,1.0485296857,1.1803951118,-0.284726
 0783\C,0,2.4916748361,0.701503423,-0.1312744736\N,0,3.1182566265,0.609
 5420234,-1.4573450297\H,0,-2.7947498891,-0.2027933076,-1.5609344971\H,
 0,-1.7618364341,0.6286000299,-0.6258300764\H,0,-1.4340924602,-1.805993
 996,-0.3266286552\H,0,-3.1445991711,-1.8549158157,0.0952114087\H,0,-2.
 0634444519,-1.8743404231,2.1784295496\H,0,-2.5907601322,-0.1925634912,
 2.0037467762\H,0,1.0230262389,2.1715683093,-0.7500832499\H,0,0.4691684
 209,0.5000882349,-0.9163381853\H,0,2.4998789302,-0.2432832183,0.434586
 1734\H,0,3.0475426935,1.4349959162,0.462233788\H,0,4.112031696,0.42258
 53379,-1.3401620256\H,0,2.7477559024,-0.2038385491,-1.9464590477\\Vers
 ion=EM64L-G16RevA.03\State=1-A\HF=-1065.5486391\RMSD=1.167e-09\Dipole=
 0.2304137,-1.2490733,-1.10847\Quadrupole=3.7148873,-3.3672715,-0.34761
 58,2.1019425,-0.0137145,3.0973841\PG=C01 [X(C4H12N2S2)]\\@


 THE ONLY TROUBLE WITH A SURE THING IS THE UNCERTAINTY.
     -- FROM A TEABAG (BELONGING TO W.H.?)
 Job cpu time:       0 days  0 hours 30 minutes 28.1 seconds.
 Elapsed time:       0 days  0 hours 16 minutes  5.4 seconds.
 File lengths (MBytes):  RWF=    347 Int=      0 D2E=      0 Chk=     22 Scr=      1
 Normal termination of Gaussian 16 at Thu Jul 11 18:09:34 2024.
