 Entering Gaussian System, Link 0=g16
 Initial command:
 /opt/sw/arch/manual/gaussian/G16_A03/g16/l1.exe "/scratch/1032022.jesse.materianova.be/Gau-3843.inp" -scrdir="/scratch/1032022.jesse.materianova.be/"
 Entering Link 1 = /opt/sw/arch/manual/gaussian/G16_A03/g16/l1.exe PID=      3847.
  
 Copyright (c) 1988,1990,1992,1993,1995,1998,2003,2009,2016,
            Gaussian, Inc.  All Rights Reserved.
  
 This is part of the Gaussian(R) 16 program.  It is based on
 the Gaussian(R) 09 system (copyright 2009, Gaussian, Inc.),
 the Gaussian(R) 03 system (copyright 2003, Gaussian, Inc.),
 the Gaussian(R) 98 system (copyright 1998, Gaussian, Inc.),
 the Gaussian(R) 94 system (copyright 1995, Gaussian, Inc.),
 the Gaussian 92(TM) system (copyright 1992, Gaussian, Inc.),
 the Gaussian 90(TM) system (copyright 1990, Gaussian, Inc.),
 the Gaussian 88(TM) system (copyright 1988, Gaussian, Inc.),
 the Gaussian 86(TM) system (copyright 1986, Carnegie Mellon
 University), and the Gaussian 82(TM) system (copyright 1983,
 Carnegie Mellon University). Gaussian is a federally registered
 trademark of Gaussian, Inc.
  
 This software contains proprietary and confidential information,
 including trade secrets, belonging to Gaussian, Inc.
  
 This software is provided under written license and may be
 used, copied, transmitted, or stored only in accord with that
 written license.
  
 The following legend is applicable only to US Government
 contracts under FAR:
  
                    RESTRICTED RIGHTS LEGEND
  
 Use, reproduction and disclosure by the US Government is
 subject to restrictions as set forth in subparagraphs (a)
 and (c) of the Commercial Computer Software - Restricted
 Rights clause in FAR 52.227-19.
  
 Gaussian, Inc.
 340 Quinnipiac St., Bldg. 40, Wallingford CT 06492
  
  
 ---------------------------------------------------------------
 Warning -- This program may not be used in any manner that
 competes with the business of Gaussian, Inc. or will provide
 assistance to any competitor of Gaussian, Inc.  The licensee
 of this program is prohibited from giving any competitor of
 Gaussian, Inc. access to this program.  By using this program,
 the user acknowledges that Gaussian, Inc. is engaged in the
 business of creating and licensing software in the field of
 computational chemistry and represents and warrants to the
 licensee that it is not a competitor of Gaussian, Inc. and that
 it will not use this program in any manner prohibited above.
 ---------------------------------------------------------------
  

 Cite this work as:
 Gaussian 16, Revision A.03,
 M. J. Frisch, G. W. Trucks, H. B. Schlegel, G. E. Scuseria, 
 M. A. Robb, J. R. Cheeseman, G. Scalmani, V. Barone, 
 G. A. Petersson, H. Nakatsuji, X. Li, M. Caricato, A. V. Marenich, 
 J. Bloino, B. G. Janesko, R. Gomperts, B. Mennucci, H. P. Hratchian, 
 J. V. Ortiz, A. F. Izmaylov, J. L. Sonnenberg, D. Williams-Young, 
 F. Ding, F. Lipparini, F. Egidi, J. Goings, B. Peng, A. Petrone, 
 T. Henderson, D. Ranasinghe, V. G. Zakrzewski, J. Gao, N. Rega, 
 G. Zheng, W. Liang, M. Hada, M. Ehara, K. Toyota, R. Fukuda, 
 J. Hasegawa, M. Ishida, T. Nakajima, Y. Honda, O. Kitao, H. Nakai, 
 T. Vreven, K. Throssell, J. A. Montgomery, Jr., J. E. Peralta, 
 F. Ogliaro, M. J. Bearpark, J. J. Heyd, E. N. Brothers, K. N. Kudin, 
 V. N. Staroverov, T. A. Keith, R. Kobayashi, J. Normand, 
 K. Raghavachari, A. P. Rendell, J. C. Burant, S. S. Iyengar, 
 J. Tomasi, M. Cossi, J. M. Millam, M. Klene, C. Adamo, R. Cammi, 
 J. W. Ochterski, R. L. Martin, K. Morokuma, O. Farkas, 
 J. B. Foresman, and D. J. Fox, Gaussian, Inc., Wallingford CT, 2016.
 
 ******************************************
 Gaussian 16:  EM64L-G16RevA.03 25-Dec-2016
                11-Jul-2024 
 ******************************************
 %nprocshared=3
 Will use up to    3 processors via shared memory.
 %mem=6GB
 %Chk=APQPRKLAWCIJEK-UHFFFAOYSA-N_conf_3_0.chk
 -------------------------------------------------------
 # opt=CalcFc B3LYP/6-31G** SCRF=(Solvent=water) scf=xqc
 -------------------------------------------------------
 1/10=4,18=20,19=15,26=3,38=1/1,3;
 2/9=110,12=2,17=6,18=5,40=1/2;
 3/5=1,6=6,7=101,11=2,25=1,30=1,70=2201,71=2,72=1,74=-5,140=1/1,2,3;
 4//1;
 5/5=2,8=3,13=1,38=5,53=1/2,8;
 8/6=4,10=90,11=11/1;
 11/6=1,8=1,9=11,15=111,16=1/1,2,10;
 10/6=1,13=1/2;
 6/7=2,8=2,9=2,10=2,28=1/1;
 7/10=1,18=20,25=1/1,2,3,16;
 1/10=4,18=20,19=15,26=3/3(2);
 2/9=110/2;
 99//99;
 2/9=110/2;
 3/5=1,6=6,7=101,11=2,25=1,30=1,70=2205,71=1,72=1,74=-5/1,2,3;
 4/5=5,16=3,69=1/1;
 5/5=2,8=3,13=1,38=5,53=1/2,8;
 7//1,2,3,16;
 1/18=20,19=15,26=3/3(-5);
 2/9=110/2;
 6/7=2,8=2,9=2,10=2,19=2,28=1/1;
 99/9=1/99;
 ----------------------------------
 APQPRKLAWCIJEK-UHFFFAOYSA-N_conf_3
 ----------------------------------
 Symbolic Z-matrix:
 Charge =  0 Multiplicity = 1
 N                     3.5556   -0.14594  -1.30248 
 C                     2.49978  -0.85226  -0.57204 
 C                     1.9235   -0.06482   0.61319 
 S                     1.24255   1.575     0.16911 
 S                    -0.38747   1.10256  -0.99434 
 C                    -1.69065   0.84277   0.25872 
 C                    -3.02081   0.41206  -0.37545 
 N                    -2.98925  -0.93851  -0.93872 
 H                     4.26621   0.1818   -0.64946 
 H                     3.14895   0.70257  -1.70414 
 H                     2.91946  -1.79128  -0.19383 
 H                     1.70746  -1.13181  -1.27452 
 H                     1.14717  -0.65108   1.11614 
 H                     2.71527   0.10901   1.35063 
 H                    -1.36062   0.08833   0.9811 
 H                    -1.84428   1.78642   0.79298 
 H                    -3.79931   0.43931   0.39576 
 H                    -3.32068   1.12294  -1.15394 
 H                    -2.81006  -1.62151  -0.20469 
 H                    -3.9028   -1.16555  -1.32965 
 

 GradGradGradGradGradGradGradGradGradGradGradGradGradGradGradGradGradGrad
 Berny optimization.
 Initialization pass.
                           ----------------------------
                           !    Initial Parameters    !
                           ! (Angstroms and Degrees)  !
 --------------------------                            --------------------------
 ! Name  Definition              Value          Derivative Info.                !
 --------------------------------------------------------------------------------
 ! R1    R(1,2)                  1.4653         calculate D2E/DX2 analytically  !
 ! R2    R(1,9)                  1.0192         calculate D2E/DX2 analytically  !
 ! R3    R(1,10)                 1.0231         calculate D2E/DX2 analytically  !
 ! R4    R(2,3)                  1.5352         calculate D2E/DX2 analytically  !
 ! R5    R(2,11)                 1.0959         calculate D2E/DX2 analytically  !
 ! R6    R(2,12)                 1.0952         calculate D2E/DX2 analytically  !
 ! R7    R(3,4)                  1.8303         calculate D2E/DX2 analytically  !
 ! R8    R(3,13)                 1.0951         calculate D2E/DX2 analytically  !
 ! R9    R(3,14)                 1.0959         calculate D2E/DX2 analytically  !
 ! R10   R(4,5)                  2.0576         calculate D2E/DX2 analytically  !
 ! R11   R(5,6)                  1.8264         calculate D2E/DX2 analytically  !
 ! R12   R(6,7)                  1.5353         calculate D2E/DX2 analytically  !
 ! R13   R(6,15)                 1.0954         calculate D2E/DX2 analytically  !
 ! R14   R(6,16)                 1.0952         calculate D2E/DX2 analytically  !
 ! R15   R(7,8)                  1.4637         calculate D2E/DX2 analytically  !
 ! R16   R(7,17)                 1.0962         calculate D2E/DX2 analytically  !
 ! R17   R(7,18)                 1.096          calculate D2E/DX2 analytically  !
 ! R18   R(8,19)                 1.0185         calculate D2E/DX2 analytically  !
 ! R19   R(8,20)                 1.0193         calculate D2E/DX2 analytically  !
 ! A1    A(2,1,9)              109.7542         calculate D2E/DX2 analytically  !
 ! A2    A(2,1,10)             108.0044         calculate D2E/DX2 analytically  !
 ! A3    A(9,1,10)             105.1874         calculate D2E/DX2 analytically  !
 ! A4    A(1,2,3)              114.0834         calculate D2E/DX2 analytically  !
 ! A5    A(1,2,11)             108.007          calculate D2E/DX2 analytically  !
 ! A6    A(1,2,12)             108.9399         calculate D2E/DX2 analytically  !
 ! A7    A(3,2,11)             108.4699         calculate D2E/DX2 analytically  !
 ! A8    A(3,2,12)             110.7666         calculate D2E/DX2 analytically  !
 ! A9    A(11,2,12)            106.2435         calculate D2E/DX2 analytically  !
 ! A10   A(2,3,4)              114.323          calculate D2E/DX2 analytically  !
 ! A11   A(2,3,13)             110.247          calculate D2E/DX2 analytically  !
 ! A12   A(2,3,14)             109.249          calculate D2E/DX2 analytically  !
 ! A13   A(4,3,13)             109.1057         calculate D2E/DX2 analytically  !
 ! A14   A(4,3,14)             106.8554         calculate D2E/DX2 analytically  !
 ! A15   A(13,3,14)            106.7405         calculate D2E/DX2 analytically  !
 ! A16   A(3,4,5)              103.074          calculate D2E/DX2 analytically  !
 ! A17   A(4,5,6)              102.1206         calculate D2E/DX2 analytically  !
 ! A18   A(5,6,7)              112.0061         calculate D2E/DX2 analytically  !
 ! A19   A(5,6,15)             109.5982         calculate D2E/DX2 analytically  !
 ! A20   A(5,6,16)             108.1915         calculate D2E/DX2 analytically  !
 ! A21   A(7,6,15)             109.8901         calculate D2E/DX2 analytically  !
 ! A22   A(7,6,16)             108.7654         calculate D2E/DX2 analytically  !
 ! A23   A(15,6,16)            108.2992         calculate D2E/DX2 analytically  !
 ! A24   A(6,7,8)              113.5251         calculate D2E/DX2 analytically  !
 ! A25   A(6,7,17)             108.5259         calculate D2E/DX2 analytically  !
 ! A26   A(6,7,18)             110.3937         calculate D2E/DX2 analytically  !
 ! A27   A(8,7,17)             107.9997         calculate D2E/DX2 analytically  !
 ! A28   A(8,7,18)             109.3316         calculate D2E/DX2 analytically  !
 ! A29   A(17,7,18)            106.8154         calculate D2E/DX2 analytically  !
 ! A30   A(7,8,19)             110.1948         calculate D2E/DX2 analytically  !
 ! A31   A(7,8,20)             109.4993         calculate D2E/DX2 analytically  !
 ! A32   A(19,8,20)            106.5419         calculate D2E/DX2 analytically  !
 ! D1    D(9,1,2,3)             51.4234         calculate D2E/DX2 analytically  !
 ! D2    D(9,1,2,11)           -69.2522         calculate D2E/DX2 analytically  !
 ! D3    D(9,1,2,12)           175.7549         calculate D2E/DX2 analytically  !
 ! D4    D(10,1,2,3)           -62.7441         calculate D2E/DX2 analytically  !
 ! D5    D(10,1,2,11)          176.5804         calculate D2E/DX2 analytically  !
 ! D6    D(10,1,2,12)           61.5875         calculate D2E/DX2 analytically  !
 ! D7    D(1,2,3,4)             57.0232         calculate D2E/DX2 analytically  !
 ! D8    D(1,2,3,13)          -179.6387         calculate D2E/DX2 analytically  !
 ! D9    D(1,2,3,14)           -62.6386         calculate D2E/DX2 analytically  !
 ! D10   D(11,2,3,4)           177.4403         calculate D2E/DX2 analytically  !
 ! D11   D(11,2,3,13)          -59.2217         calculate D2E/DX2 analytically  !
 ! D12   D(11,2,3,14)           57.7784         calculate D2E/DX2 analytically  !
 ! D13   D(12,2,3,4)           -66.3245         calculate D2E/DX2 analytically  !
 ! D14   D(12,2,3,13)           57.0136         calculate D2E/DX2 analytically  !
 ! D15   D(12,2,3,14)          174.0137         calculate D2E/DX2 analytically  !
 ! D16   D(2,3,4,5)             66.7694         calculate D2E/DX2 analytically  !
 ! D17   D(13,3,4,5)           -57.1819         calculate D2E/DX2 analytically  !
 ! D18   D(14,3,4,5)          -172.2351         calculate D2E/DX2 analytically  !
 ! D19   D(3,4,5,6)             85.4269         calculate D2E/DX2 analytically  !
 ! D20   D(4,5,6,7)           -177.5739         calculate D2E/DX2 analytically  !
 ! D21   D(4,5,6,15)           -55.3376         calculate D2E/DX2 analytically  !
 ! D22   D(4,5,6,16)            62.5557         calculate D2E/DX2 analytically  !
 ! D23   D(5,6,7,8)             69.4987         calculate D2E/DX2 analytically  !
 ! D24   D(5,6,7,17)          -170.4138         calculate D2E/DX2 analytically  !
 ! D25   D(5,6,7,18)           -53.6649         calculate D2E/DX2 analytically  !
 ! D26   D(15,6,7,8)           -52.571          calculate D2E/DX2 analytically  !
 ! D27   D(15,6,7,17)           67.5165         calculate D2E/DX2 analytically  !
 ! D28   D(15,6,7,18)         -175.7346         calculate D2E/DX2 analytically  !
 ! D29   D(16,6,7,8)          -170.9671         calculate D2E/DX2 analytically  !
 ! D30   D(16,6,7,17)          -50.8796         calculate D2E/DX2 analytically  !
 ! D31   D(16,6,7,18)           65.8693         calculate D2E/DX2 analytically  !
 ! D32   D(6,7,8,19)            62.3172         calculate D2E/DX2 analytically  !
 ! D33   D(6,7,8,20)           179.194          calculate D2E/DX2 analytically  !
 ! D34   D(17,7,8,19)          -58.0682         calculate D2E/DX2 analytically  !
 ! D35   D(17,7,8,20)           58.8086         calculate D2E/DX2 analytically  !
 ! D36   D(18,7,8,19)         -173.9385         calculate D2E/DX2 analytically  !
 ! D37   D(18,7,8,20)          -57.0617         calculate D2E/DX2 analytically  !
 --------------------------------------------------------------------------------
 Trust Radius=3.00D-01 FncErr=1.00D-07 GrdErr=1.00D-06 EigMax=2.50D+02 EigMin=1.00D-04
 Number of steps in this run=     98 maximum allowed number of steps=    120.
 GradGradGradGradGradGradGradGradGradGradGradGradGradGradGradGradGradGrad

                          Input orientation:                          
 ---------------------------------------------------------------------
 Center     Atomic      Atomic             Coordinates (Angstroms)
 Number     Number       Type             X           Y           Z
 ---------------------------------------------------------------------
      1          7           0        3.555598   -0.145939   -1.302477
      2          6           0        2.499777   -0.852263   -0.572042
      3          6           0        1.923501   -0.064824    0.613189
      4         16           0        1.242547    1.575004    0.169108
      5         16           0       -0.387470    1.102562   -0.994336
      6          6           0       -1.690654    0.842772    0.258716
      7          6           0       -3.020815    0.412057   -0.375449
      8          7           0       -2.989249   -0.938513   -0.938720
      9          1           0        4.266206    0.181800   -0.649460
     10          1           0        3.148952    0.702567   -1.704139
     11          1           0        2.919456   -1.791283   -0.193826
     12          1           0        1.707464   -1.131808   -1.274523
     13          1           0        1.147175   -0.651085    1.116139
     14          1           0        2.715266    0.109010    1.350631
     15          1           0       -1.360621    0.088330    0.981101
     16          1           0       -1.844278    1.786423    0.792976
     17          1           0       -3.799306    0.439309    0.395761
     18          1           0       -3.320680    1.122937   -1.153938
     19          1           0       -2.810064   -1.621510   -0.204692
     20          1           0       -3.902803   -1.165547   -1.329648
 ---------------------------------------------------------------------
                    Distance matrix (angstroms):
                    1          2          3          4          5
     1  N    0.000000
     2  C    1.465328   0.000000
     3  C    2.517955   1.535228   0.000000
     4  S    3.236884   2.832235   1.830284   0.000000
     5  S    4.147469   3.512246   3.047542   2.057610   0.000000
     6  C    5.562197   4.595978   3.743194   3.024543   1.826449
     7  C    6.664829   5.666929   5.064690   4.452554   2.791831
     8  N    6.602690   5.501936   5.225598   5.045111   3.307315
     9  H    1.019219   2.048304   2.672708   3.428350   4.756411
    10  H    1.023062   2.029919   2.731415   2.811509   3.629063
    11  H    2.083492   1.095872   2.150316   3.778310   4.466644
    12  H    2.094832   1.095165   2.179124   3.102748   3.075656
    13  H    3.450417   2.172547   1.095146   2.421040   3.143965
    14  H    2.794663   2.160359   1.095870   2.390405   4.014099
    15  H    5.425755   4.266104   3.308213   3.105803   2.424467
    16  H    6.106031   5.262771   4.201857   3.156326   2.405086
    17  H    7.571072   6.502557   5.749082   5.173147   3.743380
    18  H    6.993949   6.173957   5.659943   4.772615   2.937620
    19  H    6.626017   5.377834   5.049638   5.175044   3.730022
    20  H    7.527820   6.454854   6.239553   6.019261   4.196941
                    6          7          8          9         10
     6  C    0.000000
     7  C    1.535255   0.000000
     8  N    2.508620   1.463662   0.000000
     9  H    6.061835   7.295805   7.347135   0.000000
    10  H    5.224389   6.317898   6.399728   1.622284   0.000000
    11  H    5.328804   6.338336   6.016218   2.431952   2.924551
    12  H    4.218648   5.054549   4.712668   2.943371   2.372212
    13  H    3.319647   4.552718   4.627641   3.679591   3.713954
    14  H    4.598132   5.997818   6.235377   2.532010   3.141976
    15  H    1.095420   2.168241   2.718923   5.859065   5.284321
    16  H    1.095222   2.153681   3.425639   6.480235   5.687062
    17  H    2.151273   1.096155   2.082168   8.137031   7.263413
    18  H    2.175102   1.096046   2.098986   7.661663   6.506579
    19  H    2.745999   2.051577   1.018524   7.315965   6.569592
    20  H    3.383762   2.043827   1.019289   8.307268   7.304610
                   11         12         13         14         15
    11  H    0.000000
    12  H    1.752637   0.000000
    13  H    2.481338   2.502056   0.000000
    14  H    2.457265   3.073553   1.758307   0.000000
    15  H    4.820005   3.998715   2.618016   4.092657   0.000000
    16  H    6.038784   5.040386   3.872295   4.890208   1.775623
    17  H    7.103866   5.965129   5.116207   6.592460   2.532389
    18  H    6.953689   5.511864   5.316214   6.613136   3.077440
    19  H    5.732045   4.668233   4.283230   5.995249   2.535851
    20  H    6.944411   5.610639   5.634609   7.253084   3.657110
                   16         17         18         19         20
    16  H    0.000000
    17  H    2.407204   0.000000
    18  H    2.531887   1.760113   0.000000
    19  H    3.679959   2.363497   2.948523   0.000000
    20  H    4.178179   2.358667   2.367889   1.633251   0.000000
 Stoichiometry    C4H12N2S2
 Framework group  C1[X(C4H12N2S2)]
 Deg. of freedom    54
 Full point group                 C1      NOp   1
 Largest Abelian subgroup         C1      NOp   1
 Largest concise Abelian subgroup C1      NOp   1
                         Standard orientation:                         
 ---------------------------------------------------------------------
 Center     Atomic      Atomic             Coordinates (Angstroms)
 Number     Number       Type             X           Y           Z
 ---------------------------------------------------------------------
      1          7           0       -3.363305    0.861610   -0.721867
      2          6           0       -2.315546    1.287541    0.209783
      3          6           0       -1.754489    0.155367    1.081748
      4         16           0       -1.070119   -1.255136    0.137259
      5         16           0        0.574331   -0.439006   -0.791975
      6          6           0        1.862629   -0.606212    0.491866
      7          6           0        3.200823    0.000268    0.046415
      8          7           0        3.177593    1.460660   -0.048586
      9          1           0       -4.082101    0.343330   -0.218353
     10          1           0       -2.952826    0.187244   -1.372554
     11          1           0       -2.738670    2.055195    0.867512
     12          1           0       -1.514511    1.775870   -0.355251
     13          1           0       -0.983602    0.542911    1.756201
     14          1           0       -2.555275   -0.244310    1.714148
     15          1           0        1.524787   -0.125235    1.416241
     16          1           0        2.008725   -1.672890    0.692775
     17          1           0        3.969939   -0.279547    0.775606
     18          1           0        3.509224   -0.421154   -0.917228
     19          1           0        2.990366    1.869526    0.865288
     20          1           0        4.096048    1.797657   -0.334633
 ---------------------------------------------------------------------
 Rotational constants (GHZ):           2.5519584           0.6517452           0.5908132
 Standard basis: 6-31G(d,p) (6D, 7F)
 There are   188 symmetry adapted cartesian basis functions of A   symmetry.
 There are   188 symmetry adapted basis functions of A   symmetry.
   188 basis functions,   356 primitive gaussians,   188 cartesian basis functions
    41 alpha electrons       41 beta electrons
       nuclear repulsion energy       551.1931638822 Hartrees.
 NAtoms=   20 NActive=   20 NUniq=   20 SFac= 1.00D+00 NAtFMM=   60 NAOKFM=F Big=F
 Integral buffers will be    131072 words long.
 Raffenetti 2 integral format.
 Two-electron integral symmetry is turned on.
 Force inversion solution in PCM.
 ------------------------------------------------------------------------------
 Polarizable Continuum Model (PCM)
 =================================
 Model                : PCM.
 Atomic radii         : UFF (Universal Force Field).
 Polarization charges : Total charges.
 Charge compensation  : None.
 Solution method      : Matrix inversion.
 Cavity type          : Scaled VdW (van der Waals Surface) (Alpha=1.100).
 Cavity algorithm     : GePol (No added spheres)
                        Default sphere list used, NSphG=   20.
                        Lebedev-Laikov grids with approx.  5.0 points / Ang**2.
                        Smoothing algorithm: York/Karplus (Gamma=1.0000).
                        Polarization charges: spherical gaussians, with
                                              point-specific exponents (IZeta= 3).
                        Self-potential: point-specific (ISelfS= 7).
                        Self-field    : sphere-specific E.n sum rule (ISelfD= 2).
 1st derivatives      : Analytical E(r).r(x)/FMM algorithm (CHGder, D1EAlg=3).
                        Cavity 1st derivative terms included.
 2nd derivatives      : Analytical E(r).r(xy)/FMM algorithm (CHGder, D2EAlg=3).
                        Cavity 2nd derivative terms included.
 Solvent              : Water, Eps=  78.355300 Eps(inf)=   1.777849
 ------------------------------------------------------------------------------
 Spheres list:
 ISph  on   Nord     Re0    Alpha      Xe            Ye            Ze
    1   N      1    1.8300  1.100     -3.363305      0.861610     -0.721867
    2   C      2    1.9255  1.100     -2.315546      1.287541      0.209783
    3   C      3    1.9255  1.100     -1.754489      0.155367      1.081748
    4   S      4    2.0175  1.100     -1.070119     -1.255136      0.137259
    5   S      5    2.0175  1.100      0.574331     -0.439006     -0.791975
    6   C      6    1.9255  1.100      1.862629     -0.606212      0.491866
    7   C      7    1.9255  1.100      3.200823      0.000268      0.046415
    8   N      8    1.8300  1.100      3.177593      1.460660     -0.048586
    9   H      9    1.4430  1.100     -4.082101      0.343330     -0.218353
   10   H     10    1.4430  1.100     -2.952826      0.187244     -1.372554
   11   H     11    1.4430  1.100     -2.738670      2.055195      0.867512
   12   H     12    1.4430  1.100     -1.514511      1.775870     -0.355251
   13   H     13    1.4430  1.100     -0.983602      0.542911      1.756201
   14   H     14    1.4430  1.100     -2.555275     -0.244310      1.714148
   15   H     15    1.4430  1.100      1.524787     -0.125235      1.416241
   16   H     16    1.4430  1.100      2.008725     -1.672890      0.692775
   17   H     17    1.4430  1.100      3.969939     -0.279547      0.775606
   18   H     18    1.4430  1.100      3.509224     -0.421154     -0.917228
   19   H     19    1.4430  1.100      2.990366      1.869526      0.865288
   20   H     20    1.4430  1.100      4.096048      1.797657     -0.334633
 ------------------------------------------------------------------------------
 One-electron integrals computed using PRISM.
 NBasis=   188 RedAO= T EigKep=  4.96D-03  NBF=   188
 NBsUse=   188 1.00D-06 EigRej= -1.00D+00 NBFU=   188
 ExpMin= 1.17D-01 ExpMax= 2.19D+04 ExpMxC= 3.30D+03 IAcc=3 IRadAn=         5 AccDes= 0.00D+00
 Harris functional with IExCor=  402 and IRadAn=       5 diagonalized for initial guess.
 HarFok:  IExCor=  402 AccDes= 0.00D+00 IRadAn=         5 IDoV= 1 UseB2=F ITyADJ=14
 ICtDFT=  3500011 ScaDFX=  1.000000  1.000000  1.000000  1.000000
 FoFCou: FMM=F IPFlag=           0 FMFlag=      100000 FMFlg1=           0
         NFxFlg=           0 DoJE=T BraDBF=F KetDBF=T FulRan=T
         wScrn=  0.000000 ICntrl=       500 IOpCl=  0 I1Cent=   200000004 NGrid=           0
         NMat0=    1 NMatS0=      1 NMatT0=    0 NMatD0=    1 NMtDS0=    0 NMtDT0=    0
 Petite list used in FoFCou.
 Keep R1 ints in memory in canonical form, NReq=161201114.
 Requested convergence on RMS density matrix=1.00D-08 within  32 cycles.
 Requested convergence on MAX density matrix=1.00D-06.
 Requested convergence on             energy=1.00D-06.
 No special actions if energy rises.
 Inv3:  Mode=1 IEnd=     9093243.
 Iteration    1 A*A^-1 deviation from unit magnitude is 7.55D-15 for    704.
 Iteration    1 A*A^-1 deviation from orthogonality  is 4.15D-15 for   1348    597.
 Iteration    1 A^-1*A deviation from unit magnitude is 7.77D-15 for    704.
 Iteration    1 A^-1*A deviation from orthogonality  is 9.04D-15 for   1645   1578.
 Error on total polarization charges =  0.01109
 SCF Done:  E(RB3LYP) =  -1065.54949443     A.U. after   11 cycles
            NFock= 11  Conv=0.95D-08     -V/T= 2.0048
 QCSCF skips out because SCF is already converged.
 DoSCS=F DFT=T ScalE2(SS,OS)=  1.000000  1.000000
 Range of M.O.s used for correlation:     1   188
 NBasis=   188 NAE=    41 NBE=    41 NFC=     0 NFV=     0
 NROrb=    188 NOA=    41 NOB=    41 NVA=   147 NVB=   147
 Symmetrizing basis deriv contribution to polar:
 IMax=3 JMax=2 DiffMx= 0.00D+00
 G2DrvN: will do    21 centers at a time, making    1 passes.
 Calling FoFCou, ICntrl=  3107 FMM=F I1Cent=   0 AccDes= 0.00D+00.
 NEqPCM:  Using equilibrium solvation (IEInf=0, Eps=  78.3553, EpsInf=   1.7778)
 G2PCM: DoFxE=T DoFxN=T DoGrad=T DoDP/DQ/DG/TGxP=FFFF NFrqRd=   0 IEInf=0 SqF1=F DoCFld=F IF1Alg=4.
 End of G2Drv F.D. properties file   721 does not exist.
 End of G2Drv F.D. properties file   722 does not exist.
 End of G2Drv F.D. properties file   788 does not exist.
          IDoAtm=11111111111111111111
 NEqPCM:  Using equilibrium solvation (IEInf=0, Eps=  78.3553, EpsInf=   1.7778)
          Differentiating once with respect to nuclear coordinates.
 Keep R1 ints in memory in canonical form, NReq=165977371.
          There are    63 degrees of freedom in the 1st order CPHF.  IDoFFX=6 NUNeed=     0.
     57 vectors produced by pass  0 Test12= 9.57D-15 1.59D-09 XBig12= 7.54D-02 8.34D-02.
 AX will form    57 AO Fock derivatives at one time.
     57 vectors produced by pass  1 Test12= 9.57D-15 1.59D-09 XBig12= 1.36D-02 3.18D-02.
     57 vectors produced by pass  2 Test12= 9.57D-15 1.59D-09 XBig12= 2.79D-04 2.31D-03.
     57 vectors produced by pass  3 Test12= 9.57D-15 1.59D-09 XBig12= 1.41D-06 1.55D-04.
     57 vectors produced by pass  4 Test12= 9.57D-15 1.59D-09 XBig12= 1.49D-09 5.53D-06.
     29 vectors produced by pass  5 Test12= 9.57D-15 1.59D-09 XBig12= 1.13D-12 1.38D-07.
      1 vectors produced by pass  6 Test12= 9.57D-15 1.59D-09 XBig12= 8.96D-16 3.52D-09.
 InvSVY:  IOpt=1 It=  1 EMax= 5.00D-16
 Solved reduced A of dimension   315 with    63 vectors.
 End of Minotr F.D. properties file   721 does not exist.
 End of Minotr F.D. properties file   722 does not exist.
 End of Minotr F.D. properties file   788 does not exist.

 **********************************************************************

            Population analysis using the SCF density.

 **********************************************************************

 Orbital symmetries:
       Occupied  (A) (A) (A) (A) (A) (A) (A) (A) (A) (A) (A) (A)
                 (A) (A) (A) (A) (A) (A) (A) (A) (A) (A) (A) (A)
                 (A) (A) (A) (A) (A) (A) (A) (A) (A) (A) (A) (A)
                 (A) (A) (A) (A) (A)
       Virtual   (A) (A) (A) (A) (A) (A) (A) (A) (A) (A) (A) (A)
                 (A) (A) (A) (A) (A) (A) (A) (A) (A) (A) (A) (A)
                 (A) (A) (A) (A) (A) (A) (A) (A) (A) (A) (A) (A)
                 (A) (A) (A) (A) (A) (A) (A) (A) (A) (A) (A) (A)
                 (A) (A) (A) (A) (A) (A) (A) (A) (A) (A) (A) (A)
                 (A) (A) (A) (A) (A) (A) (A) (A) (A) (A) (A) (A)
                 (A) (A) (A) (A) (A) (A) (A) (A) (A) (A) (A) (A)
                 (A) (A) (A) (A) (A) (A) (A) (A) (A) (A) (A) (A)
                 (A) (A) (A) (A) (A) (A) (A) (A) (A) (A) (A) (A)
                 (A) (A) (A) (A) (A) (A) (A) (A) (A) (A) (A) (A)
                 (A) (A) (A) (A) (A) (A) (A) (A) (A) (A) (A) (A)
                 (A) (A) (A) (A) (A) (A) (A) (A) (A) (A) (A) (A)
                 (A) (A) (A)
 The electronic state is 1-A.
 Alpha  occ. eigenvalues --  -88.89438 -88.89298 -14.31251 -14.31203 -10.21712
 Alpha  occ. eigenvalues --  -10.21683 -10.21404 -10.21134  -7.95620  -7.95474
 Alpha  occ. eigenvalues --   -5.92176  -5.92034  -5.91713  -5.91580  -5.91052
 Alpha  occ. eigenvalues --   -5.90893  -0.88372  -0.88187  -0.82157  -0.76330
 Alpha  occ. eigenvalues --   -0.70943  -0.64972  -0.60412  -0.56942  -0.49352
 Alpha  occ. eigenvalues --   -0.48896  -0.46522  -0.45362  -0.43587  -0.42725
 Alpha  occ. eigenvalues --   -0.41198  -0.39425  -0.38170  -0.37197  -0.35704
 Alpha  occ. eigenvalues --   -0.34009  -0.32066  -0.25064  -0.24725  -0.24022
 Alpha  occ. eigenvalues --   -0.22712
 Alpha virt. eigenvalues --   -0.02077   0.04491   0.04825   0.08014   0.09131
 Alpha virt. eigenvalues --    0.11458   0.13106   0.13720   0.14432   0.16114
 Alpha virt. eigenvalues --    0.16640   0.16899   0.18313   0.18729   0.19874
 Alpha virt. eigenvalues --    0.21701   0.23187   0.25290   0.25353   0.33221
 Alpha virt. eigenvalues --    0.35169   0.36569   0.37138   0.40063   0.41719
 Alpha virt. eigenvalues --    0.42537   0.47297   0.50880   0.53224   0.54715
 Alpha virt. eigenvalues --    0.56244   0.57257   0.57712   0.59696   0.60691
 Alpha virt. eigenvalues --    0.63850   0.65252   0.67694   0.69779   0.72157
 Alpha virt. eigenvalues --    0.72612   0.73920   0.75320   0.78374   0.80115
 Alpha virt. eigenvalues --    0.81965   0.82960   0.83275   0.85105   0.86391
 Alpha virt. eigenvalues --    0.87577   0.88120   0.88663   0.90046   0.91230
 Alpha virt. eigenvalues --    0.92219   0.92526   0.92932   0.94318   0.94770
 Alpha virt. eigenvalues --    0.95410   0.97538   0.98189   1.01388   1.02074
 Alpha virt. eigenvalues --    1.07639   1.10604   1.16096   1.22766   1.33347
 Alpha virt. eigenvalues --    1.36045   1.36851   1.37993   1.38592   1.41910
 Alpha virt. eigenvalues --    1.51655   1.56685   1.58192   1.60488   1.72756
 Alpha virt. eigenvalues --    1.74934   1.76980   1.79732   1.84801   1.86379
 Alpha virt. eigenvalues --    1.86737   1.93906   1.95527   1.98597   2.03108
 Alpha virt. eigenvalues --    2.03402   2.07757   2.08770   2.10605   2.10795
 Alpha virt. eigenvalues --    2.13243   2.15911   2.22833   2.24122   2.24629
 Alpha virt. eigenvalues --    2.25522   2.27715   2.29929   2.30331   2.32341
 Alpha virt. eigenvalues --    2.37476   2.41161   2.43676   2.45799   2.48194
 Alpha virt. eigenvalues --    2.49506   2.55035   2.57456   2.60363   2.60730
 Alpha virt. eigenvalues --    2.68938   2.71256   2.74651   2.75675   2.80335
 Alpha virt. eigenvalues --    2.82172   2.84591   2.88503   2.90063   2.90482
 Alpha virt. eigenvalues --    2.96821   2.97557   3.22241   3.23632   3.28583
 Alpha virt. eigenvalues --    3.30106   3.31233   3.32496   3.37719   3.42125
 Alpha virt. eigenvalues --    3.45493   3.47466   3.54236   3.58012   3.84733
 Alpha virt. eigenvalues --    3.94277   3.97708   4.00178   4.33300   4.39647
 Alpha virt. eigenvalues --    4.57022   4.59333
          Condensed to atoms (all electrons):
               1          2          3          4          5          6
     1  N    6.751634   0.336125  -0.079770  -0.000060  -0.000832   0.000003
     2  C    0.336125   4.825830   0.334589  -0.059783  -0.006868  -0.000219
     3  C   -0.079770   0.334589   5.311368   0.195831  -0.037459  -0.001797
     4  S   -0.000060  -0.059783   0.195831  15.857917   0.131617  -0.033423
     5  S   -0.000832  -0.006868  -0.037459   0.131617  15.850513   0.192083
     6  C    0.000003  -0.000219  -0.001797  -0.033423   0.192083   5.212837
     7  C    0.000000   0.000007   0.000007   0.004167  -0.032596   0.334148
     8  N    0.000000   0.000002  -0.000006  -0.000015   0.013434  -0.059298
     9  H    0.345999  -0.044602  -0.004202   0.001101   0.000070   0.000000
    10  H    0.349007  -0.044537  -0.005081   0.014748  -0.000583   0.000008
    11  H   -0.039228   0.384911  -0.041271   0.007119  -0.000324   0.000001
    12  H   -0.035782   0.396181  -0.049073  -0.008428   0.011196  -0.000089
    13  H    0.004887  -0.027853   0.352782  -0.042287  -0.008056   0.002007
    14  H   -0.002264  -0.032775   0.367589  -0.029591   0.004408   0.000019
    15  H    0.000001   0.000097   0.002018  -0.005052  -0.053801   0.382280
    16  H    0.000000   0.000001  -0.000325   0.000807  -0.054177   0.380144
    17  H   -0.000000   0.000000  -0.000000  -0.000217   0.006350  -0.041640
    18  H   -0.000000   0.000000   0.000001   0.000065  -0.003678  -0.036865
    19  H   -0.000000  -0.000001   0.000001  -0.000016  -0.000884  -0.004867
    20  H    0.000000   0.000000   0.000000   0.000004  -0.000336   0.005804
               7          8          9         10         11         12
     1  N    0.000000   0.000000   0.345999   0.349007  -0.039228  -0.035782
     2  C    0.000007   0.000002  -0.044602  -0.044537   0.384911   0.396181
     3  C    0.000007  -0.000006  -0.004202  -0.005081  -0.041271  -0.049073
     4  S    0.004167  -0.000015   0.001101   0.014748   0.007119  -0.008428
     5  S   -0.032596   0.013434   0.000070  -0.000583  -0.000324   0.011196
     6  C    0.334148  -0.059298   0.000000   0.000008   0.000001  -0.000089
     7  C    4.812575   0.291880  -0.000000  -0.000000  -0.000000   0.000004
     8  N    0.291880   6.796647   0.000000   0.000000   0.000000  -0.000003
     9  H   -0.000000   0.000000   0.478152  -0.034408  -0.004294   0.006121
    10  H   -0.000000   0.000000  -0.034408   0.462830   0.006067  -0.006003
    11  H   -0.000000   0.000000  -0.004294   0.006067   0.605962  -0.034507
    12  H    0.000004  -0.000003   0.006121  -0.006003  -0.034507   0.590435
    13  H   -0.000151   0.000018   0.000124   0.000101  -0.000039  -0.001178
    14  H    0.000001  -0.000000   0.004590  -0.000361  -0.005087   0.004788
    15  H   -0.030796  -0.004467   0.000000   0.000000   0.000001  -0.000045
    16  H   -0.028117   0.003487  -0.000000   0.000000   0.000000   0.000005
    17  H    0.392340  -0.052544   0.000000   0.000000   0.000000  -0.000000
    18  H    0.390100  -0.040551   0.000000   0.000000  -0.000000   0.000000
    19  H   -0.037741   0.343659   0.000000   0.000000  -0.000000   0.000004
    20  H   -0.032588   0.343732  -0.000000  -0.000000  -0.000000   0.000000
              13         14         15         16         17         18
     1  N    0.004887  -0.002264   0.000001   0.000000  -0.000000  -0.000000
     2  C   -0.027853  -0.032775   0.000097   0.000001   0.000000   0.000000
     3  C    0.352782   0.367589   0.002018  -0.000325  -0.000000   0.000001
     4  S   -0.042287  -0.029591  -0.005052   0.000807  -0.000217   0.000065
     5  S   -0.008056   0.004408  -0.053801  -0.054177   0.006350  -0.003678
     6  C    0.002007   0.000019   0.382280   0.380144  -0.041640  -0.036865
     7  C   -0.000151   0.000001  -0.030796  -0.028117   0.392340   0.390100
     8  N    0.000018  -0.000000  -0.004467   0.003487  -0.052544  -0.040551
     9  H    0.000124   0.004590   0.000000  -0.000000   0.000000   0.000000
    10  H    0.000101  -0.000361   0.000000   0.000000   0.000000   0.000000
    11  H   -0.000039  -0.005087   0.000001   0.000000   0.000000  -0.000000
    12  H   -0.001178   0.004788  -0.000045   0.000005  -0.000000   0.000000
    13  H    0.594510  -0.025076   0.003212   0.000012   0.000007   0.000000
    14  H   -0.025076   0.559402  -0.000163   0.000006  -0.000000  -0.000000
    15  H    0.003212  -0.000163   0.583533  -0.032214  -0.004813   0.005280
    16  H    0.000012   0.000006  -0.032214   0.582213  -0.002442  -0.001928
    17  H    0.000007  -0.000000  -0.004813  -0.002442   0.643138  -0.043239
    18  H    0.000000  -0.000000   0.005280  -0.001928  -0.043239   0.604623
    19  H    0.000008   0.000000   0.004988  -0.000104  -0.005126   0.006120
    20  H   -0.000000   0.000000  -0.000009  -0.000194  -0.002783  -0.004147
              19         20
     1  N   -0.000000   0.000000
     2  C   -0.000001   0.000000
     3  C    0.000001   0.000000
     4  S   -0.000016   0.000004
     5  S   -0.000884  -0.000336
     6  C   -0.004867   0.005804
     7  C   -0.037741  -0.032588
     8  N    0.343659   0.343732
     9  H    0.000000  -0.000000
    10  H    0.000000  -0.000000
    11  H   -0.000000  -0.000000
    12  H    0.000004   0.000000
    13  H    0.000008  -0.000000
    14  H    0.000000   0.000000
    15  H    0.004988  -0.000009
    16  H   -0.000104  -0.000194
    17  H   -0.005126  -0.002783
    18  H    0.006120  -0.004147
    19  H    0.470404  -0.031667
    20  H   -0.031667   0.462533
 Mulliken charges:
               1
     1  N   -0.629719
     2  C   -0.061104
     3  C   -0.345199
     4  S   -0.034505
     5  S   -0.010078
     6  C   -0.331137
     7  C   -0.063238
     8  N   -0.635976
     9  H    0.251350
    10  H    0.258213
    11  H    0.120690
    12  H    0.126375
    13  H    0.146972
    14  H    0.154516
    15  H    0.149951
    16  H    0.152825
    17  H    0.110971
    18  H    0.124218
    19  H    0.255223
    20  H    0.259650
 Sum of Mulliken charges =  -0.00000
 Mulliken charges with hydrogens summed into heavy atoms:
               1
     1  N   -0.120156
     2  C    0.185962
     3  C   -0.043711
     4  S   -0.034505
     5  S   -0.010078
     6  C   -0.028361
     7  C    0.171951
     8  N   -0.121102
 APT charges:
               1
     1  N   -0.881654
     2  C   -0.706561
     3  C   -0.782539
     4  S   -0.064010
     5  S   -0.055712
     6  C   -0.699049
     7  C   -0.945882
     8  N   -1.500598
     9  H    0.672232
    10  H    0.173403
    11  H    0.584576
    12  H    0.158635
    13  H    0.240671
    14  H    0.601823
    15  H    0.258038
    16  H    0.460197
    17  H    0.611659
    18  H    0.446903
    19  H    0.432376
    20  H    0.995493
 Sum of APT charges =  -0.00000
 APT charges with hydrogens summed into heavy atoms:
               1
     1  N   -0.036019
     2  C    0.036650
     3  C    0.059955
     4  S   -0.064010
     5  S   -0.055712
     6  C    0.019186
     7  C    0.112679
     8  N   -0.072729
 Electronic spatial extent (au):  <R**2>=           2009.3684
 Charge=             -0.0000 electrons
 Dipole moment (field-independent basis, Debye):
    X=              2.7264    Y=             -0.0960    Z=              4.2391  Tot=              5.0411
 Quadrupole moment (field-independent basis, Debye-Ang):
   XX=            -51.8123   YY=            -69.3604   ZZ=            -64.6629
   XY=              5.1415   XZ=             -2.1576   YZ=              4.5568
 Traceless Quadrupole moment (field-independent basis, Debye-Ang):
   XX=             10.1329   YY=             -7.4152   ZZ=             -2.7177
   XY=              5.1415   XZ=             -2.1576   YZ=              4.5568
 Octapole moment (field-independent basis, Debye-Ang**2):
  XXX=             61.9518  YYY=              7.0203  ZZZ=              5.7768  XYY=             17.1918
  XXY=             -6.5971  XXZ=             26.8938  XZZ=              2.2496  YZZ=              2.2491
  YYZ=              9.0324  XYZ=             -4.2786
 Hexadecapole moment (field-independent basis, Debye-Ang**3):
 XXXX=          -1708.4331 YYYY=           -445.6652 ZZZZ=           -240.5093 XXXY=            171.1883
 XXXZ=            -72.6180 YYYX=             24.5371 YYYZ=             15.8326 ZZZX=              2.5827
 ZZZY=              6.0493 XXYY=           -401.9447 XXZZ=           -363.3778 YYZZ=           -118.9590
 XXYZ=             42.1232 YYXZ=             -1.8124 ZZXY=             15.8696
 N-N= 5.511931638822D+02 E-N=-3.619764423359D+03  KE= 1.060432657612D+03
  Exact polarizability:   0.000   0.000   0.000   0.000   0.000   0.000
 Approx polarizability: 158.515   7.334 119.774 -14.672   2.440 122.036
 D2PCM: PCM CHGder 2nd derivatives, FixD1E=F FixD2E=F DoIter=F DoCFld=F I1PDM=0
 Calling FoFJK, ICntrl=    100147 FMM=F ISym2X=0 I1Cent= 0 IOpClX= 0 NMat=1 NMatS=1 NMatT=0.
 ***** Axes restored to original set *****
 -------------------------------------------------------------------
 Center     Atomic                   Forces (Hartrees/Bohr)
 Number     Number              X              Y              Z
 -------------------------------------------------------------------
      1        7          -0.002017168    0.000783692   -0.006837031
      2        6           0.006970410    0.004278287   -0.000279972
      3        6          -0.001504522   -0.014307687    0.001123126
      4       16           0.005921990    0.006818180    0.005412492
      5       16          -0.002424848   -0.002425841   -0.010076340
      6        6          -0.012704502   -0.000767338    0.006133960
      7        6          -0.005854319   -0.006623937    0.003846424
      8        7           0.008393046   -0.002963624   -0.011017265
      9        1          -0.000332530   -0.000978418    0.000540659
     10        1           0.002745658   -0.002639536    0.001356893
     11        1          -0.000964718   -0.000561415    0.002303978
     12        1          -0.000378264    0.002027529    0.000237794
     13        1          -0.000767344    0.001339429    0.000817186
     14        1          -0.000655219    0.005010218   -0.000199353
     15        1           0.000700312    0.000475387   -0.001016435
     16        1           0.000722098   -0.001495562   -0.000296361
     17        1           0.000783687    0.010550082    0.006450940
     18        1           0.001048955   -0.000731129   -0.000719843
     19        1          -0.001704700    0.001641159    0.000452739
     20        1           0.002021978    0.000570523    0.001766411
 -------------------------------------------------------------------
 Cartesian Forces:  Max     0.014307687 RMS     0.004609348
 FormGI is forming the generalized inverse of G from B-inverse, IUseBI=4.

 GradGradGradGradGradGradGradGradGradGradGradGradGradGradGradGradGradGrad
 Berny optimization.
 Internal  Forces:  Max     0.012233302 RMS     0.003385645
 Search for a local minimum.
 Step number   1 out of a maximum of   98
 All quantities printed in internal units (Hartrees-Bohrs-Radians)
 Mixed Optimization -- RFO/linear search
 Second derivative matrix not updated -- analytic derivatives used.
 ITU=  0
     Eigenvalues ---   -0.00009   0.00187   0.00299   0.00334   0.00394
     Eigenvalues ---    0.00531   0.02257   0.03001   0.03534   0.04340
     Eigenvalues ---    0.04371   0.04426   0.04473   0.04612   0.04663
     Eigenvalues ---    0.04920   0.05018   0.08226   0.08350   0.08825
     Eigenvalues ---    0.09124   0.10851   0.11405   0.12181   0.12413
     Eigenvalues ---    0.14631   0.14982   0.15380   0.16449   0.17339
     Eigenvalues ---    0.17763   0.18905   0.20469   0.22471   0.22628
     Eigenvalues ---    0.24441   0.26840   0.28151   0.29013   0.29876
     Eigenvalues ---    0.31956   0.33116   0.33181   0.33413   0.33497
     Eigenvalues ---    0.33665   0.33921   0.33949   0.36951   0.36973
     Eigenvalues ---    0.43212   0.44141   0.44177   0.44423
 RFO step:  Lambda=-6.61391229D-03 EMin=-8.93136939D-05
 Linear search not attempted -- first point.
 Iteration  1 RMS(Cart)=  0.12396288 RMS(Int)=  0.00340315
 Iteration  2 RMS(Cart)=  0.00568074 RMS(Int)=  0.00025388
 Iteration  3 RMS(Cart)=  0.00001932 RMS(Int)=  0.00025368
 Iteration  4 RMS(Cart)=  0.00000000 RMS(Int)=  0.00025368
 Variable       Old X    -DE/DX   Delta X   Delta X   Delta X     New X
                                 (Linear)    (Quad)   (Total)
    R1        2.76907   0.00139   0.00000  -0.00544  -0.00544   2.76362
    R2        1.92605  -0.00019   0.00000   0.00011   0.00011   1.92615
    R3        1.93331  -0.00381   0.00000  -0.00801  -0.00801   1.92530
    R4        2.90116   0.00281   0.00000  -0.00064  -0.00064   2.90052
    R5        2.07090   0.00090   0.00000   0.00303   0.00303   2.07393
    R6        2.06956  -0.00040   0.00000   0.00073   0.00073   2.07029
    R7        3.45874   0.00543   0.00000   0.03102   0.03102   3.48976
    R8        2.06953   0.00020   0.00000  -0.00243  -0.00243   2.06709
    R9        2.07089   0.00019   0.00000   0.00151   0.00151   2.07240
   R10        3.88832   0.01010   0.00000   0.05079   0.05079   3.93910
   R11        3.45149   0.00844   0.00000   0.04776   0.04776   3.49925
   R12        2.90121  -0.00506   0.00000  -0.01480  -0.01480   2.88641
   R13        2.07004  -0.00078   0.00000  -0.00269  -0.00269   2.06735
   R14        2.06967  -0.00154   0.00000  -0.00554  -0.00554   2.06413
   R15        2.76592   0.00428   0.00000   0.00336   0.00336   2.76929
   R16        2.07143   0.00424   0.00000   0.01304   0.01304   2.08447
   R17        2.07123  -0.00025   0.00000   0.00001   0.00001   2.07123
   R18        1.92473  -0.00108   0.00000   0.00023   0.00023   1.92496
   R19        1.92618  -0.00262   0.00000  -0.00333  -0.00333   1.92285
    A1        1.91557  -0.00192   0.00000  -0.00703  -0.00702   1.90855
    A2        1.88503   0.00240   0.00000   0.01261   0.01262   1.89765
    A3        1.83587  -0.00012   0.00000   0.00267   0.00269   1.83855
    A4        1.99113   0.01150   0.00000   0.04415   0.04426   2.03539
    A5        1.88508  -0.00217   0.00000   0.00698   0.00710   1.89218
    A6        1.90136  -0.00347   0.00000  -0.00804  -0.00763   1.89373
    A7        1.89316  -0.00442   0.00000  -0.02124  -0.02174   1.87142
    A8        1.93324  -0.00430   0.00000  -0.03018  -0.03028   1.90296
    A9        1.85430   0.00235   0.00000   0.00684   0.00638   1.86068
   A10        1.99531   0.00458   0.00000   0.00839   0.00846   2.00377
   A11        1.92417   0.00088   0.00000   0.01563   0.01536   1.93953
   A12        1.90675   0.00128   0.00000   0.02471   0.02447   1.93123
   A13        1.90425  -0.00272   0.00000  -0.00904  -0.00917   1.89508
   A14        1.86498  -0.00475   0.00000  -0.05643  -0.05638   1.80860
   A15        1.86297   0.00033   0.00000   0.01547   0.01466   1.87764
   A16        1.79898   0.00510   0.00000   0.01856   0.01856   1.81754
   A17        1.78234   0.00449   0.00000   0.00896   0.00896   1.79130
   A18        1.95488  -0.00345   0.00000  -0.02142  -0.02138   1.93350
   A19        1.91285  -0.00019   0.00000  -0.01626  -0.01620   1.89665
   A20        1.88830   0.00150   0.00000  -0.00101  -0.00087   1.88743
   A21        1.91794   0.00168   0.00000   0.01669   0.01641   1.93435
   A22        1.89831   0.00109   0.00000   0.01741   0.01726   1.91558
   A23        1.89018  -0.00055   0.00000   0.00542   0.00509   1.89526
   A24        1.98139  -0.00724   0.00000  -0.02721  -0.02753   1.95386
   A25        1.89413  -0.00532   0.00000  -0.03093  -0.03076   1.86337
   A26        1.92673   0.00245   0.00000  -0.01265  -0.01363   1.91310
   A27        1.88495   0.01223   0.00000   0.09771   0.09791   1.98286
   A28        1.90820  -0.00061   0.00000  -0.01964  -0.02057   1.88762
   A29        1.86428  -0.00098   0.00000  -0.00341  -0.00401   1.86027
   A30        1.92326  -0.00265   0.00000  -0.01679  -0.01691   1.90635
   A31        1.91112  -0.00047   0.00000  -0.00584  -0.00596   1.90516
   A32        1.85951   0.00023   0.00000  -0.01424  -0.01450   1.84501
    D1        0.89751   0.00049   0.00000   0.04236   0.04248   0.93999
    D2       -1.20868   0.00026   0.00000   0.03597   0.03575  -1.17293
    D3        3.06750   0.00045   0.00000   0.02838   0.02847   3.09597
    D4       -1.09509   0.00033   0.00000   0.03604   0.03617  -1.05892
    D5        3.08191   0.00010   0.00000   0.02965   0.02944   3.11135
    D6        1.07490   0.00029   0.00000   0.02206   0.02216   1.09706
    D7        0.99524  -0.00061   0.00000   0.01207   0.01198   1.00722
    D8       -3.13529  -0.00014   0.00000   0.01855   0.01840  -3.11689
    D9       -1.09325   0.00153   0.00000   0.06101   0.06118  -1.03207
   D10        3.09692   0.00094   0.00000   0.03448   0.03417   3.13108
   D11       -1.03361   0.00141   0.00000   0.04096   0.04059  -0.99303
   D12        1.00842   0.00308   0.00000   0.08342   0.08337   1.09179
   D13       -1.15758  -0.00124   0.00000   0.01338   0.01358  -1.14400
   D14        0.99507  -0.00077   0.00000   0.01987   0.02001   1.01508
   D15        3.03711   0.00091   0.00000   0.06232   0.06279   3.09990
   D16        1.16535   0.00112   0.00000   0.03270   0.03261   1.19796
   D17       -0.99801  -0.00122   0.00000   0.01315   0.01343  -0.98458
   D18       -3.00607   0.00223   0.00000   0.02912   0.02893  -2.97714
   D19        1.49098   0.00148   0.00000   0.05133   0.05133   1.54231
   D20       -3.09925  -0.00055   0.00000  -0.11774  -0.11786   3.06608
   D21       -0.96582  -0.00087   0.00000  -0.12240  -0.12224  -1.08806
   D22        1.09180  -0.00077   0.00000  -0.12558  -0.12563   0.96617
   D23        1.21298  -0.00468   0.00000  -0.08954  -0.08936   1.12362
   D24       -2.97428   0.00244   0.00000  -0.00498  -0.00513  -2.97941
   D25       -0.93663  -0.00048   0.00000  -0.03431  -0.03434  -0.97097
   D26       -0.91754  -0.00327   0.00000  -0.06598  -0.06566  -0.98320
   D27        1.17838   0.00385   0.00000   0.01859   0.01857   1.19695
   D28       -3.06715   0.00093   0.00000  -0.01075  -0.01064  -3.07779
   D29       -2.98394  -0.00423   0.00000  -0.09262  -0.09257  -3.07651
   D30       -0.88802   0.00289   0.00000  -0.00806  -0.00835  -0.89636
   D31        1.14964  -0.00003   0.00000  -0.03739  -0.03756   1.11208
   D32        1.08764   0.00091   0.00000   0.05588   0.05549   1.14314
   D33        3.12752  -0.00064   0.00000   0.02533   0.02510  -3.13057
   D34       -1.01348   0.00369   0.00000   0.04414   0.04424  -0.96924
   D35        1.02640   0.00214   0.00000   0.01359   0.01384   1.04025
   D36       -3.03580  -0.00152   0.00000   0.00512   0.00518  -3.03062
   D37       -0.99591  -0.00307   0.00000  -0.02543  -0.02522  -1.02114
         Item               Value     Threshold  Converged?
 Maximum Force            0.012233     0.000450     NO 
 RMS     Force            0.003386     0.000300     NO 
 Maximum Displacement     0.305757     0.001800     NO 
 RMS     Displacement     0.122634     0.001200     NO 
 Predicted change in Energy=-3.748759D-03
 GradGradGradGradGradGradGradGradGradGradGradGradGradGradGradGradGradGrad

                          Input orientation:                          
 ---------------------------------------------------------------------
 Center     Atomic      Atomic             Coordinates (Angstroms)
 Number     Number       Type             X           Y           Z
 ---------------------------------------------------------------------
      1          7           0        3.652075   -0.167817   -1.325585
      2          6           0        2.624808   -0.847289   -0.537048
      3          6           0        1.994614   -0.044384    0.609290
      4         16           0        1.198729    1.541727    0.098288
      5         16           0       -0.464814    0.943878   -1.006372
      6          6           0       -1.771094    0.764329    0.293732
      7          6           0       -3.120763    0.427325   -0.337022
      8          7           0       -3.102800   -0.876911   -1.004980
      9          1           0        4.374965    0.189653   -0.702231
     10          1           0        3.239273    0.656077   -1.760094
     11          1           0        3.066525   -1.750365   -0.096828
     12          1           0        1.832735   -1.184467   -1.214662
     13          1           0        1.258923   -0.644213    1.152879
     14          1           0        2.760941    0.270810    1.327675
     15          1           0       -1.462951   -0.017509    0.994162
     16          1           0       -1.842939    1.709507    0.836481
     17          1           0       -3.874382    0.502609    0.464924
     18          1           0       -3.379229    1.188850   -1.081736
     19          1           0       -2.968587   -1.608435   -0.308923
     20          1           0       -4.016030   -1.053375   -1.417577
 ---------------------------------------------------------------------
                    Distance matrix (angstroms):
                    1          2          3          4          5
     1  N    0.000000
     2  C    1.462447   0.000000
     3  C    2.550717   1.534892   0.000000
     4  S    3.311928   2.853901   1.846700   0.000000
     5  S    4.276276   3.601986   3.104159   2.084484   0.000000
     6  C    5.736014   4.755151   3.864472   3.076101   1.851722
     7  C    6.870428   5.888653   5.223513   4.482120   2.787278
     8  N    6.799555   5.746767   5.411340   5.056696   3.205347
     9  H    1.019276   2.040976   2.727807   3.543643   4.907628
    10  H    1.018825   2.033106   2.766551   2.898583   3.790934
    11  H    2.087384   1.097476   2.134940   3.790066   4.533935
    12  H    2.087075   1.095550   2.157034   3.091591   3.138784
    13  H    3.478062   2.182369   1.093858   2.427781   3.186795
    14  H    2.833073   2.178501   1.096668   2.359476   4.038104
    15  H    5.618479   4.443299   3.479023   3.212219   2.433655
    16  H    6.196294   5.327716   4.225466   3.134458   2.425185
    17  H    7.765498   6.713095   5.896198   5.191401   3.739597
    18  H    7.165141   6.363254   5.767028   4.740747   2.925663
    19  H    6.851435   5.649553   5.284196   5.239835   3.642748
    20  H    7.719619   6.702129   6.422934   6.018814   4.095027
                    6          7          8          9         10
     6  C    0.000000
     7  C    1.527425   0.000000
     8  N    2.480678   1.465443   0.000000
     9  H    6.252698   7.508382   7.559510   0.000000
    10  H    5.416059   6.521312   6.568268   1.620624   0.000000
    11  H    5.466148   6.563730   6.296684   2.417064   2.930403
    12  H    4.365849   5.282543   4.949552   2.934914   2.379799
    13  H    3.450091   4.748647   4.871872   3.721086   3.754724
    14  H    4.674605   6.114748   6.414203   2.594644   3.148261
    15  H    1.093995   2.172157   2.724746   6.082921   5.490952
    16  H    1.092291   2.157297   3.415814   6.583306   5.803516
    17  H    2.126411   1.103053   2.158479   8.337380   7.455088
    18  H    2.158293   1.096050   2.085587   7.827512   6.674472
    19  H    2.725287   2.041633   1.018643   7.570705   6.765459
    20  H    3.357434   2.039994   1.017529   8.512675   7.461834
                   11         12         13         14         15
    11  H    0.000000
    12  H    1.758417   0.000000
    13  H    2.460237   2.495273   0.000000
    14  H    2.491533   3.072926   1.767449   0.000000
    15  H    4.970834   4.135485   2.797596   4.246836   0.000000
    16  H    6.078208   5.108116   3.906617   4.848384   1.775343
    17  H    7.318992   6.183722   5.304649   6.695190   2.523017
    18  H    7.152396   5.728426   5.464987   6.659560   3.071934
    19  H    6.040506   4.904366   4.575853   6.248000   2.548728
    20  H    7.238284   5.853752   5.882159   7.430828   3.661655
                   16         17         18         19         20
    16  H    0.000000
    17  H    2.391948   0.000000
    18  H    2.512136   1.763026   0.000000
    19  H    3.686160   2.424007   2.930984   0.000000
    20  H    4.175718   2.446418   2.354969   1.623065   0.000000
 Stoichiometry    C4H12N2S2
 Framework group  C1[X(C4H12N2S2)]
 Deg. of freedom    54
 Full point group                 C1      NOp   1
 Largest Abelian subgroup         C1      NOp   1
 Largest concise Abelian subgroup C1      NOp   1
                         Standard orientation:                         
 ---------------------------------------------------------------------
 Center     Atomic      Atomic             Coordinates (Angstroms)
 Number     Number       Type             X           Y           Z
 ---------------------------------------------------------------------
      1          7           0       -3.489127    0.869106   -0.680384
      2          6           0       -2.473721    1.196370    0.319916
      3          6           0       -1.848892    0.016490    1.077123
      4         16           0       -1.037851   -1.249856    0.005263
      5         16           0        0.631876   -0.269496   -0.766734
      6          6           0        1.924836   -0.599537    0.517090
      7          6           0        3.278038   -0.042773    0.079045
      8          7           0        3.257658    1.417908   -0.037225
      9          1           0       -4.215388    0.297876   -0.250074
     10          1           0       -3.066885    0.276222   -1.393269
     11          1           0       -2.925452    1.860102    1.068150
     12          1           0       -1.677645    1.769870   -0.167515
     13          1           0       -1.122248    0.363516    1.817451
     14          1           0       -2.619747   -0.552299    1.610923
     15          1           0        1.605059   -0.147313    1.460521
     16          1           0        1.997886   -1.680470    0.656183
     17          1           0        4.024673   -0.418263    0.798955
     18          1           0        3.548418   -0.459364   -0.898029
     19          1           0        3.112172    1.825793    0.884783
     20          1           0        4.173488    1.741572   -0.340312
 ---------------------------------------------------------------------
 Rotational constants (GHZ):           2.7038958           0.6150241           0.5656971
 Standard basis: 6-31G(d,p) (6D, 7F)
 There are   188 symmetry adapted cartesian basis functions of A   symmetry.
 There are   188 symmetry adapted basis functions of A   symmetry.
   188 basis functions,   356 primitive gaussians,   188 cartesian basis functions
    41 alpha electrons       41 beta electrons
       nuclear repulsion energy       545.8590257360 Hartrees.
 NAtoms=   20 NActive=   20 NUniq=   20 SFac= 1.00D+00 NAtFMM=   60 NAOKFM=F Big=F
 Integral buffers will be    131072 words long.
 Raffenetti 2 integral format.
 Two-electron integral symmetry is turned on.
 ------------------------------------------------------------------------------
 Polarizable Continuum Model (PCM)
 =================================
 Model                : PCM.
 Atomic radii         : UFF (Universal Force Field).
 Polarization charges : Total charges.
 Charge compensation  : None.
 Solution method      : Matrix inversion.
 Cavity type          : Scaled VdW (van der Waals Surface) (Alpha=1.100).
 Cavity algorithm     : GePol (No added spheres)
                        Default sphere list used, NSphG=   20.
                        Lebedev-Laikov grids with approx.  5.0 points / Ang**2.
                        Smoothing algorithm: York/Karplus (Gamma=1.0000).
                        Polarization charges: spherical gaussians, with
                                              point-specific exponents (IZeta= 3).
                        Self-potential: point-specific (ISelfS= 7).
                        Self-field    : sphere-specific E.n sum rule (ISelfD= 2).
 1st derivatives      : Analytical E(r).r(x)/FMM algorithm (CHGder, D1EAlg=3).
                        Cavity 1st derivative terms included.
 Solvent              : Water, Eps=  78.355300 Eps(inf)=   1.777849
 ------------------------------------------------------------------------------
 Spheres list:
 ISph  on   Nord     Re0    Alpha      Xe            Ye            Ze
    1   N      1    1.8300  1.100     -3.489127      0.869106     -0.680384
    2   C      2    1.9255  1.100     -2.473721      1.196370      0.319916
    3   C      3    1.9255  1.100     -1.848892      0.016490      1.077123
    4   S      4    2.0175  1.100     -1.037851     -1.249856      0.005263
    5   S      5    2.0175  1.100      0.631876     -0.269496     -0.766734
    6   C      6    1.9255  1.100      1.924836     -0.599537      0.517090
    7   C      7    1.9255  1.100      3.278038     -0.042773      0.079045
    8   N      8    1.8300  1.100      3.257658      1.417908     -0.037225
    9   H      9    1.4430  1.100     -4.215388      0.297876     -0.250074
   10   H     10    1.4430  1.100     -3.066885      0.276222     -1.393269
   11   H     11    1.4430  1.100     -2.925452      1.860102      1.068150
   12   H     12    1.4430  1.100     -1.677645      1.769870     -0.167515
   13   H     13    1.4430  1.100     -1.122248      0.363516      1.817451
   14   H     14    1.4430  1.100     -2.619747     -0.552299      1.610923
   15   H     15    1.4430  1.100      1.605059     -0.147313      1.460521
   16   H     16    1.4430  1.100      1.997886     -1.680470      0.656183
   17   H     17    1.4430  1.100      4.024673     -0.418263      0.798955
   18   H     18    1.4430  1.100      3.548418     -0.459364     -0.898029
   19   H     19    1.4430  1.100      3.112172      1.825793      0.884783
   20   H     20    1.4430  1.100      4.173488      1.741572     -0.340312
 ------------------------------------------------------------------------------
 One-electron integrals computed using PRISM.
 NBasis=   188 RedAO= T EigKep=  4.95D-03  NBF=   188
 NBsUse=   188 1.00D-06 EigRej= -1.00D+00 NBFU=   188
 Initial guess from the checkpoint file:  "APQPRKLAWCIJEK-UHFFFAOYSA-N_conf_3_0.chk"
 B after Tr=    -0.000000    0.000000    0.000000
         Rot=    0.999190   -0.039797    0.001847   -0.005665 Ang=  -4.61 deg.
 ExpMin= 1.17D-01 ExpMax= 2.19D+04 ExpMxC= 3.30D+03 IAcc=2 IRadAn=         4 AccDes= 0.00D+00
 Harris functional with IExCor=  402 and IRadAn=       4 diagonalized for initial guess.
 HarFok:  IExCor=  402 AccDes= 0.00D+00 IRadAn=         4 IDoV= 1 UseB2=F ITyADJ=14
 ICtDFT=  3500011 ScaDFX=  1.000000  1.000000  1.000000  1.000000
 FoFCou: FMM=F IPFlag=           0 FMFlag=      100000 FMFlg1=           0
         NFxFlg=           0 DoJE=T BraDBF=F KetDBF=T FulRan=T
         wScrn=  0.000000 ICntrl=       500 IOpCl=  0 I1Cent=   200000004 NGrid=           0
         NMat0=    1 NMatS0=      1 NMatT0=    0 NMatD0=    1 NMtDS0=    0 NMtDT0=    0
 Petite list used in FoFCou.
 Keep R1 ints in memory in canonical form, NReq=161201114.
 Requested convergence on RMS density matrix=1.00D-08 within  32 cycles.
 Requested convergence on MAX density matrix=1.00D-06.
 Requested convergence on             energy=1.00D-06.
 No special actions if energy rises.
 Inv3:  Mode=1 IEnd=     9229548.
 Iteration    1 A*A^-1 deviation from unit magnitude is 7.55D-15 for   1718.
 Iteration    1 A*A^-1 deviation from orthogonality  is 3.51D-15 for   1350    836.
 Iteration    1 A^-1*A deviation from unit magnitude is 7.55D-15 for   1718.
 Iteration    1 A^-1*A deviation from orthogonality  is 3.07D-15 for   1312    733.
 Error on total polarization charges =  0.01103
 SCF Done:  E(RB3LYP) =  -1065.55333379     A.U. after   10 cycles
            NFock= 10  Conv=0.61D-08     -V/T= 2.0049
 QCSCF skips out because SCF is already converged.
 D1PCM: PCM CHGder 1st derivatives, ID1Alg=3 FixD1E=F DoIter=F DoCFld=F I1PDM=0.
 Calling FoFJK, ICntrl=      2127 FMM=F ISym2X=0 I1Cent= 0 IOpClX= 0 NMat=1 NMatS=1 NMatT=0.
 ***** Axes restored to original set *****
 -------------------------------------------------------------------
 Center     Atomic                   Forces (Hartrees/Bohr)
 Number     Number              X              Y              Z
 -------------------------------------------------------------------
      1        7          -0.000135778   -0.000019231   -0.000350889
      2        6           0.000697602    0.000323581    0.000057825
      3        6          -0.000100549   -0.001304038    0.000338899
      4       16           0.000214879    0.001277492    0.000307214
      5       16          -0.000259113   -0.001330839   -0.000816972
      6        6          -0.001130976    0.000437988    0.000719867
      7        6          -0.001133106   -0.000269211    0.000488138
      8        7           0.001346559   -0.000234601   -0.001154173
      9        1           0.000176163   -0.000368337   -0.000057533
     10        1           0.000226800    0.000105966    0.000172490
     11        1          -0.000382605   -0.000172405    0.000105284
     12        1           0.000099496    0.000097008   -0.000239648
     13        1           0.000096431   -0.000086163    0.000173850
     14        1          -0.000016033    0.000874147   -0.000257218
     15        1          -0.000126075   -0.000119152   -0.000126938
     16        1           0.000488980    0.000083735   -0.000040315
     17        1           0.000296763    0.000578444    0.000454050
     18        1          -0.000076852    0.000246815    0.000237893
     19        1          -0.000335634   -0.000090551    0.000056980
     20        1           0.000053047   -0.000030650   -0.000068803
 -------------------------------------------------------------------
 Cartesian Forces:  Max     0.001346559 RMS     0.000519731

 GradGradGradGradGradGradGradGradGradGradGradGradGradGradGradGradGradGrad
 Berny optimization.
 Using GEDIIS/GDIIS optimizer.
 FormGI is forming the generalized inverse of G from B-inverse, IUseBI=4.
 Internal  Forces:  Max     0.001173974 RMS     0.000412286
 Search for a local minimum.
 Step number   2 out of a maximum of   98
 All quantities printed in internal units (Hartrees-Bohrs-Radians)
 Mixed Optimization -- En-DIIS/RFO-DIIS
 Update second derivatives using D2CorX and points    1    2
 DE= -3.84D-03 DEPred=-3.75D-03 R= 1.02D+00
 TightC=F SS=  1.41D+00  RLast= 3.66D-01 DXNew= 5.0454D-01 1.0966D+00
 Trust test= 1.02D+00 RLast= 3.66D-01 DXMaxT set to 5.05D-01
 ITU=  1  0
 Use linear search instead of GDIIS.
     Eigenvalues ---   -0.00009   0.00188   0.00299   0.00334   0.00394
     Eigenvalues ---    0.00532   0.02261   0.03005   0.03533   0.04337
     Eigenvalues ---    0.04371   0.04426   0.04456   0.04615   0.04672
     Eigenvalues ---    0.04934   0.04995   0.08228   0.08350   0.08818
     Eigenvalues ---    0.09124   0.10842   0.11413   0.12165   0.12446
     Eigenvalues ---    0.14644   0.14977   0.15395   0.16293   0.17066
     Eigenvalues ---    0.17758   0.18890   0.20416   0.22361   0.22563
     Eigenvalues ---    0.24469   0.26598   0.28108   0.28909   0.29667
     Eigenvalues ---    0.31978   0.33111   0.33173   0.33412   0.33493
     Eigenvalues ---    0.33645   0.33913   0.33945   0.36779   0.36976
     Eigenvalues ---    0.43214   0.44153   0.44177   0.44421
 RFO step:  Lambda=-1.74091253D-03 EMin=-8.93631885D-05
 Quartic linear search produced a step of  0.21545.
 Iteration  1 RMS(Cart)=  0.17582793 RMS(Int)=  0.05288795
 Iteration  2 RMS(Cart)=  0.14524616 RMS(Int)=  0.01571269
 Iteration  3 RMS(Cart)=  0.05424567 RMS(Int)=  0.00082073
 Iteration  4 RMS(Cart)=  0.00163594 RMS(Int)=  0.00007342
 Iteration  5 RMS(Cart)=  0.00000060 RMS(Int)=  0.00007342
 Variable       Old X    -DE/DX   Delta X   Delta X   Delta X     New X
                                 (Linear)    (Quad)   (Total)
    R1        2.76362   0.00018  -0.00117   0.00095  -0.00022   2.76340
    R2        1.92615  -0.00004   0.00002  -0.00018  -0.00015   1.92600
    R3        1.92530  -0.00008  -0.00173   0.00214   0.00041   1.92571
    R4        2.90052   0.00052  -0.00014  -0.00069  -0.00083   2.89970
    R5        2.07393   0.00003   0.00065  -0.00065   0.00001   2.07394
    R6        2.07029   0.00005   0.00016   0.00046   0.00062   2.07091
    R7        3.48976   0.00076   0.00668  -0.00208   0.00460   3.49436
    R8        2.06709   0.00007  -0.00052  -0.00084  -0.00136   2.06573
    R9        2.07240   0.00007   0.00033  -0.00043  -0.00010   2.07230
   R10        3.93910   0.00105   0.01094  -0.00286   0.00808   3.94718
   R11        3.49925   0.00076   0.01029  -0.00532   0.00497   3.50422
   R12        2.88641  -0.00018  -0.00319  -0.00283  -0.00602   2.88040
   R13        2.06735  -0.00003  -0.00058   0.00134   0.00076   2.06811
   R14        2.06413   0.00002  -0.00119   0.00088  -0.00031   2.06382
   R15        2.76929   0.00086   0.00072   0.00215   0.00287   2.77216
   R16        2.08447   0.00017   0.00281  -0.00216   0.00065   2.08512
   R17        2.07123   0.00003   0.00000  -0.00178  -0.00178   2.06946
   R18        1.92496   0.00005   0.00005   0.00018   0.00022   1.92518
   R19        1.92285  -0.00001  -0.00072   0.00101   0.00029   1.92314
    A1        1.90855  -0.00003  -0.00151   0.00159   0.00008   1.90863
    A2        1.89765   0.00028   0.00272  -0.00210   0.00062   1.89827
    A3        1.83855  -0.00003   0.00058   0.00161   0.00220   1.84075
    A4        2.03539   0.00090   0.00954  -0.00836   0.00120   2.03659
    A5        1.89218  -0.00023   0.00153  -0.00029   0.00126   1.89343
    A6        1.89373  -0.00025  -0.00164   0.00008  -0.00148   1.89225
    A7        1.87142  -0.00026  -0.00468   0.00731   0.00252   1.87394
    A8        1.90296  -0.00028  -0.00652   0.00414  -0.00240   1.90056
    A9        1.86068   0.00006   0.00137  -0.00252  -0.00124   1.85943
   A10        2.00377   0.00067   0.00182  -0.00536  -0.00353   2.00024
   A11        1.93953  -0.00005   0.00331   0.00253   0.00578   1.94531
   A12        1.93123   0.00006   0.00527  -0.00443   0.00076   1.93199
   A13        1.89508  -0.00031  -0.00198   0.00283   0.00084   1.89592
   A14        1.80860  -0.00056  -0.01215   0.00397  -0.00818   1.80041
   A15        1.87764   0.00013   0.00316   0.00088   0.00385   1.88148
   A16        1.81754   0.00069   0.00400   0.00453   0.00853   1.82607
   A17        1.79130   0.00063   0.00193  -0.01295  -0.01102   1.78027
   A18        1.93350  -0.00084  -0.00461  -0.00523  -0.00985   1.92365
   A19        1.89665  -0.00000  -0.00349   0.00712   0.00368   1.90033
   A20        1.88743   0.00030  -0.00019  -0.00726  -0.00747   1.87995
   A21        1.93435   0.00029   0.00354   0.00526   0.00873   1.94308
   A22        1.91558   0.00035   0.00372  -0.00440  -0.00078   1.91479
   A23        1.89526  -0.00009   0.00110   0.00449   0.00549   1.90076
   A24        1.95386  -0.00096  -0.00593   0.00022  -0.00585   1.94800
   A25        1.86337  -0.00018  -0.00663   0.00991   0.00333   1.86670
   A26        1.91310   0.00009  -0.00294  -0.00873  -0.01198   1.90112
   A27        1.98286   0.00117   0.02109  -0.00767   0.01347   1.99633
   A28        1.88762   0.00007  -0.00443  -0.00299  -0.00777   1.87986
   A29        1.86027  -0.00018  -0.00086   0.00944   0.00847   1.86874
   A30        1.90635   0.00002  -0.00364   0.00997   0.00629   1.91264
   A31        1.90516   0.00007  -0.00128   0.00371   0.00239   1.90755
   A32        1.84501  -0.00012  -0.00312   0.00348   0.00028   1.84529
    D1        0.93999   0.00026   0.00915   0.03869   0.04787   0.98786
    D2       -1.17293   0.00016   0.00770   0.03507   0.04273  -1.13020
    D3        3.09597   0.00035   0.00613   0.03816   0.04431   3.14028
    D4       -1.05892   0.00016   0.00779   0.03706   0.04488  -1.01404
    D5        3.11135   0.00006   0.00634   0.03344   0.03974  -3.13210
    D6        1.09706   0.00024   0.00477   0.03653   0.04133   1.13838
    D7        1.00722   0.00019   0.00258   0.03614   0.03870   1.04593
    D8       -3.11689   0.00025   0.00396   0.03787   0.04179  -3.07510
    D9       -1.03207   0.00043   0.01318   0.03771   0.05093  -0.98113
   D10        3.13108   0.00029   0.00736   0.03583   0.04313  -3.10897
   D11       -0.99303   0.00035   0.00874   0.03756   0.04622  -0.94681
   D12        1.09179   0.00052   0.01796   0.03741   0.05536   1.14715
   D13       -1.14400   0.00009   0.00293   0.03881   0.04178  -1.10222
   D14        1.01508   0.00015   0.00431   0.04054   0.04487   1.05995
   D15        3.09990   0.00032   0.01353   0.04038   0.05401  -3.12927
   D16        1.19796   0.00021   0.00703   0.00697   0.01396   1.21191
   D17       -0.98458   0.00003   0.00289   0.00529   0.00824  -0.97635
   D18       -2.97714   0.00028   0.00623   0.00122   0.00743  -2.96971
   D19        1.54231   0.00028   0.01106  -0.00273   0.00833   1.55064
   D20        3.06608  -0.00065  -0.02539  -0.45788  -0.48326   2.58282
   D21       -1.08806  -0.00082  -0.02634  -0.44997  -0.47627  -1.56433
   D22        0.96617  -0.00077  -0.02707  -0.44476  -0.47188   0.49430
   D23        1.12362  -0.00083  -0.01925  -0.17125  -0.19045   0.93317
   D24       -2.97941  -0.00010  -0.00111  -0.17380  -0.17495   3.12882
   D25       -0.97097  -0.00036  -0.00740  -0.16179  -0.16925  -1.14022
   D26       -0.98320  -0.00046  -0.01415  -0.18025  -0.19428  -1.17748
   D27        1.19695   0.00027   0.00400  -0.18280  -0.17878   1.01817
   D28       -3.07779   0.00001  -0.00229  -0.17079  -0.17308   3.03231
   D29       -3.07651  -0.00076  -0.01994  -0.18632  -0.20622   3.00045
   D30       -0.89636  -0.00003  -0.00180  -0.18887  -0.19072  -1.08708
   D31        1.11208  -0.00029  -0.00809  -0.17686  -0.18502   0.92706
   D32        1.14314   0.00029   0.01196   0.00040   0.01225   1.15539
   D33       -3.13057   0.00019   0.00541   0.01204   0.01738  -3.11318
   D34       -0.96924   0.00039   0.00953  -0.00718   0.00237  -0.96687
   D35        1.04025   0.00029   0.00298   0.00446   0.00750   1.04775
   D36       -3.03062  -0.00015   0.00112  -0.01231  -0.01116  -3.04179
   D37       -1.02114  -0.00024  -0.00543  -0.00067  -0.00603  -1.02717
         Item               Value     Threshold  Converged?
 Maximum Force            0.001174     0.000450     NO 
 RMS     Force            0.000412     0.000300     NO 
 Maximum Displacement     1.009354     0.001800     NO 
 RMS     Displacement     0.354301     0.001200     NO 
 Predicted change in Energy=-1.692970D-03
 GradGradGradGradGradGradGradGradGradGradGradGradGradGradGradGradGradGrad

                          Input orientation:                          
 ---------------------------------------------------------------------
 Center     Atomic      Atomic             Coordinates (Angstroms)
 Number     Number       Type             X           Y           Z
 ---------------------------------------------------------------------
      1          7           0        3.746722   -0.215348   -1.311489
      2          6           0        2.800737   -0.815287   -0.371491
      3          6           0        2.086225    0.141447    0.592192
      4         16           0        1.068281    1.446544   -0.232313
      5         16           0       -0.538645    0.409750   -1.072410
      6          6           0       -1.768665    0.414878    0.315266
      7          6           0       -3.188006    0.453308   -0.239080
      8          7           0       -3.418873   -0.623410   -1.208285
      9          1           0        4.453126    0.305706   -0.793555
     10          1           0        3.255145    0.478156   -1.873497
     11          1           0        3.336814   -1.554101    0.237801
     12          1           0        2.048452   -1.369765   -0.943825
     13          1           0        1.452465   -0.401594    1.298168
     14          1           0        2.813625    0.721748    1.172454
     15          1           0       -1.607203   -0.472631    0.934913
     16          1           0       -1.584783    1.306190    0.918996
     17          1           0       -3.871998    0.441260    0.626652
     18          1           0       -3.341462    1.406040   -0.756787
     19          1           0       -3.376686   -1.524277   -0.734434
     20          1           0       -4.365272   -0.548616   -1.574906
 ---------------------------------------------------------------------
                    Distance matrix (angstroms):
                    1          2          3          4          5
     1  N    0.000000
     2  C    1.462331   0.000000
     3  C    2.551186   1.534454   0.000000
     4  S    3.331749   2.852482   1.849134   0.000000
     5  S    4.337312   3.625393   3.119748   2.088759   0.000000
     6  C    5.784722   4.781670   3.874484   3.067969   1.854352
     7  C    7.048944   6.123064   5.348438   4.370646   2.777671
     8  N    7.177946   6.278582   5.842331   5.037041   3.062939
     9  H    1.019196   2.040871   2.747635   3.615755   5.000636
    10  H    1.019043   2.033594   2.749430   2.900626   3.878048
    11  H    2.088202   1.097480   2.136456   3.790926   4.537901
    12  H    2.086140   1.095877   2.155118   3.065710   3.142654
    13  H    3.479743   2.185575   1.093136   2.430140   3.200381
    14  H    2.814035   2.178625   1.096615   2.354766   4.046538
    15  H    5.811800   4.610210   3.759782   3.493402   2.439213
    16  H    5.976210   5.039723   3.865195   2.895507   2.421510
    17  H    7.888752   6.862987   5.965861   5.114173   3.741530
    18  H    7.292389   6.542885   5.733997   4.441007   2.991320
    19  H    7.265619   6.228559   5.863273   5.369882   3.450966
    20  H    8.123109   7.271245   6.840637   5.941946   3.976688
                    6          7          8          9         10
     6  C    0.000000
     7  C    1.524240   0.000000
     8  N    2.474356   1.466962   0.000000
     9  H    6.320766   7.662646   7.937483   0.000000
    10  H    5.480269   6.647265   6.796945   1.622089   0.000000
    11  H    5.472549   6.843273   6.971130   2.401818   2.931607
    12  H    4.397799   5.589343   5.524366   2.934662   2.394830
    13  H    3.465314   4.962657   5.482832   3.725526   3.752742
    14  H    4.671865   6.171229   6.805983   2.593501   3.087408
    15  H    1.094398   2.175906   2.810371   6.349882   5.695049
    16  H    1.092126   2.153804   3.407721   6.355325   5.648766
    17  H    2.126421   1.103395   2.169294   8.446482   7.553030
    18  H    2.146017   1.095110   2.080507   7.871956   6.754497
    19  H    2.729089   2.047393   1.018762   8.041038   7.020568
    20  H    3.353124   2.043095   1.017682   8.894073   7.695075
                   11         12         13         14         15
    11  H    0.000000
    12  H    1.757867   0.000000
    13  H    2.450188   2.513779   0.000000
    14  H    2.515311   3.072223   1.769310   0.000000
    15  H    5.108702   4.206936   3.081975   4.585486   0.000000
    16  H    5.733010   4.881724   3.505022   4.444301   1.779034
[...]
     4  S   -0.059566  -0.045933   0.002004   0.027151   0.000422   0.000286
     5  S    0.018226  -0.000882  -0.048485  -0.077799   0.007932   0.001079
     6  C    0.001479  -0.000013   0.375271   0.377152  -0.042149  -0.037530
     7  C    0.000010  -0.000000  -0.032332  -0.042628   0.370898   0.390352
     8  N    0.000002   0.000000  -0.004303   0.003404  -0.038556  -0.042208
     9  H    0.000018   0.004844  -0.000000   0.000000  -0.000000   0.000000
    10  H    0.000113  -0.000292  -0.000000   0.000000  -0.000000  -0.000000
    11  H   -0.002739  -0.003166  -0.000004   0.000000  -0.000000  -0.000000
    12  H   -0.001340   0.005462  -0.000030   0.000013   0.000000   0.000000
    13  H    0.602498  -0.029346   0.000286  -0.000176  -0.000002  -0.000000
    14  H   -0.029346   0.578930  -0.000037   0.000030   0.000000  -0.000000
    15  H    0.000286  -0.000037   0.577956  -0.027740  -0.006808   0.005514
    16  H   -0.000176   0.000030  -0.027740   0.589161   0.003363  -0.003331
    17  H   -0.000002   0.000000  -0.006808   0.003363   0.620685  -0.040276
    18  H   -0.000000  -0.000000   0.005514  -0.003331  -0.040276   0.594855
    19  H   -0.000003   0.000000   0.004477   0.000012  -0.003905   0.006237
    20  H   -0.000000   0.000000  -0.000026  -0.000128   0.000031  -0.004625
              19         20
     1  N   -0.000000  -0.000000
     2  C   -0.000000  -0.000000
     3  C    0.000000  -0.000000
     4  S    0.000166   0.000051
     5  S    0.001548   0.002093
     6  C   -0.001689   0.006835
     7  C   -0.037874  -0.030244
     8  N    0.329644   0.327161
     9  H    0.000000   0.000000
    10  H    0.000000  -0.000000
    11  H    0.000000   0.000000
    12  H    0.000001   0.000000
    13  H   -0.000003  -0.000000
    14  H    0.000000   0.000000
    15  H    0.004477  -0.000026
    16  H    0.000012  -0.000128
    17  H   -0.003905   0.000031
    18  H    0.006237  -0.004625
    19  H    0.462758  -0.027376
    20  H   -0.027376   0.456542
 Mulliken charges:
               1
     1  N   -0.611753
     2  C   -0.064008
     3  C   -0.319269
     4  S   -0.153551
     5  S   -0.076322
     6  C   -0.322273
     7  C   -0.059122
     8  N   -0.573914
     9  H    0.260272
    10  H    0.265107
    11  H    0.132474
    12  H    0.127030
    13  H    0.145400
    14  H    0.150889
    15  H    0.153387
    16  H    0.151950
    17  H    0.128366
    18  H    0.129646
    19  H    0.266004
    20  H    0.269687
 Sum of Mulliken charges =  -0.00000
 Mulliken charges with hydrogens summed into heavy atoms:
               1
     1  N   -0.086375
     2  C    0.195496
     3  C   -0.022980
     4  S   -0.153551
     5  S   -0.076322
     6  C   -0.016936
     7  C    0.198890
     8  N   -0.038223
 Electronic spatial extent (au):  <R**2>=           2128.6824
 Charge=             -0.0000 electrons
 Dipole moment (field-independent basis, Debye):
    X=              3.6675    Y=             -0.0145    Z=              4.6890  Tot=              5.9529
 Quadrupole moment (field-independent basis, Debye-Ang):
   XX=            -45.1505   YY=            -70.3181   ZZ=            -63.7573
   XY=              4.0653   XZ=              0.7103   YZ=              2.3885
 Traceless Quadrupole moment (field-independent basis, Debye-Ang):
   XX=             14.5915   YY=            -10.5762   ZZ=             -4.0153
   XY=              4.0653   XZ=              0.7103   YZ=              2.3885
 Octapole moment (field-independent basis, Debye-Ang**2):
  XXX=             79.6094  YYY=              8.1778  ZZZ=              6.2910  XYY=             25.7322
  XXY=             -5.6062  XXZ=             21.9296  XZZ=             -1.0983  YZZ=              2.7377
  YYZ=              9.3868  XYZ=              1.2352
 Hexadecapole moment (field-independent basis, Debye-Ang**3):
 XXXX=          -1774.6602 YYYY=           -388.7698 ZZZZ=           -231.8785 XXXY=            192.7866
 XXXZ=            -31.6175 YYYX=             23.8382 YYYZ=              8.3587 ZZZX=             12.6389
 ZZZY=              2.7278 XXYY=           -443.5020 XXZZ=           -383.4002 YYZZ=           -101.8949
 XXYZ=             30.5559 YYXZ=             -5.1731 ZZXY=              2.8917
 N-N= 5.447478137218D+02 E-N=-3.607636528133D+03  KE= 1.060680884814D+03
 Evaluate density.
 Using the total density.
 Monte-Carlo method of calculating molar volume:
 based on  0.001 e/bohr**3 density envelope.
 Number of points per bohr**3 =   20 CutOff= 1.00D-04
 Using the CI density.
 There are       413 points.  Will hold       413 in memory.
 LenV=   805191540 MDV=   805306368.
 Box volume = 8853.768 fraction occupied=0.162
 Integrated density= 4.0337534284521695D+01 error=-4.1662465715478305D+01
 Molar volume = 1436.326 bohr**3/mol (128.176 cm**3/mol)
 Recommended a0 for SCRF calculation =  4.58 angstrom (  8.65 bohr)
 ******************************Gaussian NBO Version 3.1******************************
             N A T U R A L   A T O M I C   O R B I T A L   A N D
          N A T U R A L   B O N D   O R B I T A L   A N A L Y S I S
 ******************************Gaussian NBO Version 3.1******************************
       /RESON  / : Allow strongly delocalized NBO set

 Analyzing the CI density

 Job title: APQPRKLAWCIJEK-UHFFFAOYSA-N_conf_3                              

 Storage needed:    107440 in NPA ( 805304168 available)
 GSVD:  LWork=       20560 too small for GESVD, short by        8252 words or        8252 for optimal perf.


 NATURAL POPULATIONS:  Natural atomic orbital occupancies 
                                                          
   NAO  Atom  No  lang   Type(AO)    Occupancy
 --------------------------------------------
     1    N    1  S      Cor( 1S)     1.99968
     2    N    1  S      Val( 2S)     1.43695
     3    N    1  S      Ryd( 3S)     0.00044
     4    N    1  S      Ryd( 4S)     0.00001
     5    N    1  px     Val( 2p)     1.39064
     6    N    1  px     Ryd( 3p)     0.00277
     7    N    1  py     Val( 2p)     1.71672
     8    N    1  py     Ryd( 3p)     0.00493
     9    N    1  pz     Val( 2p)     1.33728
    10    N    1  pz     Ryd( 3p)     0.00242
    11    N    1  dxy    Ryd( 3d)     0.00142
    12    N    1  dxz    Ryd( 3d)     0.00066
    13    N    1  dyz    Ryd( 3d)     0.00106
    14    N    1  dx2y2  Ryd( 3d)     0.00081
    15    N    1  dz2    Ryd( 3d)     0.00052

    16    C    2  S      Cor( 1S)     1.99931
    17    C    2  S      Val( 2S)     1.02684
    18    C    2  S      Ryd( 3S)     0.00179
    19    C    2  S      Ryd( 4S)     0.00005
    20    C    2  px     Val( 2p)     1.08016
    21    C    2  px     Ryd( 3p)     0.00461
    22    C    2  py     Val( 2p)     1.09436
    23    C    2  py     Ryd( 3p)     0.00222
    24    C    2  pz     Val( 2p)     1.06292
    25    C    2  pz     Ryd( 3p)     0.00467
    26    C    2  dxy    Ryd( 3d)     0.00123
    27    C    2  dxz    Ryd( 3d)     0.00135
    28    C    2  dyz    Ryd( 3d)     0.00094
    29    C    2  dx2y2  Ryd( 3d)     0.00050
    30    C    2  dz2    Ryd( 3d)     0.00086

    31    C    3  S      Cor( 1S)     1.99928
    32    C    3  S      Val( 2S)     1.13835
    33    C    3  S      Ryd( 3S)     0.00172
    34    C    3  S      Ryd( 4S)     0.00003
    35    C    3  px     Val( 2p)     1.18468
    36    C    3  px     Ryd( 3p)     0.00272
    37    C    3  py     Val( 2p)     1.12701
    38    C    3  py     Ryd( 3p)     0.00244
    39    C    3  pz     Val( 2p)     1.15623
    40    C    3  pz     Ryd( 3p)     0.00201
    41    C    3  dxy    Ryd( 3d)     0.00117
    42    C    3  dxz    Ryd( 3d)     0.00121
    43    C    3  dyz    Ryd( 3d)     0.00078
    44    C    3  dx2y2  Ryd( 3d)     0.00053
    45    C    3  dz2    Ryd( 3d)     0.00067

    46    S    4  S      Cor( 1S)     2.00000
    47    S    4  S      Cor( 2S)     1.99963
    48    S    4  S      Val( 3S)     1.78675
    49    S    4  S      Ryd( 4S)     0.00974
    50    S    4  S      Ryd( 5S)     0.00002
    51    S    4  px     Cor( 2p)     1.99991
    52    S    4  px     Val( 3p)     1.36772
    53    S    4  px     Ryd( 4p)     0.01880
    54    S    4  py     Cor( 2p)     1.99990
    55    S    4  py     Val( 3p)     1.43667
    56    S    4  py     Ryd( 4p)     0.00559
    57    S    4  pz     Cor( 2p)     1.99990
    58    S    4  pz     Val( 3p)     1.39470
    59    S    4  pz     Ryd( 4p)     0.00681
    60    S    4  dxy    Ryd( 3d)     0.00713
    61    S    4  dxz    Ryd( 3d)     0.00375
    62    S    4  dyz    Ryd( 3d)     0.00345
    63    S    4  dx2y2  Ryd( 3d)     0.00364
    64    S    4  dz2    Ryd( 3d)     0.00346

    65    S    5  S      Cor( 1S)     2.00000
    66    S    5  S      Cor( 2S)     1.99963
    67    S    5  S      Val( 3S)     1.79433
    68    S    5  S      Ryd( 4S)     0.01094
    69    S    5  S      Ryd( 5S)     0.00002
    70    S    5  px     Cor( 2p)     1.99989
    71    S    5  px     Val( 3p)     1.23818
    72    S    5  px     Ryd( 4p)     0.01452
    73    S    5  py     Cor( 2p)     1.99988
    74    S    5  py     Val( 3p)     1.45113
    75    S    5  py     Ryd( 4p)     0.00568
    76    S    5  pz     Cor( 2p)     1.99991
    77    S    5  pz     Val( 3p)     1.45309
    78    S    5  pz     Ryd( 4p)     0.00392
    79    S    5  dxy    Ryd( 3d)     0.00656
    80    S    5  dxz    Ryd( 3d)     0.00462
    81    S    5  dyz    Ryd( 3d)     0.00246
    82    S    5  dx2y2  Ryd( 3d)     0.00379
    83    S    5  dz2    Ryd( 3d)     0.00358

    84    C    6  S      Cor( 1S)     1.99928
    85    C    6  S      Val( 2S)     1.13235
    86    C    6  S      Ryd( 3S)     0.00203
    87    C    6  S      Ryd( 4S)     0.00003
    88    C    6  px     Val( 2p)     1.03490
    89    C    6  px     Ryd( 3p)     0.00310
    90    C    6  py     Val( 2p)     1.24876
    91    C    6  py     Ryd( 3p)     0.00274
    92    C    6  pz     Val( 2p)     1.17411
    93    C    6  pz     Ryd( 3p)     0.00190
    94    C    6  dxy    Ryd( 3d)     0.00055
    95    C    6  dxz    Ryd( 3d)     0.00108
    96    C    6  dyz    Ryd( 3d)     0.00069
    97    C    6  dx2y2  Ryd( 3d)     0.00108
    98    C    6  dz2    Ryd( 3d)     0.00086

    99    C    7  S      Cor( 1S)     1.99931
   100    C    7  S      Val( 2S)     1.03149
   101    C    7  S      Ryd( 3S)     0.00217
   102    C    7  S      Ryd( 4S)     0.00004
   103    C    7  px     Val( 2p)     1.08539
   104    C    7  px     Ryd( 3p)     0.00134
   105    C    7  py     Val( 2p)     0.92019
   106    C    7  py     Ryd( 3p)     0.00329
   107    C    7  pz     Val( 2p)     1.23189
   108    C    7  pz     Ryd( 3p)     0.00426
   109    C    7  dxy    Ryd( 3d)     0.00091
   110    C    7  dxz    Ryd( 3d)     0.00078
   111    C    7  dyz    Ryd( 3d)     0.00128
   112    C    7  dx2y2  Ryd( 3d)     0.00122
   113    C    7  dz2    Ryd( 3d)     0.00067

   114    N    8  S      Cor( 1S)     1.99964
   115    N    8  S      Val( 2S)     1.44593
   116    N    8  S      Ryd( 3S)     0.00064
   117    N    8  S      Ryd( 4S)     0.00001
   118    N    8  px     Val( 2p)     1.56615
   119    N    8  px     Ryd( 3p)     0.00434
   120    N    8  py     Val( 2p)     1.29601
   121    N    8  py     Ryd( 3p)     0.00228
   122    N    8  pz     Val( 2p)     1.53575
   123    N    8  pz     Ryd( 3p)     0.00308
   124    N    8  dxy    Ryd( 3d)     0.00051
   125    N    8  dxz    Ryd( 3d)     0.00089
   126    N    8  dyz    Ryd( 3d)     0.00083
   127    N    8  dx2y2  Ryd( 3d)     0.00123
   128    N    8  dz2    Ryd( 3d)     0.00104

   129    H    9  S      Val( 1S)     0.60710
   130    H    9  S      Ryd( 2S)     0.00150
   131    H    9  px     Ryd( 2p)     0.00047
   132    H    9  py     Ryd( 2p)     0.00062
   133    H    9  pz     Ryd( 2p)     0.00030

   134    H   10  S      Val( 1S)     0.60430
   135    H   10  S      Ryd( 2S)     0.00159
   136    H   10  px     Ryd( 2p)     0.00037
   137    H   10  py     Ryd( 2p)     0.00056
   138    H   10  pz     Ryd( 2p)     0.00047

   139    H   11  S      Val( 1S)     0.74745
   140    H   11  S      Ryd( 2S)     0.00156
   141    H   11  px     Ryd( 2p)     0.00013
   142    H   11  py     Ryd( 2p)     0.00016
   143    H   11  pz     Ryd( 2p)     0.00026

   144    H   12  S      Val( 1S)     0.76035
   145    H   12  S      Ryd( 2S)     0.00178
   146    H   12  px     Ryd( 2p)     0.00024
   147    H   12  py     Ryd( 2p)     0.00022
   148    H   12  pz     Ryd( 2p)     0.00007

   149    H   13  S      Val( 1S)     0.73858
   150    H   13  S      Ryd( 2S)     0.00313
   151    H   13  px     Ryd( 2p)     0.00020
   152    H   13  py     Ryd( 2p)     0.00008
   153    H   13  pz     Ryd( 2p)     0.00027

   154    H   14  S      Val( 1S)     0.73484
   155    H   14  S      Ryd( 2S)     0.00198
   156    H   14  px     Ryd( 2p)     0.00020
   157    H   14  py     Ryd( 2p)     0.00026
   158    H   14  pz     Ryd( 2p)     0.00010

   159    H   15  S      Val( 1S)     0.74155
   160    H   15  S      Ryd( 2S)     0.00251
   161    H   15  px     Ryd( 2p)     0.00011
   162    H   15  py     Ryd( 2p)     0.00013
   163    H   15  pz     Ryd( 2p)     0.00030

   164    H   16  S      Val( 1S)     0.73849
   165    H   16  S      Ryd( 2S)     0.00403
   166    H   16  px     Ryd( 2p)     0.00008
   167    H   16  py     Ryd( 2p)     0.00038
   168    H   16  pz     Ryd( 2p)     0.00007

   169    H   17  S      Val( 1S)     0.75335
   170    H   17  S      Ryd( 2S)     0.00252
   171    H   17  px     Ryd( 2p)     0.00024
   172    H   17  py     Ryd( 2p)     0.00010
   173    H   17  pz     Ryd( 2p)     0.00024

   174    H   18  S      Val( 1S)     0.75572
   175    H   18  S      Ryd( 2S)     0.00184
   176    H   18  px     Ryd( 2p)     0.00010
   177    H   18  py     Ryd( 2p)     0.00013
   178    H   18  pz     Ryd( 2p)     0.00031

   179    H   19  S      Val( 1S)     0.60347
   180    H   19  S      Ryd( 2S)     0.00212
   181    H   19  px     Ryd( 2p)     0.00042
   182    H   19  py     Ryd( 2p)     0.00036
   183    H   19  pz     Ryd( 2p)     0.00061

   184    H   20  S      Val( 1S)     0.59587
   185    H   20  S      Ryd( 2S)     0.00173
   186    H   20  px     Ryd( 2p)     0.00066
   187    H   20  py     Ryd( 2p)     0.00030
   188    H   20  pz     Ryd( 2p)     0.00044


 Summary of Natural Population Analysis:                  
                                                          
                                       Natural Population 
                Natural  -----------------------------------------------
    Atom  No    Charge         Core      Valence    Rydberg      Total
 -----------------------------------------------------------------------
      N    1   -0.89632      1.99968     5.88160    0.01504     7.89632
      C    2   -0.28183      1.99931     4.26428    0.01823     6.28183
      C    3   -0.61882      1.99928     4.60626    0.01328     6.61882
      S    4   -0.04756      9.99932     5.98584    0.06240    16.04756
      S    5    0.00786      9.99931     5.93674    0.05609    15.99214
      C    6   -0.60344      1.99928     4.59011    0.01405     6.60344
      C    7   -0.28423      1.99931     4.26895    0.01597     6.28423
      N    8   -0.85833      1.99964     5.84384    0.01485     7.85833
      H    9    0.39001      0.00000     0.60710    0.00289     0.60999
      H   10    0.39270      0.00000     0.60430    0.00299     0.60730
      H   11    0.25045      0.00000     0.74745    0.00211     0.74955
      H   12    0.23734      0.00000     0.76035    0.00232     0.76266
      H   13    0.25774      0.00000     0.73858    0.00368     0.74226
      H   14    0.26262      0.00000     0.73484    0.00254     0.73738
      H   15    0.25538      0.00000     0.74155    0.00306     0.74462
      H   16    0.25694      0.00000     0.73849    0.00457     0.74306
      H   17    0.24355      0.00000     0.75335    0.00310     0.75645
      H   18    0.24191      0.00000     0.75572    0.00238     0.75809
      H   19    0.39302      0.00000     0.60347    0.00351     0.60698
      H   20    0.40100      0.00000     0.59587    0.00313     0.59900
 =======================================================================
   * Total *   -0.00000     31.99512    49.75870    0.24618    82.00000

                                 Natural Population      
 --------------------------------------------------------
   Core                      31.99512 ( 99.9848% of  32)
   Valence                   49.75870 ( 99.5174% of  50)
   Natural Minimal Basis     81.75382 ( 99.6998% of  82)
   Natural Rydberg Basis      0.24618 (  0.3002% of  82)
 --------------------------------------------------------

    Atom  No          Natural Electron Configuration
 ----------------------------------------------------------------------------
      N    1      [core]2S( 1.44)2p( 4.44)3p( 0.01)
      C    2      [core]2S( 1.03)2p( 3.24)3p( 0.01)
      C    3      [core]2S( 1.14)2p( 3.47)3p( 0.01)
      S    4      [core]3S( 1.79)3p( 4.20)4S( 0.01)3d( 0.02)4p( 0.03)
      S    5      [core]3S( 1.79)3p( 4.14)4S( 0.01)3d( 0.02)4p( 0.02)
      C    6      [core]2S( 1.13)2p( 3.46)3p( 0.01)
      C    7      [core]2S( 1.03)2p( 3.24)3p( 0.01)
      N    8      [core]2S( 1.45)2p( 4.40)3p( 0.01)
      H    9            1S( 0.61)
      H   10            1S( 0.60)
      H   11            1S( 0.75)
      H   12            1S( 0.76)
      H   13            1S( 0.74)
      H   14            1S( 0.73)
      H   15            1S( 0.74)
      H   16            1S( 0.74)
      H   17            1S( 0.75)
      H   18            1S( 0.76)
      H   19            1S( 0.60)
      H   20            1S( 0.60)


 NBO analysis skipped by request.
 1\1\GINC-CN13\SP\RB3LYP TD-FC\6-31G(d,p)\C4H12N2S2\QDUEZ\11-Jul-2024\0
 \\# TD(NStates=10, Root=1) B3LYP/6-31G** SCRF=(Solvent=water) volume p
 op=NPA density=current Geom=AllCheck Guess=Read\\APQPRKLAWCIJEK-UHFFFA
 OYSA-N_conf_3\\0,1\N,0,3.7176912024,-0.2366857948,-1.3187734522\C,0,2.
 7272499492,-0.8263530205,-0.418606651\C,0,2.0695398465,0.1186266415,0.
 5960249875\S,0,1.1126044108,1.5132179687,-0.1535427338\S,0,-0.53619854
 12,0.5938965325,-1.0519427673\C,0,-1.7760532231,0.527865245,0.32925163
 34\C,0,-3.1850254439,0.4349651725,-0.2482461596\N,0,-3.2962761515,-0.6
 993866586,-1.1722160773\H,0,4.4554247586,0.2001007685,-0.7678095801\H,
 0,3.2795938473,0.523263452,-1.8372970871\H,0,3.2102935111,-1.631557632
 6,0.1493896109\H,0,1.9450556989,-1.2985557235,-1.0239542779\H,0,1.4130
 2103,-0.4263564614,1.2802182532\H,0,2.8299643438,0.6310951513,1.197582
 4303\H,0,-1.5510777209,-0.3381508577,0.9585633073\H,0,-1.6638654611,1.
 4343370464,0.9277925018\H,0,-3.8886058624,0.3970116418,0.6004079771\H,
 0,-3.4076393684,1.3498031694,-0.8077139281\H,0,-3.2390691837,-1.571497
 7661,-0.6489652736\H,0,-4.2166276424,-0.6956388744,-1.6057907029\\Vers
 ion=EM64L-G16RevA.03\State=1-A\HF=-1065.5542146\RMSD=2.995e-09\Dipole=
 -1.4686027,-0.880284,1.5979963\Quadrupole=10.8372141,-5.2457797,-5.591
 4344,2.8887025,1.2173782,-2.9734425\PG=C01 [X(C4H12N2S2)]\\@


 THESE ARE THE TIMES THAT TRY MENS SOULS.
 THE SUMMER SOLDIER AND THE SUNSHINE PATRIOT WILL IN THIS CRISIS,
 SHRINK FROM THE SERVICE OF HIS COUNTRY.  BUT HE THAT STANDS NOW,
 DESERVES THE LOVE AND THANKS OF MAN AND WOMAN.
 TYRANNY, LIKE HELL, IS NOT EASILY CONQUERED,
 YET WE HAVE THIS CONSOLATION WITH US,
 THAT THE HARDER THE CONFLICT, THE MORE GLORIOUS THE TRIUMPH.
 WHAT WE OBTAIN TOO CHEAP, WE ESTEEM TOO LIGHTLY, 
 'TIS DEARNESS ONLY THAT GIVES EVERYTHING ITS VALUE.

                                              -- TOM PAINE
 Job cpu time:       0 days  0 hours 28 minutes 21.1 seconds.
 Elapsed time:       0 days  0 hours 14 minutes 22.5 seconds.
 File lengths (MBytes):  RWF=    350 Int=      0 D2E=      0 Chk=     22 Scr=      1
 Normal termination of Gaussian 16 at Thu Jul 11 18:04:43 2024.
