 Entering Gaussian System, Link 0=g16
 Initial command:
 /opt/sw/arch/manual/gaussian/G16_A03/g16/l1.exe "/scratch/1032019.jesse.materianova.be/Gau-16812.inp" -scrdir="/scratch/1032019.jesse.materianova.be/"
 Entering Link 1 = /opt/sw/arch/manual/gaussian/G16_A03/g16/l1.exe PID=     16816.
  
 Copyright (c) 1988,1990,1992,1993,1995,1998,2003,2009,2016,
            Gaussian, Inc.  All Rights Reserved.
  
 This is part of the Gaussian(R) 16 program.  It is based on
 the Gaussian(R) 09 system (copyright 2009, Gaussian, Inc.),
 the Gaussian(R) 03 system (copyright 2003, Gaussian, Inc.),
 the Gaussian(R) 98 system (copyright 1998, Gaussian, Inc.),
 the Gaussian(R) 94 system (copyright 1995, Gaussian, Inc.),
 the Gaussian 92(TM) system (copyright 1992, Gaussian, Inc.),
 the Gaussian 90(TM) system (copyright 1990, Gaussian, Inc.),
 the Gaussian 88(TM) system (copyright 1988, Gaussian, Inc.),
 the Gaussian 86(TM) system (copyright 1986, Carnegie Mellon
 University), and the Gaussian 82(TM) system (copyright 1983,
 Carnegie Mellon University). Gaussian is a federally registered
 trademark of Gaussian, Inc.
  
 This software contains proprietary and confidential information,
 including trade secrets, belonging to Gaussian, Inc.
  
 This software is provided under written license and may be
 used, copied, transmitted, or stored only in accord with that
 written license.
  
 The following legend is applicable only to US Government
 contracts under FAR:
  
                    RESTRICTED RIGHTS LEGEND
  
 Use, reproduction and disclosure by the US Government is
 subject to restrictions as set forth in subparagraphs (a)
 and (c) of the Commercial Computer Software - Restricted
 Rights clause in FAR 52.227-19.
  
 Gaussian, Inc.
 340 Quinnipiac St., Bldg. 40, Wallingford CT 06492
  
  
 ---------------------------------------------------------------
 Warning -- This program may not be used in any manner that
 competes with the business of Gaussian, Inc. or will provide
 assistance to any competitor of Gaussian, Inc.  The licensee
 of this program is prohibited from giving any competitor of
 Gaussian, Inc. access to this program.  By using this program,
 the user acknowledges that Gaussian, Inc. is engaged in the
 business of creating and licensing software in the field of
 computational chemistry and represents and warrants to the
 licensee that it is not a competitor of Gaussian, Inc. and that
 it will not use this program in any manner prohibited above.
 ---------------------------------------------------------------
  

 Cite this work as:
 Gaussian 16, Revision A.03,
 M. J. Frisch, G. W. Trucks, H. B. Schlegel, G. E. Scuseria, 
 M. A. Robb, J. R. Cheeseman, G. Scalmani, V. Barone, 
 G. A. Petersson, H. Nakatsuji, X. Li, M. Caricato, A. V. Marenich, 
 J. Bloino, B. G. Janesko, R. Gomperts, B. Mennucci, H. P. Hratchian, 
 J. V. Ortiz, A. F. Izmaylov, J. L. Sonnenberg, D. Williams-Young, 
 F. Ding, F. Lipparini, F. Egidi, J. Goings, B. Peng, A. Petrone, 
 T. Henderson, D. Ranasinghe, V. G. Zakrzewski, J. Gao, N. Rega, 
 G. Zheng, W. Liang, M. Hada, M. Ehara, K. Toyota, R. Fukuda, 
 J. Hasegawa, M. Ishida, T. Nakajima, Y. Honda, O. Kitao, H. Nakai, 
 T. Vreven, K. Throssell, J. A. Montgomery, Jr., J. E. Peralta, 
 F. Ogliaro, M. J. Bearpark, J. J. Heyd, E. N. Brothers, K. N. Kudin, 
 V. N. Staroverov, T. A. Keith, R. Kobayashi, J. Normand, 
 K. Raghavachari, A. P. Rendell, J. C. Burant, S. S. Iyengar, 
 J. Tomasi, M. Cossi, J. M. Millam, M. Klene, C. Adamo, R. Cammi, 
 J. W. Ochterski, R. L. Martin, K. Morokuma, O. Farkas, 
 J. B. Foresman, and D. J. Fox, Gaussian, Inc., Wallingford CT, 2016.
 
 ******************************************
 Gaussian 16:  EM64L-G16RevA.03 25-Dec-2016
                11-Jul-2024 
 ******************************************
 %nprocshared=3
 Will use up to    3 processors via shared memory.
 %mem=6GB
 %Chk=APQPRKLAWCIJEK-UHFFFAOYSA-N_conf_0_0.chk
 -------------------------------------------------------
 # opt=CalcFc B3LYP/6-31G** SCRF=(Solvent=water) scf=xqc
 -------------------------------------------------------
 1/10=4,18=20,19=15,26=3,38=1/1,3;
 2/9=110,12=2,17=6,18=5,40=1/2;
 3/5=1,6=6,7=101,11=2,25=1,30=1,70=2201,71=2,72=1,74=-5,140=1/1,2,3;
 4//1;
 5/5=2,8=3,13=1,38=5,53=1/2,8;
 8/6=4,10=90,11=11/1;
 11/6=1,8=1,9=11,15=111,16=1/1,2,10;
 10/6=1,13=1/2;
 6/7=2,8=2,9=2,10=2,28=1/1;
 7/10=1,18=20,25=1/1,2,3,16;
 1/10=4,18=20,19=15,26=3/3(2);
 2/9=110/2;
 99//99;
 2/9=110/2;
 3/5=1,6=6,7=101,11=2,25=1,30=1,70=2205,71=1,72=1,74=-5/1,2,3;
 4/5=5,16=3,69=1/1;
 5/5=2,8=3,13=1,38=5,53=1/2,8;
 7//1,2,3,16;
 1/18=20,19=15,26=3/3(-5);
 2/9=110/2;
 6/7=2,8=2,9=2,10=2,19=2,28=1/1;
 99/9=1/99;
 ----------------------------------
 APQPRKLAWCIJEK-UHFFFAOYSA-N_conf_0
 ----------------------------------
 Symbolic Z-matrix:
 Charge =  0 Multiplicity = 1
 N                    -3.8637    0.0971   -0.78235 
 C                    -2.72306   0.75556  -0.14355 
 C                    -1.95642  -0.16903   0.81114 
 S                    -1.20557  -1.62394  -0.0114 
 S                     0.26311  -0.79711  -1.19289 
 C                     1.65521  -0.64695  -0.02202 
 C                     2.88124  -0.07585  -0.74142 
 N                     4.00803   0.09443   0.17924 
 H                    -4.2446    0.70614  -1.5054 
 H                    -3.52868  -0.73912  -1.26594 
 H                    -3.10083   1.61142   0.42671 
 H                    -2.0567    1.15946  -0.91307 
 H                    -1.17058   0.38993   1.33008 
 H                    -2.63741  -0.54737   1.58185 
 H                     1.35945   0.01556   0.79849 
 H                     1.88873  -1.63541   0.38825 
 H                     2.64841   0.89681  -1.19017 
 H                     3.19393  -0.75008  -1.54693 
 H                     4.80943   0.45771  -0.33699 
 H                     3.78002   0.80076   0.87831 
 

 GradGradGradGradGradGradGradGradGradGradGradGradGradGradGradGradGradGrad
 Berny optimization.
 Initialization pass.
                           ----------------------------
                           !    Initial Parameters    !
                           ! (Angstroms and Degrees)  !
 --------------------------                            --------------------------
 ! Name  Definition              Value          Derivative Info.                !
 --------------------------------------------------------------------------------
 ! R1    R(1,2)                  1.4638         calculate D2E/DX2 analytically  !
 ! R2    R(1,9)                  1.0192         calculate D2E/DX2 analytically  !
 ! R3    R(1,10)                 1.0224         calculate D2E/DX2 analytically  !
 ! R4    R(2,3)                  1.5343         calculate D2E/DX2 analytically  !
 ! R5    R(2,11)                 1.0956         calculate D2E/DX2 analytically  !
 ! R6    R(2,12)                 1.0951         calculate D2E/DX2 analytically  !
 ! R7    R(3,4)                  1.8322         calculate D2E/DX2 analytically  !
 ! R8    R(3,13)                 1.0951         calculate D2E/DX2 analytically  !
 ! R9    R(3,14)                 1.0958         calculate D2E/DX2 analytically  !
 ! R10   R(4,5)                  2.0583         calculate D2E/DX2 analytically  !
 ! R11   R(5,6)                  1.8252         calculate D2E/DX2 analytically  !
 ! R12   R(6,7)                  1.5319         calculate D2E/DX2 analytically  !
 ! R13   R(6,15)                 1.0953         calculate D2E/DX2 analytically  !
 ! R14   R(6,16)                 1.0954         calculate D2E/DX2 analytically  !
 ! R15   R(7,8)                  1.465          calculate D2E/DX2 analytically  !
 ! R16   R(7,17)                 1.0962         calculate D2E/DX2 analytically  !
 ! R17   R(7,18)                 1.096          calculate D2E/DX2 analytically  !
 ! R18   R(8,19)                 1.0201         calculate D2E/DX2 analytically  !
 ! R19   R(8,20)                 1.0196         calculate D2E/DX2 analytically  !
 ! A1    A(2,1,9)              109.39           calculate D2E/DX2 analytically  !
 ! A2    A(2,1,10)             108.6008         calculate D2E/DX2 analytically  !
 ! A3    A(9,1,10)             106.0004         calculate D2E/DX2 analytically  !
 ! A4    A(1,2,3)              112.9441         calculate D2E/DX2 analytically  !
 ! A5    A(1,2,11)             108.0504         calculate D2E/DX2 analytically  !
 ! A6    A(1,2,12)             109.4756         calculate D2E/DX2 analytically  !
 ! A7    A(3,2,11)             108.6117         calculate D2E/DX2 analytically  !
 ! A8    A(3,2,12)             110.8206         calculate D2E/DX2 analytically  !
 ! A9    A(11,2,12)            106.7038         calculate D2E/DX2 analytically  !
 ! A10   A(2,3,4)              113.8245         calculate D2E/DX2 analytically  !
 ! A11   A(2,3,13)             110.2329         calculate D2E/DX2 analytically  !
 ! A12   A(2,3,14)             109.5826         calculate D2E/DX2 analytically  !
 ! A13   A(4,3,13)             108.9025         calculate D2E/DX2 analytically  !
 ! A14   A(4,3,14)             107.232          calculate D2E/DX2 analytically  !
 ! A15   A(13,3,14)            106.7907         calculate D2E/DX2 analytically  !
 ! A16   A(3,4,5)              103.3633         calculate D2E/DX2 analytically  !
 ! A17   A(4,5,6)              102.0662         calculate D2E/DX2 analytically  !
 ! A18   A(5,6,7)              109.8662         calculate D2E/DX2 analytically  !
 ! A19   A(5,6,15)             108.9279         calculate D2E/DX2 analytically  !
 ! A20   A(5,6,16)             109.1848         calculate D2E/DX2 analytically  !
 ! A21   A(7,6,15)             110.024          calculate D2E/DX2 analytically  !
 ! A22   A(7,6,16)             109.9787         calculate D2E/DX2 analytically  !
 ! A23   A(15,6,16)            108.8328         calculate D2E/DX2 analytically  !
 ! A24   A(6,7,8)              111.3321         calculate D2E/DX2 analytically  !
 ! A25   A(6,7,17)             110.6734         calculate D2E/DX2 analytically  !
 ! A26   A(6,7,18)             110.1291         calculate D2E/DX2 analytically  !
 ! A27   A(8,7,17)             108.511          calculate D2E/DX2 analytically  !
 ! A28   A(8,7,18)             108.2964         calculate D2E/DX2 analytically  !
 ! A29   A(17,7,18)            107.7922         calculate D2E/DX2 analytically  !
 ! A30   A(7,8,19)             109.123          calculate D2E/DX2 analytically  !
 ! A31   A(7,8,20)             109.8394         calculate D2E/DX2 analytically  !
 ! A32   A(19,8,20)            106.0177         calculate D2E/DX2 analytically  !
 ! D1    D(9,1,2,3)           -171.3757         calculate D2E/DX2 analytically  !
 ! D2    D(9,1,2,11)            68.4607         calculate D2E/DX2 analytically  !
 ! D3    D(9,1,2,12)           -47.3816         calculate D2E/DX2 analytically  !
 ! D4    D(10,1,2,3)           -56.1125         calculate D2E/DX2 analytically  !
 ! D5    D(10,1,2,11)         -176.2761         calculate D2E/DX2 analytically  !
 ! D6    D(10,1,2,12)           67.8816         calculate D2E/DX2 analytically  !
 ! D7    D(1,2,3,4)             62.3269         calculate D2E/DX2 analytically  !
 ! D8    D(1,2,3,13)          -174.9774         calculate D2E/DX2 analytically  !
 ! D9    D(1,2,3,14)           -57.7261         calculate D2E/DX2 analytically  !
 ! D10   D(11,2,3,4)          -177.8316         calculate D2E/DX2 analytically  !
 ! D11   D(11,2,3,13)          -55.1359         calculate D2E/DX2 analytically  !
 ! D12   D(11,2,3,14)           62.1154         calculate D2E/DX2 analytically  !
 ! D13   D(12,2,3,4)           -60.9251         calculate D2E/DX2 analytically  !
 ! D14   D(12,2,3,13)           61.7706         calculate D2E/DX2 analytically  !
 ! D15   D(12,2,3,14)          179.0219         calculate D2E/DX2 analytically  !
 ! D16   D(2,3,4,5)             67.8151         calculate D2E/DX2 analytically  !
 ! D17   D(13,3,4,5)           -55.6072         calculate D2E/DX2 analytically  !
 ! D18   D(14,3,4,5)          -170.8149         calculate D2E/DX2 analytically  !
 ! D19   D(3,4,5,6)             84.6279         calculate D2E/DX2 analytically  !
 ! D20   D(4,5,6,7)            178.3497         calculate D2E/DX2 analytically  !
 ! D21   D(4,5,6,15)           -61.0664         calculate D2E/DX2 analytically  !
 ! D22   D(4,5,6,16)            57.661          calculate D2E/DX2 analytically  !
 ! D23   D(5,6,7,8)            178.3677         calculate D2E/DX2 analytically  !
 ! D24   D(5,6,7,17)            57.5934         calculate D2E/DX2 analytically  !
 ! D25   D(5,6,7,18)           -61.4942         calculate D2E/DX2 analytically  !
 ! D26   D(15,6,7,8)            58.4485         calculate D2E/DX2 analytically  !
 ! D27   D(15,6,7,17)          -62.3258         calculate D2E/DX2 analytically  !
 ! D28   D(15,6,7,18)          178.5866         calculate D2E/DX2 analytically  !
 ! D29   D(16,6,7,8)           -61.424          calculate D2E/DX2 analytically  !
 ! D30   D(16,6,7,17)          177.8017         calculate D2E/DX2 analytically  !
 ! D31   D(16,6,7,18)           58.7141         calculate D2E/DX2 analytically  !
 ! D32   D(6,7,8,19)           178.8792         calculate D2E/DX2 analytically  !
 ! D33   D(6,7,8,20)           -65.2988         calculate D2E/DX2 analytically  !
 ! D34   D(17,7,8,19)          -59.0858         calculate D2E/DX2 analytically  !
 ! D35   D(17,7,8,20)           56.7363         calculate D2E/DX2 analytically  !
 ! D36   D(18,7,8,19)           57.6643         calculate D2E/DX2 analytically  !
 ! D37   D(18,7,8,20)          173.4864         calculate D2E/DX2 analytically  !
 --------------------------------------------------------------------------------
 Trust Radius=3.00D-01 FncErr=1.00D-07 GrdErr=1.00D-06 EigMax=2.50D+02 EigMin=1.00D-04
 Number of steps in this run=     98 maximum allowed number of steps=    120.
 GradGradGradGradGradGradGradGradGradGradGradGradGradGradGradGradGradGrad

                          Input orientation:                          
 ---------------------------------------------------------------------
 Center     Atomic      Atomic             Coordinates (Angstroms)
 Number     Number       Type             X           Y           Z
 ---------------------------------------------------------------------
      1          7           0       -3.863704    0.097100   -0.782351
      2          6           0       -2.723063    0.755555   -0.143554
      3          6           0       -1.956422   -0.169033    0.811141
      4         16           0       -1.205573   -1.623936   -0.011402
      5         16           0        0.263113   -0.797112   -1.192892
      6          6           0        1.655208   -0.646947   -0.022022
      7          6           0        2.881237   -0.075853   -0.741417
      8          7           0        4.008035    0.094429    0.179236
      9          1           0       -4.244598    0.706144   -1.505395
     10          1           0       -3.528677   -0.739118   -1.265945
     11          1           0       -3.100829    1.611420    0.426713
     12          1           0       -2.056703    1.159457   -0.913067
     13          1           0       -1.170576    0.389925    1.330083
     14          1           0       -2.637407   -0.547373    1.581845
     15          1           0        1.359445    0.015559    0.798491
     16          1           0        1.888726   -1.635412    0.388251
     17          1           0        2.648413    0.896806   -1.190172
     18          1           0        3.193928   -0.750081   -1.546932
     19          1           0        4.809428    0.457710   -0.336989
     20          1           0        3.780019    0.800761    0.878309
 ---------------------------------------------------------------------
                    Distance matrix (angstroms):
                    1          2          3          4          5
     1  N    0.000000
     2  C    1.463793   0.000000
     3  C    2.499554   1.534289   0.000000
     4  S    3.259140   2.825282   1.832237   0.000000
     5  S    4.242497   3.525497   3.055645   2.058298   0.000000
     6  C    5.620507   4.599026   3.737169   3.023026   1.825217
     7  C    6.747283   5.697092   5.081542   4.430744   2.752929
     8  N    7.930255   6.771186   6.003621   5.492797   4.086811
     9  H    1.019219   2.042577   3.371649   4.110591   4.762026
    10  H    1.022432   2.035393   2.666696   2.784528   3.792937
    11  H    2.082542   1.095636   2.151155   3.775112   4.443001
    12  H    2.100225   1.095136   2.178953   3.047081   3.047624
    13  H    3.435268   2.171521   1.095121   2.420009   3.135271
    14  H    2.740178   2.163784   1.095840   2.397410   4.021759
    15  H    5.457747   4.254635   3.321026   3.150109   2.414122
    16  H    6.120651   5.221890   4.136940   3.120022   2.417722
    17  H    6.573699   5.474314   5.132813   4.753613   2.925581
    18  H    7.149299   6.264759   5.694228   4.741000   2.952497
    19  H    8.692043   7.540859   6.891135   6.373342   4.793343
    20  H    7.853626   6.583033   5.818228   5.614879   4.383116
                    6          7          8          9         10
     6  C    0.000000
     7  C    1.531935   0.000000
     8  N    2.475063   1.465016   0.000000
     9  H    6.232091   7.209209   8.445006   0.000000
    10  H    5.331839   6.465450   7.719156   1.630540   0.000000
    11  H    5.284078   6.324281   7.273133   2.420904   2.927999
    12  H    4.223191   5.093005   6.253675   2.311543   2.428131
    13  H    3.299749   4.574413   5.313170   4.193988   3.684391
    14  H    4.583541   6.006272   6.822105   3.699381   2.990157
    15  H    1.095277   2.166916   2.721162   6.098368   5.359587
    16  H    1.095408   2.166438   2.743630   6.832747   5.734803
    17  H    2.175822   1.096199   2.089895   6.902848   6.390495
    18  H    2.168790   1.095999   2.087013   7.579841   6.728484
    19  H    3.356870   2.041121   1.020144   9.132485   8.474630
    20  H    2.724202   2.049336   1.019608   8.371707   7.770849
                   11         12         13         14         15
    11  H    0.000000
    12  H    1.757692   0.000000
    13  H    2.456421   2.531624   0.000000
    14  H    2.491883   3.078161   1.758836   0.000000
    15  H    4.751741   3.988484   2.612230   4.111613   0.000000
    16  H    5.953072   5.007108   3.787924   4.805661   1.781612
    17  H    6.014880   4.720581   4.603617   6.140816   2.528402
    18  H    7.006850   5.622922   5.350302   6.620786   3.074499
    19  H    8.030346   6.925899   6.208395   7.755480   3.658852
    20  H    6.943140   6.115964   4.988114   6.595134   2.545996
                   16         17         18         19         20
    16  H    0.000000
    17  H    3.079070   0.000000
    18  H    2.496457   1.771187   0.000000
    19  H    3.665738   2.364469   2.352140   0.000000
    20  H    3.122834   2.359740   2.937756   1.629207   0.000000
 Stoichiometry    C4H12N2S2
 Framework group  C1[X(C4H12N2S2)]
 Deg. of freedom    54
 Full point group                 C1      NOp   1
 Largest Abelian subgroup         C1      NOp   1
 Largest concise Abelian subgroup C1      NOp   1
                         Standard orientation:                         
 ---------------------------------------------------------------------
 Center     Atomic      Atomic             Coordinates (Angstroms)
 Number     Number       Type             X           Y           Z
 ---------------------------------------------------------------------
      1          7           0       -3.691984    0.436387   -0.571554
      2          6           0       -2.555648    1.196605   -0.048583
      3          6           0       -1.791576    0.449031    1.052040
      4         16           0       -1.033985   -1.121989    0.490753
      5         16           0        0.438489   -0.502946   -0.807399
      6          6           0        1.824836   -0.152954    0.327045
      7          6           0        3.053031    0.291569   -0.473430
      8          7           0        4.175202    0.618312    0.409883
      9          1           0       -4.070750    0.913237   -1.388840
     10          1           0       -3.353031   -0.468671   -0.905241
     11          1           0       -2.937781    2.135575    0.367020
     12          1           0       -1.886544    1.466314   -0.872526
     13          1           0       -1.009274    1.089921    1.472223
     14          1           0       -2.475360    0.204677    1.872769
     15          1           0        1.523935    0.638020    1.022352
     16          1           0        2.058445   -1.057087    0.899660
     17          1           0        2.820326    1.173614   -1.081294
     18          1           0        3.370814   -0.508373   -1.151900
     19          1           0        4.978245    0.891222   -0.156982
     20          1           0        3.942523    1.432118    0.978372
 ---------------------------------------------------------------------
 Rotational constants (GHZ):           3.1690660           0.5459569           0.5318556
 Standard basis: 6-31G(d,p) (6D, 7F)
 There are   188 symmetry adapted cartesian basis functions of A   symmetry.
 There are   188 symmetry adapted basis functions of A   symmetry.
   188 basis functions,   356 primitive gaussians,   188 cartesian basis functions
    41 alpha electrons       41 beta electrons
       nuclear repulsion energy       543.3900487415 Hartrees.
 NAtoms=   20 NActive=   20 NUniq=   20 SFac= 1.00D+00 NAtFMM=   60 NAOKFM=F Big=F
 Integral buffers will be    131072 words long.
 Raffenetti 2 integral format.
 Two-electron integral symmetry is turned on.
 Force inversion solution in PCM.
 ------------------------------------------------------------------------------
 Polarizable Continuum Model (PCM)
 =================================
 Model                : PCM.
 Atomic radii         : UFF (Universal Force Field).
 Polarization charges : Total charges.
 Charge compensation  : None.
 Solution method      : Matrix inversion.
 Cavity type          : Scaled VdW (van der Waals Surface) (Alpha=1.100).
 Cavity algorithm     : GePol (No added spheres)
                        Default sphere list used, NSphG=   20.
                        Lebedev-Laikov grids with approx.  5.0 points / Ang**2.
                        Smoothing algorithm: York/Karplus (Gamma=1.0000).
                        Polarization charges: spherical gaussians, with
                                              point-specific exponents (IZeta= 3).
                        Self-potential: point-specific (ISelfS= 7).
                        Self-field    : sphere-specific E.n sum rule (ISelfD= 2).
 1st derivatives      : Analytical E(r).r(x)/FMM algorithm (CHGder, D1EAlg=3).
                        Cavity 1st derivative terms included.
 2nd derivatives      : Analytical E(r).r(xy)/FMM algorithm (CHGder, D2EAlg=3).
                        Cavity 2nd derivative terms included.
 Solvent              : Water, Eps=  78.355300 Eps(inf)=   1.777849
 ------------------------------------------------------------------------------
 Spheres list:
 ISph  on   Nord     Re0    Alpha      Xe            Ye            Ze
    1   N      1    1.8300  1.100     -3.691984      0.436387     -0.571554
    2   C      2    1.9255  1.100     -2.555648      1.196605     -0.048583
    3   C      3    1.9255  1.100     -1.791576      0.449031      1.052040
    4   S      4    2.0175  1.100     -1.033985     -1.121989      0.490753
    5   S      5    2.0175  1.100      0.438489     -0.502946     -0.807399
    6   C      6    1.9255  1.100      1.824836     -0.152954      0.327045
    7   C      7    1.9255  1.100      3.053031      0.291569     -0.473430
    8   N      8    1.8300  1.100      4.175202      0.618312      0.409883
    9   H      9    1.4430  1.100     -4.070750      0.913237     -1.388840
   10   H     10    1.4430  1.100     -3.353031     -0.468671     -0.905241
   11   H     11    1.4430  1.100     -2.937781      2.135575      0.367020
   12   H     12    1.4430  1.100     -1.886544      1.466314     -0.872526
   13   H     13    1.4430  1.100     -1.009274      1.089921      1.472223
   14   H     14    1.4430  1.100     -2.475360      0.204677      1.872769
   15   H     15    1.4430  1.100      1.523935      0.638020      1.022352
   16   H     16    1.4430  1.100      2.058445     -1.057087      0.899660
   17   H     17    1.4430  1.100      2.820326      1.173614     -1.081294
   18   H     18    1.4430  1.100      3.370814     -0.508373     -1.151900
   19   H     19    1.4430  1.100      4.978245      0.891222     -0.156982
   20   H     20    1.4430  1.100      3.942523      1.432118      0.978372
 ------------------------------------------------------------------------------
 One-electron integrals computed using PRISM.
 NBasis=   188 RedAO= T EigKep=  4.61D-03  NBF=   188
 NBsUse=   188 1.00D-06 EigRej= -1.00D+00 NBFU=   188
 ExpMin= 1.17D-01 ExpMax= 2.19D+04 ExpMxC= 3.30D+03 IAcc=3 IRadAn=         5 AccDes= 0.00D+00
 Harris functional with IExCor=  402 and IRadAn=       5 diagonalized for initial guess.
 HarFok:  IExCor=  402 AccDes= 0.00D+00 IRadAn=         5 IDoV= 1 UseB2=F ITyADJ=14
 ICtDFT=  3500011 ScaDFX=  1.000000  1.000000  1.000000  1.000000
 FoFCou: FMM=F IPFlag=           0 FMFlag=      100000 FMFlg1=           0
         NFxFlg=           0 DoJE=T BraDBF=F KetDBF=T FulRan=T
         wScrn=  0.000000 ICntrl=       500 IOpCl=  0 I1Cent=   200000004 NGrid=           0
         NMat0=    1 NMatS0=      1 NMatT0=    0 NMatD0=    1 NMtDS0=    0 NMtDT0=    0
 Petite list used in FoFCou.
 Keep R1 ints in memory in canonical form, NReq=161201114.
 Requested convergence on RMS density matrix=1.00D-08 within  32 cycles.
 Requested convergence on MAX density matrix=1.00D-06.
 Requested convergence on             energy=1.00D-06.
 No special actions if energy rises.
 Inv3:  Mode=1 IEnd=     8937228.
 Iteration    1 A*A^-1 deviation from unit magnitude is 6.22D-15 for    484.
 Iteration    1 A*A^-1 deviation from orthogonality  is 2.58D-15 for   1083    469.
 Iteration    1 A^-1*A deviation from unit magnitude is 6.22D-15 for    484.
 Iteration    1 A^-1*A deviation from orthogonality  is 8.83D-15 for   1239   1219.
 Error on total polarization charges =  0.01112
 SCF Done:  E(RB3LYP) =  -1065.54756147     A.U. after   11 cycles
            NFock= 11  Conv=0.79D-08     -V/T= 2.0048
 QCSCF skips out because SCF is already converged.
 DoSCS=F DFT=T ScalE2(SS,OS)=  1.000000  1.000000
 Range of M.O.s used for correlation:     1   188
 NBasis=   188 NAE=    41 NBE=    41 NFC=     0 NFV=     0
 NROrb=    188 NOA=    41 NOB=    41 NVA=   147 NVB=   147
 Symmetrizing basis deriv contribution to polar:
 IMax=3 JMax=2 DiffMx= 0.00D+00
 G2DrvN: will do    21 centers at a time, making    1 passes.
 Calling FoFCou, ICntrl=  3107 FMM=F I1Cent=   0 AccDes= 0.00D+00.
 NEqPCM:  Using equilibrium solvation (IEInf=0, Eps=  78.3553, EpsInf=   1.7778)
 G2PCM: DoFxE=T DoFxN=T DoGrad=T DoDP/DQ/DG/TGxP=FFFF NFrqRd=   0 IEInf=0 SqF1=F DoCFld=F IF1Alg=4.
 End of G2Drv F.D. properties file   721 does not exist.
 End of G2Drv F.D. properties file   722 does not exist.
 End of G2Drv F.D. properties file   788 does not exist.
          IDoAtm=11111111111111111111
 NEqPCM:  Using equilibrium solvation (IEInf=0, Eps=  78.3553, EpsInf=   1.7778)
          Differentiating once with respect to nuclear coordinates.
 Keep R1 ints in memory in canonical form, NReq=165864449.
          There are    63 degrees of freedom in the 1st order CPHF.  IDoFFX=6 NUNeed=     0.
     57 vectors produced by pass  0 Test12= 9.57D-15 1.59D-09 XBig12= 7.18D-02 8.19D-02.
 AX will form    57 AO Fock derivatives at one time.
     57 vectors produced by pass  1 Test12= 9.57D-15 1.59D-09 XBig12= 6.41D-03 1.92D-02.
     57 vectors produced by pass  2 Test12= 9.57D-15 1.59D-09 XBig12= 8.08D-05 1.30D-03.
     57 vectors produced by pass  3 Test12= 9.57D-15 1.59D-09 XBig12= 2.80D-07 7.53D-05.
     57 vectors produced by pass  4 Test12= 9.57D-15 1.59D-09 XBig12= 3.25D-10 1.86D-06.
     30 vectors produced by pass  5 Test12= 9.57D-15 1.59D-09 XBig12= 2.45D-13 6.38D-08.
      1 vectors produced by pass  6 Test12= 9.57D-15 1.59D-09 XBig12= 1.71D-16 1.74D-09.
 InvSVY:  IOpt=1 It=  1 EMax= 5.55D-16
 Solved reduced A of dimension   316 with    63 vectors.
 End of Minotr F.D. properties file   721 does not exist.
 End of Minotr F.D. properties file   722 does not exist.
 End of Minotr F.D. properties file   788 does not exist.

 **********************************************************************

            Population analysis using the SCF density.

 **********************************************************************

 Orbital symmetries:
       Occupied  (A) (A) (A) (A) (A) (A) (A) (A) (A) (A) (A) (A)
                 (A) (A) (A) (A) (A) (A) (A) (A) (A) (A) (A) (A)
                 (A) (A) (A) (A) (A) (A) (A) (A) (A) (A) (A) (A)
                 (A) (A) (A) (A) (A)
       Virtual   (A) (A) (A) (A) (A) (A) (A) (A) (A) (A) (A) (A)
                 (A) (A) (A) (A) (A) (A) (A) (A) (A) (A) (A) (A)
                 (A) (A) (A) (A) (A) (A) (A) (A) (A) (A) (A) (A)
                 (A) (A) (A) (A) (A) (A) (A) (A) (A) (A) (A) (A)
                 (A) (A) (A) (A) (A) (A) (A) (A) (A) (A) (A) (A)
                 (A) (A) (A) (A) (A) (A) (A) (A) (A) (A) (A) (A)
                 (A) (A) (A) (A) (A) (A) (A) (A) (A) (A) (A) (A)
                 (A) (A) (A) (A) (A) (A) (A) (A) (A) (A) (A) (A)
                 (A) (A) (A) (A) (A) (A) (A) (A) (A) (A) (A) (A)
                 (A) (A) (A) (A) (A) (A) (A) (A) (A) (A) (A) (A)
                 (A) (A) (A) (A) (A) (A) (A) (A) (A) (A) (A) (A)
                 (A) (A) (A) (A) (A) (A) (A) (A) (A) (A) (A) (A)
                 (A) (A) (A)
 The electronic state is 1-A.
 Alpha  occ. eigenvalues --  -88.89660 -88.89614 -14.31421 -14.30886 -10.21884
 Alpha  occ. eigenvalues --  -10.21658 -10.21628 -10.21075  -7.95845  -7.95797
 Alpha  occ. eigenvalues --   -5.92405  -5.92353  -5.91938  -5.91903  -5.91272
 Alpha  occ. eigenvalues --   -5.91216  -0.88399  -0.88049  -0.82501  -0.76685
 Alpha  occ. eigenvalues --   -0.70946  -0.64566  -0.60389  -0.57019  -0.48997
 Alpha  occ. eigenvalues --   -0.48890  -0.47119  -0.46444  -0.44402  -0.42028
 Alpha  occ. eigenvalues --   -0.39828  -0.38841  -0.38516  -0.37320  -0.36307
 Alpha  occ. eigenvalues --   -0.34441  -0.32215  -0.25133  -0.24670  -0.23725
 Alpha  occ. eigenvalues --   -0.23020
 Alpha virt. eigenvalues --   -0.02431   0.03923   0.04653   0.08203   0.09894
 Alpha virt. eigenvalues --    0.11141   0.13252   0.13510   0.14602   0.15805
 Alpha virt. eigenvalues --    0.16229   0.17071   0.18161   0.19428   0.20484
 Alpha virt. eigenvalues --    0.21629   0.22283   0.24177   0.24930   0.34092
 Alpha virt. eigenvalues --    0.35108   0.35994   0.38317   0.40869   0.41503
 Alpha virt. eigenvalues --    0.43007   0.47856   0.50599   0.52859   0.54563
 Alpha virt. eigenvalues --    0.54937   0.57287   0.58513   0.60196   0.60785
 Alpha virt. eigenvalues --    0.63450   0.65981   0.67747   0.68883   0.71692
 Alpha virt. eigenvalues --    0.72208   0.73815   0.77198   0.78169   0.80731
 Alpha virt. eigenvalues --    0.81965   0.83075   0.84122   0.84426   0.86288
 Alpha virt. eigenvalues --    0.87563   0.87955   0.88664   0.89052   0.89800
 Alpha virt. eigenvalues --    0.91261   0.92165   0.92923   0.93690   0.96245
 Alpha virt. eigenvalues --    0.97040   0.98453   0.99439   1.01659   1.05684
 Alpha virt. eigenvalues --    1.07013   1.10991   1.16221   1.22558   1.31753
 Alpha virt. eigenvalues --    1.32274   1.34534   1.37567   1.38730   1.41904
 Alpha virt. eigenvalues --    1.55425   1.57108   1.62824   1.64631   1.66452
 Alpha virt. eigenvalues --    1.73384   1.78017   1.80992   1.85284   1.86430
 Alpha virt. eigenvalues --    1.87543   1.87783   1.98382   1.99932   2.03367
 Alpha virt. eigenvalues --    2.05716   2.06631   2.07349   2.08872   2.12096
 Alpha virt. eigenvalues --    2.13678   2.17158   2.22106   2.22686   2.23525
 Alpha virt. eigenvalues --    2.25751   2.29577   2.30752   2.31543   2.34900
 Alpha virt. eigenvalues --    2.38736   2.39978   2.41154   2.43707   2.52465
 Alpha virt. eigenvalues --    2.53406   2.55380   2.57432   2.62072   2.62339
 Alpha virt. eigenvalues --    2.66190   2.67860   2.77800   2.78890   2.81052
 Alpha virt. eigenvalues --    2.81945   2.83280   2.85108   2.91169   2.91706
 Alpha virt. eigenvalues --    2.96763   2.97877   3.21202   3.24801   3.28650
 Alpha virt. eigenvalues --    3.29222   3.31093   3.31729   3.38103   3.39208
 Alpha virt. eigenvalues --    3.49118   3.49739   3.54360   3.55420   3.84694
 Alpha virt. eigenvalues --    3.95442   3.97267   3.98403   4.31852   4.37977
 Alpha virt. eigenvalues --    4.57275   4.60366
          Condensed to atoms (all electrons):
               1          2          3          4          5          6
     1  N    6.812031   0.303994  -0.056733  -0.006787  -0.000709   0.000003
     2  C    0.303994   4.819789   0.355398  -0.060270  -0.007344  -0.000193
     3  C   -0.056733   0.355398   5.211038   0.211548  -0.036044  -0.001829
     4  S   -0.006787  -0.060270   0.211548  15.851636   0.129756  -0.033923
     5  S   -0.000709  -0.007344  -0.036044   0.129756  15.836419   0.197723
     6  C    0.000003  -0.000193  -0.001829  -0.033923   0.197723   5.214286
     7  C    0.000000   0.000005   0.000011   0.004043  -0.028196   0.327930
     8  N    0.000000  -0.000000   0.000000  -0.000153   0.002891  -0.046697
     9  H    0.341986  -0.032797   0.005774  -0.000116  -0.000013   0.000000
    10  H    0.340497  -0.041402  -0.009134   0.016100  -0.000830   0.000009
    11  H   -0.045123   0.381755  -0.026910   0.007042  -0.000414   0.000003
    12  H   -0.051905   0.391983  -0.045441  -0.014977   0.013391  -0.000165
    13  H    0.003193  -0.032344   0.376749  -0.047716  -0.007397   0.001986
    14  H    0.004152  -0.033435   0.361467  -0.030895   0.004529   0.000010
    15  H    0.000000   0.000103   0.001981  -0.005142  -0.052181   0.385999
    16  H    0.000000   0.000001  -0.000394   0.001180  -0.050475   0.376538
    17  H    0.000000  -0.000000  -0.000007   0.000045   0.005745  -0.051091
    18  H   -0.000000   0.000000   0.000000  -0.000030   0.000561  -0.036025
    19  H    0.000000   0.000000   0.000000   0.000004  -0.000235   0.005549
    20  H   -0.000000  -0.000000  -0.000000   0.000002  -0.000171  -0.005375
               7          8          9         10         11         12
     1  N    0.000000   0.000000   0.341986   0.340497  -0.045123  -0.051905
     2  C    0.000005  -0.000000  -0.032797  -0.041402   0.381755   0.391983
     3  C    0.000011   0.000000   0.005774  -0.009134  -0.026910  -0.045441
     4  S    0.004043  -0.000153  -0.000116   0.016100   0.007042  -0.014977
     5  S   -0.028196   0.002891  -0.000013  -0.000830  -0.000414   0.013391
     6  C    0.327930  -0.046697   0.000000   0.000009   0.000003  -0.000165
     7  C    4.812607   0.290438  -0.000000  -0.000000  -0.000000   0.000004
     8  N    0.290438   6.805186   0.000000   0.000000   0.000000  -0.000000
     9  H   -0.000000   0.000000   0.466852  -0.030808  -0.001798  -0.005337
    10  H   -0.000000   0.000000  -0.030808   0.467496   0.006241  -0.002993
    11  H   -0.000000   0.000000  -0.001798   0.006241   0.616992  -0.046606
    12  H    0.000004  -0.000000  -0.005337  -0.002993  -0.046606   0.649136
    13  H   -0.000142   0.000003  -0.000188   0.000105  -0.002822  -0.000104
    14  H    0.000001  -0.000000  -0.000090  -0.000551  -0.005978   0.005923
    15  H   -0.033224  -0.003338  -0.000000   0.000000  -0.000001  -0.000044
    16  H   -0.030712   0.003918  -0.000000   0.000000   0.000000   0.000004
    17  H    0.392292  -0.052356  -0.000000   0.000000   0.000000   0.000000
    18  H    0.392331  -0.040388   0.000000  -0.000000  -0.000000   0.000000
    19  H   -0.033330   0.343273  -0.000000  -0.000000  -0.000000   0.000000
    20  H   -0.037071   0.342134   0.000000  -0.000000  -0.000000   0.000000
              13         14         15         16         17         18
     1  N    0.003193   0.004152   0.000000   0.000000   0.000000  -0.000000
     2  C   -0.032344  -0.033435   0.000103   0.000001  -0.000000   0.000000
     3  C    0.376749   0.361467   0.001981  -0.000394  -0.000007   0.000000
     4  S   -0.047716  -0.030895  -0.005142   0.001180   0.000045  -0.000030
     5  S   -0.007397   0.004529  -0.052181  -0.050475   0.005745   0.000561
     6  C    0.001986   0.000010   0.385999   0.376538  -0.051091  -0.036025
     7  C   -0.000142   0.000001  -0.033224  -0.030712   0.392292   0.392331
     8  N    0.000003  -0.000000  -0.003338   0.003918  -0.052356  -0.040388
     9  H   -0.000188  -0.000090  -0.000000  -0.000000  -0.000000   0.000000
    10  H    0.000105  -0.000551   0.000000   0.000000   0.000000  -0.000000
    11  H   -0.002822  -0.005978  -0.000001   0.000000   0.000000  -0.000000
    12  H   -0.000104   0.005923  -0.000044   0.000004   0.000000   0.000000
    13  H    0.572742  -0.023657   0.003126   0.000027   0.000009   0.000000
    14  H   -0.023657   0.559854  -0.000147   0.000006   0.000000  -0.000000
    15  H    0.003126  -0.000147   0.584614  -0.035899  -0.006276   0.005266
    16  H    0.000027   0.000006  -0.035899   0.584059   0.006117  -0.006875
    17  H    0.000009   0.000000  -0.006276   0.006117   0.652638  -0.044738
    18  H    0.000000  -0.000000   0.005266  -0.006875  -0.044738   0.603989
    19  H   -0.000000   0.000000  -0.000000  -0.000059  -0.002920  -0.004241
    20  H   -0.000001   0.000000   0.004600  -0.000606  -0.005686   0.006192
              19         20
     1  N    0.000000  -0.000000
     2  C    0.000000  -0.000000
     3  C    0.000000  -0.000000
     4  S    0.000004   0.000002
     5  S   -0.000235  -0.000171
     6  C    0.005549  -0.005375
     7  C   -0.033330  -0.037071
     8  N    0.343273   0.342134
     9  H   -0.000000   0.000000
    10  H   -0.000000  -0.000000
    11  H   -0.000000  -0.000000
    12  H    0.000000   0.000000
    13  H   -0.000000  -0.000001
    14  H    0.000000   0.000000
    15  H   -0.000000   0.004600
    16  H   -0.000059  -0.000606
    17  H   -0.002920  -0.005686
    18  H   -0.004241   0.006192
    19  H    0.462748  -0.031527
    20  H   -0.031527   0.471657
 Mulliken charges:
               1
     1  N   -0.644601
     2  C   -0.045244
     3  C   -0.347475
     4  S   -0.021347
     5  S   -0.007006
     6  C   -0.334738
     7  C   -0.056988
     8  N   -0.644912
     9  H    0.256535
    10  H    0.255271
    11  H    0.117620
    12  H    0.107130
    13  H    0.156430
    14  H    0.158813
    15  H    0.150563
    16  H    0.153171
    17  H    0.106228
    18  H    0.123957
    19  H    0.260738
    20  H    0.255853
 Sum of Mulliken charges =  -0.00000
 Mulliken charges with hydrogens summed into heavy atoms:
               1
     1  N   -0.132795
     2  C    0.179506
     3  C   -0.032232
     4  S   -0.021347
     5  S   -0.007006
     6  C   -0.031004
     7  C    0.173197
     8  N   -0.128320
 APT charges:
               1
     1  N   -1.086664
     2  C   -0.590105
     3  C   -0.832293
     4  S   -0.045619
     5  S   -0.054632
     6  C   -0.657572
     7  C   -0.603906
     8  N   -1.519138
     9  H    0.762362
    10  H    0.193508
    11  H    0.578523
    12  H    0.184319
    13  H    0.243624
    14  H    0.596787
    15  H    0.255016
    16  H    0.415686
    17  H    0.331657
    18  H    0.458273
    19  H    0.970444
    20  H    0.399728
 Sum of APT charges =  -0.00000
 APT charges with hydrogens summed into heavy atoms:
               1
     1  N   -0.130793
     2  C    0.172737
     3  C    0.008118
     4  S   -0.045619
     5  S   -0.054632
     6  C    0.013130
     7  C    0.186025
     8  N   -0.148966
 Electronic spatial extent (au):  <R**2>=           2214.5544
 Charge=             -0.0000 electrons
 Dipole moment (field-independent basis, Debye):
    X=              1.7600    Y=              3.7810    Z=             -0.4036  Tot=              4.1900
 Quadrupole moment (field-independent basis, Debye-Ang):
   XX=            -66.0972   YY=            -63.4268   ZZ=            -63.1855
   XY=              3.8493   XZ=             -0.5537   YZ=              1.2989
 Traceless Quadrupole moment (field-independent basis, Debye-Ang):
   XX=             -1.8607   YY=              0.8097   ZZ=              1.0510
   XY=              3.8493   XZ=             -0.5537   YZ=              1.2989
 Octapole moment (field-independent basis, Debye-Ang**2):
  XXX=             57.5074  YYY=             13.0737  ZZZ=             -0.6797  XYY=              6.4961
  XXY=             36.2831  XXZ=            -38.8300  XZZ=            -12.6900  YZZ=              6.5805
  YYZ=              1.6275  XYZ=              5.1242
 Hexadecapole moment (field-independent basis, Debye-Ang**3):
 XXXX=          -2402.3484 YYYY=           -321.7264 ZZZZ=           -259.1004 XXXY=            126.4852
 XXXZ=            -28.1429 YYYX=              5.9238 YYYZ=              4.0251 ZZZX=             13.3486
 ZZZY=              1.3767 XXYY=           -378.0899 XXZZ=           -387.3518 YYZZ=            -95.6649
 XXYZ=             -0.1207 YYXZ=             16.3087 ZZXY=              1.3986
 N-N= 5.433900487415D+02 E-N=-3.603925406521D+03  KE= 1.060439375367D+03
  Exact polarizability:   0.000   0.000   0.000   0.000   0.000   0.000
 Approx polarizability: 154.477   4.015 119.244 -14.560   1.737 124.277
 D2PCM: PCM CHGder 2nd derivatives, FixD1E=F FixD2E=F DoIter=F DoCFld=F I1PDM=0
 Calling FoFJK, ICntrl=    100147 FMM=F ISym2X=0 I1Cent= 0 IOpClX= 0 NMat=1 NMatS=1 NMatT=0.
 ***** Axes restored to original set *****
 -------------------------------------------------------------------
 Center     Atomic                   Forces (Hartrees/Bohr)
 Number     Number              X              Y              Z
 -------------------------------------------------------------------
      1        7          -0.006383833   -0.009263625    0.003652930
      2        6          -0.001705292    0.001723387   -0.006434565
      3        6          -0.005709184    0.013799059   -0.000751901
      4       16          -0.005510859   -0.008763189    0.004382334
      5       16           0.001310213    0.002046387   -0.008550015
      6        6           0.010748686    0.000020568    0.005765917
      7        6           0.004237228    0.009168626   -0.001585277
      8        7           0.004858652   -0.008269266    0.007974488
      9        1           0.001446309   -0.000914615    0.001438280
     10        1          -0.000835071    0.003417492   -0.000045923
     11        1           0.001082750    0.000294824    0.002409289
     12        1           0.009252074    0.002469077    0.003495168
     13        1          -0.000445446   -0.000756765   -0.001447901
     14        1           0.000662653   -0.004883453   -0.002209675
     15        1           0.000036289   -0.000636153   -0.000439224
     16        1          -0.000654229    0.001641087   -0.000235850
     17        1          -0.008875774   -0.000686749   -0.006548693
     18        1          -0.000853730    0.000031276    0.000324913
     19        1          -0.002601206   -0.000577267    0.001087519
     20        1          -0.000060230    0.000139297   -0.002281813
 -------------------------------------------------------------------
 Cartesian Forces:  Max     0.013799059 RMS     0.004700503
 FormGI is forming the generalized inverse of G from B-inverse, IUseBI=4.

 GradGradGradGradGradGradGradGradGradGradGradGradGradGradGradGradGradGrad
 Berny optimization.
 Internal  Forces:  Max     0.011078547 RMS     0.003410686
 Search for a local minimum.
 Step number   1 out of a maximum of   98
 All quantities printed in internal units (Hartrees-Bohrs-Radians)
 Mixed Optimization -- RFO/linear search
 Second derivative matrix not updated -- analytic derivatives used.
 ITU=  0
     Eigenvalues ---    0.00152   0.00183   0.00205   0.00342   0.00360
     Eigenvalues ---    0.00631   0.02563   0.03192   0.03377   0.04364
     Eigenvalues ---    0.04378   0.04402   0.04417   0.04554   0.04635
     Eigenvalues ---    0.04980   0.05278   0.08311   0.08394   0.08694
     Eigenvalues ---    0.09034   0.10845   0.10937   0.12539   0.13749
     Eigenvalues ---    0.13964   0.14970   0.15129   0.15724   0.17125
     Eigenvalues ---    0.17311   0.17682   0.20474   0.22067   0.22106
     Eigenvalues ---    0.24081   0.26950   0.29004   0.29623   0.29829
     Eigenvalues ---    0.32081   0.32589   0.33045   0.33143   0.33394
     Eigenvalues ---    0.33655   0.33959   0.34061   0.36865   0.37068
     Eigenvalues ---    0.43222   0.43867   0.44107   0.44227
 RFO step:  Lambda=-6.51598367D-03 EMin= 1.52338863D-03
 Linear search not attempted -- first point.
 Iteration  1 RMS(Cart)=  0.06832796 RMS(Int)=  0.00139656
 Iteration  2 RMS(Cart)=  0.00161771 RMS(Int)=  0.00030511
 Iteration  3 RMS(Cart)=  0.00000281 RMS(Int)=  0.00030510
 Iteration  4 RMS(Cart)=  0.00000000 RMS(Int)=  0.00030510
 Variable       Old X    -DE/DX   Delta X   Delta X   Delta X     New X
                                 (Linear)    (Quad)   (Total)
    R1        2.76617   0.00534   0.00000   0.00548   0.00548   2.77164
    R2        1.92604  -0.00211   0.00000  -0.00255  -0.00255   1.92349
    R3        1.93212  -0.00305   0.00000  -0.00585  -0.00585   1.92627
    R4        2.89939  -0.00560   0.00000  -0.01969  -0.01969   2.87970
    R5        2.07045   0.00111   0.00000   0.00332   0.00332   2.07377
    R6        2.06951   0.00409   0.00000   0.01289   0.01289   2.08240
    R7        3.46243   0.00582   0.00000   0.03321   0.03321   3.49563
    R8        2.06948  -0.00139   0.00000  -0.00524  -0.00524   2.06424
    R9        2.07084  -0.00028   0.00000  -0.00039  -0.00039   2.07045
   R10        3.88962   0.00954   0.00000   0.04705   0.04705   3.93667
   R11        3.44916   0.00788   0.00000   0.04181   0.04181   3.49097
   R12        2.89494  -0.00223   0.00000  -0.00261  -0.00261   2.89233
   R13        2.06977  -0.00072   0.00000  -0.00273  -0.00273   2.06704
   R14        2.07002  -0.00171   0.00000  -0.00630  -0.00630   2.06372
   R15        2.76848   0.00494   0.00000   0.00682   0.00682   2.77530
   R16        2.07152   0.00395   0.00000   0.01094   0.01094   2.08246
   R17        2.07114  -0.00050   0.00000  -0.00070  -0.00070   2.07044
   R18        1.92779  -0.00280   0.00000  -0.00394  -0.00394   1.92385
   R19        1.92678  -0.00146   0.00000  -0.00140  -0.00140   1.92538
    A1        1.90921  -0.00145   0.00000  -0.00767  -0.00771   1.90150
    A2        1.89544   0.00008   0.00000  -0.00507  -0.00511   1.89033
    A3        1.85006  -0.00029   0.00000  -0.01064  -0.01074   1.83932
    A4        1.97125  -0.00715   0.00000  -0.02644  -0.02635   1.94489
    A5        1.88584   0.00208   0.00000   0.00553   0.00458   1.89041
    A6        1.91071   0.00984   0.00000   0.07628   0.07610   1.98681
    A7        1.89563   0.00018   0.00000  -0.02259  -0.02296   1.87267
    A8        1.93418  -0.00393   0.00000  -0.03139  -0.03114   1.90305
    A9        1.86233  -0.00063   0.00000  -0.00025  -0.00164   1.86069
   A10        1.98661   0.00576   0.00000   0.01890   0.01889   2.00551
   A11        1.92393  -0.00118   0.00000   0.01433   0.01406   1.93799
   A12        1.91258   0.00079   0.00000   0.01471   0.01460   1.92718
   A13        1.90071  -0.00153   0.00000  -0.00852  -0.00881   1.89189
   A14        1.87155  -0.00563   0.00000  -0.06515  -0.06511   1.80644
   A15        1.86385   0.00146   0.00000   0.02434   0.02365   1.88750
   A16        1.80403   0.00459   0.00000   0.01616   0.01616   1.82019
   A17        1.78139   0.00566   0.00000   0.01698   0.01698   1.79837
   A18        1.91753  -0.00114   0.00000  -0.00711  -0.00710   1.91043
   A19        1.90115   0.00026   0.00000  -0.00644  -0.00642   1.89473
   A20        1.90563   0.00024   0.00000  -0.00392  -0.00391   1.90173
   A21        1.92028   0.00047   0.00000   0.00822   0.00818   1.92846
   A22        1.91949   0.00058   0.00000   0.00737   0.00733   1.92682
   A23        1.89949  -0.00041   0.00000   0.00175   0.00167   1.90116
   A24        1.94311  -0.00908   0.00000  -0.03806  -0.03810   1.90501
   A25        1.93161  -0.00304   0.00000  -0.01928  -0.01877   1.91284
   A26        1.92212   0.00193   0.00000  -0.01095  -0.01154   1.91058
   A27        1.89387   0.01108   0.00000   0.08620   0.08618   1.98005
   A28        1.89013   0.00135   0.00000  -0.00356  -0.00454   1.88559
   A29        1.88133  -0.00182   0.00000  -0.01200  -0.01281   1.86852
   A30        1.90456  -0.00085   0.00000  -0.00555  -0.00563   1.89892
   A31        1.91706  -0.00188   0.00000  -0.01516  -0.01525   1.90181
   A32        1.85036   0.00023   0.00000  -0.01131  -0.01151   1.83885
    D1       -2.99107   0.00010   0.00000  -0.05813  -0.05802  -3.04909
    D2        1.19486   0.00292   0.00000  -0.01714  -0.01676   1.17811
    D3       -0.82697  -0.00272   0.00000  -0.06057  -0.06114  -0.88810
    D4       -0.97935  -0.00099   0.00000  -0.07769  -0.07753  -1.05688
    D5       -3.07660   0.00183   0.00000  -0.03670  -0.03626  -3.11286
    D6        1.18476  -0.00381   0.00000  -0.08013  -0.08064   1.10411
    D7        1.08781   0.00095   0.00000   0.01660   0.01636   1.10417
    D8       -3.05393   0.00220   0.00000   0.02997   0.02978  -3.02415
    D9       -1.00751   0.00375   0.00000   0.07688   0.07688  -0.93063
   D10       -3.10375  -0.00083   0.00000  -0.00853  -0.00862  -3.11236
   D11       -0.96230   0.00042   0.00000   0.00485   0.00481  -0.95750
   D12        1.08412   0.00198   0.00000   0.05175   0.05190   1.13602
   D13       -1.06334  -0.00373   0.00000  -0.04024  -0.04020  -1.10354
   D14        1.07810  -0.00248   0.00000  -0.02686  -0.02677   1.05133
   D15        3.12452  -0.00092   0.00000   0.02004   0.02033  -3.13834
   D16        1.18360   0.00066   0.00000   0.01736   0.01732   1.20091
   D17       -0.97053  -0.00068   0.00000  -0.00808  -0.00777  -0.97830
   D18       -2.98128   0.00133   0.00000   0.00188   0.00161  -2.97967
   D19        1.47704   0.00132   0.00000   0.03160   0.03160   1.50864
   D20        3.11279  -0.00004   0.00000   0.00174   0.00173   3.11452
   D21       -1.06581   0.00000   0.00000   0.00346   0.00347  -1.06234
   D22        1.00637  -0.00020   0.00000  -0.00047  -0.00048   1.00590
   D23        3.11310   0.00297   0.00000   0.03990   0.03977  -3.13031
   D24        1.00520  -0.00290   0.00000  -0.03059  -0.03056   0.97464
   D25       -1.07328   0.00004   0.00000   0.00339   0.00348  -1.06980
   D26        1.02012   0.00307   0.00000   0.04717   0.04707   1.06719
   D27       -1.08779  -0.00280   0.00000  -0.02332  -0.02326  -1.11105
   D28        3.11692   0.00014   0.00000   0.01066   0.01078   3.12770
   D29       -1.07205   0.00291   0.00000   0.03520   0.03505  -1.03700
   D30        3.10323  -0.00295   0.00000  -0.03529  -0.03528   3.06795
   D31        1.02475  -0.00001   0.00000  -0.00131  -0.00124   1.02351
   D32        3.12203   0.00027   0.00000  -0.03611  -0.03582   3.08621
   D33       -1.13968  -0.00099   0.00000  -0.06134  -0.06094  -1.20062
   D34       -1.03124  -0.00191   0.00000  -0.02676  -0.02731  -1.05855
   D35        0.99023  -0.00317   0.00000  -0.05199  -0.05243   0.93781
   D36        1.00643   0.00264   0.00000   0.00355   0.00364   1.01007
   D37        3.02791   0.00138   0.00000  -0.02168  -0.02148   3.00643
         Item               Value     Threshold  Converged?
 Maximum Force            0.011079     0.000450     NO 
 RMS     Force            0.003411     0.000300     NO 
 Maximum Displacement     0.227162     0.001800     NO 
 RMS     Displacement     0.068318     0.001200     NO 
 Predicted change in Energy=-3.527000D-03
 GradGradGradGradGradGradGradGradGradGradGradGradGradGradGradGradGradGrad

                          Input orientation:                          
 ---------------------------------------------------------------------
 Center     Atomic      Atomic             Coordinates (Angstroms)
 Number     Number       Type             X           Y           Z
 ---------------------------------------------------------------------
      1          7           0       -3.922728    0.053953   -0.762659
      2          6           0       -2.792103    0.767896   -0.160035
      3          6           0       -2.008574   -0.130331    0.789415
      4         16           0       -1.202671   -1.591959   -0.008057
      5         16           0        0.304239   -0.768394   -1.187322
      6          6           0        1.721069   -0.622115   -0.010942
      7          6           0        2.938938   -0.058667   -0.747095
      8          7           0        4.065206    0.040208    0.190242
      9          1           0       -4.364807    0.657568   -1.452782
     10          1           0       -3.556911   -0.737641   -1.290492
     11          1           0       -3.187691    1.602614    0.432442
     12          1           0       -2.098172    1.205039   -0.896023
     13          1           0       -1.242826    0.436828    1.323441
     14          1           0       -2.678708   -0.580305    1.530262
     15          1           0        1.427192    0.041780    0.807194
     16          1           0        1.946454   -1.609490    0.397610
     17          1           0        2.674500    0.902024   -1.217757
     18          1           0        3.227266   -0.742748   -1.552889
     19          1           0        4.886193    0.365282   -0.316464
     20          1           0        3.864134    0.768459    0.873841
 ---------------------------------------------------------------------
                    Distance matrix (angstroms):
                    1          2          3          4          5
     1  N    0.000000
     2  C    1.466691   0.000000
     3  C    2.471210   1.523871   0.000000
     4  S    3.267592   2.849264   1.849810   0.000000
     5  S    4.327106   3.605945   3.108652   2.083196   0.000000
     6  C    5.733636   4.724730   3.846122   3.080399   1.847342
     7  C    6.862607   5.820023   5.181107   4.477732   2.763901
     8  N    8.044581   6.904701   6.105644   5.518498   4.086121
     9  H    1.017868   2.038814   3.346650   4.140858   4.889154
    10  H    1.019338   2.032119   2.663116   2.813706   3.862651
    11  H    2.089712   1.097394   2.126228   3.786772   4.520939
    12  H    2.161433   1.101959   2.152195   3.068160   3.122639
    13  H    3.417642   2.170384   1.092347   2.427031   3.185892
    14  H    2.684652   2.165089   1.095633   2.359779   4.039631
    15  H    5.575502   4.389217   3.440120   3.201549   2.428064
    16  H    6.209715   5.330746   4.240716   3.175195   2.432349
    17  H    6.667064   5.569606   5.198622   4.766107   2.899889
    18  H    7.237514   6.360416   5.768489   4.767809   2.945909
    19  H    8.825707   7.690436   7.000458   6.403138   4.799783
    20  H    7.988984   6.736051   5.941687   5.658783   4.391259
                    6          7          8          9         10
     6  C    0.000000
     7  C    1.530555   0.000000
     8  N    2.444202   1.468624   0.000000
     9  H    6.383915   7.372630   8.610794   0.000000
    10  H    5.432095   6.553803   7.803479   1.620383   0.000000
    11  H    5.407581   6.456527   7.423226   2.415115   2.929440
    12  H    4.325328   5.195345   6.365848   2.397361   2.461206
    13  H    3.418569   4.692525   5.442118   4.183647   3.683342
    14  H    4.662091   6.084111   6.903699   3.643324   2.958487
    15  H    1.093831   2.170548   2.709197   6.247714   5.463429
    16  H    1.092073   2.168046   2.693253   6.956689   5.822099
    17  H    2.165279   1.101989   2.158530   7.047470   6.443933
    18  H    2.158885   1.095630   2.086545   7.720782   6.789251
    19  H    3.329611   2.038868   1.018059   9.325108   8.570366
    20  H    2.703565   2.041460   1.018866   8.552247   7.875568
                   11         12         13         14         15
    11  H    0.000000
    12  H    1.763501   0.000000
    13  H    2.436275   2.499557   0.000000
    14  H    2.495879   3.067791   1.771748   0.000000
    15  H    4.886080   4.084398   2.748012   4.215238   0.000000
    16  H    6.056259   5.094513   3.900781   4.871781   1.778788
    17  H    6.130192   4.793091   4.692499   6.197237   2.529076
    18  H    7.112941   5.708383   5.444851   6.664288   3.070137
    19  H    8.202405   7.058501   6.345021   7.844251   3.651294
    20  H    7.114694   6.234750   5.137428   6.712588   2.543853
                   16         17         18         19         20
    16  H    0.000000
    17  H    3.073624   0.000000
    18  H    2.489210   1.767241   0.000000
    19  H    3.612713   2.447858   2.347024   0.000000
    20  H    3.091752   2.409948   2.928885   1.619871   0.000000
 Stoichiometry    C4H12N2S2
 Framework group  C1[X(C4H12N2S2)]
 Deg. of freedom    54
 Full point group                 C1      NOp   1
 Largest Abelian subgroup         C1      NOp   1
 Largest concise Abelian subgroup C1      NOp   1
                         Standard orientation:                         
 ---------------------------------------------------------------------
 Center     Atomic      Atomic             Coordinates (Angstroms)
 Number     Number       Type             X           Y           Z
 ---------------------------------------------------------------------
      1          7           0       -3.761080    0.362065   -0.548554
      2          6           0       -2.638389    1.182358   -0.081791
      3          6           0       -1.853559    0.477957    1.018229
      4         16           0       -1.033722   -1.098243    0.503195
      5         16           0        0.473470   -0.491663   -0.800698
      6          6           0        1.883328   -0.122913    0.334642
      7          6           0        3.101027    0.306365   -0.487263
      8          7           0        4.221861    0.582780    0.420583
      9          1           0       -4.203775    0.826589   -1.338677
     10          1           0       -3.387231   -0.509580   -0.922082
     11          1           0       -3.042627    2.107947    0.347337
     12          1           0       -1.943750    1.483490   -0.882485
     13          1           0       -1.094388    1.138659    1.442910
     14          1           0       -2.524339    0.165274    1.826124
     15          1           0        1.580823    0.676562    1.017135
     16          1           0        2.113366   -1.017678    0.916967
     17          1           0        2.832432    1.163290   -1.125946
     18          1           0        3.398058   -0.510754   -1.153966
     19          1           0        5.043159    0.816422   -0.133786
     20          1           0        4.012397    1.421750    0.959415
 ---------------------------------------------------------------------
 Rotational constants (GHZ):           3.2688393           0.5281683           0.5164184
 Standard basis: 6-31G(d,p) (6D, 7F)
 There are   188 symmetry adapted cartesian basis functions of A   symmetry.
 There are   188 symmetry adapted basis functions of A   symmetry.
   188 basis functions,   356 primitive gaussians,   188 cartesian basis functions
    41 alpha electrons       41 beta electrons
       nuclear repulsion energy       539.0586077095 Hartrees.
 NAtoms=   20 NActive=   20 NUniq=   20 SFac= 1.00D+00 NAtFMM=   60 NAOKFM=F Big=F
 Integral buffers will be    131072 words long.
 Raffenetti 2 integral format.
 Two-electron integral symmetry is turned on.
 ------------------------------------------------------------------------------
 Polarizable Continuum Model (PCM)
 =================================
 Model                : PCM.
 Atomic radii         : UFF (Universal Force Field).
 Polarization charges : Total charges.
 Charge compensation  : None.
 Solution method      : Matrix inversion.
 Cavity type          : Scaled VdW (van der Waals Surface) (Alpha=1.100).
 Cavity algorithm     : GePol (No added spheres)
                        Default sphere list used, NSphG=   20.
                        Lebedev-Laikov grids with approx.  5.0 points / Ang**2.
                        Smoothing algorithm: York/Karplus (Gamma=1.0000).
                        Polarization charges: spherical gaussians, with
                                              point-specific exponents (IZeta= 3).
                        Self-potential: point-specific (ISelfS= 7).
                        Self-field    : sphere-specific E.n sum rule (ISelfD= 2).
 1st derivatives      : Analytical E(r).r(x)/FMM algorithm (CHGder, D1EAlg=3).
                        Cavity 1st derivative terms included.
 Solvent              : Water, Eps=  78.355300 Eps(inf)=   1.777849
 ------------------------------------------------------------------------------
 Spheres list:
 ISph  on   Nord     Re0    Alpha      Xe            Ye            Ze
    1   N      1    1.8300  1.100     -3.761080      0.362065     -0.548554
    2   C      2    1.9255  1.100     -2.638389      1.182358     -0.081791
    3   C      3    1.9255  1.100     -1.853559      0.477957      1.018229
    4   S      4    2.0175  1.100     -1.033722     -1.098243      0.503195
    5   S      5    2.0175  1.100      0.473470     -0.491663     -0.800698
    6   C      6    1.9255  1.100      1.883328     -0.122913      0.334642
    7   C      7    1.9255  1.100      3.101027      0.306365     -0.487263
    8   N      8    1.8300  1.100      4.221861      0.582780      0.420583
    9   H      9    1.4430  1.100     -4.203775      0.826589     -1.338677
   10   H     10    1.4430  1.100     -3.387231     -0.509580     -0.922082
   11   H     11    1.4430  1.100     -3.042627      2.107947      0.347337
   12   H     12    1.4430  1.100     -1.943750      1.483490     -0.882485
   13   H     13    1.4430  1.100     -1.094388      1.138659      1.442910
   14   H     14    1.4430  1.100     -2.524339      0.165274      1.826124
   15   H     15    1.4430  1.100      1.580823      0.676562      1.017135
   16   H     16    1.4430  1.100      2.113366     -1.017678      0.916967
   17   H     17    1.4430  1.100      2.832432      1.163290     -1.125946
   18   H     18    1.4430  1.100      3.398058     -0.510754     -1.153966
   19   H     19    1.4430  1.100      5.043159      0.816422     -0.133786
   20   H     20    1.4430  1.100      4.012397      1.421750      0.959415
 ------------------------------------------------------------------------------
 One-electron integrals computed using PRISM.
 NBasis=   188 RedAO= T EigKep=  4.71D-03  NBF=   188
 NBsUse=   188 1.00D-06 EigRej= -1.00D+00 NBFU=   188
 Initial guess from the checkpoint file:  "APQPRKLAWCIJEK-UHFFFAOYSA-N_conf_0_0.chk"
 B after Tr=     0.000000   -0.000000    0.000000
         Rot=    0.999972    0.006999    0.000531   -0.002521 Ang=   0.85 deg.
 ExpMin= 1.17D-01 ExpMax= 2.19D+04 ExpMxC= 3.30D+03 IAcc=2 IRadAn=         4 AccDes= 0.00D+00
 Harris functional with IExCor=  402 and IRadAn=       4 diagonalized for initial guess.
 HarFok:  IExCor=  402 AccDes= 0.00D+00 IRadAn=         4 IDoV= 1 UseB2=F ITyADJ=14
 ICtDFT=  3500011 ScaDFX=  1.000000  1.000000  1.000000  1.000000
 FoFCou: FMM=F IPFlag=           0 FMFlag=      100000 FMFlg1=           0
         NFxFlg=           0 DoJE=T BraDBF=F KetDBF=T FulRan=T
         wScrn=  0.000000 ICntrl=       500 IOpCl=  0 I1Cent=   200000004 NGrid=           0
         NMat0=    1 NMatS0=      1 NMatT0=    0 NMatD0=    1 NMtDS0=    0 NMtDT0=    0
 Petite list used in FoFCou.
 Keep R1 ints in memory in canonical form, NReq=161201114.
 Requested convergence on RMS density matrix=1.00D-08 within  32 cycles.
 Requested convergence on MAX density matrix=1.00D-06.
 Requested convergence on             energy=1.00D-06.
 No special actions if energy rises.
 Inv3:  Mode=1 IEnd=     9187500.
 Iteration    1 A*A^-1 deviation from unit magnitude is 6.66D-15 for    804.
 Iteration    1 A*A^-1 deviation from orthogonality  is 3.20D-15 for   1296    747.
 Iteration    1 A^-1*A deviation from unit magnitude is 7.11D-15 for    804.
 Iteration    1 A^-1*A deviation from orthogonality  is 2.85D-15 for   1151    361.
 EnCoef did     1 forward-backward iterations
 Error on total polarization charges =  0.01117
 SCF Done:  E(RB3LYP) =  -1065.55114329     A.U. after   10 cycles
            NFock= 10  Conv=0.38D-08     -V/T= 2.0049
 QCSCF skips out because SCF is already converged.
 D1PCM: PCM CHGder 1st derivatives, ID1Alg=3 FixD1E=F DoIter=F DoCFld=F I1PDM=0.
 Calling FoFJK, ICntrl=      2127 FMM=F ISym2X=0 I1Cent= 0 IOpClX= 0 NMat=1 NMatS=1 NMatT=0.
 ***** Axes restored to original set *****
 -------------------------------------------------------------------
 Center     Atomic                   Forces (Hartrees/Bohr)
 Number     Number              X              Y              Z
 -------------------------------------------------------------------
      1        7          -0.000350779   -0.001177098    0.000610805
      2        6          -0.000439996    0.000427158   -0.001118380
      3        6          -0.000331707    0.001395262    0.000932204
      4       16          -0.000442119   -0.000816098    0.000282350
      5       16           0.000130678    0.000167275   -0.000822465
      6        6           0.000873441   -0.000278058    0.000421356
      7        6           0.000443702    0.001072976   -0.000210602
      8        7           0.000206852   -0.000777274    0.001021835
      9        1          -0.000261626    0.000122540    0.000296069
     10        1          -0.000033948    0.000366140   -0.000581814
     11        1           0.000279705    0.000229878   -0.000005383
     12        1           0.000757340   -0.000132488    0.000421991
     13        1           0.000003254   -0.000035780    0.000009527
     14        1          -0.000033576   -0.000588575   -0.000378936
     15        1          -0.000060184    0.000031219   -0.000075611
     16        1          -0.000058370    0.000015072   -0.000021182
     17        1          -0.000830396   -0.000268197   -0.000364268
     18        1          -0.000151710    0.000085199   -0.000158216
     19        1           0.000053064   -0.000164535   -0.000014803
     20        1           0.000246375    0.000325384   -0.000244477
 -------------------------------------------------------------------
 Cartesian Forces:  Max     0.001395262 RMS     0.000507549

 GradGradGradGradGradGradGradGradGradGradGradGradGradGradGradGradGradGrad
 Berny optimization.
 Using GEDIIS/GDIIS optimizer.
 FormGI is forming the generalized inverse of G from B-inverse, IUseBI=4.
 Internal  Forces:  Max     0.000964876 RMS     0.000323871
 Search for a local minimum.
 Step number   2 out of a maximum of   98
 All quantities printed in internal units (Hartrees-Bohrs-Radians)
 Mixed Optimization -- En-DIIS/RFO-DIIS
 Update second derivatives using D2CorX and points    1    2
 DE= -3.58D-03 DEPred=-3.53D-03 R= 1.02D+00
 TightC=F SS=  1.41D+00  RLast= 2.87D-01 DXNew= 5.0454D-01 8.6208D-01
 Trust test= 1.02D+00 RLast= 2.87D-01 DXMaxT set to 5.05D-01
 ITU=  1  0
 Use linear search instead of GDIIS.
     Eigenvalues ---    0.00152   0.00183   0.00205   0.00342   0.00360
     Eigenvalues ---    0.00631   0.02558   0.03193   0.03377   0.04367
     Eigenvalues ---    0.04379   0.04395   0.04421   0.04553   0.04639
     Eigenvalues ---    0.04980   0.05285   0.08258   0.08369   0.08687
     Eigenvalues ---    0.09026   0.10834   0.10925   0.12528   0.13748
     Eigenvalues ---    0.13966   0.14965   0.15119   0.15715   0.17120
     Eigenvalues ---    0.17266   0.17679   0.20332   0.21985   0.22082
     Eigenvalues ---    0.23934   0.26884   0.28813   0.29635   0.29856
     Eigenvalues ---    0.32103   0.32599   0.33043   0.33132   0.33391
     Eigenvalues ---    0.33654   0.33960   0.34066   0.36699   0.37020
     Eigenvalues ---    0.43235   0.43880   0.44107   0.44229
 RFO step:  Lambda=-4.15663995D-04 EMin= 1.52338969D-03
 Quartic linear search produced a step of  0.12672.
 Iteration  1 RMS(Cart)=  0.05354061 RMS(Int)=  0.00281000
 Iteration  2 RMS(Cart)=  0.00293046 RMS(Int)=  0.00004083
 Iteration  3 RMS(Cart)=  0.00001217 RMS(Int)=  0.00003995
 Iteration  4 RMS(Cart)=  0.00000000 RMS(Int)=  0.00003995
 Variable       Old X    -DE/DX   Delta X   Delta X   Delta X     New X
                                 (Linear)    (Quad)   (Total)
    R1        2.77164   0.00070   0.00069  -0.00129  -0.00059   2.77105
    R2        1.92349  -0.00001  -0.00032   0.00071   0.00038   1.92387
    R3        1.92627   0.00001  -0.00074   0.00020  -0.00054   1.92573
    R4        2.87970   0.00016  -0.00249   0.00318   0.00069   2.88039
    R5        2.07377   0.00007   0.00042  -0.00114  -0.00072   2.07306
    R6        2.08240   0.00014   0.00163  -0.00052   0.00111   2.08352
    R7        3.49563   0.00073   0.00421   0.00063   0.00484   3.50048
    R8        2.06424  -0.00001  -0.00066   0.00056  -0.00010   2.06414
    R9        2.07045   0.00001  -0.00005  -0.00025  -0.00030   2.07015
   R10        3.93667   0.00096   0.00596  -0.00090   0.00507   3.94174
   R11        3.49097   0.00079   0.00530  -0.00028   0.00501   3.49598
   R12        2.89233   0.00006  -0.00033   0.00181   0.00148   2.89381
   R13        2.06704  -0.00002  -0.00035   0.00013  -0.00021   2.06683
   R14        2.06372  -0.00003  -0.00080   0.00046  -0.00034   2.06338
   R15        2.77530   0.00083   0.00086   0.00003   0.00089   2.77619
   R16        2.08246   0.00012   0.00139  -0.00131   0.00007   2.08253
   R17        2.07044   0.00002  -0.00009  -0.00008  -0.00017   2.07027
   R18        1.92385  -0.00000  -0.00050   0.00055   0.00005   1.92390
   R19        1.92538   0.00002  -0.00018  -0.00006  -0.00024   1.92514
    A1        1.90150  -0.00000  -0.00098  -0.00075  -0.00173   1.89978
    A2        1.89033   0.00012  -0.00065   0.00346   0.00280   1.89314
    A3        1.83932  -0.00013  -0.00136   0.00262   0.00124   1.84056
    A4        1.94489  -0.00035  -0.00334  -0.00178  -0.00511   1.93978
    A5        1.89041   0.00014   0.00058  -0.00378  -0.00333   1.88708
    A6        1.98681   0.00074   0.00964  -0.00048   0.00914   1.99595
    A7        1.87267  -0.00015  -0.00291   0.00444   0.00147   1.87414
    A8        1.90305  -0.00034  -0.00395   0.00165  -0.00225   1.90079
    A9        1.86069  -0.00007  -0.00021   0.00032  -0.00006   1.86063
   A10        2.00551   0.00022   0.00239  -0.00687  -0.00449   2.00102
   A11        1.93799   0.00006   0.00178   0.00493   0.00667   1.94466
   A12        1.92718   0.00003   0.00185  -0.00441  -0.00261   1.92457
   A13        1.89189  -0.00006  -0.00112   0.00104  -0.00010   1.89179
   A14        1.80644  -0.00044  -0.00825   0.00203  -0.00624   1.80019
   A15        1.88750   0.00015   0.00300   0.00362   0.00652   1.89402
   A16        1.82019   0.00078   0.00205  -0.00008   0.00196   1.82215
   A17        1.79837   0.00069   0.00215   0.00034   0.00249   1.80086
   A18        1.91043  -0.00012  -0.00090  -0.00048  -0.00138   1.90905
   A19        1.89473   0.00001  -0.00081  -0.00053  -0.00134   1.89339
   A20        1.90173  -0.00001  -0.00049   0.00001  -0.00048   1.90125
   A21        1.92846   0.00003   0.00104   0.00070   0.00173   1.93019
   A22        1.92682   0.00009   0.00093  -0.00073   0.00019   1.92701
   A23        1.90116   0.00000   0.00021   0.00104   0.00124   1.90240
   A24        1.90501  -0.00035  -0.00483   0.00404  -0.00079   1.90421
   A25        1.91284  -0.00034  -0.00238  -0.00002  -0.00234   1.91050
   A26        1.91058  -0.00007  -0.00146  -0.00081  -0.00236   1.90822
   A27        1.98005   0.00084   0.01092  -0.00265   0.00827   1.98833
   A28        1.88559   0.00006  -0.00057  -0.00028  -0.00098   1.88461
   A29        1.86852  -0.00014  -0.00162  -0.00038  -0.00212   1.86640
   A30        1.89892  -0.00001  -0.00071   0.00086   0.00013   1.89905
   A31        1.90181   0.00005  -0.00193   0.00341   0.00147   1.90328
   A32        1.83885  -0.00012  -0.00146   0.00084  -0.00065   1.83820
    D1       -3.04909  -0.00033  -0.00735  -0.14690  -0.15423   3.07986
    D2        1.17811  -0.00003  -0.00212  -0.14895  -0.15103   1.02708
    D3       -0.88810  -0.00050  -0.00775  -0.14648  -0.15431  -1.04241
    D4       -1.05688  -0.00042  -0.00982  -0.14240  -0.15219  -1.20907
    D5       -3.11286  -0.00012  -0.00460  -0.14444  -0.14899   3.02133
    D6        1.10411  -0.00059  -0.01022  -0.14198  -0.15227   0.95185
    D7        1.10417   0.00010   0.00207   0.01545   0.01751   1.12168
    D8       -3.02415   0.00024   0.00377   0.01558   0.01932  -3.00482
    D9       -0.93063   0.00049   0.00974   0.02042   0.03016  -0.90046
   D10       -3.11236  -0.00003  -0.00109   0.01258   0.01148  -3.10088
   D11       -0.95750   0.00011   0.00061   0.01270   0.01330  -0.94420
   D12        1.13602   0.00037   0.00658   0.01754   0.02414   1.16016
   D13       -1.10354  -0.00036  -0.00509   0.01613   0.01104  -1.09249
   D14        1.05133  -0.00022  -0.00339   0.01625   0.01286   1.06419
   D15       -3.13834   0.00003   0.00258   0.02109   0.02370  -3.11464
   D16        1.20091   0.00014   0.00219   0.01704   0.01922   1.22013
   D17       -0.97830  -0.00006  -0.00098   0.01470   0.01376  -0.96454
   D18       -2.97967   0.00001   0.00020   0.00919   0.00938  -2.97029
   D19        1.50864   0.00039   0.00400   0.01229   0.01630   1.52494
   D20        3.11452   0.00002   0.00022   0.01140   0.01162   3.12614
   D21       -1.06234  -0.00000   0.00044   0.01164   0.01208  -1.05025
   D22        1.00590  -0.00000  -0.00006   0.01259   0.01252   1.01842
   D23       -3.13031   0.00028   0.00504   0.00700   0.01202  -3.11829
   D24        0.97464  -0.00031  -0.00387   0.00760   0.00374   0.97837
   D25       -1.06980   0.00010   0.00044   0.00855   0.00900  -1.06079
   D26        1.06719   0.00032   0.00596   0.00752   0.01347   1.08066
   D27       -1.11105  -0.00026  -0.00295   0.00813   0.00519  -1.10586
   D28        3.12770   0.00014   0.00137   0.00907   0.01046   3.13816
   D29       -1.03700   0.00024   0.00444   0.00625   0.01067  -1.02633
   D30        3.06795  -0.00034  -0.00447   0.00686   0.00239   3.07034
   D31        1.02351   0.00006  -0.00016   0.00781   0.00765   1.03117
   D32        3.08621  -0.00018  -0.00454  -0.07948  -0.08399   3.00222
   D33       -1.20062  -0.00030  -0.00772  -0.07623  -0.08390  -1.28452
   D34       -1.05855  -0.00030  -0.00346  -0.07835  -0.08188  -1.14043
   D35        0.93781  -0.00042  -0.00664  -0.07510  -0.08179   0.85602
   D36        1.01007   0.00007   0.00046  -0.08062  -0.08015   0.92992
   D37        3.00643  -0.00005  -0.00272  -0.07737  -0.08007   2.92637
         Item               Value     Threshold  Converged?
 Maximum Force            0.000965     0.000450     NO 
 RMS     Force            0.000324     0.000300     NO 
 Maximum Displacement     0.237698     0.001800     NO 
 RMS     Displacement     0.053762     0.001200     NO 
 Predicted change in Energy=-2.658821D-04
 GradGradGradGradGradGradGradGradGradGradGradGradGradGradGradGradGradGrad

                          Input orientation:                          
 ---------------------------------------------------------------------
 Center     Atomic      Atomic             Coordinates (Angstroms)
 Number     Number       Type             X           Y           Z
 ---------------------------------------------------------------------
      1          7           0       -3.948659    0.017378   -0.746843
      2          6           0       -2.814237    0.755674   -0.182689
      3          6           0       -2.014602   -0.115804    0.778770
      4         16           0       -1.193210   -1.579010   -0.005850
      5         16           0        0.323214   -0.755972   -1.178006
      6          6           0        1.742638   -0.622952    0.000986
      7          6           0        2.958144   -0.045899   -0.730138
      8          7           0        4.090454    0.027195    0.203014
      9          1           0       -4.490591    0.646725   -1.335656
     10          1           0       -3.587306   -0.698792   -1.375324
     11          1           0       -3.209966    1.601250    0.393368
     12          1           0       -2.128619    1.180032   -0.934661
     13          1           0       -1.254039    0.465144    1.305219
     14          1           0       -2.679637   -0.571505    1.520477
     15          1           0        1.446416    0.028321    0.828220
     16          1           0        1.970769   -1.615687    0.394260
     17          1           0        2.688917    0.922125   -1.182809
     18          1           0        3.238994   -0.714948   -1.550933
     19          1           0        4.927635    0.284107   -0.316234
     20          1           0        3.933685    0.792617    0.856760
 ---------------------------------------------------------------------
                    Distance matrix (angstroms):
                    1          2          3          4          5
     1  N    0.000000
     2  C    1.466378   0.000000
     3  C    2.466943   1.524235   0.000000
     4  S    3.269561   2.847762   1.852372   0.000000
     5  S    4.362668   3.622061   3.115151   2.085877   0.000000
     6  C    5.775823   4.764394   3.870270   3.087603   1.849995
     7  C    6.907114   5.853427   5.197104   4.484280   2.765439
     8  N    8.095039   6.953718   6.133812   5.526356   4.088112
     9  H    1.018071   2.037490   3.344065   4.194640   5.016485
    10  H    1.019051   2.033589   2.730090   2.895158   3.915912
    11  H    2.086720   1.097015   2.127370   3.786916   4.528694
    12  H    2.167853   1.102549   2.151287   3.057776   3.133498
    13  H    3.416494   2.175430   1.092294   2.429232   3.185162
    14  H    2.664196   2.163399   1.095474   2.356736   4.041404
    15  H    5.620300   4.438934   3.464370   3.201063   2.429329
    16  H    6.245690   5.371452   4.275590   3.189387   2.434249
    17  H    6.713126   5.595771   5.200787   4.765692   2.900446
    18  H    7.269472   6.377807   5.778127   4.772663   2.939819
    19  H    8.890735   7.757370   7.039433   6.405645   4.798449
    20  H    8.081083   6.827611   6.017760   5.714347   4.424241
                    6          7          8          9         10
     6  C    0.000000
     7  C    1.531336   0.000000
     8  N    2.444534   1.469095   0.000000
     9  H    6.500140   7.505334   8.739888   0.000000
    10  H    5.505296   6.609497   7.871861   1.621084   0.000000
    11  H    5.443282   6.482357   7.470610   2.353857   2.925893
    12  H    4.371820   5.236401   6.426523   2.454409   2.419077
    13  H    3.444568   4.705989   5.474510   4.181204   3.739545
    14  H    4.676324   6.093119   6.923025   3.594598   3.037389
    15  H    1.093718   2.172397   2.716951   6.349238   5.542802
    16  H    1.091893   2.168736   2.688624   7.061181   5.904601
    17  H    2.164273   1.102027   2.164650   7.186414   6.485015
    18  H    2.157776   1.095540   2.086165   7.851559   6.828578
    19  H    3.326800   2.039391   1.018084   9.480174   8.636665
    20  H    2.745337   2.042800   1.018740   8.706113   7.985725
                   11         12         13         14         15
    11  H    0.000000
    12  H    1.763632   0.000000
    13  H    2.438824   2.508589   0.000000
    14  H    2.504493   3.065813   1.775755   0.000000
    15  H    4.934075   4.149104   2.776832   4.226502   0.000000
    16  H    6.098253   5.136833   3.944501   4.897443   1.779334
[...]
    19  H   -0.028219   0.336151  -0.000000  -0.000000  -0.000000  -0.000000
    20  H   -0.033975   0.337570   0.000000  -0.000000   0.000000   0.000000
              13         14         15         16         17         18
     1  N    0.003772   0.004656   0.000000  -0.000000   0.000000  -0.000000
     2  C   -0.025672  -0.035654   0.000042  -0.000005  -0.000001  -0.000000
     3  C    0.362106   0.371049   0.001134  -0.000183  -0.000007   0.000000
     4  S   -0.060787  -0.046874   0.011142   0.008920   0.000301   0.000264
     5  S    0.015717  -0.001062  -0.054631  -0.052889   0.009723   0.002716
     6  C    0.001395  -0.000009   0.374968   0.373194  -0.053974  -0.036596
     7  C   -0.000049   0.000000  -0.036587  -0.042429   0.385452   0.392865
     8  N   -0.000001   0.000000  -0.002251   0.009103  -0.041620  -0.039437
     9  H   -0.000161  -0.000108  -0.000000  -0.000000  -0.000000   0.000000
    10  H    0.000031  -0.000625  -0.000000   0.000000   0.000000  -0.000000
    11  H   -0.003959  -0.004966  -0.000002   0.000000   0.000000  -0.000000
    12  H   -0.000947   0.006664  -0.000023   0.000008   0.000002   0.000000
    13  H    0.582134  -0.027062   0.000542  -0.000009   0.000000  -0.000000
    14  H   -0.027062   0.577081  -0.000061   0.000011   0.000000   0.000000
    15  H    0.000542  -0.000061   0.577871  -0.028637  -0.006054   0.005279
    16  H   -0.000009   0.000011  -0.028637   0.574256   0.006294  -0.006135
    17  H    0.000000   0.000000  -0.006054   0.006294   0.648051  -0.043688
    18  H   -0.000000   0.000000   0.005279  -0.006135  -0.043688   0.601905
    19  H    0.000000  -0.000000  -0.000028  -0.000198  -0.001829  -0.005402
    20  H    0.000000   0.000000   0.003951  -0.000761  -0.006579   0.006151
              19         20
     1  N    0.000000  -0.000000
     2  C    0.000000   0.000000
     3  C    0.000000  -0.000000
     4  S   -0.000004  -0.000017
     5  S   -0.000465  -0.000336
     6  C    0.005916  -0.003877
     7  C   -0.028219  -0.033975
     8  N    0.336151   0.337570
     9  H   -0.000000   0.000000
    10  H   -0.000000  -0.000000
    11  H   -0.000000   0.000000
    12  H   -0.000000   0.000000
    13  H    0.000000   0.000000
    14  H   -0.000000   0.000000
    15  H   -0.000028   0.003951
    16  H   -0.000198  -0.000761
    17  H   -0.001829  -0.006579
    18  H   -0.005402   0.006151
    19  H    0.460396  -0.030824
    20  H   -0.030824   0.467080
 Mulliken charges:
               1
     1  N   -0.601113
     2  C   -0.057537
     3  C   -0.315821
     4  S   -0.127936
     5  S   -0.069621
     6  C   -0.318359
     7  C   -0.048412
     8  N   -0.626295
     9  H    0.271744
    10  H    0.270427
    11  H    0.133598
    12  H    0.114483
    13  H    0.152948
    14  H    0.156961
    15  H    0.153344
    16  H    0.159460
    17  H    0.103929
    18  H    0.122077
    19  H    0.264505
    20  H    0.261616
 Sum of Mulliken charges =  -0.00000
 Mulliken charges with hydrogens summed into heavy atoms:
               1
     1  N   -0.058941
     2  C    0.190544
     3  C   -0.005912
     4  S   -0.127936
     5  S   -0.069621
     6  C   -0.005555
     7  C    0.177594
     8  N   -0.100174
 Electronic spatial extent (au):  <R**2>=           2283.1420
 Charge=              0.0000 electrons
 Dipole moment (field-independent basis, Debye):
    X=              1.1446    Y=              5.0875    Z=             -0.5345  Tot=              5.2420
 Quadrupole moment (field-independent basis, Debye-Ang):
   XX=            -56.8143   YY=            -63.7850   ZZ=            -65.5125
   XY=             -0.2163   XZ=              4.1254   YZ=              2.0804
 Traceless Quadrupole moment (field-independent basis, Debye-Ang):
   XX=              5.2230   YY=             -1.7477   ZZ=             -3.4752
   XY=             -0.2163   XZ=              4.1254   YZ=              2.0804
 Octapole moment (field-independent basis, Debye-Ang**2):
  XXX=             43.9804  YYY=             16.3496  ZZZ=              1.3142  XYY=              7.9519
  XXY=             50.1865  XXZ=            -44.8842  XZZ=            -13.6981  YZZ=              7.1685
  YYZ=             -0.0181  XYZ=              2.9494
 Hexadecapole moment (field-independent basis, Debye-Ang**3):
 XXXX=          -2236.2767 YYYY=           -312.2050 ZZZZ=           -268.6388 XXXY=             78.0122
 XXXZ=             23.4831 YYYX=             -6.4170 YYYZ=              9.2099 ZZZX=             23.7829
 ZZZY=              3.2508 XXYY=           -393.8302 XXZZ=           -412.3968 YYZZ=            -95.5533
 XXYZ=              7.8185 YYXZ=             21.7963 ZZXY=              0.4602
 N-N= 5.379614617688D+02 E-N=-3.593681731137D+03  KE= 1.060706037633D+03
 Evaluate density.
 Using the total density.
 Monte-Carlo method of calculating molar volume:
 based on  0.001 e/bohr**3 density envelope.
 Number of points per bohr**3 =   20 CutOff= 1.00D-04
 Using the CI density.
 There are       429 points.  Will hold       429 in memory.
 LenV=   805188468 MDV=   805306368.
 Box volume = 9913.950 fraction occupied=0.089
 Integrated density= 2.6401558781277036D+01 error=-5.5598441218722968D+01
 Molar volume =  878.159 bohr**3/mol ( 78.366 cm**3/mol)
 Recommended a0 for SCRF calculation =  3.96 angstrom (  7.48 bohr)
 ******************************Gaussian NBO Version 3.1******************************
             N A T U R A L   A T O M I C   O R B I T A L   A N D
          N A T U R A L   B O N D   O R B I T A L   A N A L Y S I S
 ******************************Gaussian NBO Version 3.1******************************
       /RESON  / : Allow strongly delocalized NBO set

 Analyzing the CI density

 Job title: APQPRKLAWCIJEK-UHFFFAOYSA-N_conf_0                              

 Storage needed:    107440 in NPA ( 805304168 available)
 GSVD:  LWork=       20560 too small for GESVD, short by        8252 words or        8252 for optimal perf.


 NATURAL POPULATIONS:  Natural atomic orbital occupancies 
                                                          
   NAO  Atom  No  lang   Type(AO)    Occupancy
 --------------------------------------------
     1    N    1  S      Cor( 1S)     1.99965
     2    N    1  S      Val( 2S)     1.44779
     3    N    1  S      Ryd( 3S)     0.00063
     4    N    1  S      Ryd( 4S)     0.00000
     5    N    1  px     Val( 2p)     1.44388
     6    N    1  px     Ryd( 3p)     0.00300
     7    N    1  py     Val( 2p)     1.38031
     8    N    1  py     Ryd( 3p)     0.00224
     9    N    1  pz     Val( 2p)     1.58890
    10    N    1  pz     Ryd( 3p)     0.00456
    11    N    1  dxy    Ryd( 3d)     0.00082
    12    N    1  dxz    Ryd( 3d)     0.00122
    13    N    1  dyz    Ryd( 3d)     0.00118
    14    N    1  dx2y2  Ryd( 3d)     0.00040
    15    N    1  dz2    Ryd( 3d)     0.00086

    16    C    2  S      Cor( 1S)     1.99929
    17    C    2  S      Val( 2S)     1.03112
    18    C    2  S      Ryd( 3S)     0.00213
    19    C    2  S      Ryd( 4S)     0.00004
    20    C    2  px     Val( 2p)     1.01898
    21    C    2  px     Ryd( 3p)     0.00425
    22    C    2  py     Val( 2p)     1.09418
    23    C    2  py     Ryd( 3p)     0.00257
    24    C    2  pz     Val( 2p)     1.11985
    25    C    2  pz     Ryd( 3p)     0.00191
    26    C    2  dxy    Ryd( 3d)     0.00124
    27    C    2  dxz    Ryd( 3d)     0.00127
    28    C    2  dyz    Ryd( 3d)     0.00092
    29    C    2  dx2y2  Ryd( 3d)     0.00078
    30    C    2  dz2    Ryd( 3d)     0.00067

    31    C    3  S      Cor( 1S)     1.99927
    32    C    3  S      Val( 2S)     1.12932
    33    C    3  S      Ryd( 3S)     0.00186
    34    C    3  S      Ryd( 4S)     0.00003
    35    C    3  px     Val( 2p)     1.19067
    36    C    3  px     Ryd( 3p)     0.00308
    37    C    3  py     Val( 2p)     1.10346
    38    C    3  py     Ryd( 3p)     0.00324
    39    C    3  pz     Val( 2p)     1.16900
    40    C    3  pz     Ryd( 3p)     0.00199
    41    C    3  dxy    Ryd( 3d)     0.00135
    42    C    3  dxz    Ryd( 3d)     0.00094
    43    C    3  dyz    Ryd( 3d)     0.00085
    44    C    3  dx2y2  Ryd( 3d)     0.00058
    45    C    3  dz2    Ryd( 3d)     0.00062

    46    S    4  S      Cor( 1S)     2.00000
    47    S    4  S      Cor( 2S)     1.99963
    48    S    4  S      Val( 3S)     1.78945
    49    S    4  S      Ryd( 4S)     0.00945
    50    S    4  S      Ryd( 5S)     0.00002
    51    S    4  px     Cor( 2p)     1.99991
    52    S    4  px     Val( 3p)     1.41551
    53    S    4  px     Ryd( 4p)     0.01532
    54    S    4  py     Cor( 2p)     1.99989
    55    S    4  py     Val( 3p)     1.29170
    56    S    4  py     Ryd( 4p)     0.00352
    57    S    4  pz     Cor( 2p)     1.99990
    58    S    4  pz     Val( 3p)     1.48344
    59    S    4  pz     Ryd( 4p)     0.01111
    60    S    4  dxy    Ryd( 3d)     0.00460
    61    S    4  dxz    Ryd( 3d)     0.00564
    62    S    4  dyz    Ryd( 3d)     0.00358
    63    S    4  dx2y2  Ryd( 3d)     0.00500
    64    S    4  dz2    Ryd( 3d)     0.00222

    65    S    5  S      Cor( 1S)     2.00000
    66    S    5  S      Cor( 2S)     1.99962
    67    S    5  S      Val( 3S)     1.79016
    68    S    5  S      Ryd( 4S)     0.00938
    69    S    5  S      Ryd( 5S)     0.00002
    70    S    5  px     Cor( 2p)     1.99987
    71    S    5  px     Val( 3p)     1.19120
    72    S    5  px     Ryd( 4p)     0.01691
    73    S    5  py     Cor( 2p)     1.99988
    74    S    5  py     Val( 3p)     1.49209
    75    S    5  py     Ryd( 4p)     0.00548
    76    S    5  pz     Cor( 2p)     1.99991
    77    S    5  pz     Val( 3p)     1.43389
    78    S    5  pz     Ryd( 4p)     0.00514
    79    S    5  dxy    Ryd( 3d)     0.00260
    80    S    5  dxz    Ryd( 3d)     0.00967
    81    S    5  dyz    Ryd( 3d)     0.00285
    82    S    5  dx2y2  Ryd( 3d)     0.00360
    83    S    5  dz2    Ryd( 3d)     0.00326

    84    C    6  S      Cor( 1S)     1.99927
    85    C    6  S      Val( 2S)     1.13656
    86    C    6  S      Ryd( 3S)     0.00211
    87    C    6  S      Ryd( 4S)     0.00003
    88    C    6  px     Val( 2p)     1.03946
    89    C    6  px     Ryd( 3p)     0.00385
    90    C    6  py     Val( 2p)     1.26177
    91    C    6  py     Ryd( 3p)     0.00132
    92    C    6  pz     Val( 2p)     1.15359
    93    C    6  pz     Ryd( 3p)     0.00243
    94    C    6  dxy    Ryd( 3d)     0.00059
    95    C    6  dxz    Ryd( 3d)     0.00132
    96    C    6  dyz    Ryd( 3d)     0.00111
    97    C    6  dx2y2  Ryd( 3d)     0.00092
    98    C    6  dz2    Ryd( 3d)     0.00040

    99    C    7  S      Cor( 1S)     1.99933
   100    C    7  S      Val( 2S)     1.03362
   101    C    7  S      Ryd( 3S)     0.00227
   102    C    7  S      Ryd( 4S)     0.00004
   103    C    7  px     Val( 2p)     0.94050
   104    C    7  px     Ryd( 3p)     0.00552
   105    C    7  py     Val( 2p)     1.21666
   106    C    7  py     Ryd( 3p)     0.00319
   107    C    7  pz     Val( 2p)     1.07354
   108    C    7  pz     Ryd( 3p)     0.00337
   109    C    7  dxy    Ryd( 3d)     0.00080
   110    C    7  dxz    Ryd( 3d)     0.00146
   111    C    7  dyz    Ryd( 3d)     0.00129
   112    C    7  dx2y2  Ryd( 3d)     0.00088
   113    C    7  dz2    Ryd( 3d)     0.00048

   114    N    8  S      Cor( 1S)     1.99965
   115    N    8  S      Val( 2S)     1.44635
   116    N    8  S      Ryd( 3S)     0.00098
   117    N    8  S      Ryd( 4S)     0.00001
   118    N    8  px     Val( 2p)     1.32121
   119    N    8  px     Ryd( 3p)     0.00228
   120    N    8  py     Val( 2p)     1.61870
   121    N    8  py     Ryd( 3p)     0.00422
   122    N    8  pz     Val( 2p)     1.50269
   123    N    8  pz     Ryd( 3p)     0.00349
   124    N    8  dxy    Ryd( 3d)     0.00056
   125    N    8  dxz    Ryd( 3d)     0.00102
   126    N    8  dyz    Ryd( 3d)     0.00122
   127    N    8  dx2y2  Ryd( 3d)     0.00108
   128    N    8  dz2    Ryd( 3d)     0.00059

   129    H    9  S      Val( 1S)     0.59629
   130    H    9  S      Ryd( 2S)     0.00096
   131    H    9  px     Ryd( 2p)     0.00043
   132    H    9  py     Ryd( 2p)     0.00038
   133    H    9  pz     Ryd( 2p)     0.00059

   134    H   10  S      Val( 1S)     0.60296
   135    H   10  S      Ryd( 2S)     0.00153
   136    H   10  px     Ryd( 2p)     0.00040
   137    H   10  py     Ryd( 2p)     0.00049
   138    H   10  pz     Ryd( 2p)     0.00051

   139    H   11  S      Val( 1S)     0.74807
   140    H   11  S      Ryd( 2S)     0.00153
   141    H   11  px     Ryd( 2p)     0.00011
   142    H   11  py     Ryd( 2p)     0.00031
   143    H   11  pz     Ryd( 2p)     0.00014

   144    H   12  S      Val( 1S)     0.77452
   145    H   12  S      Ryd( 2S)     0.00239
   146    H   12  px     Ryd( 2p)     0.00020
   147    H   12  py     Ryd( 2p)     0.00009
   148    H   12  pz     Ryd( 2p)     0.00027

   149    H   13  S      Val( 1S)     0.73568
   150    H   13  S      Ryd( 2S)     0.00239
   151    H   13  px     Ryd( 2p)     0.00023
   152    H   13  py     Ryd( 2p)     0.00017
   153    H   13  pz     Ryd( 2p)     0.00014

   154    H   14  S      Val( 1S)     0.72879
   155    H   14  S      Ryd( 2S)     0.00256
   156    H   14  px     Ryd( 2p)     0.00018
   157    H   14  py     Ryd( 2p)     0.00016
   158    H   14  pz     Ryd( 2p)     0.00022

   159    H   15  S      Val( 1S)     0.74292
   160    H   15  S      Ryd( 2S)     0.00251
   161    H   15  px     Ryd( 2p)     0.00012
   162    H   15  py     Ryd( 2p)     0.00024
   163    H   15  pz     Ryd( 2p)     0.00018

   164    H   16  S      Val( 1S)     0.73300
   165    H   16  S      Ryd( 2S)     0.00356
   166    H   16  px     Ryd( 2p)     0.00009
   167    H   16  py     Ryd( 2p)     0.00030
   168    H   16  pz     Ryd( 2p)     0.00014

   169    H   17  S      Val( 1S)     0.77914
   170    H   17  S      Ryd( 2S)     0.00269
   171    H   17  px     Ryd( 2p)     0.00009
   172    H   17  py     Ryd( 2p)     0.00029
   173    H   17  pz     Ryd( 2p)     0.00018

   174    H   18  S      Val( 1S)     0.75997
   175    H   18  S      Ryd( 2S)     0.00201
   176    H   18  px     Ryd( 2p)     0.00008
   177    H   18  py     Ryd( 2p)     0.00026
   178    H   18  pz     Ryd( 2p)     0.00021

   179    H   19  S      Val( 1S)     0.59911
   180    H   19  S      Ryd( 2S)     0.00120
   181    H   19  px     Ryd( 2p)     0.00048
   182    H   19  py     Ryd( 2p)     0.00046
   183    H   19  pz     Ryd( 2p)     0.00046

   184    H   20  S      Val( 1S)     0.60686
   185    H   20  S      Ryd( 2S)     0.00138
   186    H   20  px     Ryd( 2p)     0.00028
   187    H   20  py     Ryd( 2p)     0.00067
   188    H   20  pz     Ryd( 2p)     0.00044


 Summary of Natural Population Analysis:                  
                                                          
                                       Natural Population 
                Natural  -----------------------------------------------
    Atom  No    Charge         Core      Valence    Rydberg      Total
 -----------------------------------------------------------------------
      N    1   -0.87544      1.99965     5.86087    0.01491     7.87544
      C    2   -0.27919      1.99929     4.26412    0.01578     6.27919
      C    3   -0.60627      1.99927     4.59245    0.01455     6.60627
      S    4   -0.03988      9.99933     5.98009    0.06046    16.03988
      S    5    0.03447      9.99928     5.90734    0.05891    15.96553
      C    6   -0.60473      1.99927     4.59137    0.01409     6.60473
      C    7   -0.28295      1.99933     4.26432    0.01929     6.28295
      N    8   -0.90403      1.99965     5.88895    0.01543     7.90403
      H    9    0.40135      0.00000     0.59629    0.00235     0.59865
      H   10    0.39413      0.00000     0.60296    0.00291     0.60587
      H   11    0.24985      0.00000     0.74807    0.00208     0.75015
      H   12    0.22253      0.00000     0.77452    0.00295     0.77747
      H   13    0.26139      0.00000     0.73568    0.00293     0.73861
      H   14    0.26809      0.00000     0.72879    0.00311     0.73191
      H   15    0.25402      0.00000     0.74292    0.00306     0.74598
      H   16    0.26290      0.00000     0.73300    0.00409     0.73710
      H   17    0.21762      0.00000     0.77914    0.00325     0.78238
      H   18    0.23748      0.00000     0.75997    0.00255     0.76252
      H   19    0.39829      0.00000     0.59911    0.00260     0.60171
      H   20    0.39038      0.00000     0.60686    0.00277     0.60962
 =======================================================================
   * Total *    0.00000     31.99508    49.75683    0.24809    82.00000

                                 Natural Population      
 --------------------------------------------------------
   Core                      31.99508 ( 99.9846% of  32)
   Valence                   49.75683 ( 99.5137% of  50)
   Natural Minimal Basis     81.75191 ( 99.6975% of  82)
   Natural Rydberg Basis      0.24809 (  0.3025% of  82)
 --------------------------------------------------------

    Atom  No          Natural Electron Configuration
 ----------------------------------------------------------------------------
      N    1      [core]2S( 1.45)2p( 4.41)3p( 0.01)
      C    2      [core]2S( 1.03)2p( 3.23)3p( 0.01)
      C    3      [core]2S( 1.13)2p( 3.46)3p( 0.01)
      S    4      [core]3S( 1.79)3p( 4.19)4S( 0.01)3d( 0.02)4p( 0.03)
      S    5      [core]3S( 1.79)3p( 4.12)4S( 0.01)3d( 0.02)4p( 0.03)
      C    6      [core]2S( 1.14)2p( 3.45)3p( 0.01)
      C    7      [core]2S( 1.03)2p( 3.23)3p( 0.01)
      N    8      [core]2S( 1.45)2p( 4.44)3p( 0.01)
      H    9            1S( 0.60)
      H   10            1S( 0.60)
      H   11            1S( 0.75)
      H   12            1S( 0.77)
      H   13            1S( 0.74)
      H   14            1S( 0.73)
      H   15            1S( 0.74)
      H   16            1S( 0.73)
      H   17            1S( 0.78)
      H   18            1S( 0.76)
      H   19            1S( 0.60)
      H   20            1S( 0.61)


 NBO analysis skipped by request.
 1\1\GINC-CN11\SP\RB3LYP TD-FC\6-31G(d,p)\C4H12N2S2\QDUEZ\11-Jul-2024\0
 \\# TD(NStates=10, Root=1) B3LYP/6-31G** SCRF=(Solvent=water) volume p
 op=NPA density=current Geom=AllCheck Guess=Read\\APQPRKLAWCIJEK-UHFFFA
 OYSA-N_conf_0\\0,1\N,0,-3.9399490962,0.0263683493,-0.7584848708\C,0,-2
 .8084544169,0.7565088678,-0.1760403077\C,0,-2.0176844878,-0.122593111,
 0.7860649247\S,0,-1.1958050259,-1.5859224068,0.0019593385\S,0,0.318464
 1043,-0.7649338793,-1.1748495054\C,0,1.7396486016,-0.6239106438,0.0015
 564203\C,0,2.9533638725,-0.0495134144,-0.7344736629\N,0,4.0850524551,0
 .0362223877,0.1989831537\H,0,-4.4644787786,0.6585435429,-1.3596262654\
 H,0,-3.5763210133,-0.6962573726,-1.3779883352\H,0,-3.2056735293,1.5990
 418142,0.4036700759\H,0,-2.1153769145,1.1847011346,-0.9184860635\H,0,-
 1.2590692447,0.4544604348,1.3196525416\H,0,-2.6877555265,-0.579841979,
 1.5222701873\H,0,1.4442480012,0.0320021187,0.8253710295\H,0,1.96903729
 11,-1.6141756123,0.4002277993\H,0,2.6808643795,0.9136369523,-1.1953277
 498\H,0,3.2363466474,-0.724585952,-1.5496223479\H,0,4.9204317123,0.296
 1595613,-0.3215172198\H,0,3.9231109688,0.8040892076,0.8485916618\\Vers
 ion=EM64L-G16RevA.03\State=1-A\HF=-1065.551364\RMSD=2.676e-09\Dipole=0
 .4636715,2.0057619,0.1235816\Quadrupole=3.8933985,-1.832562,-2.0608365
 ,-0.6995165,2.9896561,1.654606\PG=C01 [X(C4H12N2S2)]\\@


 IT TAKES GREATER CHARACTER TO CARRY OFF GOOD FORTUNE THAN BAD.
                     FRENCH PROVERB.
 Job cpu time:       0 days  0 hours 27 minutes 13.9 seconds.
 Elapsed time:       0 days  0 hours 13 minutes 34.9 seconds.
 File lengths (MBytes):  RWF=    350 Int=      0 D2E=      0 Chk=     22 Scr=      1
 Normal termination of Gaussian 16 at Thu Jul 11 17:56:20 2024.
