 Entering Gaussian System, Link 0=g16
 Initial command:
 /opt/sw/arch/manual/gaussian/G16_A03/g16/l1.exe "/scratch/1032023.jesse.materianova.be/Gau-3846.inp" -scrdir="/scratch/1032023.jesse.materianova.be/"
 Entering Link 1 = /opt/sw/arch/manual/gaussian/G16_A03/g16/l1.exe PID=      3849.
  
 Copyright (c) 1988,1990,1992,1993,1995,1998,2003,2009,2016,
            Gaussian, Inc.  All Rights Reserved.
  
 This is part of the Gaussian(R) 16 program.  It is based on
 the Gaussian(R) 09 system (copyright 2009, Gaussian, Inc.),
 the Gaussian(R) 03 system (copyright 2003, Gaussian, Inc.),
 the Gaussian(R) 98 system (copyright 1998, Gaussian, Inc.),
 the Gaussian(R) 94 system (copyright 1995, Gaussian, Inc.),
 the Gaussian 92(TM) system (copyright 1992, Gaussian, Inc.),
 the Gaussian 90(TM) system (copyright 1990, Gaussian, Inc.),
 the Gaussian 88(TM) system (copyright 1988, Gaussian, Inc.),
 the Gaussian 86(TM) system (copyright 1986, Carnegie Mellon
 University), and the Gaussian 82(TM) system (copyright 1983,
 Carnegie Mellon University). Gaussian is a federally registered
 trademark of Gaussian, Inc.
  
 This software contains proprietary and confidential information,
 including trade secrets, belonging to Gaussian, Inc.
  
 This software is provided under written license and may be
 used, copied, transmitted, or stored only in accord with that
 written license.
  
 The following legend is applicable only to US Government
 contracts under FAR:
  
                    RESTRICTED RIGHTS LEGEND
  
 Use, reproduction and disclosure by the US Government is
 subject to restrictions as set forth in subparagraphs (a)
 and (c) of the Commercial Computer Software - Restricted
 Rights clause in FAR 52.227-19.
  
 Gaussian, Inc.
 340 Quinnipiac St., Bldg. 40, Wallingford CT 06492
  
  
 ---------------------------------------------------------------
 Warning -- This program may not be used in any manner that
 competes with the business of Gaussian, Inc. or will provide
 assistance to any competitor of Gaussian, Inc.  The licensee
 of this program is prohibited from giving any competitor of
 Gaussian, Inc. access to this program.  By using this program,
 the user acknowledges that Gaussian, Inc. is engaged in the
 business of creating and licensing software in the field of
 computational chemistry and represents and warrants to the
 licensee that it is not a competitor of Gaussian, Inc. and that
 it will not use this program in any manner prohibited above.
 ---------------------------------------------------------------
  

 Cite this work as:
 Gaussian 16, Revision A.03,
 M. J. Frisch, G. W. Trucks, H. B. Schlegel, G. E. Scuseria, 
 M. A. Robb, J. R. Cheeseman, G. Scalmani, V. Barone, 
 G. A. Petersson, H. Nakatsuji, X. Li, M. Caricato, A. V. Marenich, 
 J. Bloino, B. G. Janesko, R. Gomperts, B. Mennucci, H. P. Hratchian, 
 J. V. Ortiz, A. F. Izmaylov, J. L. Sonnenberg, D. Williams-Young, 
 F. Ding, F. Lipparini, F. Egidi, J. Goings, B. Peng, A. Petrone, 
 T. Henderson, D. Ranasinghe, V. G. Zakrzewski, J. Gao, N. Rega, 
 G. Zheng, W. Liang, M. Hada, M. Ehara, K. Toyota, R. Fukuda, 
 J. Hasegawa, M. Ishida, T. Nakajima, Y. Honda, O. Kitao, H. Nakai, 
 T. Vreven, K. Throssell, J. A. Montgomery, Jr., J. E. Peralta, 
 F. Ogliaro, M. J. Bearpark, J. J. Heyd, E. N. Brothers, K. N. Kudin, 
 V. N. Staroverov, T. A. Keith, R. Kobayashi, J. Normand, 
 K. Raghavachari, A. P. Rendell, J. C. Burant, S. S. Iyengar, 
 J. Tomasi, M. Cossi, J. M. Millam, M. Klene, C. Adamo, R. Cammi, 
 J. W. Ochterski, R. L. Martin, K. Morokuma, O. Farkas, 
 J. B. Foresman, and D. J. Fox, Gaussian, Inc., Wallingford CT, 2016.
 
 ******************************************
 Gaussian 16:  EM64L-G16RevA.03 25-Dec-2016
                11-Jul-2024 
 ******************************************
 %nprocshared=3
 Will use up to    3 processors via shared memory.
 %mem=6GB
 %Chk=APQPRKLAWCIJEK-UHFFFAOYSA-N_conf_4_0.chk
 -------------------------------------------------------
 # opt=CalcFc B3LYP/6-31G** SCRF=(Solvent=water) scf=xqc
 -------------------------------------------------------
 1/10=4,18=20,19=15,26=3,38=1/1,3;
 2/9=110,12=2,17=6,18=5,40=1/2;
 3/5=1,6=6,7=101,11=2,25=1,30=1,70=2201,71=2,72=1,74=-5,140=1/1,2,3;
 4//1;
 5/5=2,8=3,13=1,38=5,53=1/2,8;
 8/6=4,10=90,11=11/1;
 11/6=1,8=1,9=11,15=111,16=1/1,2,10;
 10/6=1,13=1/2;
 6/7=2,8=2,9=2,10=2,28=1/1;
 7/10=1,18=20,25=1/1,2,3,16;
 1/10=4,18=20,19=15,26=3/3(2);
 2/9=110/2;
 99//99;
 2/9=110/2;
 3/5=1,6=6,7=101,11=2,25=1,30=1,70=2205,71=1,72=1,74=-5/1,2,3;
 4/5=5,16=3,69=1/1;
 5/5=2,8=3,13=1,38=5,53=1/2,8;
 7//1,2,3,16;
 1/18=20,19=15,26=3/3(-5);
 2/9=110/2;
 6/7=2,8=2,9=2,10=2,19=2,28=1/1;
 99/9=1/99;
 ----------------------------------
 APQPRKLAWCIJEK-UHFFFAOYSA-N_conf_4
 ----------------------------------
 Symbolic Z-matrix:
 Charge =  0 Multiplicity = 1
 N                    -3.49858   0.84857   0.39255 
 C                    -2.55314   0.3441   -0.60862 
 C                    -1.92132  -0.97517  -0.15553 
 S                    -0.77415  -1.66595  -1.40089 
 S                     0.80155  -0.34187  -1.37646 
 C                     1.78891  -0.95158   0.0371 
 C                     3.0365   -0.08688   0.26035 
 N                     2.71786   1.28457   0.66472 
 H                    -3.90646   1.71981   0.05302 
 H                    -2.99371   1.09124   1.24514 
 H                    -1.7909    1.11162  -0.77729 
 H                    -3.09484   0.1977   -1.54983 
 H                    -1.39114  -0.85677   0.7958 
 H                    -2.70608  -1.72281   0.006 
 H                     2.1011   -1.98006  -0.1723 
 H                     1.17026  -0.95264   0.9409 
 H                     3.64221  -0.54233   1.05155 
 H                     3.65434  -0.06735  -0.64513 
 H                     3.5772    1.83223   0.70055 
 H                     2.14039   1.71357  -0.0607 
 

 GradGradGradGradGradGradGradGradGradGradGradGradGradGradGradGradGradGrad
 Berny optimization.
 Initialization pass.
                           ----------------------------
                           !    Initial Parameters    !
                           ! (Angstroms and Degrees)  !
 --------------------------                            --------------------------
 ! Name  Definition              Value          Derivative Info.                !
 --------------------------------------------------------------------------------
 ! R1    R(1,2)                  1.4665         calculate D2E/DX2 analytically  !
 ! R2    R(1,9)                  1.0202         calculate D2E/DX2 analytically  !
 ! R3    R(1,10)                 1.0201         calculate D2E/DX2 analytically  !
 ! R4    R(2,3)                  1.5313         calculate D2E/DX2 analytically  !
 ! R5    R(2,11)                 1.0948         calculate D2E/DX2 analytically  !
 ! R6    R(2,12)                 1.0958         calculate D2E/DX2 analytically  !
 ! R7    R(3,4)                  1.8287         calculate D2E/DX2 analytically  !
 ! R8    R(3,13)                 1.0955         calculate D2E/DX2 analytically  !
 ! R9    R(3,14)                 1.0959         calculate D2E/DX2 analytically  !
 ! R10   R(4,5)                  2.0583         calculate D2E/DX2 analytically  !
 ! R11   R(5,6)                  1.8289         calculate D2E/DX2 analytically  !
 ! R12   R(6,7)                  1.5343         calculate D2E/DX2 analytically  !
 ! R13   R(6,15)                 1.095          calculate D2E/DX2 analytically  !
 ! R14   R(6,16)                 1.0953         calculate D2E/DX2 analytically  !
 ! R15   R(7,8)                  1.4649         calculate D2E/DX2 analytically  !
 ! R16   R(7,17)                 1.0956         calculate D2E/DX2 analytically  !
 ! R17   R(7,18)                 1.0964         calculate D2E/DX2 analytically  !
 ! R18   R(8,19)                 1.0196         calculate D2E/DX2 analytically  !
 ! R19   R(8,20)                 1.0216         calculate D2E/DX2 analytically  !
 ! A1    A(2,1,9)              108.9244         calculate D2E/DX2 analytically  !
 ! A2    A(2,1,10)             109.4709         calculate D2E/DX2 analytically  !
 ! A3    A(9,1,10)             105.8351         calculate D2E/DX2 analytically  !
 ! A4    A(1,2,3)              111.1221         calculate D2E/DX2 analytically  !
 ! A5    A(1,2,11)             108.2331         calculate D2E/DX2 analytically  !
 ! A6    A(1,2,12)             108.2782         calculate D2E/DX2 analytically  !
 ! A7    A(3,2,11)             111.2421         calculate D2E/DX2 analytically  !
 ! A8    A(3,2,12)             110.0604         calculate D2E/DX2 analytically  !
 ! A9    A(11,2,12)            107.789          calculate D2E/DX2 analytically  !
 ! A10   A(2,3,4)              112.5052         calculate D2E/DX2 analytically  !
 ! A11   A(2,3,13)             111.3161         calculate D2E/DX2 analytically  !
 ! A12   A(2,3,14)             109.6279         calculate D2E/DX2 analytically  !
 ! A13   A(4,3,13)             109.1848         calculate D2E/DX2 analytically  !
 ! A14   A(4,3,14)             106.9716         calculate D2E/DX2 analytically  !
 ! A15   A(13,3,14)            106.9957         calculate D2E/DX2 analytically  !
 ! A16   A(3,4,5)              103.2471         calculate D2E/DX2 analytically  !
 ! A17   A(4,5,6)              102.0055         calculate D2E/DX2 analytically  !
 ! A18   A(5,6,7)              111.3195         calculate D2E/DX2 analytically  !
 ! A19   A(5,6,15)             108.6162         calculate D2E/DX2 analytically  !
 ! A20   A(5,6,16)             109.4619         calculate D2E/DX2 analytically  !
 ! A21   A(7,6,15)             108.9861         calculate D2E/DX2 analytically  !
 ! A22   A(7,6,16)             109.8631         calculate D2E/DX2 analytically  !
 ! A23   A(15,6,16)            108.538          calculate D2E/DX2 analytically  !
 ! A24   A(6,7,8)              113.012          calculate D2E/DX2 analytically  !
 ! A25   A(6,7,17)             108.684          calculate D2E/DX2 analytically  !
 ! A26   A(6,7,18)             110.3714         calculate D2E/DX2 analytically  !
 ! A27   A(8,7,17)             108.0653         calculate D2E/DX2 analytically  !
 ! A28   A(8,7,18)             109.5043         calculate D2E/DX2 analytically  !
 ! A29   A(17,7,18)            106.9951         calculate D2E/DX2 analytically  !
 ! A30   A(7,8,19)             109.2216         calculate D2E/DX2 analytically  !
 ! A31   A(7,8,20)             108.6668         calculate D2E/DX2 analytically  !
 ! A32   A(19,8,20)            106.0088         calculate D2E/DX2 analytically  !
 ! D1    D(9,1,2,3)           -179.3506         calculate D2E/DX2 analytically  !
 ! D2    D(9,1,2,11)            58.2243         calculate D2E/DX2 analytically  !
 ! D3    D(9,1,2,12)           -58.3631         calculate D2E/DX2 analytically  !
 ! D4    D(10,1,2,3)            65.361          calculate D2E/DX2 analytically  !
 ! D5    D(10,1,2,11)          -57.0641         calculate D2E/DX2 analytically  !
 ! D6    D(10,1,2,12)         -173.6515         calculate D2E/DX2 analytically  !
 ! D7    D(1,2,3,4)            178.1885         calculate D2E/DX2 analytically  !
 ! D8    D(1,2,3,13)           -58.8896         calculate D2E/DX2 analytically  !
 ! D9    D(1,2,3,14)            59.293          calculate D2E/DX2 analytically  !
 ! D10   D(11,2,3,4)           -61.1453         calculate D2E/DX2 analytically  !
 ! D11   D(11,2,3,13)           61.7767         calculate D2E/DX2 analytically  !
 ! D12   D(11,2,3,14)          179.9592         calculate D2E/DX2 analytically  !
 ! D13   D(12,2,3,4)            58.2545         calculate D2E/DX2 analytically  !
 ! D14   D(12,2,3,13)         -178.8236         calculate D2E/DX2 analytically  !
 ! D15   D(12,2,3,14)          -60.641          calculate D2E/DX2 analytically  !
 ! D16   D(2,3,4,5)             68.9807         calculate D2E/DX2 analytically  !
 ! D17   D(13,3,4,5)           -55.1286         calculate D2E/DX2 analytically  !
 ! D18   D(14,3,4,5)          -170.5814         calculate D2E/DX2 analytically  !
 ! D19   D(3,4,5,6)             83.4006         calculate D2E/DX2 analytically  !
 ! D20   D(4,5,6,7)           -179.3705         calculate D2E/DX2 analytically  !
 ! D21   D(4,5,6,15)            60.6305         calculate D2E/DX2 analytically  !
 ! D22   D(4,5,6,16)           -57.7192         calculate D2E/DX2 analytically  !
 ! D23   D(5,6,7,8)             65.2981         calculate D2E/DX2 analytically  !
 ! D24   D(5,6,7,17)          -174.7493         calculate D2E/DX2 analytically  !
 ! D25   D(5,6,7,18)           -57.7031         calculate D2E/DX2 analytically  !
 ! D26   D(15,6,7,8)          -174.9219         calculate D2E/DX2 analytically  !
 ! D27   D(15,6,7,17)          -54.9694         calculate D2E/DX2 analytically  !
 ! D28   D(15,6,7,18)           62.0769         calculate D2E/DX2 analytically  !
 ! D29   D(16,6,7,8)           -56.1195         calculate D2E/DX2 analytically  !
 ! D30   D(16,6,7,17)           63.833          calculate D2E/DX2 analytically  !
 ! D31   D(16,6,7,18)         -179.1208         calculate D2E/DX2 analytically  !
 ! D32   D(6,7,8,19)          -174.043          calculate D2E/DX2 analytically  !
 ! D33   D(6,7,8,20)           -58.8244         calculate D2E/DX2 analytically  !
 ! D34   D(17,7,8,19)           65.6503         calculate D2E/DX2 analytically  !
 ! D35   D(17,7,8,20)         -179.131          calculate D2E/DX2 analytically  !
 ! D36   D(18,7,8,19)          -50.5619         calculate D2E/DX2 analytically  !
 ! D37   D(18,7,8,20)           64.6567         calculate D2E/DX2 analytically  !
 --------------------------------------------------------------------------------
 Trust Radius=3.00D-01 FncErr=1.00D-07 GrdErr=1.00D-06 EigMax=2.50D+02 EigMin=1.00D-04
 Number of steps in this run=     98 maximum allowed number of steps=    120.
 GradGradGradGradGradGradGradGradGradGradGradGradGradGradGradGradGradGrad

                          Input orientation:                          
 ---------------------------------------------------------------------
 Center     Atomic      Atomic             Coordinates (Angstroms)
 Number     Number       Type             X           Y           Z
 ---------------------------------------------------------------------
      1          7           0       -3.498582    0.848566    0.392549
      2          6           0       -2.553135    0.344101   -0.608616
      3          6           0       -1.921318   -0.975167   -0.155527
      4         16           0       -0.774148   -1.665949   -1.400887
      5         16           0        0.801553   -0.341871   -1.376459
      6          6           0        1.788913   -0.951584    0.037103
      7          6           0        3.036504   -0.086884    0.260350
      8          7           0        2.717858    1.284574    0.664724
      9          1           0       -3.906459    1.719807    0.053016
     10          1           0       -2.993713    1.091244    1.245144
     11          1           0       -1.790901    1.111621   -0.777294
     12          1           0       -3.094840    0.197704   -1.549825
     13          1           0       -1.391141   -0.856775    0.795802
     14          1           0       -2.706084   -1.722811    0.006001
     15          1           0        2.101097   -1.980057   -0.172303
     16          1           0        1.170262   -0.952642    0.940901
     17          1           0        3.642214   -0.542330    1.051550
     18          1           0        3.654337   -0.067346   -0.645129
     19          1           0        3.577196    1.832234    0.700549
     20          1           0        2.140387    1.713567   -0.060705
 ---------------------------------------------------------------------
                    Distance matrix (angstroms):
                    1          2          3          4          5
     1  N    0.000000
     2  C    1.466522   0.000000
     3  C    2.472681   1.531323   0.000000
     4  S    4.118463   2.798712   1.828688   0.000000
     5  S    4.799759   3.509141   3.050535   2.058303   0.000000
     6  C    5.596829   4.577023   3.715303   3.024470   1.828876
     7  C    6.603022   5.673175   5.053909   4.446822   2.781936
     8  N    6.237653   5.503567   5.225055   5.016617   3.237897
     9  H    1.020150   2.040051   3.353679   4.836171   5.334725
    10  H    1.020149   2.046645   2.716977   4.419283   4.830182
    11  H    2.086602   1.094779   2.181350   3.022838   3.031906
    12  H    2.087929   1.095788   2.167221   2.980100   3.937394
    13  H    2.740822   2.182824   1.095505   2.420927   3.129176
    14  H    2.718354   2.161775   1.095865   2.390595   4.015184
    15  H    6.298934   5.220532   4.146071   3.142470   2.412977
    16  H    5.034197   4.236299   3.280324   3.126262   2.424695
    17  H    7.304782   6.474894   5.709402   5.175058   3.742294
    18  H    7.285597   6.221201   5.670254   4.768457   2.957801
    19  H    7.150462   6.442780   6.232819   5.965528   4.092053
    20  H    5.722905   4.919837   4.871933   4.659585   2.783615
                    6          7          8          9         10
     6  C    0.000000
     7  C    1.534284   0.000000
     8  N    2.501449   1.464906   0.000000
     9  H    6.290775   7.177176   6.666723   0.000000
    10  H    5.339103   6.222645   5.744241   1.627687   0.000000
    11  H    4.211309   5.081039   4.736902   2.352635   2.353174
    12  H    5.262153   6.399305   6.314505   2.354703   2.936068
    13  H    3.270681   4.525867   4.635345   3.676592   2.562210
    14  H    4.560785   5.976476   6.236780   3.646193   3.088221
    15  H    1.095019   2.155522   3.426196   7.059071   6.115483
    16  H    1.095255   2.166921   2.734312   5.805464   4.648517
    17  H    2.152049   1.095588   2.083661   7.943349   6.836780
    18  H    2.174195   1.096354   2.102474   7.800447   7.007998
    19  H    3.374576   2.041847   1.019646   7.512459   6.634945
    20  H    2.690006   2.036597   1.021644   6.047918   5.333995
                   11         12         13         14         15
    11  H    0.000000
    12  H    1.769832   0.000000
    13  H    2.551278   3.084880   0.000000
    14  H    3.079791   2.502020   1.761499   0.000000
    15  H    5.007208   5.799825   3.794037   4.817360   0.000000
    16  H    3.997732   5.071303   2.567300   4.061189   1.777993
    17  H    5.966486   7.259662   5.049647   6.541223   2.437194
    18  H    5.572975   6.814699   5.306253   6.604506   2.508900
    19  H    5.614247   7.228551   5.650152   7.252610   4.180228
    20  H    4.041146   5.650037   4.451061   5.941500   3.695518
                   16         17         18         19         20
    16  H    0.000000
    17  H    2.508215   0.000000
    18  H    3.077315   1.761952   0.000000
    19  H    3.688718   2.401246   2.329207   0.000000
    20  H    3.008825   2.929449   2.409409   1.630341   0.000000
 Stoichiometry    C4H12N2S2
 Framework group  C1[X(C4H12N2S2)]
 Deg. of freedom    54
 Full point group                 C1      NOp   1
 Largest Abelian subgroup         C1      NOp   1
 Largest concise Abelian subgroup C1      NOp   1
                         Standard orientation:                         
 ---------------------------------------------------------------------
 Center     Atomic      Atomic             Coordinates (Angstroms)
 Number     Number       Type             X           Y           Z
 ---------------------------------------------------------------------
      1          7           0       -3.343356    1.703826    0.179403
      2          6           0       -2.497328    0.651187   -0.392325
      3          6           0       -1.886967   -0.223734    0.706275
      4         16           0       -0.865916   -1.582871    0.032257
      5         16           0        0.759367   -0.601967   -0.763288
      6          6           0        1.825133   -0.377980    0.705984
      7          6           0        3.119946    0.363245    0.348110
      8          7           0        2.888426    1.742305   -0.088400
      9          1           0       -3.740140    2.258098   -0.579578
     10          1           0       -2.766187    2.347006    0.721527
     11          1           0       -1.719595    1.127845   -0.997693
     12          1           0       -3.113992    0.039724   -1.060599
     13          1           0       -1.282156    0.371341    1.399257
     14          1           0       -2.686884   -0.686402    1.295334
     15          1           0        2.078793   -1.364639    1.107516
     16          1           0        1.276917    0.179633    1.472867
     17          1           0        3.764730    0.390831    1.233437
     18          1           0        3.667967   -0.180084   -0.430644
     19          1           0        3.769452    2.146764   -0.404446
     20          1           0        2.275671    1.728063   -0.905764
 ---------------------------------------------------------------------
 Rotational constants (GHZ):           1.9984175           0.6883765           0.5660406
 Standard basis: 6-31G(d,p) (6D, 7F)
 There are   188 symmetry adapted cartesian basis functions of A   symmetry.
 There are   188 symmetry adapted basis functions of A   symmetry.
   188 basis functions,   356 primitive gaussians,   188 cartesian basis functions
    41 alpha electrons       41 beta electrons
       nuclear repulsion energy       546.3689277621 Hartrees.
 NAtoms=   20 NActive=   20 NUniq=   20 SFac= 1.00D+00 NAtFMM=   60 NAOKFM=F Big=F
 Integral buffers will be    131072 words long.
 Raffenetti 2 integral format.
 Two-electron integral symmetry is turned on.
 Force inversion solution in PCM.
 ------------------------------------------------------------------------------
 Polarizable Continuum Model (PCM)
 =================================
 Model                : PCM.
 Atomic radii         : UFF (Universal Force Field).
 Polarization charges : Total charges.
 Charge compensation  : None.
 Solution method      : Matrix inversion.
 Cavity type          : Scaled VdW (van der Waals Surface) (Alpha=1.100).
 Cavity algorithm     : GePol (No added spheres)
                        Default sphere list used, NSphG=   20.
                        Lebedev-Laikov grids with approx.  5.0 points / Ang**2.
                        Smoothing algorithm: York/Karplus (Gamma=1.0000).
                        Polarization charges: spherical gaussians, with
                                              point-specific exponents (IZeta= 3).
                        Self-potential: point-specific (ISelfS= 7).
                        Self-field    : sphere-specific E.n sum rule (ISelfD= 2).
 1st derivatives      : Analytical E(r).r(x)/FMM algorithm (CHGder, D1EAlg=3).
                        Cavity 1st derivative terms included.
 2nd derivatives      : Analytical E(r).r(xy)/FMM algorithm (CHGder, D2EAlg=3).
                        Cavity 2nd derivative terms included.
 Solvent              : Water, Eps=  78.355300 Eps(inf)=   1.777849
 ------------------------------------------------------------------------------
 Spheres list:
 ISph  on   Nord     Re0    Alpha      Xe            Ye            Ze
    1   N      1    1.8300  1.100     -3.343356      1.703826      0.179403
    2   C      2    1.9255  1.100     -2.497328      0.651187     -0.392325
    3   C      3    1.9255  1.100     -1.886967     -0.223734      0.706275
    4   S      4    2.0175  1.100     -0.865916     -1.582871      0.032257
    5   S      5    2.0175  1.100      0.759367     -0.601967     -0.763288
    6   C      6    1.9255  1.100      1.825133     -0.377980      0.705984
    7   C      7    1.9255  1.100      3.119946      0.363245      0.348110
    8   N      8    1.8300  1.100      2.888426      1.742305     -0.088400
    9   H      9    1.4430  1.100     -3.740140      2.258098     -0.579578
   10   H     10    1.4430  1.100     -2.766187      2.347006      0.721527
   11   H     11    1.4430  1.100     -1.719595      1.127845     -0.997693
   12   H     12    1.4430  1.100     -3.113992      0.039724     -1.060599
   13   H     13    1.4430  1.100     -1.282156      0.371341      1.399257
   14   H     14    1.4430  1.100     -2.686884     -0.686402      1.295334
   15   H     15    1.4430  1.100      2.078793     -1.364639      1.107516
   16   H     16    1.4430  1.100      1.276917      0.179633      1.472867
   17   H     17    1.4430  1.100      3.764730      0.390831      1.233437
   18   H     18    1.4430  1.100      3.667967     -0.180084     -0.430644
   19   H     19    1.4430  1.100      3.769452      2.146764     -0.404446
   20   H     20    1.4430  1.100      2.275671      1.728063     -0.905764
 ------------------------------------------------------------------------------
 One-electron integrals computed using PRISM.
 NBasis=   188 RedAO= T EigKep=  4.93D-03  NBF=   188
 NBsUse=   188 1.00D-06 EigRej= -1.00D+00 NBFU=   188
 ExpMin= 1.17D-01 ExpMax= 2.19D+04 ExpMxC= 3.30D+03 IAcc=3 IRadAn=         5 AccDes= 0.00D+00
 Harris functional with IExCor=  402 and IRadAn=       5 diagonalized for initial guess.
 HarFok:  IExCor=  402 AccDes= 0.00D+00 IRadAn=         5 IDoV= 1 UseB2=F ITyADJ=14
 ICtDFT=  3500011 ScaDFX=  1.000000  1.000000  1.000000  1.000000
 FoFCou: FMM=F IPFlag=           0 FMFlag=      100000 FMFlg1=           0
         NFxFlg=           0 DoJE=T BraDBF=F KetDBF=T FulRan=T
         wScrn=  0.000000 ICntrl=       500 IOpCl=  0 I1Cent=   200000004 NGrid=           0
         NMat0=    1 NMatS0=      1 NMatT0=    0 NMatD0=    1 NMtDS0=    0 NMtDT0=    0
 Petite list used in FoFCou.
 Keep R1 ints in memory in canonical form, NReq=161201114.
 Requested convergence on RMS density matrix=1.00D-08 within  32 cycles.
 Requested convergence on MAX density matrix=1.00D-06.
 Requested convergence on             energy=1.00D-06.
 No special actions if energy rises.
 Inv3:  Mode=1 IEnd=     9103692.
 Iteration    1 A*A^-1 deviation from unit magnitude is 6.44D-15 for      7.
 Iteration    1 A*A^-1 deviation from orthogonality  is 4.59D-15 for   1304    751.
 Iteration    1 A^-1*A deviation from unit magnitude is 6.55D-15 for    218.
 Iteration    1 A^-1*A deviation from orthogonality  is 2.16D-15 for   1252    813.
 Error on total polarization charges =  0.01128
 SCF Done:  E(RB3LYP) =  -1065.54652160     A.U. after   12 cycles
            NFock= 12  Conv=0.32D-08     -V/T= 2.0048
 QCSCF skips out because SCF is already converged.
 DoSCS=F DFT=T ScalE2(SS,OS)=  1.000000  1.000000
 Range of M.O.s used for correlation:     1   188
 NBasis=   188 NAE=    41 NBE=    41 NFC=     0 NFV=     0
 NROrb=    188 NOA=    41 NOB=    41 NVA=   147 NVB=   147
 Symmetrizing basis deriv contribution to polar:
 IMax=3 JMax=2 DiffMx= 0.00D+00
 G2DrvN: will do    21 centers at a time, making    1 passes.
 Calling FoFCou, ICntrl=  3107 FMM=F I1Cent=   0 AccDes= 0.00D+00.
 NEqPCM:  Using equilibrium solvation (IEInf=0, Eps=  78.3553, EpsInf=   1.7778)
 G2PCM: DoFxE=T DoFxN=T DoGrad=T DoDP/DQ/DG/TGxP=FFFF NFrqRd=   0 IEInf=0 SqF1=F DoCFld=F IF1Alg=4.
 End of G2Drv F.D. properties file   721 does not exist.
 End of G2Drv F.D. properties file   722 does not exist.
 End of G2Drv F.D. properties file   788 does not exist.
          IDoAtm=11111111111111111111
 NEqPCM:  Using equilibrium solvation (IEInf=0, Eps=  78.3553, EpsInf=   1.7778)
          Differentiating once with respect to nuclear coordinates.
 Keep R1 ints in memory in canonical form, NReq=165984063.
          There are    63 degrees of freedom in the 1st order CPHF.  IDoFFX=6 NUNeed=     0.
     57 vectors produced by pass  0 Test12= 9.57D-15 1.59D-09 XBig12= 7.30D-02 7.88D-02.
 AX will form    57 AO Fock derivatives at one time.
     57 vectors produced by pass  1 Test12= 9.57D-15 1.59D-09 XBig12= 5.08D-03 1.95D-02.
     57 vectors produced by pass  2 Test12= 9.57D-15 1.59D-09 XBig12= 5.64D-05 1.48D-03.
     57 vectors produced by pass  3 Test12= 9.57D-15 1.59D-09 XBig12= 2.66D-07 6.54D-05.
     57 vectors produced by pass  4 Test12= 9.57D-15 1.59D-09 XBig12= 3.83D-10 2.54D-06.
     28 vectors produced by pass  5 Test12= 9.57D-15 1.59D-09 XBig12= 3.28D-13 5.91D-08.
      1 vectors produced by pass  6 Test12= 9.57D-15 1.59D-09 XBig12= 2.53D-16 1.66D-09.
 InvSVY:  IOpt=1 It=  1 EMax= 6.66D-16
 Solved reduced A of dimension   314 with    63 vectors.
 End of Minotr F.D. properties file   721 does not exist.
 End of Minotr F.D. properties file   722 does not exist.
 End of Minotr F.D. properties file   788 does not exist.

 **********************************************************************

            Population analysis using the SCF density.

 **********************************************************************

 Orbital symmetries:
       Occupied  (A) (A) (A) (A) (A) (A) (A) (A) (A) (A) (A) (A)
                 (A) (A) (A) (A) (A) (A) (A) (A) (A) (A) (A) (A)
                 (A) (A) (A) (A) (A) (A) (A) (A) (A) (A) (A) (A)
                 (A) (A) (A) (A) (A)
       Virtual   (A) (A) (A) (A) (A) (A) (A) (A) (A) (A) (A) (A)
                 (A) (A) (A) (A) (A) (A) (A) (A) (A) (A) (A) (A)
                 (A) (A) (A) (A) (A) (A) (A) (A) (A) (A) (A) (A)
                 (A) (A) (A) (A) (A) (A) (A) (A) (A) (A) (A) (A)
                 (A) (A) (A) (A) (A) (A) (A) (A) (A) (A) (A) (A)
                 (A) (A) (A) (A) (A) (A) (A) (A) (A) (A) (A) (A)
                 (A) (A) (A) (A) (A) (A) (A) (A) (A) (A) (A) (A)
                 (A) (A) (A) (A) (A) (A) (A) (A) (A) (A) (A) (A)
                 (A) (A) (A) (A) (A) (A) (A) (A) (A) (A) (A) (A)
                 (A) (A) (A) (A) (A) (A) (A) (A) (A) (A) (A) (A)
                 (A) (A) (A) (A) (A) (A) (A) (A) (A) (A) (A) (A)
                 (A) (A) (A) (A) (A) (A) (A) (A) (A) (A) (A) (A)
                 (A) (A) (A)
 The electronic state is 1-A.
 Alpha  occ. eigenvalues --  -88.89691 -88.89547 -14.31290 -14.31108 -10.21762
 Alpha  occ. eigenvalues --  -10.21741 -10.21658 -10.21016  -7.95875  -7.95735
 Alpha  occ. eigenvalues --   -5.92436  -5.92293  -5.91977  -5.91841  -5.91292
 Alpha  occ. eigenvalues --   -5.91156  -0.88464  -0.88072  -0.82523  -0.76651
 Alpha  occ. eigenvalues --   -0.70898  -0.64528  -0.60445  -0.57031  -0.49535
 Alpha  occ. eigenvalues --   -0.48636  -0.47246  -0.46083  -0.43933  -0.42333
 Alpha  occ. eigenvalues --   -0.39699  -0.39640  -0.38372  -0.36862  -0.36088
 Alpha  occ. eigenvalues --   -0.34604  -0.32404  -0.25200  -0.24545  -0.23826
 Alpha  occ. eigenvalues --   -0.22975
 Alpha virt. eigenvalues --   -0.02642   0.04037   0.04582   0.08982   0.10018
 Alpha virt. eigenvalues --    0.10211   0.12961   0.13064   0.15337   0.16422
 Alpha virt. eigenvalues --    0.16716   0.17670   0.18143   0.19189   0.19574
 Alpha virt. eigenvalues --    0.21799   0.22496   0.24189   0.24268   0.33581
 Alpha virt. eigenvalues --    0.34670   0.36745   0.37759   0.40315   0.42301
 Alpha virt. eigenvalues --    0.42898   0.46907   0.50365   0.52392   0.54089
 Alpha virt. eigenvalues --    0.56176   0.57008   0.58437   0.60098   0.61647
 Alpha virt. eigenvalues --    0.63204   0.66062   0.66995   0.68792   0.71137
 Alpha virt. eigenvalues --    0.72035   0.74590   0.76817   0.77784   0.81711
 Alpha virt. eigenvalues --    0.82294   0.82863   0.84634   0.85685   0.86330
 Alpha virt. eigenvalues --    0.87245   0.87966   0.88498   0.89522   0.90614
 Alpha virt. eigenvalues --    0.91213   0.92540   0.93095   0.93494   0.95324
 Alpha virt. eigenvalues --    0.96186   0.98999   0.99597   1.00598   1.03880
 Alpha virt. eigenvalues --    1.08221   1.10440   1.18465   1.23397   1.31295
 Alpha virt. eigenvalues --    1.32174   1.34728   1.36720   1.38044   1.41908
 Alpha virt. eigenvalues --    1.55082   1.58496   1.62470   1.63273   1.66477
 Alpha virt. eigenvalues --    1.73655   1.78363   1.80357   1.85136   1.85872
 Alpha virt. eigenvalues --    1.87459   1.87625   1.98945   1.99358   2.02922
 Alpha virt. eigenvalues --    2.05735   2.06242   2.08410   2.10116   2.11256
 Alpha virt. eigenvalues --    2.13309   2.17469   2.21427   2.23066   2.23752
 Alpha virt. eigenvalues --    2.25852   2.29671   2.30267   2.31739   2.33856
 Alpha virt. eigenvalues --    2.37994   2.39937   2.41146   2.44257   2.52697
 Alpha virt. eigenvalues --    2.54010   2.54999   2.57859   2.61470   2.62587
 Alpha virt. eigenvalues --    2.65980   2.67983   2.77993   2.79358   2.80749
 Alpha virt. eigenvalues --    2.82162   2.82532   2.85238   2.91042   2.92018
 Alpha virt. eigenvalues --    2.96863   2.97067   3.21696   3.24975   3.28817
 Alpha virt. eigenvalues --    3.29035   3.30918   3.31245   3.38095   3.39617
 Alpha virt. eigenvalues --    3.49139   3.49899   3.54379   3.54876   3.84654
 Alpha virt. eigenvalues --    3.95209   3.97134   3.99312   4.32094   4.36851
 Alpha virt. eigenvalues --    4.57639   4.60205
          Condensed to atoms (all electrons):
               1          2          3          4          5          6
     1  N    6.821812   0.280090  -0.049033   0.004811  -0.000155   0.000001
     2  C    0.280090   4.830052   0.346884  -0.055976  -0.009823  -0.000130
     3  C   -0.049033   0.346884   5.213835   0.210913  -0.035597  -0.002097
     4  S    0.004811  -0.055976   0.210913  15.820830   0.136785  -0.034209
     5  S   -0.000155  -0.009823  -0.035597   0.136785  15.846715   0.204589
     6  C    0.000001  -0.000130  -0.002097  -0.034209   0.204589   5.211944
     7  C   -0.000000   0.000003   0.000028   0.004248  -0.031553   0.336970
     8  N    0.000000  -0.000000  -0.000001   0.000002  -0.002798  -0.057296
     9  H    0.341499  -0.032971   0.005544  -0.000369   0.000032  -0.000000
    10  H    0.340423  -0.037733  -0.005109  -0.000056   0.000050   0.000000
    11  H   -0.052111   0.398525  -0.048871  -0.004239   0.010116  -0.000072
    12  H   -0.041785   0.391689  -0.038105   0.003078  -0.000425   0.000007
    13  H   -0.002073  -0.037140   0.381675  -0.044292  -0.008187   0.002239
    14  H    0.004484  -0.033027   0.363740  -0.025053   0.004181   0.000020
    15  H    0.000000  -0.000001  -0.000377   0.000804  -0.053318   0.377680
    16  H   -0.000002   0.000124   0.002101  -0.005705  -0.054133   0.370589
    17  H    0.000000   0.000000  -0.000000  -0.000202   0.004360  -0.025379
    18  H   -0.000000   0.000000   0.000001  -0.000039  -0.002975  -0.049414
    19  H   -0.000000  -0.000000   0.000000   0.000005  -0.000020   0.005707
    20  H   -0.000000   0.000003  -0.000017  -0.000141   0.009872  -0.007674
               7          8          9         10         11         12
     1  N   -0.000000   0.000000   0.341499   0.340423  -0.052111  -0.041785
     2  C    0.000003  -0.000000  -0.032971  -0.037733   0.398525   0.391689
     3  C    0.000028  -0.000001   0.005544  -0.005109  -0.048871  -0.038105
     4  S    0.004248   0.000002  -0.000369  -0.000056  -0.004239   0.003078
     5  S   -0.031553  -0.002798   0.000032   0.000050   0.010116  -0.000425
     6  C    0.336970  -0.057296  -0.000000   0.000000  -0.000072   0.000007
     7  C    4.812491   0.298667   0.000000  -0.000000  -0.000002  -0.000000
     8  N    0.298667   6.809235  -0.000000   0.000000  -0.000000   0.000000
     9  H    0.000000  -0.000000   0.467113  -0.031647  -0.002592  -0.004103
    10  H   -0.000000   0.000000  -0.031647   0.476035  -0.005330   0.006339
    11  H   -0.000002  -0.000000  -0.002592  -0.005330   0.639124  -0.042926
    12  H   -0.000000   0.000000  -0.004103   0.006339  -0.042926   0.610364
    13  H   -0.000164   0.000006  -0.000045   0.004476  -0.005709   0.005098
    14  H    0.000000  -0.000000  -0.000075  -0.000573   0.005588  -0.005781
    15  H   -0.027723   0.003550   0.000000   0.000000   0.000004   0.000000
    16  H   -0.030971   0.004319  -0.000000  -0.000007  -0.000010  -0.000000
    17  H    0.388241  -0.043861  -0.000000  -0.000000  -0.000000   0.000000
    18  H    0.387033  -0.053323  -0.000000  -0.000000   0.000000  -0.000000
    19  H   -0.032492   0.341589   0.000000   0.000000  -0.000000  -0.000000
    20  H   -0.040454   0.340859   0.000000   0.000000   0.000022   0.000000
              13         14         15         16         17         18
     1  N   -0.002073   0.004484   0.000000  -0.000002   0.000000  -0.000000
     2  C   -0.037140  -0.033027  -0.000001   0.000124   0.000000   0.000000
     3  C    0.381675   0.363740  -0.000377   0.002101  -0.000000   0.000001
     4  S   -0.044292  -0.025053   0.000804  -0.005705  -0.000202  -0.000039
     5  S   -0.008187   0.004181  -0.053318  -0.054133   0.004360  -0.002975
     6  C    0.002239   0.000020   0.377680   0.370589  -0.025379  -0.049414
     7  C   -0.000164   0.000000  -0.027723  -0.030971   0.388241   0.387033
     8  N    0.000006  -0.000000   0.003550   0.004319  -0.043861  -0.053323
     9  H   -0.000045  -0.000075   0.000000  -0.000000  -0.000000  -0.000000
    10  H    0.004476  -0.000573   0.000000  -0.000007  -0.000000  -0.000000
    11  H   -0.005709   0.005588   0.000004  -0.000010  -0.000000   0.000000
    12  H    0.005098  -0.005781   0.000000  -0.000000   0.000000  -0.000000
    13  H    0.576743  -0.029187   0.000024   0.003400   0.000007   0.000000
    14  H   -0.029187   0.556962   0.000006  -0.000157  -0.000000  -0.000000
    15  H    0.000024   0.000006   0.581198  -0.030501  -0.004651  -0.000319
    16  H    0.003400  -0.000157  -0.030501   0.589677  -0.005867   0.006584
    17  H    0.000007  -0.000000  -0.004651  -0.005867   0.602914  -0.045472
    18  H    0.000000  -0.000000  -0.000319   0.006584  -0.045472   0.661100
    19  H   -0.000000   0.000000  -0.000186  -0.000117  -0.002504  -0.004832
    20  H    0.000016   0.000000   0.000008  -0.000618   0.006245  -0.004213
              19         20
     1  N   -0.000000  -0.000000
     2  C   -0.000000   0.000003
     3  C    0.000000  -0.000017
     4  S    0.000005  -0.000141
     5  S   -0.000020   0.009872
     6  C    0.005707  -0.007674
     7  C   -0.032492  -0.040454
     8  N    0.341589   0.340859
     9  H    0.000000   0.000000
    10  H    0.000000   0.000000
    11  H   -0.000000   0.000022
    12  H   -0.000000   0.000000
    13  H   -0.000000   0.000016
    14  H    0.000000   0.000000
    15  H   -0.000186   0.000008
    16  H   -0.000117  -0.000618
    17  H   -0.002504   0.006245
    18  H   -0.004832  -0.004213
    19  H    0.463672  -0.030433
    20  H   -0.030433   0.469332
 Mulliken charges:
               1
     1  N   -0.647959
     2  C   -0.040568
     3  C   -0.345514
     4  S   -0.011193
     5  S   -0.017715
     6  C   -0.333475
     7  C   -0.064324
     8  N   -0.640950
     9  H    0.257615
    10  H    0.253132
    11  H    0.108480
    12  H    0.116551
    13  H    0.153112
    14  H    0.158871
    15  H    0.153802
    16  H    0.151294
    17  H    0.126168
    18  H    0.105869
    19  H    0.259613
    20  H    0.257192
 Sum of Mulliken charges =  -0.00000
 Mulliken charges with hydrogens summed into heavy atoms:
               1
     1  N   -0.137212
     2  C    0.184463
     3  C   -0.033531
     4  S   -0.011193
     5  S   -0.017715
     6  C   -0.028379
     7  C    0.167713
     8  N   -0.124146
 APT charges:
               1
     1  N   -1.251617
     2  C   -0.477924
     3  C   -0.803558
     4  S   -0.034044
     5  S   -0.052978
     6  C   -0.706085
     7  C   -0.957602
     8  N   -1.199555
     9  H    0.772221
    10  H    0.310524
    11  H    0.182457
    12  H    0.493478
    13  H    0.216996
    14  H    0.600352
    15  H    0.479488
    16  H    0.233901
    17  H    0.630836
    18  H    0.440633
    19  H    0.965005
    20  H    0.157471
 Sum of APT charges =  -0.00000
 APT charges with hydrogens summed into heavy atoms:
               1
     1  N   -0.168871
     2  C    0.198011
     3  C    0.013790
     4  S   -0.034044
     5  S   -0.052978
     6  C    0.007304
     7  C    0.113867
     8  N   -0.077079
 Electronic spatial extent (au):  <R**2>=           2052.7606
 Charge=             -0.0000 electrons
 Dipole moment (field-independent basis, Debye):
    X=              1.9250    Y=              1.9471    Z=              0.0518  Tot=              2.7385
 Quadrupole moment (field-independent basis, Debye-Ang):
   XX=            -59.4938   YY=            -66.5192   ZZ=            -64.1757
   XY=             -2.0827   XZ=              1.6417   YZ=             -5.3747
 Traceless Quadrupole moment (field-independent basis, Debye-Ang):
   XX=              3.9024   YY=             -3.1230   ZZ=             -0.7795
   XY=             -2.0827   XZ=              1.6417   YZ=             -5.3747
 Octapole moment (field-independent basis, Debye-Ang**2):
  XXX=             68.4585  YYY=             22.6143  ZZZ=              2.1093  XYY=            -11.1163
  XXY=              9.8408  XXZ=            -21.0768  XZZ=              0.0524  YZZ=              7.1914
  YYZ=             -6.6338  XYZ=             -1.7986
 Hexadecapole moment (field-independent basis, Debye-Ang**3):
 XXXX=          -1857.2929 YYYY=           -586.0504 ZZZZ=           -212.6337 XXXY=             74.9061
 XXXZ=             54.0669 YYYX=            -55.0157 YYYZ=            -19.9755 ZZZX=              1.2075
 ZZZY=             -5.1883 XXYY=           -367.7059 XXZZ=           -335.3192 YYZZ=           -133.0319
 XXYZ=            -64.2773 YYXZ=             -9.8394 ZZXY=             -0.0858
 N-N= 5.463689277621D+02 E-N=-3.609947341725D+03  KE= 1.060449325973D+03
  Exact polarizability:   0.000   0.000   0.000   0.000   0.000   0.000
 Approx polarizability: 156.210  10.829 123.687  -6.218  -1.307 117.219
 D2PCM: PCM CHGder 2nd derivatives, FixD1E=F FixD2E=F DoIter=F DoCFld=F I1PDM=0
 Calling FoFJK, ICntrl=    100147 FMM=F ISym2X=0 I1Cent= 0 IOpClX= 0 NMat=1 NMatS=1 NMatT=0.
 ***** Axes restored to original set *****
 -------------------------------------------------------------------
 Center     Atomic                   Forces (Hartrees/Bohr)
 Number     Number              X              Y              Z
 -------------------------------------------------------------------
      1        7          -0.009321136   -0.004967114    0.006120367
      2        6          -0.001361595    0.009423272    0.003951843
      3        6          -0.006407172    0.008621340    0.002600032
      4       16          -0.004625829   -0.008320656   -0.002063617
      5       16           0.003654107    0.006116181   -0.004970691
      6        6           0.010721821   -0.003657986    0.009733559
      7        6           0.003339640    0.006634613   -0.004839202
      8        7          -0.008744020    0.004164487    0.004804565
      9        1           0.001412777   -0.001820006    0.001012495
     10        1          -0.000136019    0.000854033   -0.001965211
     11        1           0.008416317   -0.004949665   -0.006937340
     12        1           0.000936098   -0.001449837    0.000281849
     13        1           0.000165180    0.000134776   -0.000956683
     14        1           0.001675767   -0.001773351   -0.002465117
     15        1          -0.001146825    0.001231965   -0.000284305
     16        1          -0.000029418    0.001257202   -0.001529519
     17        1          -0.001377381   -0.002383497   -0.000145573
     18        1           0.001523589   -0.008609268   -0.004064557
     19        1          -0.001745374   -0.001434377   -0.000548208
     20        1           0.003049473    0.000927889    0.002265313
 -------------------------------------------------------------------
 Cartesian Forces:  Max     0.010721821 RMS     0.004591440
 FormGI is forming the generalized inverse of G from B-inverse, IUseBI=4.

 GradGradGradGradGradGradGradGradGradGradGradGradGradGradGradGradGradGrad
 Berny optimization.
 Internal  Forces:  Max     0.011082106 RMS     0.003432491
 Search for a local minimum.
 Step number   1 out of a maximum of   98
 All quantities printed in internal units (Hartrees-Bohrs-Radians)
 Mixed Optimization -- RFO/linear search
 Second derivative matrix not updated -- analytic derivatives used.
 ITU=  0
     Eigenvalues ---    0.00143   0.00194   0.00257   0.00281   0.00364
     Eigenvalues ---    0.00545   0.02440   0.03316   0.03353   0.04318
     Eigenvalues ---    0.04428   0.04444   0.04476   0.04549   0.04643
     Eigenvalues ---    0.05086   0.05262   0.08229   0.08245   0.08731
     Eigenvalues ---    0.08981   0.10591   0.11214   0.12553   0.13561
     Eigenvalues ---    0.14648   0.14815   0.15293   0.16665   0.16896
     Eigenvalues ---    0.17591   0.17892   0.19600   0.20159   0.23239
     Eigenvalues ---    0.24550   0.26889   0.28222   0.28991   0.29941
     Eigenvalues ---    0.32134   0.32743   0.33107   0.33177   0.33479
     Eigenvalues ---    0.33524   0.33984   0.34009   0.36776   0.37357
     Eigenvalues ---    0.43366   0.43747   0.44019   0.44163
 RFO step:  Lambda=-6.82260605D-03 EMin= 1.42967566D-03
 Linear search not attempted -- first point.
 Iteration  1 RMS(Cart)=  0.10793579 RMS(Int)=  0.00235804
 Iteration  2 RMS(Cart)=  0.00406789 RMS(Int)=  0.00029752
 Iteration  3 RMS(Cart)=  0.00001213 RMS(Int)=  0.00029745
 Iteration  4 RMS(Cart)=  0.00000000 RMS(Int)=  0.00029745
 Variable       Old X    -DE/DX   Delta X   Delta X   Delta X     New X
                                 (Linear)    (Quad)   (Total)
    R1        2.77132   0.00667   0.00000   0.00619   0.00619   2.77752
    R2        1.92780  -0.00246   0.00000  -0.00371  -0.00371   1.92409
    R3        1.92780  -0.00151   0.00000  -0.00185  -0.00185   1.92595
    R4        2.89378  -0.00322   0.00000  -0.00853  -0.00853   2.88525
    R5        2.06883   0.00346   0.00000   0.01185   0.01185   2.08068
    R6        2.07074  -0.00051   0.00000  -0.00081  -0.00081   2.06993
    R7        3.45572   0.00556   0.00000   0.02511   0.02511   3.48083
    R8        2.07021  -0.00073   0.00000  -0.00267  -0.00267   2.06754
    R9        2.07089  -0.00035   0.00000  -0.00077  -0.00077   2.07011
   R10        3.88963   0.00982   0.00000   0.04565   0.04565   3.93528
   R11        3.45607   0.00780   0.00000   0.04672   0.04672   3.50280
   R12        2.89938  -0.00397   0.00000  -0.01094  -0.01094   2.88844
   R13        2.06929  -0.00143   0.00000  -0.00556  -0.00556   2.06372
   R14        2.06973  -0.00125   0.00000  -0.00506  -0.00506   2.06467
   R15        2.76827   0.00685   0.00000   0.00668   0.00668   2.77495
   R16        2.07036   0.00012   0.00000   0.00145   0.00145   2.07181
   R17        2.07181   0.00406   0.00000   0.01161   0.01161   2.08342
   R18        1.92685  -0.00226   0.00000  -0.00329  -0.00329   1.92356
   R19        1.93063  -0.00294   0.00000  -0.00586  -0.00586   1.92477
    A1        1.90109  -0.00023   0.00000  -0.00219  -0.00222   1.89887
    A2        1.91063  -0.00107   0.00000  -0.00891  -0.00894   1.90169
    A3        1.84717  -0.00028   0.00000  -0.01063  -0.01071   1.83647
    A4        1.93945  -0.00689   0.00000  -0.02745  -0.02732   1.91213
    A5        1.88902   0.01108   0.00000   0.09075   0.09066   1.97968
    A6        1.88981   0.00124   0.00000   0.00106   0.00023   1.89004
    A7        1.94154  -0.00470   0.00000  -0.03592  -0.03573   1.90581
    A8        1.92092   0.00081   0.00000  -0.01543  -0.01589   1.90502
    A9        1.88127  -0.00109   0.00000  -0.01016  -0.01166   1.86961
   A10        1.96359   0.00656   0.00000   0.02721   0.02724   1.99082
   A11        1.94283  -0.00117   0.00000   0.00314   0.00307   1.94591
   A12        1.91337  -0.00010   0.00000   0.01306   0.01323   1.92660
   A13        1.90563  -0.00214   0.00000  -0.01033  -0.01055   1.89508
   A14        1.86701  -0.00455   0.00000  -0.04647  -0.04652   1.82049
   A15        1.86743   0.00101   0.00000   0.01075   0.01040   1.87783
   A16        1.80200   0.00718   0.00000   0.02255   0.02255   1.82455
   A17        1.78033   0.00606   0.00000   0.02000   0.02000   1.80033
   A18        1.94289  -0.00097   0.00000  -0.01639  -0.01640   1.92649
   A19        1.89571  -0.00052   0.00000  -0.01231  -0.01217   1.88354
   A20        1.91047  -0.00005   0.00000  -0.01260  -0.01266   1.89781
   A21        1.90217   0.00142   0.00000   0.02322   0.02308   1.92525
   A22        1.91747  -0.00006   0.00000   0.00417   0.00389   1.92136
   A23        1.89435   0.00021   0.00000   0.01470   0.01439   1.90874
   A24        1.97243  -0.00522   0.00000  -0.02128  -0.02148   1.95096
   A25        1.89689  -0.00095   0.00000  -0.03029  -0.03084   1.86605
   A26        1.92634  -0.00332   0.00000  -0.01736  -0.01746   1.90888
   A27        1.88610   0.00146   0.00000  -0.00098  -0.00194   1.88415
   A28        1.91121   0.00895   0.00000   0.07625   0.07623   1.98744
   A29        1.86742  -0.00070   0.00000  -0.00647  -0.00744   1.85998
   A30        1.90628  -0.00133   0.00000  -0.00693  -0.00692   1.89936
   A31        1.89659   0.00302   0.00000   0.01122   0.01123   1.90782
   A32        1.85020  -0.00128   0.00000  -0.01194  -0.01191   1.83829
    D1       -3.13026  -0.00039   0.00000   0.03009   0.02994  -3.10031
    D2        1.01621   0.00247   0.00000   0.03179   0.03233   1.04853
    D3       -1.01863  -0.00283   0.00000  -0.00526  -0.00559  -1.02422
    D4        1.14076   0.00066   0.00000   0.04884   0.04866   1.18942
    D5       -0.99596   0.00352   0.00000   0.05054   0.05104  -0.94492
    D6       -3.03079  -0.00178   0.00000   0.01350   0.01312  -3.01767
    D7        3.10998  -0.00364   0.00000  -0.03209  -0.03199   3.07799
    D8       -1.02782  -0.00250   0.00000  -0.02330  -0.02315  -1.05097
    D9        1.03486  -0.00203   0.00000   0.00019   0.00032   1.03518
   D10       -1.06719   0.00254   0.00000   0.04005   0.03982  -1.02737
   D11        1.07821   0.00368   0.00000   0.04884   0.04866   1.12686
   D12        3.14088   0.00415   0.00000   0.07233   0.07213  -3.07017
   D13        1.01673  -0.00129   0.00000  -0.00562  -0.00557   1.01117
   D14       -3.12106  -0.00015   0.00000   0.00317   0.00327  -3.11779
   D15       -1.05839   0.00032   0.00000   0.02667   0.02675  -1.03164
   D16        1.20394   0.00117   0.00000   0.03756   0.03771   1.24165
   D17       -0.96218  -0.00035   0.00000   0.02204   0.02232  -0.93985
   D18       -2.97721   0.00196   0.00000   0.03930   0.03886  -2.93834
   D19        1.45561   0.00308   0.00000   0.08103   0.08103   1.53664
   D20       -3.13061   0.00079   0.00000   0.03172   0.03169  -3.09892
   D21        1.05820  -0.00004   0.00000   0.02101   0.02095   1.07915
   D22       -1.00739   0.00004   0.00000   0.01770   0.01779  -0.98960
   D23        1.13967   0.00271   0.00000   0.06038   0.06017   1.19984
   D24       -3.04995   0.00058   0.00000   0.02489   0.02500  -3.02495
   D25       -1.00711  -0.00272   0.00000  -0.01067  -0.01042  -1.01753
   D26       -3.05296   0.00238   0.00000   0.04998   0.04959  -3.00337
   D27       -0.95940   0.00025   0.00000   0.01449   0.01442  -0.94498
   D28        1.08345  -0.00304   0.00000  -0.02107  -0.02100   1.06244
   D29       -0.97947   0.00346   0.00000   0.08429   0.08411  -0.89536
   D30        1.11410   0.00132   0.00000   0.04880   0.04894   1.16303
   D31       -3.12625  -0.00197   0.00000   0.01324   0.01352  -3.11273
   D32       -3.03762  -0.00084   0.00000  -0.06599  -0.06601  -3.10363
   D33       -1.02668  -0.00143   0.00000  -0.07778  -0.07782  -1.10450
   D34        1.14581   0.00262   0.00000  -0.01401  -0.01380   1.13202
   D35       -3.12643   0.00203   0.00000  -0.02581  -0.02561   3.13115
   D36       -0.88247  -0.00217   0.00000  -0.04680  -0.04697  -0.92944
   D37        1.12847  -0.00276   0.00000  -0.05859  -0.05878   1.06969
         Item               Value     Threshold  Converged?
 Maximum Force            0.011082     0.000450     NO 
 RMS     Force            0.003432     0.000300     NO 
 Maximum Displacement     0.348203     0.001800     NO 
 RMS     Displacement     0.107813     0.001200     NO 
 Predicted change in Energy=-3.732767D-03
 GradGradGradGradGradGradGradGradGradGradGradGradGradGradGradGradGradGrad

                          Input orientation:                          
 ---------------------------------------------------------------------
 Center     Atomic      Atomic             Coordinates (Angstroms)
 Number     Number       Type             X           Y           Z
 ---------------------------------------------------------------------
      1          7           0       -3.622531    0.835876    0.365523
      2          6           0       -2.641187    0.372719   -0.625818
      3          6           0       -1.969842   -0.903044   -0.122960
      4         16           0       -0.788180   -1.652343   -1.320915
      5         16           0        0.835307   -0.348272   -1.339017
      6          6           0        1.901291   -0.982764    0.038276
      7          6           0        3.132096   -0.093217    0.211830
      8          7           0        2.776538    1.233898    0.730155
      9          1           0       -4.090720    1.663628    0.001753
     10          1           0       -3.127701    1.152594    1.198314
     11          1           0       -1.867873    1.121010   -0.858948
     12          1           0       -3.171673    0.155666   -1.559243
     13          1           0       -1.447158   -0.734718    0.823353
     14          1           0       -2.716906   -1.686183    0.046190
     15          1           0        2.202624   -2.002088   -0.212328
     16          1           0        1.314077   -0.994762    0.959557
     17          1           0        3.777842   -0.582615    0.950403
     18          1           0        3.699661   -0.065845   -0.732958
     19          1           0        3.620968    1.798708    0.793815
     20          1           0        2.183368    1.711753    0.053962
 ---------------------------------------------------------------------
                    Distance matrix (angstroms):
                    1          2          3          4          5
     1  N    0.000000
     2  C    1.469799   0.000000
     3  C    2.448232   1.526807   0.000000
     4  S    4.131446   2.831549   1.841974   0.000000
     5  S    4.917315   3.621393   3.107318   2.082460   0.000000
     6  C    5.824702   4.786697   3.875310   3.086907   1.853602
     7  C    6.819958   5.852312   5.176647   4.488735   2.783059
     8  N    6.421796   5.650844   5.274698   5.024389   3.248555
     9  H    1.018186   2.039960   3.331888   4.863320   5.487362
    10  H    1.019170   2.042635   2.704080   4.437064   4.939238
    11  H    2.158578   1.101047   2.156124   3.011749   3.113910
    12  H    2.090618   1.095357   2.151319   3.001122   4.044544
    13  H    2.721878   2.179959   1.094093   2.423669   3.167780
    14  H    2.698687   2.167119   1.095456   2.364340   4.040671
    15  H    6.505412   5.410471   4.315711   3.208769   2.423653
    16  H    5.298511   4.475213   3.458956   3.170559   2.435284
    17  H    7.557759   6.678403   5.855822   5.210735   3.735622
    18  H    7.458838   6.356900   5.763355   4.796184   2.941360
    19  H    7.319751   6.577491   6.276710   5.985183   4.113198
    20  H    5.879855   5.052865   4.910969   4.694414   2.828668
                    6          7          8          9         10
     6  C    0.000000
     7  C    1.528494   0.000000
     8  N    2.481600   1.468439   0.000000
     9  H    6.550490   7.436377   6.919138   0.000000
    10  H    5.585356   6.458347   5.923328   1.618740   0.000000
    11  H    4.408795   5.255531   4.910045   2.444645   2.412570
    12  H    5.439031   6.552568   6.464142   2.356969   2.932561
    13  H    3.448186   4.664231   4.660874   3.662719   2.554753
    14  H    4.671467   6.064306   6.258802   3.620852   3.091083
    15  H    1.092074   2.165090   3.418955   7.286253   6.352503
    16  H    1.092576   2.162654   2.675508   6.098873   4.939386
    17  H    2.124508   1.096353   2.085866   8.237706   7.124530
    18  H    2.160943   1.102499   2.163836   8.013795   7.199116
    19  H    3.356294   2.038892   1.017902   7.753434   6.791584
    20  H    2.709287   2.045220   1.018545   6.274490   5.461652
                   11         12         13         14         15
    11  H    0.000000
    12  H    1.766973   0.000000
    13  H    2.539856   3.073028   0.000000
    14  H    3.069278   2.485284   1.766785   0.000000
    15  H    5.171151   5.945852   3.999972   4.936437   0.000000
    16  H    4.231815   5.271602   2.776796   4.190600   1.782564
    17  H    6.168483   7.425573   5.228757   6.649602   2.418296
    18  H    5.694026   6.924380   5.418417   6.663700   2.502241
    19  H    5.772199   7.374038   5.666129   7.271317   4.179721
    20  H    4.194632   5.805196   4.444987   5.963113   3.723426
                   16         17         18         19         20
    16  H    0.000000
    17  H    2.498016   0.000000
    18  H    3.068958   1.762632   0.000000
    19  H    3.626664   2.391616   2.411180   0.000000
    20  H    2.983453   2.934294   2.465410   1.619147   0.000000
 Stoichiometry    C4H12N2S2
 Framework group  C1[X(C4H12N2S2)]
 Deg. of freedom    54
 Full point group                 C1      NOp   1
 Largest Abelian subgroup         C1      NOp   1
 Largest concise Abelian subgroup C1      NOp   1
                         Standard orientation:                         
 ---------------------------------------------------------------------
 Center     Atomic      Atomic             Coordinates (Angstroms)
 Number     Number       Type             X           Y           Z
 ---------------------------------------------------------------------
      1          7           0       -3.502034    1.611711    0.190764
      2          6           0       -2.603798    0.618167   -0.414505
      3          6           0       -1.927679   -0.196747    0.685457
      4         16           0       -0.850723   -1.554110    0.060476
      5         16           0        0.796522   -0.579023   -0.759541
      6          6           0        1.942388   -0.398257    0.686196
      7          6           0        3.202174    0.363382    0.274929
      8          7           0        2.914177    1.771987   -0.023742
      9          1           0       -3.975876    2.121434   -0.552445
     10          1           0       -2.942650    2.309613    0.679364
     11          1           0       -1.832130    1.062666   -1.062003
     12          1           0       -3.203584   -0.051267   -1.040542
     13          1           0       -1.335866    0.439985    1.349813
     14          1           0       -2.678471   -0.707313    1.298367
     15          1           0        2.202158   -1.399543    1.036295
     16          1           0        1.421508    0.139847    1.481715
     17          1           0        3.887179    0.332510    1.130385
     18          1           0        3.702148   -0.173960   -0.547746
     19          1           0        3.773552    2.225962   -0.326240
     20          1           0        2.285742    1.825034   -0.823548
 ---------------------------------------------------------------------
 Rotational constants (GHZ):           2.0706193           0.6505962           0.5433640
 Standard basis: 6-31G(d,p) (6D, 7F)
 There are   188 symmetry adapted cartesian basis functions of A   symmetry.
 There are   188 symmetry adapted basis functions of A   symmetry.
   188 basis functions,   356 primitive gaussians,   188 cartesian basis functions
    41 alpha electrons       41 beta electrons
       nuclear repulsion energy       541.0072811940 Hartrees.
 NAtoms=   20 NActive=   20 NUniq=   20 SFac= 1.00D+00 NAtFMM=   60 NAOKFM=F Big=F
 Integral buffers will be    131072 words long.
 Raffenetti 2 integral format.
 Two-electron integral symmetry is turned on.
 ------------------------------------------------------------------------------
 Polarizable Continuum Model (PCM)
 =================================
 Model                : PCM.
 Atomic radii         : UFF (Universal Force Field).
 Polarization charges : Total charges.
 Charge compensation  : None.
 Solution method      : Matrix inversion.
 Cavity type          : Scaled VdW (van der Waals Surface) (Alpha=1.100).
 Cavity algorithm     : GePol (No added spheres)
                        Default sphere list used, NSphG=   20.
                        Lebedev-Laikov grids with approx.  5.0 points / Ang**2.
                        Smoothing algorithm: York/Karplus (Gamma=1.0000).
                        Polarization charges: spherical gaussians, with
                                              point-specific exponents (IZeta= 3).
                        Self-potential: point-specific (ISelfS= 7).
                        Self-field    : sphere-specific E.n sum rule (ISelfD= 2).
 1st derivatives      : Analytical E(r).r(x)/FMM algorithm (CHGder, D1EAlg=3).
                        Cavity 1st derivative terms included.
 Solvent              : Water, Eps=  78.355300 Eps(inf)=   1.777849
 ------------------------------------------------------------------------------
 Spheres list:
 ISph  on   Nord     Re0    Alpha      Xe            Ye            Ze
    1   N      1    1.8300  1.100     -3.502034      1.611711      0.190764
    2   C      2    1.9255  1.100     -2.603798      0.618167     -0.414505
    3   C      3    1.9255  1.100     -1.927679     -0.196747      0.685457
    4   S      4    2.0175  1.100     -0.850723     -1.554110      0.060476
    5   S      5    2.0175  1.100      0.796522     -0.579023     -0.759541
    6   C      6    1.9255  1.100      1.942388     -0.398257      0.686196
    7   C      7    1.9255  1.100      3.202174      0.363382      0.274929
    8   N      8    1.8300  1.100      2.914177      1.771987     -0.023742
    9   H      9    1.4430  1.100     -3.975876      2.121434     -0.552445
   10   H     10    1.4430  1.100     -2.942650      2.309613      0.679364
   11   H     11    1.4430  1.100     -1.832130      1.062666     -1.062003
   12   H     12    1.4430  1.100     -3.203584     -0.051267     -1.040542
   13   H     13    1.4430  1.100     -1.335866      0.439985      1.349813
   14   H     14    1.4430  1.100     -2.678471     -0.707313      1.298367
   15   H     15    1.4430  1.100      2.202158     -1.399543      1.036295
   16   H     16    1.4430  1.100      1.421508      0.139847      1.481715
   17   H     17    1.4430  1.100      3.887179      0.332510      1.130385
   18   H     18    1.4430  1.100      3.702148     -0.173960     -0.547746
   19   H     19    1.4430  1.100      3.773552      2.225962     -0.326240
   20   H     20    1.4430  1.100      2.285742      1.825034     -0.823548
 ------------------------------------------------------------------------------
 One-electron integrals computed using PRISM.
 NBasis=   188 RedAO= T EigKep=  5.02D-03  NBF=   188
 NBsUse=   188 1.00D-06 EigRej= -1.00D+00 NBFU=   188
 Initial guess from the checkpoint file:  "APQPRKLAWCIJEK-UHFFFAOYSA-N_conf_4_0.chk"
 B after Tr=     0.000000    0.000000    0.000000
         Rot=    0.999969   -0.001983   -0.001604   -0.007493 Ang=  -0.91 deg.
 ExpMin= 1.17D-01 ExpMax= 2.19D+04 ExpMxC= 3.30D+03 IAcc=2 IRadAn=         4 AccDes= 0.00D+00
 Harris functional with IExCor=  402 and IRadAn=       4 diagonalized for initial guess.
 HarFok:  IExCor=  402 AccDes= 0.00D+00 IRadAn=         4 IDoV= 1 UseB2=F ITyADJ=14
 ICtDFT=  3500011 ScaDFX=  1.000000  1.000000  1.000000  1.000000
 FoFCou: FMM=F IPFlag=           0 FMFlag=      100000 FMFlg1=           0
         NFxFlg=           0 DoJE=T BraDBF=F KetDBF=T FulRan=T
         wScrn=  0.000000 ICntrl=       500 IOpCl=  0 I1Cent=   200000004 NGrid=           0
         NMat0=    1 NMatS0=      1 NMatT0=    0 NMatD0=    1 NMtDS0=    0 NMtDT0=    0
 Petite list used in FoFCou.
 Keep R1 ints in memory in canonical form, NReq=161201114.
 Requested convergence on RMS density matrix=1.00D-08 within  32 cycles.
 Requested convergence on MAX density matrix=1.00D-06.
 Requested convergence on             energy=1.00D-06.
 No special actions if energy rises.
 Inv3:  Mode=1 IEnd=     9198003.
 Iteration    1 A*A^-1 deviation from unit magnitude is 6.77D-15 for   1071.
 Iteration    1 A*A^-1 deviation from orthogonality  is 3.65D-15 for   1168    178.
 Iteration    1 A^-1*A deviation from unit magnitude is 6.88D-15 for    269.
 Iteration    1 A^-1*A deviation from orthogonality  is 2.10D-15 for   1251    842.
 Error on total polarization charges =  0.01135
 SCF Done:  E(RB3LYP) =  -1065.55031333     A.U. after   10 cycles
            NFock= 10  Conv=0.48D-08     -V/T= 2.0049
 QCSCF skips out because SCF is already converged.
 D1PCM: PCM CHGder 1st derivatives, ID1Alg=3 FixD1E=F DoIter=F DoCFld=F I1PDM=0.
 Calling FoFJK, ICntrl=      2127 FMM=F ISym2X=0 I1Cent= 0 IOpClX= 0 NMat=1 NMatS=1 NMatT=0.
 ***** Axes restored to original set *****
 -------------------------------------------------------------------
 Center     Atomic                   Forces (Hartrees/Bohr)
 Number     Number              X              Y              Z
 -------------------------------------------------------------------
      1        7          -0.000564659   -0.000795334    0.000932383
      2        6          -0.000012937    0.001375175    0.000029939
      3        6          -0.000616335    0.000442477    0.000385768
      4       16          -0.000545958   -0.000660088   -0.000171144
      5       16           0.000529842    0.000490216   -0.000564881
      6        6           0.001136400   -0.001058757    0.001307335
      7        6           0.000310363    0.001091147   -0.000718944
      8        7          -0.001114722    0.000026128    0.000709125
      9        1          -0.000137833   -0.000114516   -0.000054877
     10        1           0.000001246    0.000421375   -0.000145633
     11        1           0.000584479   -0.000680434   -0.000642662
     12        1           0.000043687   -0.000079458   -0.000030124
     13        1          -0.000016623    0.000029443    0.000018062
     14        1           0.000201871   -0.000235387   -0.000321141
     15        1          -0.000022679    0.000002988   -0.000010818
     16        1          -0.000356948    0.000404281   -0.000284763
     17        1           0.000247951   -0.000272459   -0.000318131
     18        1          -0.000225079   -0.000629489   -0.000309868
     19        1           0.000044499   -0.000123066    0.000392751
     20        1           0.000513435    0.000365756   -0.000202376
 -------------------------------------------------------------------
 Cartesian Forces:  Max     0.001375175 RMS     0.000534409

 GradGradGradGradGradGradGradGradGradGradGradGradGradGradGradGradGradGrad
 Berny optimization.
 Using GEDIIS/GDIIS optimizer.
 FormGI is forming the generalized inverse of G from B-inverse, IUseBI=4.
 Internal  Forces:  Max     0.001016734 RMS     0.000343656
 Search for a local minimum.
 Step number   2 out of a maximum of   98
 All quantities printed in internal units (Hartrees-Bohrs-Radians)
 Mixed Optimization -- En-DIIS/RFO-DIIS
 Update second derivatives using D2CorX and points    1    2
 DE= -3.79D-03 DEPred=-3.73D-03 R= 1.02D+00
 TightC=F SS=  1.41D+00  RLast= 3.07D-01 DXNew= 5.0454D-01 9.2097D-01
 Trust test= 1.02D+00 RLast= 3.07D-01 DXMaxT set to 5.05D-01
 ITU=  1  0
 Use linear search instead of GDIIS.
     Eigenvalues ---    0.00143   0.00194   0.00257   0.00281   0.00364
     Eigenvalues ---    0.00544   0.02445   0.03316   0.03353   0.04318
     Eigenvalues ---    0.04429   0.04446   0.04468   0.04540   0.04641
     Eigenvalues ---    0.05087   0.05265   0.08217   0.08233   0.08701
     Eigenvalues ---    0.08977   0.10599   0.11207   0.12554   0.13555
     Eigenvalues ---    0.14633   0.14807   0.15233   0.16583   0.16884
     Eigenvalues ---    0.17576   0.17883   0.19495   0.20088   0.23195
     Eigenvalues ---    0.24505   0.26770   0.28110   0.28957   0.29941
     Eigenvalues ---    0.32143   0.32722   0.33098   0.33169   0.33478
     Eigenvalues ---    0.33524   0.33987   0.34013   0.36620   0.37261
     Eigenvalues ---    0.43378   0.43756   0.44019   0.44166
 RFO step:  Lambda=-5.53583322D-04 EMin= 1.43070416D-03
 Quartic linear search produced a step of  0.14992.
 Iteration  1 RMS(Cart)=  0.09520368 RMS(Int)=  0.00507822
 Iteration  2 RMS(Cart)=  0.00603458 RMS(Int)=  0.00005334
 Iteration  3 RMS(Cart)=  0.00003227 RMS(Int)=  0.00004822
 Iteration  4 RMS(Cart)=  0.00000000 RMS(Int)=  0.00004822
 Variable       Old X    -DE/DX   Delta X   Delta X   Delta X     New X
                                 (Linear)    (Quad)   (Total)
    R1        2.77752   0.00081   0.00093  -0.00126  -0.00033   2.77718
    R2        1.92409  -0.00001  -0.00056   0.00042  -0.00014   1.92395
    R3        1.92595   0.00001  -0.00028  -0.00015  -0.00042   1.92553
    R4        2.88525   0.00011  -0.00128   0.00309   0.00181   2.88706
    R5        2.08068   0.00008   0.00178  -0.00094   0.00084   2.08151
    R6        2.06993   0.00002  -0.00012  -0.00017  -0.00029   2.06963
    R7        3.48083   0.00059   0.00376  -0.00047   0.00329   3.48412
    R8        2.06754   0.00001  -0.00040   0.00024  -0.00016   2.06738
    R9        2.07011  -0.00002  -0.00012  -0.00032  -0.00043   2.06968
   R10        3.93528   0.00102   0.00684  -0.00085   0.00599   3.94127
   R11        3.50280   0.00079   0.00700  -0.00200   0.00500   3.50780
   R12        2.88844   0.00004  -0.00164   0.00291   0.00127   2.88971
   R13        2.06372  -0.00001  -0.00083   0.00083  -0.00000   2.06372
   R14        2.06467  -0.00005  -0.00076  -0.00001  -0.00077   2.06390
   R15        2.77495   0.00070   0.00100  -0.00200  -0.00100   2.77395
   R16        2.07181   0.00005   0.00022  -0.00087  -0.00065   2.07116
   R17        2.08342   0.00013   0.00174  -0.00068   0.00106   2.08448
   R18        1.92356  -0.00001  -0.00049   0.00104   0.00054   1.92410
   R19        1.92477   0.00001  -0.00088   0.00104   0.00016   1.92493
    A1        1.89887  -0.00000  -0.00033   0.00208   0.00174   1.90061
    A2        1.90169   0.00002  -0.00134   0.00309   0.00174   1.90343
    A3        1.83647  -0.00010  -0.00161   0.00265   0.00103   1.83750
    A4        1.91213  -0.00064  -0.00410   0.00177  -0.00231   1.90982
    A5        1.97968   0.00095   0.01359  -0.00288   0.01070   1.99038
    A6        1.89004   0.00015   0.00003  -0.00060  -0.00070   1.88934
    A7        1.90581  -0.00025  -0.00536   0.00263  -0.00270   1.90311
    A8        1.90502  -0.00005  -0.00238  -0.00086  -0.00332   1.90171
    A9        1.86961  -0.00017  -0.00175  -0.00013  -0.00212   1.86749
   A10        1.99082   0.00051   0.00408  -0.00682  -0.00273   1.98809
   A11        1.94591   0.00001   0.00046   0.00100   0.00144   1.94735
   A12        1.92660  -0.00007   0.00198   0.00061   0.00262   1.92922
   A13        1.89508  -0.00019  -0.00158  -0.00053  -0.00215   1.89293
   A14        1.82049  -0.00040  -0.00697   0.00631  -0.00067   1.81982
   A15        1.87783   0.00009   0.00156   0.00004   0.00154   1.87937
   A16        1.82455   0.00079   0.00338  -0.00622  -0.00284   1.82171
   A17        1.80033   0.00032   0.00300  -0.00167   0.00133   1.80166
   A18        1.92649  -0.00005  -0.00246  -0.00256  -0.00503   1.92146
   A19        1.88354  -0.00012  -0.00182   0.00274   0.00095   1.88449
   A20        1.89781  -0.00015  -0.00190  -0.00344  -0.00537   1.89243
   A21        1.92525   0.00017   0.00346   0.00258   0.00602   1.93126
   A22        1.92136   0.00004   0.00058  -0.00284  -0.00233   1.91903
   A23        1.90874   0.00011   0.00216   0.00359   0.00570   1.91444
   A24        1.95096  -0.00020  -0.00322  -0.00017  -0.00342   1.94753
   A25        1.86605  -0.00022  -0.00462   0.00283  -0.00188   1.86417
   A26        1.90888  -0.00027  -0.00262   0.00324   0.00060   1.90948
   A27        1.88415   0.00003  -0.00029  -0.00145  -0.00190   1.88226
   A28        1.98744   0.00073   0.01143  -0.00251   0.00892   1.99636
   A29        1.85998  -0.00011  -0.00112  -0.00177  -0.00303   1.85695
   A30        1.89936  -0.00002  -0.00104  -0.00224  -0.00327   1.89608
   A31        1.90782   0.00021   0.00168  -0.00322  -0.00154   1.90628
   A32        1.83829  -0.00014  -0.00179  -0.00026  -0.00205   1.83624
    D1       -3.10031   0.00021   0.00449   0.08224   0.08671  -3.01360
    D2        1.04853   0.00034   0.00485   0.07954   0.08447   1.13300
    D3       -1.02422  -0.00013  -0.00084   0.08187   0.08099  -0.94323
    D4        1.18942   0.00031   0.00729   0.07638   0.08364   1.27307
    D5       -0.94492   0.00045   0.00765   0.07368   0.08140  -0.86352
    D6       -3.01767  -0.00003   0.00197   0.07601   0.07792  -2.93975
    D7        3.07799  -0.00031  -0.00480   0.04013   0.03535   3.11334
    D8       -1.05097  -0.00016  -0.00347   0.03499   0.03154  -1.01943
    D9        1.03518  -0.00008   0.00005   0.03609   0.03616   1.07134
   D10       -1.02737   0.00029   0.00597   0.03948   0.04541  -0.98195
   D11        1.12686   0.00044   0.00729   0.03433   0.04160   1.16846
   D12       -3.07017   0.00051   0.01081   0.03544   0.04622  -3.02395
   D13        1.01117  -0.00009  -0.00083   0.04033   0.03950   1.05067
   D14       -3.11779   0.00007   0.00049   0.03518   0.03568  -3.08211
   D15       -1.03164   0.00014   0.00401   0.03628   0.04031  -0.99133
   D16        1.24165   0.00042   0.00565   0.04508   0.05076   1.29240
   D17       -0.93985   0.00018   0.00335   0.04912   0.05250  -0.88735
   D18       -2.93834   0.00035   0.00583   0.04624   0.05200  -2.88634
   D19        1.53664   0.00054   0.01215   0.00820   0.02035   1.55699
   D20       -3.09892   0.00025   0.00475   0.05905   0.06379  -3.03514
   D21        1.07915   0.00014   0.00314   0.05572   0.05884   1.13800
   D22       -0.98960   0.00017   0.00267   0.05179   0.05449  -0.93511
   D23        1.19984   0.00043   0.00902   0.03276   0.04176   1.24160
   D24       -3.02495   0.00021   0.00375   0.03265   0.03642  -2.98853
   D25       -1.01753  -0.00018  -0.00156   0.03369   0.03218  -0.98535
   D26       -3.00337   0.00035   0.00743   0.03618   0.04355  -2.95983
   D27       -0.94498   0.00013   0.00216   0.03606   0.03821  -0.90677
   D28        1.06244  -0.00025  -0.00315   0.03711   0.03397   1.09641
   D29       -0.89536   0.00062   0.01261   0.04048   0.05306  -0.84230
   D30        1.16303   0.00040   0.00734   0.04037   0.04772   1.21076
   D31       -3.11273   0.00002   0.00203   0.04141   0.04348  -3.06925
   D32       -3.10363  -0.00043  -0.00990  -0.14106  -0.15096   3.02859
   D33       -1.10450  -0.00049  -0.01167  -0.14431  -0.15597  -1.26047
   D34        1.13202  -0.00006  -0.00207  -0.14353  -0.14557   0.98645
   D35        3.13115  -0.00012  -0.00384  -0.14677  -0.15058   2.98057
   D36       -0.92944  -0.00038  -0.00704  -0.13882  -0.14588  -1.07532
   D37        1.06969  -0.00044  -0.00881  -0.14206  -0.15089   0.91880
         Item               Value     Threshold  Converged?
 Maximum Force            0.001017     0.000450     NO 
 RMS     Force            0.000344     0.000300     NO 
 Maximum Displacement     0.397114     0.001800     NO 
 RMS     Displacement     0.095879     0.001200     NO 
 Predicted change in Energy=-3.562537D-04
 GradGradGradGradGradGradGradGradGradGradGradGradGradGradGradGradGradGrad

                          Input orientation:                          
 ---------------------------------------------------------------------
 Center     Atomic      Atomic             Coordinates (Angstroms)
 Number     Number       Type             X           Y           Z
 ---------------------------------------------------------------------
      1          7           0       -3.594390    0.878781    0.380012
      2          6           0       -2.674283    0.354020   -0.638722
      3          6           0       -1.958452   -0.879076   -0.089967
      4         16           0       -0.802926   -1.668321   -1.290444
      5         16           0        0.834741   -0.378582   -1.357345
      6          6           0        1.933778   -1.017081   -0.004534
      7          6           0        3.128977   -0.082516    0.186358
      8          7           0        2.727368    1.189578    0.798936
      9          1           0       -4.154215    1.622195   -0.032885
     10          1           0       -3.053267    1.328010    1.117326
     11          1           0       -1.922929    1.082362   -0.982619
     12          1           0       -3.262887    0.063100   -1.515295
     13          1           0       -1.403737   -0.648574    0.824372
     14          1           0       -2.679962   -1.667762    0.148610
     15          1           0        2.268391   -2.017725   -0.286262
     16          1           0        1.351034   -1.069992    0.917662
     17          1           0        3.817150   -0.584829    0.875803
     18          1           0        3.668246    0.022843   -0.770107
     19          1           0        3.565076    1.730800    1.003959
     20          1           0        2.212287    1.742771    0.116090
 ---------------------------------------------------------------------
                    Distance matrix (angstroms):
                    1          2          3          4          5
     1  N    0.000000
     2  C    1.469622   0.000000
     3  C    2.446882   1.527766   0.000000
     4  S    4.131636   2.831356   1.843717   0.000000
     5  S    4.921033   3.656005   3.107839   2.085631   0.000000
     6  C    5.856860   4.849365   3.895613   3.093094   1.856250
     7  C    6.794501   5.877852   5.156820   4.489497   2.781041
     8  N    6.343242   5.651801   5.198691   4.999608   3.269665
     9  H    1.018113   2.040957   3.328812   4.862107   5.535972
    10  H    1.018946   2.043524   2.743611   4.454142   4.914576
    11  H    2.166100   1.101490   2.155302   2.985869   3.143170
    12  H    2.089837   1.095203   2.149606   3.016584   4.124389
    13  H    2.707254   2.181771   1.094009   2.423490   3.137446
    14  H    2.715622   2.169683   1.095227   2.365193   4.035222
    15  H    6.573117   5.493581   4.381924   3.250147   2.426801
    16  H    5.342658   4.544592   3.464746   3.142177   2.433159
    17  H    7.570923   6.731562   5.863179   5.216482   3.731521
    18  H    7.402788   6.352528   5.738970   4.808551   2.921428
    19  H    7.236932   6.597236   6.206245   5.991473   4.180906
    20  H    5.876532   5.135849   4.930680   4.765018   2.927248
                    6          7          8          9         10
     6  C    0.000000
     7  C    1.529167   0.000000
     8  N    2.478849   1.467912   0.000000
     9  H    6.635529   7.483248   6.945162   0.000000
    10  H    5.623935   6.409089   5.791052   1.619141   0.000000
    11  H    4.498722   5.314621   4.981033   2.484362   2.397452
    12  H    5.518561   6.616097   6.519799   2.328687   2.928247
    13  H    3.458597   4.612264   4.521669   3.668298   2.591072
    14  H    4.661913   6.021478   6.150328   3.609734   3.170554
    15  H    1.092073   2.170025   3.416885   7.386683   6.440811
    16  H    1.092170   2.161249   2.648406   6.201547   5.018780
    17  H    2.123422   1.096009   2.083760   8.321018   7.135819
    18  H    2.162388   1.103058   2.169889   8.018249   7.102436
    19  H    3.350976   2.036362   1.018189   7.789371   6.631558
    20  H    2.776491   2.043754   1.018631   6.369387   5.375925
                   11         12         13         14         15
    11  H    0.000000
    12  H    1.765822   0.000000
    13  H    2.555565   3.071963   0.000000
    14  H    3.068543   2.470681   1.767526   0.000000
    15  H    5.259526   6.036173   4.073402   4.979737   0.000000
    16  H    4.354598   5.337738   2.788380   4.147011   1.785826
[...]
    20  H   -0.039100   0.321629   0.000000   0.000000   0.000024  -0.000000
              13         14         15         16         17         18
     1  N   -0.003369   0.004856   0.000000   0.000000   0.000000   0.000000
     2  C   -0.032594  -0.036642  -0.000004   0.000009  -0.000000  -0.000000
     3  C    0.366289   0.378073  -0.000071   0.001042  -0.000001  -0.000000
     4  S   -0.067923  -0.038859   0.005256   0.015305   0.000438   0.000470
     5  S    0.017862  -0.001181  -0.048292  -0.058471   0.009161   0.001740
     6  C    0.001992  -0.000009   0.373737   0.351814  -0.031534  -0.053987
     7  C   -0.000106  -0.000000  -0.037777  -0.035364   0.356445   0.378229
     8  N    0.000062  -0.000000   0.003289   0.006293  -0.043256  -0.045003
     9  H   -0.000012  -0.000067  -0.000000   0.000000   0.000000  -0.000000
    10  H    0.004195  -0.000538  -0.000000  -0.000001   0.000000  -0.000000
    11  H   -0.005943   0.006030   0.000005  -0.000011   0.000000   0.000000
    12  H    0.005781  -0.007258  -0.000000  -0.000001  -0.000000  -0.000000
    13  H    0.601029  -0.033482  -0.000025   0.000610  -0.000004  -0.000000
    14  H   -0.033482   0.571464   0.000008  -0.000063   0.000000   0.000000
    15  H   -0.000025   0.000008   0.551694  -0.018907  -0.001519   0.001647
    16  H    0.000610  -0.000063  -0.018907   0.577887  -0.003168   0.006830
    17  H   -0.000004   0.000000  -0.001519  -0.003168   0.638352  -0.042571
    18  H   -0.000000   0.000000   0.001647   0.006830  -0.042571   0.659420
    19  H   -0.000001   0.000000  -0.000179  -0.000011  -0.003535  -0.002361
    20  H   -0.000036   0.000000   0.000052  -0.000042   0.007617  -0.005345
              19         20
     1  N   -0.000000   0.000000
     2  C   -0.000000  -0.000008
     3  C    0.000000  -0.000014
     4  S    0.000025   0.001217
     5  S    0.000513   0.020470
     6  C    0.006043  -0.005502
     7  C   -0.033144  -0.039100
     8  N    0.337517   0.321629
     9  H    0.000000   0.000000
    10  H   -0.000000   0.000000
    11  H    0.000000   0.000024
    12  H   -0.000000  -0.000000
    13  H   -0.000001  -0.000036
    14  H    0.000000   0.000000
    15  H   -0.000179   0.000052
    16  H   -0.000011  -0.000042
    17  H   -0.003535   0.007617
    18  H   -0.002361  -0.005345
    19  H    0.465727  -0.029289
    20  H   -0.029289   0.478590
 Mulliken charges:
               1
     1  N   -0.609018
     2  C   -0.048843
     3  C   -0.316983
     4  S   -0.154812
     5  S   -0.017535
     6  C   -0.322336
     7  C   -0.045261
     8  N   -0.628957
     9  H    0.275773
    10  H    0.270719
    11  H    0.114130
    12  H    0.129506
    13  H    0.145677
    14  H    0.157669
    15  H    0.171086
    16  H    0.156249
    17  H    0.113573
    18  H    0.100931
    19  H    0.258694
    20  H    0.249736
 Sum of Mulliken charges =  -0.00000
 Mulliken charges with hydrogens summed into heavy atoms:
               1
     1  N   -0.062525
     2  C    0.194793
     3  C   -0.013637
     4  S   -0.154812
     5  S   -0.017535
     6  C    0.004999
     7  C    0.169243
     8  N   -0.120526
 Electronic spatial extent (au):  <R**2>=           2120.9193
 Charge=             -0.0000 electrons
 Dipole moment (field-independent basis, Debye):
    X=              1.2023    Y=              3.8859    Z=             -0.2992  Tot=              4.0786
 Quadrupole moment (field-independent basis, Debye-Ang):
   XX=            -54.6100   YY=            -65.7475   ZZ=            -66.3368
   XY=             -7.2841   XZ=              4.9132   YZ=             -5.2913
 Traceless Quadrupole moment (field-independent basis, Debye-Ang):
   XX=              7.6214   YY=             -3.5161   ZZ=             -4.1054
   XY=             -7.2841   XZ=              4.9132   YZ=             -5.2913
 Octapole moment (field-independent basis, Debye-Ang**2):
  XXX=             36.8532  YYY=             36.5274  ZZZ=              2.7067  XYY=             -1.8840
  XXY=             28.4736  XXZ=            -22.5059  XZZ=             -2.6681  YZZ=              5.4647
  YYZ=             -8.9881  XYZ=             -1.8871
 Hexadecapole moment (field-independent basis, Debye-Ang**3):
 XXXX=          -1837.7262 YYYY=           -579.6967 ZZZZ=           -212.4511 XXXY=             10.6053
 XXXZ=             93.7721 YYYX=            -65.3107 YYYZ=            -16.9377 ZZZX=              8.8260
 ZZZY=             -5.3833 XXYY=           -355.7732 XXZZ=           -365.4903 YYZZ=           -136.4744
 XXYZ=            -62.2520 YYXZ=             -4.7464 ZZXY=             -3.1920
 N-N= 5.403789762174D+02 E-N=-3.598418999397D+03  KE= 1.060683343632D+03
 Evaluate density.
 Using the total density.
 Monte-Carlo method of calculating molar volume:
 based on  0.001 e/bohr**3 density envelope.
 Number of points per bohr**3 =   20 CutOff= 1.00D-04
 Using the CI density.
 There are       422 points.  Will hold       422 in memory.
 LenV=   805189812 MDV=   805306368.
 Box volume = 9445.668 fraction occupied=0.159
 Integrated density= 1.0005449414925054D+02 error= 1.8054494149250544D+01
 Molar volume = 1499.668 bohr**3/mol (133.829 cm**3/mol)
 Recommended a0 for SCRF calculation =  4.64 angstrom (  8.76 bohr)
 ******************************Gaussian NBO Version 3.1******************************
             N A T U R A L   A T O M I C   O R B I T A L   A N D
          N A T U R A L   B O N D   O R B I T A L   A N A L Y S I S
 ******************************Gaussian NBO Version 3.1******************************
       /RESON  / : Allow strongly delocalized NBO set

 Analyzing the CI density

 Job title: APQPRKLAWCIJEK-UHFFFAOYSA-N_conf_4                              

 Storage needed:    107440 in NPA ( 805304168 available)
 GSVD:  LWork=       20560 too small for GESVD, short by        8252 words or        8252 for optimal perf.


 NATURAL POPULATIONS:  Natural atomic orbital occupancies 
                                                          
   NAO  Atom  No  lang   Type(AO)    Occupancy
 --------------------------------------------
     1    N    1  S      Cor( 1S)     1.99963
     2    N    1  S      Val( 2S)     1.44295
     3    N    1  S      Ryd( 3S)     0.00058
     4    N    1  S      Ryd( 4S)     0.00001
     5    N    1  px     Val( 2p)     1.48169
     6    N    1  px     Ryd( 3p)     0.00278
     7    N    1  py     Val( 2p)     1.35150
     8    N    1  py     Ryd( 3p)     0.00280
     9    N    1  pz     Val( 2p)     1.58521
    10    N    1  pz     Ryd( 3p)     0.00371
    11    N    1  dxy    Ryd( 3d)     0.00110
    12    N    1  dxz    Ryd( 3d)     0.00115
    13    N    1  dyz    Ryd( 3d)     0.00091
    14    N    1  dx2y2  Ryd( 3d)     0.00030
    15    N    1  dz2    Ryd( 3d)     0.00093

    16    C    2  S      Cor( 1S)     1.99929
    17    C    2  S      Val( 2S)     1.03365
    18    C    2  S      Ryd( 3S)     0.00248
    19    C    2  S      Ryd( 4S)     0.00004
    20    C    2  px     Val( 2p)     1.10970
    21    C    2  px     Ryd( 3p)     0.00408
    22    C    2  py     Val( 2p)     1.01998
    23    C    2  py     Ryd( 3p)     0.00288
    24    C    2  pz     Val( 2p)     1.09822
    25    C    2  pz     Ryd( 3p)     0.00142
    26    C    2  dxy    Ryd( 3d)     0.00119
    27    C    2  dxz    Ryd( 3d)     0.00139
    28    C    2  dyz    Ryd( 3d)     0.00108
    29    C    2  dx2y2  Ryd( 3d)     0.00071
    30    C    2  dz2    Ryd( 3d)     0.00048

    31    C    3  S      Cor( 1S)     1.99928
    32    C    3  S      Val( 2S)     1.13037
    33    C    3  S      Ryd( 3S)     0.00175
    34    C    3  S      Ryd( 4S)     0.00003
    35    C    3  px     Val( 2p)     1.16606
    36    C    3  px     Ryd( 3p)     0.00329
    37    C    3  py     Val( 2p)     1.12690
    38    C    3  py     Ryd( 3p)     0.00350
    39    C    3  pz     Val( 2p)     1.16621
    40    C    3  pz     Ryd( 3p)     0.00199
    41    C    3  dxy    Ryd( 3d)     0.00137
    42    C    3  dxz    Ryd( 3d)     0.00105
    43    C    3  dyz    Ryd( 3d)     0.00104
    44    C    3  dx2y2  Ryd( 3d)     0.00048
    45    C    3  dz2    Ryd( 3d)     0.00044

    46    S    4  S      Cor( 1S)     2.00000
    47    S    4  S      Cor( 2S)     1.99961
    48    S    4  S      Val( 3S)     1.78168
    49    S    4  S      Ryd( 4S)     0.00966
    50    S    4  S      Ryd( 5S)     0.00002
    51    S    4  px     Cor( 2p)     1.99990
    52    S    4  px     Val( 3p)     1.31862
    53    S    4  px     Ryd( 4p)     0.01802
    54    S    4  py     Cor( 2p)     1.99990
    55    S    4  py     Val( 3p)     1.32943
    56    S    4  py     Ryd( 4p)     0.00369
    57    S    4  pz     Cor( 2p)     1.99992
    58    S    4  pz     Val( 3p)     1.59470
    59    S    4  pz     Ryd( 4p)     0.00768
    60    S    4  dxy    Ryd( 3d)     0.00645
    61    S    4  dxz    Ryd( 3d)     0.00396
    62    S    4  dyz    Ryd( 3d)     0.00325
    63    S    4  dx2y2  Ryd( 3d)     0.00467
    64    S    4  dz2    Ryd( 3d)     0.00208

    65    S    5  S      Cor( 1S)     2.00000
    66    S    5  S      Cor( 2S)     1.99965
    67    S    5  S      Val( 3S)     1.79604
    68    S    5  S      Ryd( 4S)     0.00885
    69    S    5  S      Ryd( 5S)     0.00002
    70    S    5  px     Cor( 2p)     1.99989
    71    S    5  px     Val( 3p)     1.28303
    72    S    5  px     Ryd( 4p)     0.01847
    73    S    5  py     Cor( 2p)     1.99986
    74    S    5  py     Val( 3p)     1.39265
    75    S    5  py     Ryd( 4p)     0.00608
    76    S    5  pz     Cor( 2p)     1.99989
    77    S    5  pz     Val( 3p)     1.36648
    78    S    5  pz     Ryd( 4p)     0.00344
    79    S    5  dxy    Ryd( 3d)     0.00409
    80    S    5  dxz    Ryd( 3d)     0.00811
    81    S    5  dyz    Ryd( 3d)     0.00291
    82    S    5  dx2y2  Ryd( 3d)     0.00333
    83    S    5  dz2    Ryd( 3d)     0.00438

    84    C    6  S      Cor( 1S)     1.99926
    85    C    6  S      Val( 2S)     1.13764
    86    C    6  S      Ryd( 3S)     0.00210
    87    C    6  S      Ryd( 4S)     0.00003
    88    C    6  px     Val( 2p)     1.08960
    89    C    6  px     Ryd( 3p)     0.00336
    90    C    6  py     Val( 2p)     1.23456
    91    C    6  py     Ryd( 3p)     0.00249
    92    C    6  pz     Val( 2p)     1.13241
    93    C    6  pz     Ryd( 3p)     0.00208
    94    C    6  dxy    Ryd( 3d)     0.00067
    95    C    6  dxz    Ryd( 3d)     0.00153
    96    C    6  dyz    Ryd( 3d)     0.00062
    97    C    6  dx2y2  Ryd( 3d)     0.00082
    98    C    6  dz2    Ryd( 3d)     0.00068

    99    C    7  S      Cor( 1S)     1.99932
   100    C    7  S      Val( 2S)     1.02745
   101    C    7  S      Ryd( 3S)     0.00217
   102    C    7  S      Ryd( 4S)     0.00004
   103    C    7  px     Val( 2p)     1.10845
   104    C    7  px     Ryd( 3p)     0.00220
   105    C    7  py     Val( 2p)     0.90292
   106    C    7  py     Ryd( 3p)     0.00334
   107    C    7  pz     Val( 2p)     1.22437
   108    C    7  pz     Ryd( 3p)     0.00514
   109    C    7  dxy    Ryd( 3d)     0.00107
   110    C    7  dxz    Ryd( 3d)     0.00109
   111    C    7  dyz    Ryd( 3d)     0.00115
   112    C    7  dx2y2  Ryd( 3d)     0.00096
   113    C    7  dz2    Ryd( 3d)     0.00066

   114    N    8  S      Cor( 1S)     1.99967
   115    N    8  S      Val( 2S)     1.44705
   116    N    8  S      Ryd( 3S)     0.00075
   117    N    8  S      Ryd( 4S)     0.00001
   118    N    8  px     Val( 2p)     1.48022
   119    N    8  px     Ryd( 3p)     0.00304
   120    N    8  py     Val( 2p)     1.32031
   121    N    8  py     Ryd( 3p)     0.00256
   122    N    8  pz     Val( 2p)     1.66396
   123    N    8  pz     Ryd( 3p)     0.00462
   124    N    8  dxy    Ryd( 3d)     0.00067
   125    N    8  dxz    Ryd( 3d)     0.00124
   126    N    8  dyz    Ryd( 3d)     0.00069
   127    N    8  dx2y2  Ryd( 3d)     0.00062
   128    N    8  dz2    Ryd( 3d)     0.00132

   129    H    9  S      Val( 1S)     0.59180
   130    H    9  S      Ryd( 2S)     0.00103
   131    H    9  px     Ryd( 2p)     0.00045
   132    H    9  py     Ryd( 2p)     0.00037
   133    H    9  pz     Ryd( 2p)     0.00058

   134    H   10  S      Val( 1S)     0.60146
   135    H   10  S      Ryd( 2S)     0.00137
   136    H   10  px     Ryd( 2p)     0.00044
   137    H   10  py     Ryd( 2p)     0.00050
   138    H   10  pz     Ryd( 2p)     0.00044

   139    H   11  S      Val( 1S)     0.77505
   140    H   11  S      Ryd( 2S)     0.00219
   141    H   11  px     Ryd( 2p)     0.00021
   142    H   11  py     Ryd( 2p)     0.00012
   143    H   11  pz     Ryd( 2p)     0.00023

   144    H   12  S      Val( 1S)     0.75557
   145    H   12  S      Ryd( 2S)     0.00197
   146    H   12  px     Ryd( 2p)     0.00017
   147    H   12  py     Ryd( 2p)     0.00020
   148    H   12  pz     Ryd( 2p)     0.00016

   149    H   13  S      Val( 1S)     0.74822
   150    H   13  S      Ryd( 2S)     0.00314
   151    H   13  px     Ryd( 2p)     0.00019
   152    H   13  py     Ryd( 2p)     0.00018
   153    H   13  pz     Ryd( 2p)     0.00018

   154    H   14  S      Val( 1S)     0.72780
   155    H   14  S      Ryd( 2S)     0.00220
   156    H   14  px     Ryd( 2p)     0.00019
   157    H   14  py     Ryd( 2p)     0.00017
   158    H   14  pz     Ryd( 2p)     0.00018

   159    H   15  S      Val( 1S)     0.71950
   160    H   15  S      Ryd( 2S)     0.00232
   161    H   15  px     Ryd( 2p)     0.00011
   162    H   15  py     Ryd( 2p)     0.00034
   163    H   15  pz     Ryd( 2p)     0.00009

   164    H   16  S      Val( 1S)     0.73746
   165    H   16  S      Ryd( 2S)     0.00375
   166    H   16  px     Ryd( 2p)     0.00015
   167    H   16  py     Ryd( 2p)     0.00015
   168    H   16  pz     Ryd( 2p)     0.00023

   169    H   17  S      Val( 1S)     0.75852
   170    H   17  S      Ryd( 2S)     0.00308
   171    H   17  px     Ryd( 2p)     0.00025
   172    H   17  py     Ryd( 2p)     0.00006
   173    H   17  pz     Ryd( 2p)     0.00026

   174    H   18  S      Val( 1S)     0.78032
   175    H   18  S      Ryd( 2S)     0.00330
   176    H   18  px     Ryd( 2p)     0.00014
   177    H   18  py     Ryd( 2p)     0.00012
   178    H   18  pz     Ryd( 2p)     0.00030

   179    H   19  S      Val( 1S)     0.60248
   180    H   19  S      Ryd( 2S)     0.00115
   181    H   19  px     Ryd( 2p)     0.00054
   182    H   19  py     Ryd( 2p)     0.00038
   183    H   19  pz     Ryd( 2p)     0.00049

   184    H   20  S      Val( 1S)     0.61211
   185    H   20  S      Ryd( 2S)     0.00335
   186    H   20  px     Ryd( 2p)     0.00044
   187    H   20  py     Ryd( 2p)     0.00030
   188    H   20  pz     Ryd( 2p)     0.00067


 Summary of Natural Population Analysis:                  
                                                          
                                       Natural Population 
                Natural  -----------------------------------------------
    Atom  No    Charge         Core      Valence    Rydberg      Total
 -----------------------------------------------------------------------
      N    1   -0.87525      1.99963     5.86135    0.01427     7.87525
      C    2   -0.27659      1.99929     4.26154    0.01576     6.27659
      C    3   -0.60373      1.99928     4.58954    0.01491     6.60373
      S    4   -0.08324      9.99932     6.02443    0.05949    16.08324
      S    5    0.10283      9.99929     5.83820    0.05968    15.89717
      C    6   -0.60785      1.99926     4.59421    0.01438     6.60785
      C    7   -0.28033      1.99932     4.26319    0.01782     6.28033
      N    8   -0.92672      1.99967     5.91154    0.01550     7.92672
      H    9    0.40577      0.00000     0.59180    0.00244     0.59423
      H   10    0.39579      0.00000     0.60146    0.00275     0.60421
      H   11    0.22220      0.00000     0.77505    0.00275     0.77780
      H   12    0.24192      0.00000     0.75557    0.00251     0.75808
      H   13    0.24809      0.00000     0.74822    0.00369     0.75191
      H   14    0.26946      0.00000     0.72780    0.00275     0.73054
      H   15    0.27764      0.00000     0.71950    0.00286     0.72236
      H   16    0.25826      0.00000     0.73746    0.00428     0.74174
      H   17    0.23784      0.00000     0.75852    0.00364     0.76216
      H   18    0.21582      0.00000     0.78032    0.00386     0.78418
      H   19    0.39496      0.00000     0.60248    0.00256     0.60504
      H   20    0.38313      0.00000     0.61211    0.00476     0.61687
 =======================================================================
   * Total *    0.00000     31.99506    49.75429    0.25065    82.00000

                                 Natural Population      
 --------------------------------------------------------
   Core                      31.99506 ( 99.9846% of  32)
   Valence                   49.75429 ( 99.5086% of  50)
   Natural Minimal Basis     81.74935 ( 99.6943% of  82)
   Natural Rydberg Basis      0.25065 (  0.3057% of  82)
 --------------------------------------------------------

    Atom  No          Natural Electron Configuration
 ----------------------------------------------------------------------------
      N    1      [core]2S( 1.44)2p( 4.42)3p( 0.01)
      C    2      [core]2S( 1.03)2p( 3.23)3p( 0.01)
      C    3      [core]2S( 1.13)2p( 3.46)3p( 0.01)
      S    4      [core]3S( 1.78)3p( 4.24)4S( 0.01)3d( 0.02)4p( 0.03)
      S    5      [core]3S( 1.80)3p( 4.04)4S( 0.01)3d( 0.02)4p( 0.03)
      C    6      [core]2S( 1.14)2p( 3.46)3p( 0.01)
      C    7      [core]2S( 1.03)2p( 3.24)3p( 0.01)
      N    8      [core]2S( 1.45)2p( 4.46)3p( 0.01)
      H    9            1S( 0.59)
      H   10            1S( 0.60)
      H   11            1S( 0.78)
      H   12            1S( 0.76)
      H   13            1S( 0.75)
      H   14            1S( 0.73)
      H   15            1S( 0.72)
      H   16            1S( 0.74)
      H   17            1S( 0.76)
      H   18            1S( 0.78)
      H   19            1S( 0.60)
      H   20            1S( 0.61)


 NBO analysis skipped by request.
 1\1\GINC-CN13\SP\RB3LYP TD-FC\6-31G(d,p)\C4H12N2S2\QDUEZ\11-Jul-2024\0
 \\# TD(NStates=10, Root=1) B3LYP/6-31G** SCRF=(Solvent=water) volume p
 op=NPA density=current Geom=AllCheck Guess=Read\\APQPRKLAWCIJEK-UHFFFA
 OYSA-N_conf_4\\0,1\N,0,-3.5836733326,0.8875808183,0.3804905235\C,0,-2.
 6651096209,0.3576682589,-0.6376843957\C,0,-1.953275555,-0.8762280276,-
 0.0853704063\S,0,-0.8058187402,-1.679482672,-1.284861424\S,0,0.8391316
 154,-0.3996306711,-1.3687376787\C,0,1.9396395405,-1.0286731227,-0.0123
 513145\C,0,3.1226108984,-0.0798977963,0.1858622344\N,0,2.7055803348,1.
 1847632886,0.8048457908\H,0,-4.1438710071,1.6289733248,-0.0353897314\H
 ,0,-3.0416891366,1.3408557476,1.1146753033\H,0,-1.9121246939,1.0834375
 637,-0.9826647571\H,0,-3.2542839736,0.0666431494,-1.5138548494\H,0,-1.
 3946742726,-0.6432518889,0.8259873859\H,0,-2.6783257924,-1.6596032115,
 0.159823638\H,0,2.2872035525,-2.0248113663,-0.2943483272\H,0,1.3528857
 956,-1.0904996393,0.9067087532\H,0,3.8177439509,-0.5782358882,0.871368
 0948\H,0,3.6602875223,0.0386716326,-0.7697220067\H,0,3.535035213,1.739
 811346,1.0049461784\H,0,2.1727277014,1.7319091539,0.1312226478\\Versio
 n=EM64L-G16RevA.03\State=1-A\HF=-1065.5506359\RMSD=1.817e-09\Dipole=0.
 4049184,1.3318255,0.7982633\Quadrupole=5.7500538,0.7801242,-6.530178,-
 6.3818265,0.811363,-1.6529498\PG=C01 [X(C4H12N2S2)]\\@


 HE THAT WALD REACHE THE SWEITE ROSE
 SULD NOW AND THEN BE SCRATCHED WT THE SCHARPE BREERES.
 -- PROVERBS AND REASONS OF THE YEAR 1585
           AS REPRINTED IN PAISLEY MAGAZINE 1828.
 Job cpu time:       0 days  0 hours 27 minutes 45.9 seconds.
 Elapsed time:       0 days  0 hours 13 minutes 57.5 seconds.
 File lengths (MBytes):  RWF=    349 Int=      0 D2E=      0 Chk=     22 Scr=      1
 Normal termination of Gaussian 16 at Thu Jul 11 17:57:53 2024.
