 Entering Gaussian System, Link 0=g16
 Initial command:
 /opt/sw/arch/manual/gaussian/G16_A03/g16/l1.exe "/scratch/1380791/Gau-18964.inp" -scrdir="/scratch/1380791/"
 Entering Link 1 = /opt/sw/arch/manual/gaussian/G16_A03/g16/l1.exe PID=     18965.
  
 Copyright (c) 1988,1990,1992,1993,1995,1998,2003,2009,2016,
            Gaussian, Inc.  All Rights Reserved.
  
 This is part of the Gaussian(R) 16 program.  It is based on
 the Gaussian(R) 09 system (copyright 2009, Gaussian, Inc.),
 the Gaussian(R) 03 system (copyright 2003, Gaussian, Inc.),
 the Gaussian(R) 98 system (copyright 1998, Gaussian, Inc.),
 the Gaussian(R) 94 system (copyright 1995, Gaussian, Inc.),
 the Gaussian 92(TM) system (copyright 1992, Gaussian, Inc.),
 the Gaussian 90(TM) system (copyright 1990, Gaussian, Inc.),
 the Gaussian 88(TM) system (copyright 1988, Gaussian, Inc.),
 the Gaussian 86(TM) system (copyright 1986, Carnegie Mellon
 University), and the Gaussian 82(TM) system (copyright 1983,
 Carnegie Mellon University). Gaussian is a federally registered
 trademark of Gaussian, Inc.
  
 This software contains proprietary and confidential information,
 including trade secrets, belonging to Gaussian, Inc.
  
 This software is provided under written license and may be
 used, copied, transmitted, or stored only in accord with that
 written license.
  
 The following legend is applicable only to US Government
 contracts under FAR:
  
                    RESTRICTED RIGHTS LEGEND
  
 Use, reproduction and disclosure by the US Government is
 subject to restrictions as set forth in subparagraphs (a)
 and (c) of the Commercial Computer Software - Restricted
 Rights clause in FAR 52.227-19.
  
 Gaussian, Inc.
 340 Quinnipiac St., Bldg. 40, Wallingford CT 06492
  
  
 ---------------------------------------------------------------
 Warning -- This program may not be used in any manner that
 competes with the business of Gaussian, Inc. or will provide
 assistance to any competitor of Gaussian, Inc.  The licensee
 of this program is prohibited from giving any competitor of
 Gaussian, Inc. access to this program.  By using this program,
 the user acknowledges that Gaussian, Inc. is engaged in the
 business of creating and licensing software in the field of
 computational chemistry and represents and warrants to the
 licensee that it is not a competitor of Gaussian, Inc. and that
 it will not use this program in any manner prohibited above.
 ---------------------------------------------------------------
  

 Cite this work as:
 Gaussian 16, Revision A.03,
 M. J. Frisch, G. W. Trucks, H. B. Schlegel, G. E. Scuseria, 
 M. A. Robb, J. R. Cheeseman, G. Scalmani, V. Barone, 
 G. A. Petersson, H. Nakatsuji, X. Li, M. Caricato, A. V. Marenich, 
 J. Bloino, B. G. Janesko, R. Gomperts, B. Mennucci, H. P. Hratchian, 
 J. V. Ortiz, A. F. Izmaylov, J. L. Sonnenberg, D. Williams-Young, 
 F. Ding, F. Lipparini, F. Egidi, J. Goings, B. Peng, A. Petrone, 
 T. Henderson, D. Ranasinghe, V. G. Zakrzewski, J. Gao, N. Rega, 
 G. Zheng, W. Liang, M. Hada, M. Ehara, K. Toyota, R. Fukuda, 
 J. Hasegawa, M. Ishida, T. Nakajima, Y. Honda, O. Kitao, H. Nakai, 
 T. Vreven, K. Throssell, J. A. Montgomery, Jr., J. E. Peralta, 
 F. Ogliaro, M. J. Bearpark, J. J. Heyd, E. N. Brothers, K. N. Kudin, 
 V. N. Staroverov, T. A. Keith, R. Kobayashi, J. Normand, 
 K. Raghavachari, A. P. Rendell, J. C. Burant, S. S. Iyengar, 
 J. Tomasi, M. Cossi, J. M. Millam, M. Klene, C. Adamo, R. Cammi, 
 J. W. Ochterski, R. L. Martin, K. Morokuma, O. Farkas, 
 J. B. Foresman, and D. J. Fox, Gaussian, Inc., Wallingford CT, 2016.
 
 ******************************************
 Gaussian 16:  ES64L-G16RevA.03 25-Dec-2016
                17-Jul-2024 
 ******************************************
 %nprocshared=4
 Will use up to    4 processors via shared memory.
 %mem=8GB
 %Chk=CJKRXEBLWJVYJD-UHFFFAOYSA-N_conf_1_0.chk
 -------------------------------------------------------
 # opt=CalcFc B3LYP/6-31G** SCRF=(Solvent=water) scf=xqc
 -------------------------------------------------------
 1/10=4,18=20,19=15,26=3,38=1/1,3;
 2/9=110,12=2,17=6,18=5,40=1/2;
 3/5=1,6=6,7=101,11=2,25=1,30=1,70=2201,71=2,72=1,74=-5,140=1/1,2,3;
 4//1;
 5/5=2,8=3,13=1,38=5,53=1/2,8;
 8/6=4,10=90,11=11/1;
 11/6=1,8=1,9=11,15=111,16=1/1,2,10;
 10/6=1,13=1/2;
 6/7=2,8=2,9=2,10=2,28=1/1;
 7/10=1,18=20,25=1/1,2,3,16;
 1/10=4,18=20,19=15,26=3/3(2);
 2/9=110/2;
 99//99;
 2/9=110/2;
 3/5=1,6=6,7=101,11=2,25=1,30=1,70=2205,71=1,72=1,74=-5/1,2,3;
 4/5=5,16=3,69=1/1;
 5/5=2,8=3,13=1,38=5,53=1/2,8;
 7//1,2,3,16;
 1/18=20,19=15,26=3/3(-5);
 2/9=110/2;
 6/7=2,8=2,9=2,10=2,19=2,28=1/1;
 99/9=1/99;
 ----------------------------------
 CJKRXEBLWJVYJD-UHFFFAOYSA-N_conf_1
 ----------------------------------
 Symbolic Z-matrix:
 Charge =  0 Multiplicity = 1
 C                     4.14866  -0.02777   0.35162 
 C                     2.73354  -0.44868   0.71729 
 N                     1.80225  -0.00562  -0.31904 
 C                     0.42266  -0.3837    0.0187 
 C                    -0.54809   0.04156  -1.10223 
 N                    -1.94619  -0.34091  -0.86026 
 C                    -2.57722   0.46605   0.18324 
 C                    -4.04938   0.09688   0.29705 
 H                     4.85243  -0.36538   1.11924 
 H                     4.45735  -0.46448  -0.60425 
 H                     4.23182   1.06163   0.27433 
 H                     2.70161  -1.53975   0.81471 
 H                     2.46869  -0.0109    1.68664 
 H                     1.86062   1.0072   -0.42045 
 H                     0.13906   0.09281   0.96363 
 H                     0.35664  -1.47037   0.15238 
 H                    -0.47801   1.12141  -1.28473 
 H                    -0.23238  -0.44942  -2.03149 
 H                    -2.46595  -0.22374  -1.73056 
 H                    -2.10014   0.28993   1.1525 
 H                    -2.49573   1.5336   -0.05099 
 H                    -4.58166   0.29057  -0.64042 
 H                    -4.17385  -0.96134   0.55077 
 H                    -4.52674   0.6904    1.08347 
 

 GradGradGradGradGradGradGradGradGradGradGradGradGradGradGradGradGradGrad
 Berny optimization.
 Initialization pass.
                           ----------------------------
                           !    Initial Parameters    !
                           ! (Angstroms and Degrees)  !
 --------------------------                            --------------------------
 ! Name  Definition              Value          Derivative Info.                !
 --------------------------------------------------------------------------------
 ! R1    R(1,2)                  1.521          calculate D2E/DX2 analytically  !
 ! R2    R(1,9)                  1.0948         calculate D2E/DX2 analytically  !
 ! R3    R(1,10)                 1.0953         calculate D2E/DX2 analytically  !
 ! R4    R(1,11)                 1.0953         calculate D2E/DX2 analytically  !
 ! R5    R(2,3)                  1.4621         calculate D2E/DX2 analytically  !
 ! R6    R(2,12)                 1.0959         calculate D2E/DX2 analytically  !
 ! R7    R(2,13)                 1.0961         calculate D2E/DX2 analytically  !
 ! R8    R(3,4)                  1.4698         calculate D2E/DX2 analytically  !
 ! R9    R(3,14)                 1.0195         calculate D2E/DX2 analytically  !
 ! R10   R(4,5)                  1.5426         calculate D2E/DX2 analytically  !
 ! R11   R(4,15)                 1.0956         calculate D2E/DX2 analytically  !
 ! R12   R(4,16)                 1.0969         calculate D2E/DX2 analytically  !
 ! R13   R(5,6)                  1.4695         calculate D2E/DX2 analytically  !
 ! R14   R(5,17)                 1.0974         calculate D2E/DX2 analytically  !
 ! R15   R(5,18)                 1.0974         calculate D2E/DX2 analytically  !
 ! R16   R(6,7)                  1.4623         calculate D2E/DX2 analytically  !
 ! R17   R(6,19)                 1.0204         calculate D2E/DX2 analytically  !
 ! R18   R(7,8)                  1.522          calculate D2E/DX2 analytically  !
 ! R19   R(7,20)                 1.0946         calculate D2E/DX2 analytically  !
 ! R20   R(7,21)                 1.096          calculate D2E/DX2 analytically  !
 ! R21   R(8,22)                 1.0953         calculate D2E/DX2 analytically  !
 ! R22   R(8,23)                 1.0953         calculate D2E/DX2 analytically  !
 ! R23   R(8,24)                 1.0948         calculate D2E/DX2 analytically  !
 ! A1    A(2,1,9)              110.1316         calculate D2E/DX2 analytically  !
 ! A2    A(2,1,10)             111.2035         calculate D2E/DX2 analytically  !
 ! A3    A(2,1,11)             111.2747         calculate D2E/DX2 analytically  !
 ! A4    A(9,1,10)             107.9254         calculate D2E/DX2 analytically  !
 ! A5    A(9,1,11)             107.9027         calculate D2E/DX2 analytically  !
 ! A6    A(10,1,11)            108.2762         calculate D2E/DX2 analytically  !
 ! A7    A(1,2,3)              109.7769         calculate D2E/DX2 analytically  !
 ! A8    A(1,2,12)             108.9051         calculate D2E/DX2 analytically  !
 ! A9    A(1,2,13)             109.0806         calculate D2E/DX2 analytically  !
 ! A10   A(3,2,12)             110.2528         calculate D2E/DX2 analytically  !
 ! A11   A(3,2,13)             110.6039         calculate D2E/DX2 analytically  !
 ! A12   A(12,2,13)            108.1795         calculate D2E/DX2 analytically  !
 ! A13   A(2,3,4)              110.919          calculate D2E/DX2 analytically  !
 ! A14   A(2,3,14)             109.5769         calculate D2E/DX2 analytically  !
 ! A15   A(4,3,14)             109.3983         calculate D2E/DX2 analytically  !
 ! A16   A(3,4,5)              110.6574         calculate D2E/DX2 analytically  !
 ! A17   A(3,4,15)             109.2248         calculate D2E/DX2 analytically  !
 ! A18   A(3,4,16)             109.8377         calculate D2E/DX2 analytically  !
 ! A19   A(5,4,15)             110.115          calculate D2E/DX2 analytically  !
 ! A20   A(5,4,16)             108.892          calculate D2E/DX2 analytically  !
 ! A21   A(15,4,16)            108.0713         calculate D2E/DX2 analytically  !
 ! A22   A(4,5,6)              114.0356         calculate D2E/DX2 analytically  !
 ! A23   A(4,5,17)             110.6043         calculate D2E/DX2 analytically  !
 ! A24   A(4,5,18)             108.1156         calculate D2E/DX2 analytically  !
 ! A25   A(6,5,17)             110.1361         calculate D2E/DX2 analytically  !
 ! A26   A(6,5,18)             107.259          calculate D2E/DX2 analytically  !
 ! A27   A(17,5,18)            106.3231         calculate D2E/DX2 analytically  !
 ! A28   A(5,6,7)              112.6083         calculate D2E/DX2 analytically  !
 ! A29   A(5,6,19)             108.3168         calculate D2E/DX2 analytically  !
 ! A30   A(7,6,19)             108.9924         calculate D2E/DX2 analytically  !
 ! A31   A(6,7,8)              109.6888         calculate D2E/DX2 analytically  !
 ! A32   A(6,7,20)             110.7953         calculate D2E/DX2 analytically  !
 ! A33   A(6,7,21)             110.6672         calculate D2E/DX2 analytically  !
 ! A34   A(8,7,20)             108.4419         calculate D2E/DX2 analytically  !
 ! A35   A(8,7,21)             108.9146         calculate D2E/DX2 analytically  !
 ! A36   A(20,7,21)            108.2747         calculate D2E/DX2 analytically  !
 ! A37   A(7,8,22)             111.2938         calculate D2E/DX2 analytically  !
 ! A38   A(7,8,23)             111.1968         calculate D2E/DX2 analytically  !
 ! A39   A(7,8,24)             110.1187         calculate D2E/DX2 analytically  !
 ! A40   A(22,8,23)            108.2943         calculate D2E/DX2 analytically  !
 ! A41   A(22,8,24)            107.8819         calculate D2E/DX2 analytically  !
 ! A42   A(23,8,24)            107.9281         calculate D2E/DX2 analytically  !
 ! D1    D(9,1,2,3)           -179.4441         calculate D2E/DX2 analytically  !
 ! D2    D(9,1,2,12)           -58.6484         calculate D2E/DX2 analytically  !
 ! D3    D(9,1,2,13)            59.2185         calculate D2E/DX2 analytically  !
 ! D4    D(10,1,2,3)           -59.8521         calculate D2E/DX2 analytically  !
 ! D5    D(10,1,2,12)           60.9435         calculate D2E/DX2 analytically  !
 ! D6    D(10,1,2,13)          178.8105         calculate D2E/DX2 analytically  !
 ! D7    D(11,1,2,3)            60.9466         calculate D2E/DX2 analytically  !
 ! D8    D(11,1,2,12)         -178.2577         calculate D2E/DX2 analytically  !
 ! D9    D(11,1,2,13)          -60.3908         calculate D2E/DX2 analytically  !
 ! D10   D(1,2,3,4)           -179.2184         calculate D2E/DX2 analytically  !
 ! D11   D(1,2,3,14)           -58.333          calculate D2E/DX2 analytically  !
 ! D12   D(12,2,3,4)            60.8034         calculate D2E/DX2 analytically  !
 ! D13   D(12,2,3,14)         -178.3112         calculate D2E/DX2 analytically  !
 ! D14   D(13,2,3,4)           -58.8003         calculate D2E/DX2 analytically  !
 ! D15   D(13,2,3,14)           62.0851         calculate D2E/DX2 analytically  !
 ! D16   D(2,3,4,5)           -177.9627         calculate D2E/DX2 analytically  !
 ! D17   D(2,3,4,15)            60.6569         calculate D2E/DX2 analytically  !
 ! D18   D(2,3,4,16)           -57.7059         calculate D2E/DX2 analytically  !
 ! D19   D(14,3,4,5)            61.0465         calculate D2E/DX2 analytically  !
 ! D20   D(14,3,4,15)          -60.3339         calculate D2E/DX2 analytically  !
 ! D21   D(14,3,4,16)         -178.6966         calculate D2E/DX2 analytically  !
 ! D22   D(3,4,5,6)            178.1003         calculate D2E/DX2 analytically  !
 ! D23   D(3,4,5,17)           -57.1242         calculate D2E/DX2 analytically  !
 ! D24   D(3,4,5,18)            58.9106         calculate D2E/DX2 analytically  !
 ! D25   D(15,4,5,6)           -61.0465         calculate D2E/DX2 analytically  !
 ! D26   D(15,4,5,17)           63.729          calculate D2E/DX2 analytically  !
 ! D27   D(15,4,5,18)          179.7638         calculate D2E/DX2 analytically  !
 ! D28   D(16,4,5,6)            57.2801         calculate D2E/DX2 analytically  !
 ! D29   D(16,4,5,17)         -177.9444         calculate D2E/DX2 analytically  !
 ! D30   D(16,4,5,18)          -61.9097         calculate D2E/DX2 analytically  !
 ! D31   D(4,5,6,7)             72.6496         calculate D2E/DX2 analytically  !
 ! D32   D(4,5,6,19)          -166.7395         calculate D2E/DX2 analytically  !
 ! D33   D(17,5,6,7)           -52.375          calculate D2E/DX2 analytically  !
 ! D34   D(17,5,6,19)           68.2358         calculate D2E/DX2 analytically  !
 ! D35   D(18,5,6,7)          -167.6765         calculate D2E/DX2 analytically  !
 ! D36   D(18,5,6,19)          -47.0656         calculate D2E/DX2 analytically  !
 ! D37   D(5,6,7,8)            175.2192         calculate D2E/DX2 analytically  !
 ! D38   D(5,6,7,20)           -65.0918         calculate D2E/DX2 analytically  !
 ! D39   D(5,6,7,21)            55.0241         calculate D2E/DX2 analytically  !
 ! D40   D(19,6,7,8)            54.9968         calculate D2E/DX2 analytically  !
 ! D41   D(19,6,7,20)          174.6858         calculate D2E/DX2 analytically  !
 ! D42   D(19,6,7,21)          -65.1983         calculate D2E/DX2 analytically  !
 ! D43   D(6,7,8,22)           -60.9603         calculate D2E/DX2 analytically  !
 ! D44   D(6,7,8,23)            59.87           calculate D2E/DX2 analytically  !
 ! D45   D(6,7,8,24)           179.4526         calculate D2E/DX2 analytically  !
 ! D46   D(20,7,8,22)          177.921          calculate D2E/DX2 analytically  !
 ! D47   D(20,7,8,23)          -61.2487         calculate D2E/DX2 analytically  !
 ! D48   D(20,7,8,24)           58.3339         calculate D2E/DX2 analytically  !
 ! D49   D(21,7,8,22)           60.296          calculate D2E/DX2 analytically  !
 ! D50   D(21,7,8,23)         -178.8737         calculate D2E/DX2 analytically  !
 ! D51   D(21,7,8,24)          -59.2911         calculate D2E/DX2 analytically  !
 --------------------------------------------------------------------------------
 Trust Radius=3.00D-01 FncErr=1.00D-07 GrdErr=1.00D-06 EigMax=2.50D+02 EigMin=1.00D-04
 Number of steps in this run=    126 maximum allowed number of steps=    144.
 GradGradGradGradGradGradGradGradGradGradGradGradGradGradGradGradGradGrad

                          Input orientation:                          
 ---------------------------------------------------------------------
 Center     Atomic      Atomic             Coordinates (Angstroms)
 Number     Number       Type             X           Y           Z
 ---------------------------------------------------------------------
      1          6           0        4.148664   -0.027768    0.351617
      2          6           0        2.733538   -0.448680    0.717293
      3          7           0        1.802247   -0.005615   -0.319041
      4          6           0        0.422665   -0.383697    0.018704
      5          6           0       -0.548094    0.041561   -1.102231
      6          7           0       -1.946190   -0.340914   -0.860263
      7          6           0       -2.577216    0.466049    0.183238
      8          6           0       -4.049383    0.096882    0.297050
      9          1           0        4.852432   -0.365384    1.119243
     10          1           0        4.457351   -0.464485   -0.604245
     11          1           0        4.231817    1.061631    0.274331
     12          1           0        2.701605   -1.539750    0.814709
     13          1           0        2.468689   -0.010898    1.686636
     14          1           0        1.860620    1.007198   -0.420446
     15          1           0        0.139061    0.092813    0.963627
     16          1           0        0.356638   -1.470368    0.152376
     17          1           0       -0.478007    1.121414   -1.284731
     18          1           0       -0.232385   -0.449418   -2.031493
     19          1           0       -2.465946   -0.223735   -1.730556
     20          1           0       -2.100135    0.289929    1.152499
     21          1           0       -2.495728    1.533602   -0.050993
     22          1           0       -4.581655    0.290573   -0.640424
     23          1           0       -4.173845   -0.961338    0.550775
     24          1           0       -4.526743    0.690398    1.083470
 ---------------------------------------------------------------------
                    Distance matrix (angstroms):
                    1          2          3          4          5
     1  C    0.000000
     2  C    1.521009   0.000000
     3  N    2.440481   1.462053   0.000000
     4  C    3.757737   2.415033   1.469784   0.000000
     5  C    4.917115   3.784193   2.477845   1.542632   0.000000
     6  N    6.222054   4.939651   3.802121   2.527031   1.469526
     7  C    6.746085   5.415353   4.433333   3.122246   2.439253
     8  C    8.199176   6.817790   5.884866   4.506400   3.770951
     9  H    1.094771   2.158289   3.391419   4.564467   5.853737
    10  H    1.095300   2.172152   2.709516   4.083293   5.055547
    11  H    1.095297   2.173037   2.719175   4.082151   5.077698
    12  H    2.143484   1.095875   2.108982   2.676500   4.090935
    13  H    2.145898   1.096095   2.113507   2.665931   4.108712
    14  H    2.627238   2.043531   1.019550   2.048209   2.683131
    15  H    4.057833   2.661805   2.102644   1.095615   2.177746
    16  H    4.062051   2.648138   2.111285   1.096851   2.162986
    17  H    5.040272   4.097233   2.720719   2.185295   1.097407
    18  H    5.005057   4.043826   2.696141   2.153304   1.097388
    19  H    6.937357   5.751279   4.500825   3.380765   2.035517
    20  H    6.307919   4.909109   4.181072   2.846714   2.748513
    21  H    6.837245   5.644904   4.573143   3.492551   2.669188
    22  H    8.792267   7.476761   6.398846   5.092378   4.067541
    23  H    8.377075   6.928383   6.114218   4.663118   4.109051
    24  H    8.735792   7.358211   6.519784   5.175330   4.585621
                    6          7          8          9         10
     6  N    0.000000
     7  C    1.462284   0.000000
     8  C    2.440175   1.522010   0.000000
     9  H    7.080982   7.534391   8.951648   0.000000
    10  H    6.409848   7.139408   8.572746   1.770966   0.000000
    11  H    6.436008   6.835637   8.337237   1.770709   1.775328
    12  H    5.083772   5.682247   6.965800   2.469399   2.500454
    13  H    5.107520   5.286666   6.665420   2.475849   3.067353
    14  H    4.062345   4.511282   6.022592   3.633946   2.990425
    15  H    2.804098   2.850697   4.241156   4.738146   4.627788
    16  H    2.757557   3.515417   4.678698   4.729481   4.289537
    17  H    2.115215   2.644071   4.038121   6.033510   5.228374
    18  H    2.078625   3.352812   4.504445   5.982438   4.902130
    19  H    1.020435   2.037349   2.592538   7.854940   7.018446
    20  H    2.114916   1.094573   2.137434   6.983462   6.830513
    21  H    2.114407   1.095981   2.144561   7.679262   7.255601
    22  H    2.718967   2.174164   1.095302   9.619185   9.070560
    23  H    2.708948   2.172957   1.095306   9.063774   8.722297
    24  H    3.391305   2.159029   1.094801   9.438478   9.213906
                   11         12         13         14         15
    11  H    0.000000
    12  H    3.066062   0.000000
    13  H    2.500709   1.775357   0.000000
    14  H    2.471487   2.952932   2.417863   0.000000
    15  H    4.261969   3.042050   2.441446   2.390716   0.000000
    16  H    4.630649   2.437698   2.990781   2.954391   1.774544
    17  H    4.961521   4.647513   4.335224   2.495839   2.548314
    18  H    5.246826   4.230601   4.616555   3.016268   3.066387
    19  H    7.108570   5.908795   6.006091   4.685164   3.760969
    20  H    6.438969   5.149615   4.609767   4.321599   2.255777
    21  H    6.751922   6.099771   5.481813   4.403563   3.169770
    22  H    8.894301   7.649404   7.430575   6.485743   4.989715
    23  H    8.650085   6.904784   6.805642   6.421307   4.459018
    24  H    8.803686   7.569333   7.056322   6.569668   4.705443
                   16         17         18         19         20
    16  H    0.000000
    17  H    3.078838   0.000000
    18  H    2.481646   1.756558   0.000000
    19  H    3.614762   2.441329   2.265015   0.000000
    20  H    3.183493   3.043477   3.764695   2.951216   0.000000
    21  H    4.147432   2.400668   3.602426   2.431060   1.775277
    22  H    5.302469   4.236196   4.625886   2.434980   3.061456
    23  H    4.576364   4.622354   4.739755   2.943713   2.495599
    24  H    5.420632   4.710245   5.426203   3.605726   2.460399
                   21         22         23         24
    21  H    0.000000
    22  H    2.498728   0.000000
    23  H    3.066419   1.775540   0.000000
    24  H    2.474473   1.770503   1.771026   0.000000
 Stoichiometry    C6H16N2
 Framework group  C1[X(C6H16N2)]
 Deg. of freedom    66
 Full point group                 C1      NOp   1
 Largest Abelian subgroup         C1      NOp   1
 Largest concise Abelian subgroup C1      NOp   1
                         Standard orientation:                         
 ---------------------------------------------------------------------
 Center     Atomic      Atomic             Coordinates (Angstroms)
 Number     Number       Type             X           Y           Z
 ---------------------------------------------------------------------
      1          6           0        4.165374   -0.145479    0.206163
      2          6           0        2.797288   -0.601143   -0.277757
      3          7           0        1.781239    0.369666    0.125696
      4          6           0        0.444861   -0.056006   -0.313805
      5          6           0       -0.615311    0.996719    0.070279
      6          7           0       -1.976250    0.665423   -0.374238
      7          6           0       -2.572233   -0.421183    0.401885
      8          6           0       -4.016026   -0.629525   -0.032363
      9          1           0        4.932294   -0.863608   -0.101485
     10          1           0        4.429476    0.830711   -0.214533
     11          1           0        4.195172   -0.068256    1.298328
     12          1           0        2.819946   -0.695083   -1.369363
     13          1           0        2.577724   -1.587913    0.145918
     14          1           0        1.788125    0.469706    1.140302
     15          1           0        0.203289   -1.019829    0.147778
     16          1           0        0.435722   -0.188382   -1.402600
     17          1           0       -0.605036    1.178117    1.152541
     18          1           0       -0.340066    1.947093   -0.404368
     19          1           0       -2.556773    1.499153   -0.278454
     20          1           0       -2.025146   -1.356176    0.245128
     21          1           0       -2.553454   -0.187357    1.472467
     22          1           0       -4.616816    0.270042    0.139439
     23          1           0       -4.076774   -0.885668   -1.095564
     24          1           0       -4.466326   -1.448476    0.537846
 ---------------------------------------------------------------------
 Rotational constants (GHZ):           7.3487416           0.5900641           0.5697210
 Standard basis: 6-31G(d,p) (6D, 7F)
 There are   200 symmetry adapted cartesian basis functions of A   symmetry.
 There are   200 symmetry adapted basis functions of A   symmetry.
   200 basis functions,   336 primitive gaussians,   200 cartesian basis functions
    33 alpha electrons       33 beta electrons
       nuclear repulsion energy       388.1622145429 Hartrees.
 NAtoms=   24 NActive=   24 NUniq=   24 SFac= 1.00D+00 NAtFMM=   60 NAOKFM=F Big=F
 Integral buffers will be    131072 words long.
 Raffenetti 2 integral format.
 Two-electron integral symmetry is turned on.
 Force inversion solution in PCM.
 ------------------------------------------------------------------------------
 Polarizable Continuum Model (PCM)
 =================================
 Model                : PCM.
 Atomic radii         : UFF (Universal Force Field).
 Polarization charges : Total charges.
 Charge compensation  : None.
 Solution method      : Matrix inversion.
 Cavity type          : Scaled VdW (van der Waals Surface) (Alpha=1.100).
 Cavity algorithm     : GePol (No added spheres)
                        Default sphere list used, NSphG=   24.
                        Lebedev-Laikov grids with approx.  5.0 points / Ang**2.
                        Smoothing algorithm: York/Karplus (Gamma=1.0000).
                        Polarization charges: spherical gaussians, with
                                              point-specific exponents (IZeta= 3).
                        Self-potential: point-specific (ISelfS= 7).
                        Self-field    : sphere-specific E.n sum rule (ISelfD= 2).
 1st derivatives      : Analytical E(r).r(x)/FMM algorithm (CHGder, D1EAlg=3).
                        Cavity 1st derivative terms included.
 2nd derivatives      : Analytical E(r).r(xy)/FMM algorithm (CHGder, D2EAlg=3).
                        Cavity 2nd derivative terms included.
 Solvent              : Water, Eps=  78.355300 Eps(inf)=   1.777849
 ------------------------------------------------------------------------------
 One-electron integrals computed using PRISM.
 NBasis=   200 RedAO= T EigKep=  3.07D-03  NBF=   200
 NBsUse=   200 1.00D-06 EigRej= -1.00D+00 NBFU=   200
 ExpMin= 1.61D-01 ExpMax= 4.17D+03 ExpMxC= 6.27D+02 IAcc=3 IRadAn=         5 AccDes= 0.00D+00
 Harris functional with IExCor=  402 and IRadAn=       5 diagonalized for initial guess.
 HarFok:  IExCor=  402 AccDes= 0.00D+00 IRadAn=         5 IDoV= 1 UseB2=F ITyADJ=14
 ICtDFT=  3500011 ScaDFX=  1.000000  1.000000  1.000000  1.000000
 FoFCou: FMM=F IPFlag=           0 FMFlag=      100000 FMFlg1=           0
         NFxFlg=           0 DoJE=T BraDBF=F KetDBF=T FulRan=T
         wScrn=  0.000000 ICntrl=       500 IOpCl=  0 I1Cent=   200000004 NGrid=           0
         NMat0=    1 NMatS0=      1 NMatT0=    0 NMatD0=    1 NMtDS0=    0 NMtDT0=    0
 Petite list used in FoFCou.
 Keep R1 ints in memory in canonical form, NReq=206134434.
 Requested convergence on RMS density matrix=1.00D-08 within  32 cycles.
 Requested convergence on MAX density matrix=1.00D-06.
 Requested convergence on             energy=1.00D-06.
 No special actions if energy rises.
 Inv3:  Mode=1 IEnd=     8649612.
 Iteration    1 A*A^-1 deviation from unit magnitude is 3.22D-15 for     55.
 Iteration    1 A*A^-1 deviation from orthogonality  is 1.80D-15 for   1093     10.
 Iteration    1 A^-1*A deviation from unit magnitude is 3.33D-15 for    381.
 Iteration    1 A^-1*A deviation from orthogonality  is 2.66D-15 for   1571    736.
 Error on total polarization charges =  0.01036
 SCF Done:  E(RB3LYP) =  -347.786909082     A.U. after   11 cycles
            NFock= 11  Conv=0.28D-08     -V/T= 2.0098
 QCSCF skips out because SCF is already converged.
 DoSCS=F DFT=T ScalE2(SS,OS)=  1.000000  1.000000
 Range of M.O.s used for correlation:     1   200
 NBasis=   200 NAE=    33 NBE=    33 NFC=     0 NFV=     0
 NROrb=    200 NOA=    33 NOB=    33 NVA=   167 NVB=   167
 Symmetrizing basis deriv contribution to polar:
 IMax=3 JMax=2 DiffMx= 0.00D+00
 G2DrvN: will do    25 centers at a time, making    1 passes.
 Calling FoFCou, ICntrl=  3107 FMM=F I1Cent=   0 AccDes= 0.00D+00.
 NEqPCM:  Using equilibrium solvation (IEInf=0, Eps=  78.3553, EpsInf=   1.7778)
 G2PCM: DoFxE=T DoFxN=T DoGrad=T DoDP/DQ/DG/TGxP=FFFF NFrqRd=   0 IEInf=0 SqF1=F DoCFld=F IF1Alg=4.
 End of G2Drv F.D. properties file   721 does not exist.
 End of G2Drv F.D. properties file   722 does not exist.
 End of G2Drv F.D. properties file   788 does not exist.
          IDoAtm=111111111111111111111111
 NEqPCM:  Using equilibrium solvation (IEInf=0, Eps=  78.3553, EpsInf=   1.7778)
          Differentiating once with respect to nuclear coordinates.
 Keep R1 ints in memory in canonical form, NReq=209877107.
          There are    75 degrees of freedom in the 1st order CPHF.  IDoFFX=6 NUNeed=     0.
     69 vectors produced by pass  0 Test12= 7.35D-15 1.33D-09 XBig12= 8.14D-02 5.49D-02.
 AX will form    69 AO Fock derivatives at one time.
     69 vectors produced by pass  1 Test12= 7.35D-15 1.33D-09 XBig12= 5.00D-03 8.12D-03.
     69 vectors produced by pass  2 Test12= 7.35D-15 1.33D-09 XBig12= 3.39D-05 9.01D-04.
     69 vectors produced by pass  3 Test12= 7.35D-15 1.33D-09 XBig12= 1.06D-07 3.15D-05.
     69 vectors produced by pass  4 Test12= 7.35D-15 1.33D-09 XBig12= 1.10D-10 8.75D-07.
     25 vectors produced by pass  5 Test12= 7.35D-15 1.33D-09 XBig12= 6.81D-14 3.41D-08.
      1 vectors produced by pass  6 Test12= 7.35D-15 1.33D-09 XBig12= 5.63D-17 1.58D-09.
 InvSVY:  IOpt=1 It=  1 EMax= 4.16D-16
 Solved reduced A of dimension   371 with    75 vectors.
 End of Minotr F.D. properties file   721 does not exist.
 End of Minotr F.D. properties file   722 does not exist.
 End of Minotr F.D. properties file   788 does not exist.

 **********************************************************************

            Population analysis using the SCF density.

 **********************************************************************

 Orbital symmetries:
       Occupied  (A) (A) (A) (A) (A) (A) (A) (A) (A) (A) (A) (A)
                 (A) (A) (A) (A) (A) (A) (A) (A) (A) (A) (A) (A)
                 (A) (A) (A) (A) (A) (A) (A) (A) (A)
       Virtual   (A) (A) (A) (A) (A) (A) (A) (A) (A) (A) (A) (A)
                 (A) (A) (A) (A) (A) (A) (A) (A) (A) (A) (A) (A)
                 (A) (A) (A) (A) (A) (A) (A) (A) (A) (A) (A) (A)
                 (A) (A) (A) (A) (A) (A) (A) (A) (A) (A) (A) (A)
                 (A) (A) (A) (A) (A) (A) (A) (A) (A) (A) (A) (A)
                 (A) (A) (A) (A) (A) (A) (A) (A) (A) (A) (A) (A)
                 (A) (A) (A) (A) (A) (A) (A) (A) (A) (A) (A) (A)
                 (A) (A) (A) (A) (A) (A) (A) (A) (A) (A) (A) (A)
                 (A) (A) (A) (A) (A) (A) (A) (A) (A) (A) (A) (A)
                 (A) (A) (A) (A) (A) (A) (A) (A) (A) (A) (A) (A)
                 (A) (A) (A) (A) (A) (A) (A) (A) (A) (A) (A) (A)
                 (A) (A) (A) (A) (A) (A) (A) (A) (A) (A) (A) (A)
                 (A) (A) (A) (A) (A) (A) (A) (A) (A) (A) (A) (A)
                 (A) (A) (A) (A) (A) (A) (A) (A) (A) (A) (A)
 The electronic state is 1-A.
 Alpha  occ. eigenvalues --  -14.31235 -14.31175 -10.20083 -10.20042 -10.19991
 Alpha  occ. eigenvalues --  -10.19984 -10.17117 -10.17072  -0.90406  -0.88803
 Alpha  occ. eigenvalues --   -0.75735  -0.73332  -0.67938  -0.61349  -0.60061
 Alpha  occ. eigenvalues --   -0.58022  -0.48829  -0.47695  -0.45453  -0.44815
 Alpha  occ. eigenvalues --   -0.43323  -0.42450  -0.41921  -0.37925  -0.36984
 Alpha  occ. eigenvalues --   -0.35917  -0.35447  -0.34524  -0.34311  -0.32871
 Alpha  occ. eigenvalues --   -0.32603  -0.22369  -0.21538
 Alpha virt. eigenvalues --    0.08873   0.09121   0.11647   0.12017   0.12335
 Alpha virt. eigenvalues --    0.14028   0.15593   0.16006   0.17025   0.17432
 Alpha virt. eigenvalues --    0.18085   0.18710   0.19425   0.20090   0.20511
 Alpha virt. eigenvalues --    0.21991   0.22851   0.23610   0.25363   0.25994
 Alpha virt. eigenvalues --    0.26415   0.28564   0.29205   0.49766   0.51148
 Alpha virt. eigenvalues --    0.51828   0.52983   0.55363   0.55545   0.57244
 Alpha virt. eigenvalues --    0.57941   0.58866   0.61613   0.63519   0.64649
 Alpha virt. eigenvalues --    0.65724   0.68432   0.69649   0.72280   0.74071
 Alpha virt. eigenvalues --    0.77265   0.80182   0.81403   0.82202   0.83264
 Alpha virt. eigenvalues --    0.85862   0.86158   0.86980   0.87560   0.87910
 Alpha virt. eigenvalues --    0.89444   0.90066   0.92206   0.92775   0.94238
 Alpha virt. eigenvalues --    0.94618   0.95198   0.95570   0.98394   0.98993
 Alpha virt. eigenvalues --    1.00662   1.01731   1.09739   1.11239   1.23979
 Alpha virt. eigenvalues --    1.27788   1.28377   1.30790   1.32211   1.39750
 Alpha virt. eigenvalues --    1.40226   1.46962   1.51942   1.54558   1.56417
 Alpha virt. eigenvalues --    1.60194   1.65996   1.67156   1.70502   1.72306
 Alpha virt. eigenvalues --    1.76243   1.78321   1.80914   1.82566   1.84895
 Alpha virt. eigenvalues --    1.86568   1.88119   1.91122   1.94643   1.96954
 Alpha virt. eigenvalues --    1.98305   2.01224   2.04709   2.05245   2.05485
 Alpha virt. eigenvalues --    2.06126   2.06712   2.07628   2.09674   2.10267
 Alpha virt. eigenvalues --    2.10855   2.13457   2.15541   2.17355   2.20954
 Alpha virt. eigenvalues --    2.22906   2.26707   2.27414   2.27621   2.32071
 Alpha virt. eigenvalues --    2.34450   2.37199   2.38691   2.40714   2.41894
 Alpha virt. eigenvalues --    2.43856   2.45589   2.47317   2.52144   2.54808
 Alpha virt. eigenvalues --    2.59733   2.59992   2.62531   2.66563   2.70460
 Alpha virt. eigenvalues --    2.71048   2.71788   2.72546   2.75190   2.77252
 Alpha virt. eigenvalues --    2.77643   2.82478   2.84321   2.86878   2.87204
 Alpha virt. eigenvalues --    2.88017   2.89885   2.93769   2.94145   2.95275
 Alpha virt. eigenvalues --    2.96600   2.98727   3.00912   3.18883   3.19376
 Alpha virt. eigenvalues --    3.26063   3.29201   3.30350   3.31338   3.33110
 Alpha virt. eigenvalues --    3.39918   3.41394   3.44149   3.45213   3.49895
 Alpha virt. eigenvalues --    3.51339   3.53970   3.56350   3.58149   3.99988
 Alpha virt. eigenvalues --    4.13013   4.36757   4.37488   4.39936   4.59785
 Alpha virt. eigenvalues --    4.61407   4.68429
          Condensed to atoms (all electrons):
               1          2          3          4          5          6
     1  C    4.954752   0.373186  -0.054627   0.004990  -0.000235   0.000001
     2  C    0.373186   4.757697   0.304867  -0.040001   0.004346  -0.000092
     3  N   -0.054627   0.304867   6.893004   0.277310  -0.038523   0.002292
     4  C    0.004990  -0.040001   0.277310   4.855449   0.362372  -0.049191
     5  C   -0.000235   0.004346  -0.038523   0.362372   4.861225   0.284565
     6  N    0.000001  -0.000092   0.002292  -0.049191   0.284565   6.876141
     7  C    0.000000   0.000000   0.000052  -0.005361  -0.043712   0.309118
     8  C    0.000000  -0.000000  -0.000001   0.000182   0.005033  -0.053122
     9  H    0.371898  -0.027460   0.004230  -0.000202   0.000002  -0.000000
    10  H    0.379581  -0.033657   0.003839  -0.000020   0.000002   0.000000
    11  H    0.387298  -0.032159  -0.005028   0.000125  -0.000001  -0.000000
    12  H   -0.033339   0.392910  -0.044841  -0.003329   0.000128  -0.000007
    13  H   -0.045165   0.370987  -0.052463  -0.006880   0.000009   0.000014
    14  H   -0.003330  -0.037535   0.336618  -0.037941  -0.003607  -0.000102
    15  H    0.000032  -0.006714  -0.050128   0.373959  -0.047177   0.000641
    16  H    0.000221  -0.004032  -0.039102   0.374837  -0.030286   0.005071
    17  H    0.000012  -0.000023  -0.000219  -0.055285   0.370231  -0.050988
    18  H    0.000001  -0.000062   0.005418  -0.034741   0.373288  -0.032047
    19  H   -0.000000   0.000002  -0.000110   0.005107  -0.031135   0.337862
    20  H   -0.000000   0.000006  -0.000139   0.002649  -0.003082  -0.044963
    21  H    0.000000  -0.000001   0.000024  -0.001576  -0.007394  -0.054971
    22  H   -0.000000   0.000000   0.000000   0.000003   0.000052  -0.004974
    23  H    0.000000  -0.000000   0.000000  -0.000039   0.000051   0.003743
    24  H   -0.000000   0.000000  -0.000000   0.000001  -0.000220   0.004095
               7          8          9         10         11         12
     1  C    0.000000   0.000000   0.371898   0.379581   0.387298  -0.033339
     2  C    0.000000  -0.000000  -0.027460  -0.033657  -0.032159   0.392910
     3  N    0.000052  -0.000001   0.004230   0.003839  -0.005028  -0.044841
     4  C   -0.005361   0.000182  -0.000202  -0.000020   0.000125  -0.003329
     5  C   -0.043712   0.005033   0.000002   0.000002  -0.000001   0.000128
     6  N    0.309118  -0.053122  -0.000000   0.000000  -0.000000  -0.000007
     7  C    4.770359   0.372302  -0.000000  -0.000000   0.000000   0.000000
     8  C    0.372302   4.953234   0.000000   0.000000  -0.000000  -0.000000
     9  H   -0.000000   0.000000   0.608771  -0.028259  -0.030474  -0.003601
    10  H   -0.000000   0.000000  -0.028259   0.604776  -0.033866  -0.006930
    11  H    0.000000  -0.000000  -0.030474  -0.033866   0.603073   0.005400
    12  H    0.000000  -0.000000  -0.003601  -0.006930   0.005400   0.629182
    13  H   -0.000005   0.000000   0.000647   0.006583  -0.006980  -0.051970
    14  H   -0.000012  -0.000000  -0.000196  -0.000700   0.005274   0.006400
    15  H    0.001558  -0.000072   0.000027   0.000038  -0.000034  -0.002005
    16  H   -0.000241  -0.000055  -0.000008  -0.000031   0.000007   0.006447
    17  H   -0.010814   0.000083  -0.000000   0.000001  -0.000005  -0.000003
    18  H    0.005834  -0.000276   0.000000   0.000003   0.000000  -0.000029
    19  H   -0.040034  -0.004578   0.000000  -0.000000   0.000000   0.000000
    20  H    0.393250  -0.031875   0.000000   0.000000   0.000000   0.000000
    21  H    0.370948  -0.044170   0.000000   0.000000  -0.000000  -0.000000
    22  H   -0.032465   0.386492  -0.000000  -0.000000   0.000000   0.000000
    23  H   -0.033780   0.379629   0.000000   0.000000  -0.000000  -0.000000
    24  H   -0.027826   0.373774   0.000000  -0.000000  -0.000000  -0.000000
              13         14         15         16         17         18
     1  C   -0.045165  -0.003330   0.000032   0.000221   0.000012   0.000001
     2  C    0.370987  -0.037535  -0.006714  -0.004032  -0.000023  -0.000062
     3  N   -0.052463   0.336618  -0.050128  -0.039102  -0.000219   0.005418
     4  C   -0.006880  -0.037941   0.373959   0.374837  -0.055285  -0.034741
     5  C    0.000009  -0.003607  -0.047177  -0.030286   0.370231   0.373288
     6  N    0.000014  -0.000102   0.000641   0.005071  -0.050988  -0.032047
     7  C   -0.000005  -0.000012   0.001558  -0.000241  -0.010814   0.005834
     8  C    0.000000  -0.000000  -0.000072  -0.000055   0.000083  -0.000276
     9  H    0.000647  -0.000196   0.000027  -0.000008  -0.000000   0.000000
    10  H    0.006583  -0.000700   0.000038  -0.000031   0.000001   0.000003
    11  H   -0.006980   0.005274  -0.000034   0.000007  -0.000005   0.000000
    12  H   -0.051970   0.006400  -0.002005   0.006447  -0.000003  -0.000029
    13  H    0.699959  -0.005940   0.013724  -0.002144  -0.000009   0.000041
    14  H   -0.005940   0.488261  -0.006025   0.006453   0.005663  -0.000758
    15  H    0.013724  -0.006025   0.684934  -0.050272  -0.006701   0.006806
    16  H   -0.002144   0.006453  -0.050272   0.630635   0.006628  -0.008418
    17  H   -0.000009   0.005663  -0.006701   0.006628   0.696889  -0.044437
    18  H    0.000041  -0.000758   0.006806  -0.008418  -0.044437   0.638711
    19  H   -0.000000  -0.000001  -0.000120  -0.000083  -0.002622  -0.006583
    20  H    0.000004  -0.000009   0.002899  -0.000275  -0.001977   0.000015
    21  H    0.000001   0.000019   0.000390   0.000179   0.016256  -0.000046
    22  H   -0.000000   0.000000  -0.000003   0.000001  -0.000043  -0.000008
    23  H    0.000000   0.000000   0.000013   0.000016   0.000045   0.000003
    24  H   -0.000000   0.000000   0.000007   0.000001   0.000023   0.000004
              19         20         21         22         23         24
     1  C   -0.000000  -0.000000   0.000000  -0.000000   0.000000  -0.000000
     2  C    0.000002   0.000006  -0.000001   0.000000  -0.000000   0.000000
     3  N   -0.000110  -0.000139   0.000024   0.000000   0.000000  -0.000000
     4  C    0.005107   0.002649  -0.001576   0.000003  -0.000039   0.000001
     5  C   -0.031135  -0.003082  -0.007394   0.000052   0.000051  -0.000220
     6  N    0.337862  -0.044963  -0.054971  -0.004974   0.003743   0.004095
     7  C   -0.040034   0.393250   0.370948  -0.032465  -0.033780  -0.027826
     8  C   -0.004578  -0.031875  -0.044170   0.386492   0.379629   0.373774
     9  H    0.000000   0.000000   0.000000  -0.000000   0.000000   0.000000
    10  H   -0.000000   0.000000   0.000000  -0.000000   0.000000  -0.000000
    11  H    0.000000   0.000000  -0.000000   0.000000  -0.000000  -0.000000
    12  H    0.000000   0.000000  -0.000000   0.000000  -0.000000  -0.000000
    13  H   -0.000000   0.000004   0.000001  -0.000000   0.000000  -0.000000
    14  H   -0.000001  -0.000009   0.000019   0.000000   0.000000   0.000000
    15  H   -0.000120   0.002899   0.000390  -0.000003   0.000013   0.000007
    16  H   -0.000083  -0.000275   0.000179   0.000001   0.000016   0.000001
    17  H   -0.002622  -0.001977   0.016256  -0.000043   0.000045   0.000023
    18  H   -0.006583   0.000015  -0.000046  -0.000008   0.000003   0.000004
    19  H    0.485694   0.006456  -0.005317   0.006073  -0.000728  -0.000164
    20  H    0.006456   0.625684  -0.052989   0.005358  -0.007074  -0.003620
    21  H   -0.005317  -0.052989   0.700219  -0.007166   0.006616   0.000321
    22  H    0.006073   0.005358  -0.007166   0.603989  -0.034080  -0.030467
    23  H   -0.000728  -0.007074   0.006616  -0.034080   0.604669  -0.028303
    24  H   -0.000164  -0.003620   0.000321  -0.030467  -0.028303   0.606779
 Mulliken charges:
               1
     1  C   -0.335276
     2  C   -0.022267
     3  N   -0.542473
     4  C   -0.022417
     5  C   -0.055933
     6  N   -0.533082
     7  C   -0.029171
     8  C   -0.336580
     9  H    0.104623
    10  H    0.108640
    11  H    0.107368
    12  H    0.105586
    13  H    0.079588
    14  H    0.247468
    15  H    0.084225
    16  H    0.104450
    17  H    0.077297
    18  H    0.097280
    19  H    0.250280
    20  H    0.109685
    21  H    0.078657
    22  H    0.107237
    23  H    0.109219
    24  H    0.105596
 Sum of Mulliken charges =  -0.00000
 Mulliken charges with hydrogens summed into heavy atoms:
               1
     1  C   -0.014645
     2  C    0.162907
     3  N   -0.295005
     4  C    0.166258
     5  C    0.118644
     6  N   -0.282802
     7  C    0.159171
     8  C   -0.014527
 APT charges:
               1
     1  C   -1.391953
     2  C   -0.572396
     3  N   -0.654207
     4  C   -0.416866
     5  C   -0.577681
     6  N   -0.886415
     7  C   -0.443690
     8  C   -1.398405
     9  H    0.674659
    10  H    0.408532
    11  H    0.346390
    12  H    0.386596
    13  H    0.232829
    14  H    0.437836
    15  H    0.240326
    16  H    0.330144
    17  H    0.290785
    18  H    0.379226
    19  H    0.680326
    20  H    0.201835
    21  H    0.296392
    22  H    0.526730
    23  H    0.349180
    24  H    0.559827
 Sum of APT charges =  -0.00000
 APT charges with hydrogens summed into heavy atoms:
               1
     1  C    0.037628
     2  C    0.047030
     3  N   -0.216371
     4  C    0.153604
     5  C    0.092331
     6  N   -0.206089
     7  C    0.054537
     8  C    0.037331
 Electronic spatial extent (au):  <R**2>=           2061.9950
 Charge=             -0.0000 electrons
 Dipole moment (field-independent basis, Debye):
    X=             -0.4274    Y=             -0.5663    Z=              1.7922  Tot=              1.9275
 Quadrupole moment (field-independent basis, Debye-Ang):
   XX=            -50.7030   YY=            -52.0348   ZZ=            -52.8093
   XY=             -3.8534   XZ=             -1.3257   YZ=              0.9147
 Traceless Quadrupole moment (field-independent basis, Debye-Ang):
   XX=              1.1460   YY=             -0.1858   ZZ=             -0.9603
   XY=             -3.8534   XZ=             -1.3257   YZ=              0.9147
 Octapole moment (field-independent basis, Debye-Ang**2):
  XXX=             -6.4536  YYY=              4.7413  ZZZ=              2.7474  XYY=             -9.0105
  XXY=             -0.5244  XXZ=              6.4064  XZZ=              6.8634  YZZ=              0.2670
  YYZ=             -0.0394  XYZ=              0.9741
 Hexadecapole moment (field-independent basis, Debye-Ang**3):
 XXXX=          -2445.3943 YYYY=           -206.5750 ZZZZ=           -122.0490 XXXY=            -38.2588
 XXXZ=            -15.2292 YYYX=            -13.0268 YYYZ=             -3.6384 ZZZX=              3.3997
 ZZZY=              3.3506 XXYY=           -432.1927 XXZZ=           -431.5169 YYZZ=            -56.8713
 XXYZ=              3.1206 YYXZ=             -0.3772 ZZXY=              2.3570
 N-N= 3.881622145429D+02 E-N=-1.582150853227D+03  KE= 3.444147244844D+02
  Exact polarizability:   0.000   0.000   0.000   0.000   0.000   0.000
 Approx polarizability: 109.312  -0.321 104.209  -0.004   0.081 103.056
 D2PCM: PCM CHGder 2nd derivatives, FixD1E=F FixD2E=F DoIter=F DoCFld=F I1PDM=0
 Calling FoFJK, ICntrl=    100147 FMM=F ISym2X=0 I1Cent= 0 IOpClX= 0 NMat=1 NMatS=1 NMatT=0.
 ***** Axes restored to original set *****
 -------------------------------------------------------------------
 Center     Atomic                   Forces (Hartrees/Bohr)
 Number     Number              X              Y              Z
 -------------------------------------------------------------------
      1        6           0.005780085   -0.001941394    0.002130063
      2        6           0.005644592    0.010367658   -0.007112480
      3        7          -0.006213593   -0.015174072   -0.005155379
      4        6          -0.002705865    0.011377872   -0.008714123
      5        6          -0.001743807   -0.007651072   -0.005552343
      6        7           0.009882927   -0.005974658    0.006818323
      7        6          -0.009969341   -0.004682034   -0.006839117
      8        6          -0.003938414    0.000883619    0.004477653
      9        1           0.001131339    0.001071928   -0.000079991
     10        1          -0.000897913    0.000585386    0.000095568
     11        1           0.000206191    0.000343289   -0.000155001
     12        1          -0.004201171    0.000008057   -0.000838068
     13        1          -0.000387789   -0.001953347    0.007737311
     14        1          -0.000334170   -0.001127200    0.002555292
     15        1          -0.005475720   -0.001776863    0.005558458
     16        1           0.001510001    0.000914156   -0.000119472
     17        1           0.005145831    0.006078515    0.001698108
     18        1           0.001389590    0.000377811    0.001115361
     19        1           0.001086424    0.001024193    0.002985222
     20        1           0.003401452   -0.000020391   -0.001920573
     21        1           0.001809710    0.007139162    0.003084123
     22        1          -0.000321160   -0.000133771   -0.000395414
     23        1           0.000528215    0.000269928   -0.000860517
     24        1          -0.001327411   -0.000006772   -0.000513004
 -------------------------------------------------------------------
 Cartesian Forces:  Max     0.015174072 RMS     0.004625887
 FormGI is forming the generalized inverse of G from B-inverse, IUseBI=4.

 GradGradGradGradGradGradGradGradGradGradGradGradGradGradGradGradGradGrad
 Berny optimization.
 Internal  Forces:  Max     0.009808525 RMS     0.002795696
 Search for a local minimum.
 Step number   1 out of a maximum of  126
 All quantities printed in internal units (Hartrees-Bohrs-Radians)
 Mixed Optimization -- RFO/linear search
 Second derivative matrix not updated -- analytic derivatives used.
 ITU=  0
     Eigenvalues ---    0.00127   0.00221   0.00263   0.00301   0.00321
     Eigenvalues ---    0.00411   0.00471   0.02261   0.02294   0.04351
     Eigenvalues ---    0.04459   0.04485   0.04491   0.04539   0.04560
     Eigenvalues ---    0.04564   0.04675   0.04702   0.05273   0.05303
     Eigenvalues ---    0.05333   0.07817   0.08104   0.08275   0.08627
     Eigenvalues ---    0.09755   0.10058   0.11453   0.12076   0.12244
     Eigenvalues ---    0.12482   0.12513   0.13614   0.13635   0.14075
     Eigenvalues ---    0.16163   0.16167   0.17416   0.21396   0.22624
     Eigenvalues ---    0.23792   0.24614   0.25267   0.26981   0.30332
     Eigenvalues ---    0.30392   0.30917   0.31465   0.32267   0.32421
     Eigenvalues ---    0.32715   0.32887   0.33462   0.33564   0.33593
     Eigenvalues ---    0.33639   0.33790   0.33852   0.34416   0.34424
     Eigenvalues ---    0.35075   0.35645   0.37785   0.38946   0.43257
     Eigenvalues ---    0.43497
 RFO step:  Lambda=-5.31060357D-03 EMin= 1.27150029D-03
 Linear search not attempted -- first point.
 Iteration  1 RMS(Cart)=  0.04070084 RMS(Int)=  0.00081622
 Iteration  2 RMS(Cart)=  0.00202369 RMS(Int)=  0.00020465
 Iteration  3 RMS(Cart)=  0.00000294 RMS(Int)=  0.00020465
 Iteration  4 RMS(Cart)=  0.00000000 RMS(Int)=  0.00020465
 Variable       Old X    -DE/DX   Delta X   Delta X   Delta X     New X
                                 (Linear)    (Quad)   (Total)
    R1        2.87429   0.00533   0.00000   0.01011   0.01011   2.88440
    R2        2.06882   0.00034   0.00000  -0.00071  -0.00071   2.06810
    R3        2.06982  -0.00057   0.00000  -0.00156  -0.00156   2.06826
    R4        2.06981   0.00037   0.00000   0.00169   0.00169   2.07151
    R5        2.76288   0.00332   0.00000   0.00553   0.00553   2.76841
    R6        2.07090   0.00004   0.00000   0.00314   0.00314   2.07404
    R7        2.07132   0.00615   0.00000   0.01859   0.01859   2.08991
    R8        2.77749  -0.00114   0.00000  -0.01109  -0.01109   2.76640
    R9        1.92667  -0.00139   0.00000   0.00031   0.00031   1.92698
   R10        2.91515  -0.00747   0.00000  -0.02260  -0.02260   2.89255
   R11        2.07041   0.00544   0.00000   0.01727   0.01727   2.08768
   R12        2.07275  -0.00101   0.00000   0.00026   0.00026   2.07300
   R13        2.77700   0.00042   0.00000  -0.00681  -0.00681   2.77019
   R14        2.07380   0.00603   0.00000   0.01872   0.01872   2.09252
   R15        2.07376  -0.00072   0.00000  -0.00396  -0.00396   2.06980
   R16        2.76332   0.00403   0.00000   0.00944   0.00944   2.77276
   R17        1.92834  -0.00298   0.00000  -0.00458  -0.00458   1.92376
   R18        2.87618   0.00485   0.00000   0.00837   0.00837   2.88455
   R19        2.06844  -0.00021   0.00000   0.00201   0.00201   2.07045
   R20        2.07110   0.00643   0.00000   0.01909   0.01909   2.09019
   R21        2.06982   0.00047   0.00000   0.00192   0.00192   2.07174
   R22        2.06983  -0.00052   0.00000  -0.00153  -0.00153   2.06830
   R23        2.06887   0.00021   0.00000  -0.00100  -0.00100   2.06788
    A1        1.92216   0.00221   0.00000   0.01091   0.01091   1.93307
    A2        1.94087  -0.00110   0.00000  -0.00612  -0.00615   1.93472
    A3        1.94211  -0.00010   0.00000  -0.00387  -0.00389   1.93822
    A4        1.88365  -0.00003   0.00000   0.00808   0.00807   1.89173
    A5        1.88326  -0.00102   0.00000  -0.00406  -0.00405   1.87921
    A6        1.88978   0.00000   0.00000  -0.00477  -0.00482   1.88495
    A7        1.91597   0.00566   0.00000   0.02379   0.02339   1.93936
    A8        1.90075   0.00159   0.00000   0.01513   0.01542   1.91617
    A9        1.90382  -0.00211   0.00000   0.00568   0.00493   1.90874
   A10        1.92427  -0.00579   0.00000  -0.04180  -0.04172   1.88255
   A11        1.93040   0.00152   0.00000   0.02793   0.02738   1.95779
   A12        1.88809  -0.00094   0.00000  -0.03118  -0.03102   1.85707
   A13        1.93590   0.00981   0.00000   0.03419   0.03433   1.97024
   A14        1.91248  -0.00406   0.00000  -0.02742  -0.02723   1.88525
   A15        1.90936  -0.00344   0.00000  -0.01970  -0.01945   1.88991
   A16        1.93134  -0.00225   0.00000  -0.00375  -0.00408   1.92725
   A17        1.90633   0.00498   0.00000   0.04950   0.04943   1.95576
   A18        1.91703  -0.00186   0.00000  -0.02227  -0.02221   1.89481
   A19        1.92187  -0.00076   0.00000   0.00341   0.00293   1.92480
   A20        1.90052   0.00138   0.00000  -0.00267  -0.00287   1.89766
   A21        1.88620  -0.00150   0.00000  -0.02515  -0.02488   1.86132
   A22        1.99030  -0.00522   0.00000  -0.02474  -0.02468   1.96561
   A23        1.93041  -0.00250   0.00000  -0.02627  -0.02605   1.90436
   A24        1.88697   0.00030   0.00000  -0.00377  -0.00367   1.88330
   A25        1.92224   0.00553   0.00000   0.03635   0.03592   1.95816
   A26        1.87202   0.00228   0.00000   0.01367   0.01338   1.88540
   A27        1.85569   0.00000   0.00000   0.00741   0.00688   1.86257
   A28        1.96539   0.00887   0.00000   0.02845   0.02855   1.99393
   A29        1.89049  -0.00238   0.00000  -0.00938  -0.00917   1.88131
   A30        1.90228  -0.00407   0.00000  -0.02608  -0.02599   1.87629
   A31        1.91443   0.00472   0.00000   0.01941   0.01910   1.93353
   A32        1.93374  -0.00497   0.00000  -0.03589  -0.03588   1.89786
   A33        1.93151   0.00120   0.00000   0.02186   0.02134   1.95285
   A34        1.89267   0.00151   0.00000   0.01561   0.01584   1.90851
   A35        1.90092  -0.00138   0.00000   0.01028   0.00973   1.91065
   A36        1.88975  -0.00111   0.00000  -0.03125  -0.03120   1.85855
   A37        1.94244  -0.00015   0.00000  -0.00399  -0.00402   1.93842
   A38        1.94075  -0.00103   0.00000  -0.00654  -0.00657   1.93418
   A39        1.92193   0.00211   0.00000   0.01117   0.01118   1.93311
   A40        1.89009  -0.00002   0.00000  -0.00513  -0.00519   1.88491
   A41        1.88289  -0.00090   0.00000  -0.00307  -0.00306   1.87983
   A42        1.88370  -0.00003   0.00000   0.00776   0.00776   1.89146
    D1       -3.13189   0.00202   0.00000   0.01990   0.01992  -3.11197
    D2       -1.02361  -0.00062   0.00000  -0.00737  -0.00732  -1.03092
    D3        1.03356  -0.00204   0.00000  -0.03295  -0.03303   1.00053
    D4       -1.04462   0.00272   0.00000   0.03321   0.03322  -1.01140
    D5        1.06367   0.00009   0.00000   0.00594   0.00599   1.06965
    D6        3.12083  -0.00134   0.00000  -0.01964  -0.01973   3.10110
    D7        1.06372   0.00191   0.00000   0.02031   0.02034   1.08406
    D8       -3.11118  -0.00073   0.00000  -0.00696  -0.00689  -3.11807
    D9       -1.05402  -0.00215   0.00000  -0.03254  -0.03260  -1.08662
   D10       -3.12795   0.00056   0.00000   0.01512   0.01478  -3.11317
   D11       -1.01810  -0.00010   0.00000  -0.00555  -0.00600  -1.02410
   D12        1.06122  -0.00136   0.00000   0.00758   0.00774   1.06896
   D13       -3.11212  -0.00202   0.00000  -0.01308  -0.01304  -3.12516
   D14       -1.02626   0.00256   0.00000   0.05540   0.05574  -0.97051
   D15        1.08359   0.00190   0.00000   0.03473   0.03497   1.11856
   D16       -3.10604  -0.00017   0.00000  -0.01564  -0.01554  -3.12158
   D17        1.05866  -0.00104   0.00000  -0.04988  -0.05021   1.00845
   D18       -1.00716  -0.00109   0.00000  -0.03575  -0.03557  -1.04273
   D19        1.06546   0.00088   0.00000   0.00962   0.00976   1.07522
   D20       -1.05303   0.00001   0.00000  -0.02462  -0.02491  -1.07794
   D21       -3.11884  -0.00005   0.00000  -0.01049  -0.01027  -3.12912
   D22        3.10844  -0.00294   0.00000  -0.02950  -0.02958   3.07886
   D23       -0.99701  -0.00156   0.00000  -0.02101  -0.02087  -1.01788
   D24        1.02818  -0.00275   0.00000  -0.02868  -0.02869   0.99949
   D25       -1.06546   0.00133   0.00000   0.03227   0.03215  -1.03331
   D26        1.11228   0.00271   0.00000   0.04076   0.04086   1.15314
   D27        3.13747   0.00151   0.00000   0.03309   0.03304  -3.11267
   D28        0.99973  -0.00011   0.00000   0.00210   0.00201   1.00174
   D29       -3.10572   0.00127   0.00000   0.01059   0.01072  -3.09500
   D30       -1.08053   0.00007   0.00000   0.00292   0.00290  -1.07762
   D31        1.26797   0.00067   0.00000   0.07128   0.07114   1.33911
   D32       -2.91015  -0.00046   0.00000   0.05016   0.05004  -2.86012
   D33       -0.91412   0.00354   0.00000   0.09597   0.09637  -0.81775
   D34        1.19094   0.00241   0.00000   0.07486   0.07527   1.26621
   D35       -2.92651  -0.00058   0.00000   0.06086   0.06057  -2.86593
   D36       -0.82145  -0.00171   0.00000   0.03974   0.03947  -0.78198
   D37        3.05815  -0.00016   0.00000  -0.00692  -0.00670   3.05145
   D38       -1.13607   0.00162   0.00000   0.00234   0.00216  -1.13390
   D39        0.96035  -0.00224   0.00000  -0.04606  -0.04628   0.91408
   D40        0.95988  -0.00006   0.00000   0.00445   0.00479   0.96466
   D41        3.04884   0.00172   0.00000   0.01371   0.01366   3.06250
   D42       -1.13793  -0.00215   0.00000  -0.03469  -0.03478  -1.17271
   D43       -1.06396  -0.00159   0.00000  -0.01535  -0.01540  -1.07936
   D44        1.04493  -0.00243   0.00000  -0.02909  -0.02911   1.01582
   D45        3.13204  -0.00175   0.00000  -0.01627  -0.01631   3.11573
   D46        3.10531   0.00069   0.00000   0.00711   0.00704   3.11235
   D47       -1.06899  -0.00015   0.00000  -0.00663  -0.00666  -1.07565
   D48        1.01812   0.00053   0.00000   0.00619   0.00614   1.02426
   D49        1.05236   0.00194   0.00000   0.02995   0.03003   1.08239
   D50       -3.12193   0.00109   0.00000   0.01622   0.01632  -3.10561
   D51       -1.03483   0.00177   0.00000   0.02903   0.02913  -1.00570
         Item               Value     Threshold  Converged?
 Maximum Force            0.009809     0.000450     NO 
 RMS     Force            0.002796     0.000300     NO 
 Maximum Displacement     0.134356     0.001800     NO 
 RMS     Displacement     0.041707     0.001200     NO 
 Predicted change in Energy=-2.857329D-03
 GradGradGradGradGradGradGradGradGradGradGradGradGradGradGradGradGradGrad

                          Input orientation:                          
 ---------------------------------------------------------------------
 Center     Atomic      Atomic             Coordinates (Angstroms)
 Number     Number       Type             X           Y           Z
 ---------------------------------------------------------------------
      1          6           0        4.179568   -0.031828    0.330139
      2          6           0        2.761232   -0.448311    0.710452
      3          7           0        1.796771   -0.029703   -0.309722
      4          6           0        0.416951   -0.376803    0.034767
      5          6           0       -0.537669    0.059633   -1.079314
      6          7           0       -1.924436   -0.340049   -0.822302
      7          6           0       -2.617363    0.491423    0.168366
      8          6           0       -4.085436    0.088956    0.281514
      9          1           0        4.898641   -0.373477    1.081077
     10          1           0        4.463714   -0.455855   -0.638024
     11          1           0        4.264320    1.058848    0.260265
     12          1           0        2.705692   -1.540935    0.798048
     13          1           0        2.515131   -0.042038    1.709183
     14          1           0        1.857615    0.983791   -0.404283
     15          1           0        0.106792    0.063676    0.999268
     16          1           0        0.349133   -1.465582    0.150268
     17          1           0       -0.438945    1.151598   -1.234256
     18          1           0       -0.213051   -0.421038   -2.008422
     19          1           0       -2.437467   -0.264170   -1.698310
     20          1           0       -2.129239    0.361027    1.140555
     21          1           0       -2.547946    1.567970   -0.075860
     22          1           0       -4.609022    0.236845   -0.670273
     23          1           0       -4.179442   -0.965632    0.558883
     24          1           0       -4.595545    0.691654    1.039128
 ---------------------------------------------------------------------
                    Distance matrix (angstroms):
                    1          2          3          4          5
     1  C    0.000000
     2  C    1.526360   0.000000
     3  N    2.467215   1.464982   0.000000
     4  C    3.789926   2.440761   1.463918   0.000000
     5  C    4.924149   3.787349   2.459647   1.530671   0.000000
     6  N    6.219484   4.931179   3.769142   2.493594   1.465921
     7  C    6.818962   5.486915   4.470427   3.158913   2.463387
     8  C    8.266029   6.881097   5.913036   4.533134   3.799916
     9  H    1.094394   2.170595   3.416738   4.602208   5.865862
    10  H    1.094476   2.171840   2.720657   4.103070   5.047206
    11  H    1.096194   2.175655   2.756560   4.112687   5.084486
    12  H    2.160707   1.097535   2.082573   2.678830   4.075008
    13  H    2.161531   1.105932   2.142934   2.705198   4.135897
    14  H    2.638621   2.027332   1.019712   2.029654   2.654642
    15  H    4.128481   2.718749   2.139673   1.104754   2.176201
    16  H    4.093927   2.677100   2.090215   1.096986   2.150481
    17  H    5.017817   4.072189   2.692334   2.163097   1.107313
    18  H    4.991539   4.029811   2.660472   2.138570   1.095291
    19  H    6.924864   5.732583   4.462278   3.341249   2.024163
    20  H    6.372767   4.975613   4.203514   2.872324   2.748046
    21  H    6.927022   5.733327   4.635064   3.547534   2.706144
    22  H    8.849425   7.529706   6.421466   5.112147   4.095685
    23  H    8.414117   6.961576   6.111101   4.663501   4.122786
    24  H    8.833386   7.451826   6.572782   5.222591   4.620996
                    6          7          8          9         10
     6  N    0.000000
     7  C    1.467282   0.000000
     8  C    2.464219   1.526440   0.000000
     9  H    7.083667   7.620460   9.031433   0.000000
    10  H    6.391856   7.189524   8.615703   1.775178   0.000000
    11  H    6.436580   6.905648   8.405924   1.768517   1.772289
    12  H    5.050320   5.732529   7.003054   2.500418   2.516017
    13  H    5.119275   5.385276   6.754471   2.487064   3.078571
    14  H    4.028797   4.538258   6.049042   3.646410   2.986464
    15  H    2.758078   2.879998   4.253303   4.812443   4.683311
    16  H    2.716952   3.553912   4.700980   4.770443   4.309377
    17  H    2.145088   2.673703   4.089458   6.014685   5.193790
    18  H    2.083813   3.369229   4.527611   5.972995   4.873534
    19  H    1.018012   2.021822   2.600040   7.845726   6.984786
    20  H    2.094340   1.095637   2.153759   7.066409   6.877331
    21  H    2.141606   1.106083   2.163117   7.781991   7.319513
    22  H    2.750077   2.175966   1.096318   9.686866   9.099198
    23  H    2.717366   2.171544   1.094498   9.112350   8.740515
    24  H    3.415283   2.170604   1.094273   9.553839   9.284384
                   11         12         13         14         15
    11  H    0.000000
    12  H    3.078540   0.000000
    13  H    2.524079   1.764418   0.000000
    14  H    2.497896   2.922169   2.439548   0.000000
    15  H    4.338379   3.060971   2.513017   2.425273   0.000000
    16  H    4.659779   2.445131   3.024606   2.929586   1.765831
    17  H    4.935878   4.611803   4.337645   2.447693   2.543625
    18  H    5.232958   4.201131   4.626792   2.972283   3.063241
    19  H    7.106359   5.857816   6.015694   4.656140   3.722588
    20  H    6.491492   5.206854   4.696379   4.320807   2.260136
    21  H    6.839529   6.166823   5.604753   4.456243   3.235187
    22  H    8.959787   7.669518   7.516192   6.515065   5.005622
    23  H    8.688199   6.913265   6.855182   6.416697   4.430036
    24  H    8.901610   7.638758   7.179763   6.619068   4.744251
                   16         17         18         19         20
    16  H    0.000000
    17  H    3.063920   0.000000
    18  H    2.463142   1.767355   0.000000
    19  H    3.553276   2.492757   2.251400   0.000000
    20  H    3.234115   3.020236   3.768217   2.923189   0.000000
    21  H    4.200790   2.441953   3.625284   2.449753   1.763999
    22  H    5.306114   4.306320   4.641983   2.454288   3.073083
    23  H    4.574375   4.657180   4.756037   2.936230   2.510318
    24  H    5.467502   4.759953   5.452696   3.614480   2.490435
                   21         22         23         24
    21  H    0.000000
    22  H    2.524530   0.000000
    23  H    3.079580   1.772375   0.000000
    24  H    2.490741   1.768921   1.774929   0.000000
 Stoichiometry    C6H16N2
 Framework group  C1[X(C6H16N2)]
 Deg. of freedom    66
 Full point group                 C1      NOp   1
 Largest Abelian subgroup         C1      NOp   1
 Largest concise Abelian subgroup C1      NOp   1
                         Standard orientation:                         
 ---------------------------------------------------------------------
 Center     Atomic      Atomic             Coordinates (Angstroms)
 Number     Number       Type             X           Y           Z
 ---------------------------------------------------------------------
      1          6           0        4.193636   -0.128553    0.210522
      2          6           0        2.822583   -0.600194   -0.266495
      3          7           0        1.777632    0.359071    0.099643
      4          6           0        0.439554   -0.074004   -0.306620
      5          6           0       -0.602320    0.979699    0.076994
      6          7           0       -1.950438    0.633199   -0.382831
      7          6           0       -2.616758   -0.394881    0.424625
      8          6           0       -4.054878   -0.602973   -0.042847
      9          1           0        4.973459   -0.834259   -0.092054
     10          1           0        4.435238    0.853367   -0.208212
     11          1           0        4.223950   -0.047574    1.303300
     12          1           0        2.822599   -0.697020   -1.359751
     13          1           0        2.621649   -1.610306    0.136477
     14          1           0        1.786077    0.462758    1.114035
     15          1           0        0.171036   -1.053829    0.127344
     16          1           0        0.428912   -0.199435   -1.396360
     17          1           0       -0.563498    1.146466    1.170989
     18          1           0       -0.315322    1.924901   -0.396172
     19          1           0       -2.520600    1.475343   -0.337463
     20          1           0       -2.062877   -1.334883    0.324467
     21          1           0       -2.612079   -0.140950    1.501155
     22          1           0       -4.643626    0.314515    0.073352
     23          1           0       -4.082984   -0.891419   -1.098278
     24          1           0       -4.543185   -1.388122    0.542415
 ---------------------------------------------------------------------
 Rotational constants (GHZ):           7.5517838           0.5821682           0.5638303
 Standard basis: 6-31G(d,p) (6D, 7F)
 There are   200 symmetry adapted cartesian basis functions of A   symmetry.
 There are   200 symmetry adapted basis functions of A   symmetry.
   200 basis functions,   336 primitive gaussians,   200 cartesian basis functions
    33 alpha electrons       33 beta electrons
       nuclear repulsion energy       387.2796183897 Hartrees.
 NAtoms=   24 NActive=   24 NUniq=   24 SFac= 1.00D+00 NAtFMM=   60 NAOKFM=F Big=F
 Integral buffers will be    131072 words long.
 Raffenetti 2 integral format.
 Two-electron integral symmetry is turned on.
 ------------------------------------------------------------------------------
 Polarizable Continuum Model (PCM)
 =================================
 Model                : PCM.
 Atomic radii         : UFF (Universal Force Field).
 Polarization charges : Total charges.
 Charge compensation  : None.
 Solution method      : Matrix inversion.
 Cavity type          : Scaled VdW (van der Waals Surface) (Alpha=1.100).
 Cavity algorithm     : GePol (No added spheres)
                        Default sphere list used, NSphG=   24.
                        Lebedev-Laikov grids with approx.  5.0 points / Ang**2.
                        Smoothing algorithm: York/Karplus (Gamma=1.0000).
                        Polarization charges: spherical gaussians, with
                                              point-specific exponents (IZeta= 3).
                        Self-potential: point-specific (ISelfS= 7).
                        Self-field    : sphere-specific E.n sum rule (ISelfD= 2).
 1st derivatives      : Analytical E(r).r(x)/FMM algorithm (CHGder, D1EAlg=3).
                        Cavity 1st derivative terms included.
 Solvent              : Water, Eps=  78.355300 Eps(inf)=   1.777849
 ------------------------------------------------------------------------------
 One-electron integrals computed using PRISM.
 NBasis=   200 RedAO= T EigKep=  3.04D-03  NBF=   200
 NBsUse=   200 1.00D-06 EigRej= -1.00D+00 NBFU=   200
 Initial guess from the checkpoint file:  "CJKRXEBLWJVYJD-UHFFFAOYSA-N_conf_1_0.chk"
 B after Tr=     0.000000    0.000000    0.000000
         Rot=    0.999980    0.006174    0.000455    0.001076 Ang=   0.72 deg.
 ExpMin= 1.61D-01 ExpMax= 4.17D+03 ExpMxC= 6.27D+02 IAcc=2 IRadAn=         4 AccDes= 0.00D+00
 Harris functional with IExCor=  402 and IRadAn=       4 diagonalized for initial guess.
 HarFok:  IExCor=  402 AccDes= 0.00D+00 IRadAn=         4 IDoV= 1 UseB2=F ITyADJ=14
 ICtDFT=  3500011 ScaDFX=  1.000000  1.000000  1.000000  1.000000
 FoFCou: FMM=F IPFlag=           0 FMFlag=      100000 FMFlg1=           0
         NFxFlg=           0 DoJE=T BraDBF=F KetDBF=T FulRan=T
         wScrn=  0.000000 ICntrl=       500 IOpCl=  0 I1Cent=   200000004 NGrid=           0
         NMat0=    1 NMatS0=      1 NMatT0=    0 NMatD0=    1 NMtDS0=    0 NMtDT0=    0
 Petite list used in FoFCou.
 Keep R1 ints in memory in canonical form, NReq=206134434.
 Requested convergence on RMS density matrix=1.00D-08 within  32 cycles.
 Requested convergence on MAX density matrix=1.00D-06.
 Requested convergence on             energy=1.00D-06.
 No special actions if energy rises.
 Inv3:  Mode=1 IEnd=     8721075.
 Iteration    1 A*A^-1 deviation from unit magnitude is 3.33D-15 for    438.
 Iteration    1 A*A^-1 deviation from orthogonality  is 1.74D-15 for   1100     10.
 Iteration    1 A^-1*A deviation from unit magnitude is 2.78D-15 for    944.
 Iteration    1 A^-1*A deviation from orthogonality  is 1.58D-15 for   1358     88.
 Error on total polarization charges =  0.01040
 SCF Done:  E(RB3LYP) =  -347.789791861     A.U. after    9 cycles
            NFock=  9  Conv=0.61D-08     -V/T= 2.0099
 QCSCF skips out because SCF is already converged.
 D1PCM: PCM CHGder 1st derivatives, ID1Alg=3 FixD1E=F DoIter=F DoCFld=F I1PDM=0.
 Calling FoFJK, ICntrl=      2127 FMM=F ISym2X=0 I1Cent= 0 IOpClX= 0 NMat=1 NMatS=1 NMatT=0.
 ***** Axes restored to original set *****
 -------------------------------------------------------------------
 Center     Atomic                   Forces (Hartrees/Bohr)
 Number     Number              X              Y              Z
 -------------------------------------------------------------------
      1        6           0.000307340   -0.000361020    0.000123969
      2        6           0.000279662    0.001422054   -0.000241255
      3        7          -0.000018264   -0.001201540   -0.000430033
      4        6           0.000155540    0.000993997   -0.000115131
      5        6          -0.000438922   -0.000280361   -0.000900816
      6        7           0.000392891   -0.000320605    0.001144625
      7        6          -0.000908655    0.000159803   -0.001227499
      8        6          -0.000111938    0.000038436    0.000437188
      9        1           0.000037214    0.000089078    0.000035230
     10        1          -0.000038922    0.000062166   -0.000033338
     11        1          -0.000002586    0.000005510   -0.000049447
     12        1          -0.000044935   -0.000041835    0.000029788
     13        1          -0.000063089   -0.000551579    0.000512560
     14        1           0.000012627    0.000018678   -0.000112267
     15        1          -0.000359192   -0.000495431    0.000371864
     16        1           0.000005724   -0.000022814   -0.000080488
     17        1           0.000387688    0.000289045    0.000430779
     18        1           0.000020738    0.000239443   -0.000131986
     19        1           0.000097158   -0.000460140   -0.000090497
     20        1           0.000086961    0.000049917   -0.000009448
     21        1           0.000265027    0.000400219    0.000498964
     22        1          -0.000007333   -0.000057507   -0.000024731
     23        1           0.000010424   -0.000016779   -0.000081502
     24        1          -0.000065159    0.000041265   -0.000056529
 -------------------------------------------------------------------
 Cartesian Forces:  Max     0.001422054 RMS     0.000418795

 GradGradGradGradGradGradGradGradGradGradGradGradGradGradGradGradGradGrad
 Berny optimization.
 Using GEDIIS/GDIIS optimizer.
 FormGI is forming the generalized inverse of G from B-inverse, IUseBI=4.
 Internal  Forces:  Max     0.000540953 RMS     0.000188695
 Search for a local minimum.
 Step number   2 out of a maximum of  126
 All quantities printed in internal units (Hartrees-Bohrs-Radians)
 Mixed Optimization -- En-DIIS/RFO-DIIS
 Update second derivatives using D2CorX and points    1    2
 DE= -2.88D-03 DEPred=-2.86D-03 R= 1.01D+00
 TightC=F SS=  1.41D+00  RLast= 2.76D-01 DXNew= 5.0454D-01 8.2753D-01
 Trust test= 1.01D+00 RLast= 2.76D-01 DXMaxT set to 5.05D-01
 ITU=  1  0
 Use linear search instead of GDIIS.
     Eigenvalues ---    0.00127   0.00221   0.00263   0.00301   0.00321
     Eigenvalues ---    0.00411   0.00471   0.02262   0.02295   0.04353
     Eigenvalues ---    0.04458   0.04485   0.04491   0.04539   0.04562
     Eigenvalues ---    0.04564   0.04671   0.04694   0.05256   0.05286
     Eigenvalues ---    0.05316   0.07816   0.08119   0.08272   0.08607
     Eigenvalues ---    0.09753   0.10054   0.11455   0.12083   0.12241
     Eigenvalues ---    0.12486   0.12513   0.13613   0.13635   0.14072
     Eigenvalues ---    0.16161   0.16180   0.17402   0.21389   0.22612
     Eigenvalues ---    0.23753   0.24684   0.25257   0.27009   0.30330
     Eigenvalues ---    0.30402   0.30916   0.31470   0.32266   0.32396
     Eigenvalues ---    0.32711   0.32887   0.33461   0.33565   0.33593
     Eigenvalues ---    0.33638   0.33791   0.33851   0.34415   0.34423
     Eigenvalues ---    0.35075   0.35629   0.37743   0.38614   0.43266
     Eigenvalues ---    0.43499
 RFO step:  Lambda=-2.78469677D-04 EMin= 1.27060671D-03
 Quartic linear search produced a step of  0.10006.
 Iteration  1 RMS(Cart)=  0.07618648 RMS(Int)=  0.00230317
 Iteration  2 RMS(Cart)=  0.00344470 RMS(Int)=  0.00002439
 Iteration  3 RMS(Cart)=  0.00000674 RMS(Int)=  0.00002423
 Iteration  4 RMS(Cart)=  0.00000000 RMS(Int)=  0.00002423
 Variable       Old X    -DE/DX   Delta X   Delta X   Delta X     New X
                                 (Linear)    (Quad)   (Total)
    R1        2.88440   0.00021   0.00101  -0.00075   0.00026   2.88466
    R2        2.06810   0.00002  -0.00007  -0.00005  -0.00012   2.06799
    R3        2.06826  -0.00000  -0.00016   0.00017   0.00002   2.06828
    R4        2.07151   0.00001   0.00017  -0.00000   0.00017   2.07167
    R5        2.76841   0.00039   0.00055  -0.00064  -0.00009   2.76833
    R6        2.07404   0.00005   0.00031   0.00047   0.00078   2.07483
    R7        2.08991   0.00027   0.00186  -0.00083   0.00103   2.09094
    R8        2.76640   0.00035  -0.00111  -0.00003  -0.00114   2.76526
    R9        1.92698   0.00003   0.00003   0.00032   0.00035   1.92732
   R10        2.89255   0.00019  -0.00226   0.00403   0.00177   2.89431
   R11        2.08768   0.00023   0.00173   0.00006   0.00179   2.08947
   R12        2.07300   0.00001   0.00003   0.00011   0.00013   2.07314
   R13        2.77019   0.00038  -0.00068  -0.00007  -0.00075   2.76944
   R14        2.09252   0.00026   0.00187  -0.00117   0.00070   2.09322
   R15        2.06980   0.00001  -0.00040  -0.00019  -0.00059   2.06921
   R16        2.77276   0.00038   0.00094  -0.00127  -0.00033   2.77243
   R17        1.92376  -0.00001  -0.00046  -0.00014  -0.00060   1.92317
   R18        2.88455   0.00019   0.00084  -0.00094  -0.00010   2.88445
   R19        2.07045   0.00003   0.00020   0.00076   0.00096   2.07141
   R20        2.09019   0.00030   0.00191  -0.00122   0.00069   2.09089
   R21        2.07174   0.00002   0.00019  -0.00005   0.00015   2.07189
   R22        2.06830  -0.00000  -0.00015  -0.00002  -0.00017   2.06813
   R23        2.06788   0.00001  -0.00010   0.00006  -0.00004   2.06784
    A1        1.93307   0.00009   0.00109  -0.00056   0.00053   1.93360
    A2        1.93472  -0.00002  -0.00062   0.00023  -0.00039   1.93433
    A3        1.93822  -0.00002  -0.00039   0.00043   0.00004   1.93826
    A4        1.89173   0.00003   0.00081   0.00011   0.00091   1.89264
    A5        1.87921  -0.00004  -0.00040   0.00016  -0.00024   1.87897
    A6        1.88495  -0.00003  -0.00048  -0.00038  -0.00086   1.88409
    A7        1.93936   0.00029   0.00234  -0.00014   0.00215   1.94151
    A8        1.91617  -0.00007   0.00154  -0.00338  -0.00180   1.91437
    A9        1.90874   0.00001   0.00049   0.00245   0.00286   1.91160
   A10        1.88255  -0.00023  -0.00417   0.00238  -0.00178   1.88077
   A11        1.95779   0.00015   0.00274   0.00015   0.00282   1.96061
   A12        1.85707  -0.00018  -0.00310  -0.00167  -0.00475   1.85232
   A13        1.97024   0.00045   0.00344  -0.00115   0.00230   1.97253
   A14        1.88525  -0.00018  -0.00272   0.00257  -0.00013   1.88512
   A15        1.88991  -0.00018  -0.00195   0.00152  -0.00040   1.88951
   A16        1.92725   0.00004  -0.00041   0.00342   0.00297   1.93022
   A17        1.95576   0.00031   0.00495   0.00114   0.00608   1.96184
   A18        1.89481  -0.00013  -0.00222   0.00128  -0.00093   1.89388
[...]
    13  H   -0.000005   0.000035  -0.000006  -0.000000  -0.000000  -0.000000
    14  H   -0.000510   0.000197  -0.000314  -0.000001  -0.000001  -0.000000
    15  H   -0.002667   0.008207  -0.002285  -0.000043  -0.000157  -0.000061
    16  H   -0.002380   0.000412  -0.000056  -0.000010  -0.000033  -0.000003
    17  H   -0.003882   0.000474   0.009637  -0.000077   0.000012  -0.000006
    18  H    0.018389   0.000409   0.001145   0.000087   0.000029   0.000009
    19  H    0.800731   0.010192   0.020989   0.029190   0.004596   0.001977
    20  H    0.010192   0.625296  -0.039647   0.006126  -0.005000  -0.001173
    21  H    0.020989  -0.039647   0.709415   0.003710   0.007556   0.006753
    22  H    0.029190   0.006126   0.003710   0.652626  -0.021916  -0.012902
    23  H    0.004596  -0.005000   0.007556  -0.021916   0.608619  -0.019630
    24  H    0.001977  -0.001173   0.006753  -0.012902  -0.019630   0.625545
 Mulliken charges:
               1
     1  C   -0.308077
     2  C   -0.023682
     3  N   -0.202521
     4  C   -0.063065
     5  C   -0.076801
     6  N   -0.414219
     7  C   -0.041102
     8  C   -0.323529
     9  H    0.084325
    10  H    0.104250
    11  H    0.064038
    12  H    0.083570
    13  H    0.062385
    14  H   -0.004384
    15  H    0.091173
    16  H    0.113725
    17  H    0.086002
    18  H    0.107269
    19  H    0.152026
    20  H    0.114643
    21  H    0.089636
    22  H    0.091938
    23  H    0.109347
    24  H    0.103054
 Sum of Mulliken charges =  -0.00000
 Mulliken charges with hydrogens summed into heavy atoms:
               1
     1  C   -0.055464
     2  C    0.122273
     3  N   -0.206905
     4  C    0.141832
     5  C    0.116470
     6  N   -0.262193
     7  C    0.163177
     8  C   -0.019190
 Electronic spatial extent (au):  <R**2>=           2097.4043
 Charge=              0.0000 electrons
 Dipole moment (field-independent basis, Debye):
    X=             -0.8410    Y=             -0.0796    Z=             -0.3079  Tot=              0.8991
 Quadrupole moment (field-independent basis, Debye-Ang):
   XX=            -57.0232   YY=            -53.7346   ZZ=            -57.1053
   XY=             -0.0263   XZ=             -4.2810   YZ=              0.2191
 Traceless Quadrupole moment (field-independent basis, Debye-Ang):
   XX=             -1.0688   YY=              2.2198   ZZ=             -1.1510
   XY=             -0.0263   XZ=             -4.2810   YZ=              0.2191
 Octapole moment (field-independent basis, Debye-Ang**2):
  XXX=            -18.8613  YYY=              3.6763  ZZZ=             -4.5769  XYY=             -4.3986
  XXY=             -1.0674  XXZ=             -2.3331  XZZ=             -4.0294  YZZ=             -0.2880
  YYZ=             -1.8988  XYZ=              1.1739
 Hexadecapole moment (field-independent basis, Debye-Ang**3):
 XXXX=          -2643.2603 YYYY=           -212.2230 ZZZZ=           -151.8172 XXXY=              3.0709
 XXXZ=            -32.6959 YYYX=              2.8800 YYYZ=             -2.5494 ZZZX=            -10.1638
 ZZZY=              0.6227 XXYY=           -457.0768 XXZZ=           -467.0962 YYZZ=            -61.4856
 XXYZ=              0.5592 YYXZ=             -3.5106 ZZXY=              2.8348
 N-N= 3.868824395929D+02 E-N=-1.577922749159D+03  KE= 3.445140673181D+02
 Evaluate density.
 Using the total density.
 Monte-Carlo method of calculating molar volume:
 based on  0.001 e/bohr**3 density envelope.
 Number of points per bohr**3 =   20 CutOff= 1.00D-04
 Using the CI density.
 There are       377 points.  Will hold       377 in memory.
 LenV=  1073624716 MDV=  1073741824.
 Box volume = 6706.446 fraction occupied=0.218
 Integrated density= 3.4699485519286029D+01 error=-3.1300514480713971D+01
 Molar volume = 1458.697 bohr**3/mol (130.173 cm**3/mol)
 Recommended a0 for SCRF calculation =  4.60 angstrom (  8.69 bohr)
 ******************************Gaussian NBO Version 3.1******************************
             N A T U R A L   A T O M I C   O R B I T A L   A N D
          N A T U R A L   B O N D   O R B I T A L   A N A L Y S I S
 ******************************Gaussian NBO Version 3.1******************************
       /RESON  / : Allow strongly delocalized NBO set

 Analyzing the CI density

 Job title: CJKRXEBLWJVYJD-UHFFFAOYSA-N_conf_1                              

 Storage needed:    121952 in NPA (1073738704 available)
 GSVD:  LWork=       20800 too small for GESVD, short by       16736 words or       16736 for optimal perf.


 NATURAL POPULATIONS:  Natural atomic orbital occupancies 
                                                          
   NAO  Atom  No  lang   Type(AO)    Occupancy
 --------------------------------------------
     1    C    1  S      Cor( 1S)     1.99946
     2    C    1  S      Val( 2S)     1.11420
     3    C    1  S      Ryd( 3S)     0.00046
     4    C    1  S      Ryd( 4S)     0.00002
     5    C    1  px     Val( 2p)     1.11843
     6    C    1  px     Ryd( 3p)     0.00327
     7    C    1  py     Val( 2p)     1.23841
     8    C    1  py     Ryd( 3p)     0.00194
     9    C    1  pz     Val( 2p)     1.22911
    10    C    1  pz     Ryd( 3p)     0.00232
    11    C    1  dxy    Ryd( 3d)     0.00063
    12    C    1  dxz    Ryd( 3d)     0.00035
    13    C    1  dyz    Ryd( 3d)     0.00026
    14    C    1  dx2y2  Ryd( 3d)     0.00054
    15    C    1  dz2    Ryd( 3d)     0.00089

    16    C    2  S      Cor( 1S)     1.99937
    17    C    2  S      Val( 2S)     1.04990
    18    C    2  S      Ryd( 3S)     0.00228
    19    C    2  S      Ryd( 4S)     0.00004
    20    C    2  px     Val( 2p)     0.95221
    21    C    2  px     Ryd( 3p)     0.00352
    22    C    2  py     Val( 2p)     1.10114
    23    C    2  py     Ryd( 3p)     0.00405
    24    C    2  pz     Val( 2p)     1.20786
    25    C    2  pz     Ryd( 3p)     0.00375
    26    C    2  dxy    Ryd( 3d)     0.00126
    27    C    2  dxz    Ryd( 3d)     0.00063
    28    C    2  dyz    Ryd( 3d)     0.00045
    29    C    2  dx2y2  Ryd( 3d)     0.00086
    30    C    2  dz2    Ryd( 3d)     0.00124

    31    N    3  S      Cor( 1S)     1.99937
    32    N    3  S      Val( 2S)     1.41390
    33    N    3  S      Ryd( 3S)     0.00756
    34    N    3  S      Ryd( 4S)     0.00005
    35    N    3  px     Val( 2p)     1.24890
    36    N    3  px     Ryd( 3p)     0.00145
    37    N    3  py     Val( 2p)     1.26934
    38    N    3  py     Ryd( 3p)     0.00207
    39    N    3  pz     Val( 2p)     1.39296
    40    N    3  pz     Ryd( 3p)     0.00375
    41    N    3  dxy    Ryd( 3d)     0.00099
    42    N    3  dxz    Ryd( 3d)     0.00030
    43    N    3  dyz    Ryd( 3d)     0.00029
    44    N    3  dx2y2  Ryd( 3d)     0.00073
    45    N    3  dz2    Ryd( 3d)     0.00106

    46    C    4  S      Cor( 1S)     1.99932
    47    C    4  S      Val( 2S)     1.04402
    48    C    4  S      Ryd( 3S)     0.00261
    49    C    4  S      Ryd( 4S)     0.00003
    50    C    4  px     Val( 2p)     0.91115
    51    C    4  px     Ryd( 3p)     0.01209
    52    C    4  py     Val( 2p)     1.16111
    53    C    4  py     Ryd( 3p)     0.00260
    54    C    4  pz     Val( 2p)     1.21052
    55    C    4  pz     Ryd( 3p)     0.00402
    56    C    4  dxy    Ryd( 3d)     0.00090
    57    C    4  dxz    Ryd( 3d)     0.00079
    58    C    4  dyz    Ryd( 3d)     0.00044
    59    C    4  dx2y2  Ryd( 3d)     0.00112
    60    C    4  dz2    Ryd( 3d)     0.00120

    61    C    5  S      Cor( 1S)     1.99932
    62    C    5  S      Val( 2S)     1.02479
    63    C    5  S      Ryd( 3S)     0.00200
    64    C    5  S      Ryd( 4S)     0.00003
    65    C    5  px     Val( 2p)     0.91216
    66    C    5  px     Ryd( 3p)     0.00936
    67    C    5  py     Val( 2p)     1.15449
    68    C    5  py     Ryd( 3p)     0.00481
    69    C    5  pz     Val( 2p)     1.19772
    70    C    5  pz     Ryd( 3p)     0.00439
    71    C    5  dxy    Ryd( 3d)     0.00097
    72    C    5  dxz    Ryd( 3d)     0.00095
    73    C    5  dyz    Ryd( 3d)     0.00052
    74    C    5  dx2y2  Ryd( 3d)     0.00107
    75    C    5  dz2    Ryd( 3d)     0.00114

    76    N    6  S      Cor( 1S)     1.99949
    77    N    6  S      Val( 2S)     1.37260
    78    N    6  S      Ryd( 3S)     0.00218
    79    N    6  S      Ryd( 4S)     0.00006
    80    N    6  px     Val( 2p)     1.26094
    81    N    6  px     Ryd( 3p)     0.00152
    82    N    6  py     Val( 2p)     1.37332
    83    N    6  py     Ryd( 3p)     0.00306
    84    N    6  pz     Val( 2p)     1.56995
    85    N    6  pz     Ryd( 3p)     0.00472
    86    N    6  dxy    Ryd( 3d)     0.00077
    87    N    6  dxz    Ryd( 3d)     0.00088
    88    N    6  dyz    Ryd( 3d)     0.00081
    89    N    6  dx2y2  Ryd( 3d)     0.00042
    90    N    6  dz2    Ryd( 3d)     0.00106

    91    C    7  S      Cor( 1S)     1.99937
    92    C    7  S      Val( 2S)     1.02990
    93    C    7  S      Ryd( 3S)     0.00187
    94    C    7  S      Ryd( 4S)     0.00003
    95    C    7  px     Val( 2p)     1.04708
    96    C    7  px     Ryd( 3p)     0.00264
    97    C    7  py     Val( 2p)     1.07885
    98    C    7  py     Ryd( 3p)     0.00233
    99    C    7  pz     Val( 2p)     1.10979
   100    C    7  pz     Ryd( 3p)     0.00287
   101    C    7  dxy    Ryd( 3d)     0.00117
   102    C    7  dxz    Ryd( 3d)     0.00073
   103    C    7  dyz    Ryd( 3d)     0.00082
   104    C    7  dx2y2  Ryd( 3d)     0.00070
   105    C    7  dz2    Ryd( 3d)     0.00133

   106    C    8  S      Cor( 1S)     1.99946
   107    C    8  S      Val( 2S)     1.11211
   108    C    8  S      Ryd( 3S)     0.00046
   109    C    8  S      Ryd( 4S)     0.00001
   110    C    8  px     Val( 2p)     1.10587
   111    C    8  px     Ryd( 3p)     0.00190
   112    C    8  py     Val( 2p)     1.24415
   113    C    8  py     Ryd( 3p)     0.00181
   114    C    8  pz     Val( 2p)     1.23165
   115    C    8  pz     Ryd( 3p)     0.00154
   116    C    8  dxy    Ryd( 3d)     0.00073
   117    C    8  dxz    Ryd( 3d)     0.00035
   118    C    8  dyz    Ryd( 3d)     0.00051
   119    C    8  dx2y2  Ryd( 3d)     0.00038
   120    C    8  dz2    Ryd( 3d)     0.00073

   121    H    9  S      Val( 1S)     0.77296
   122    H    9  S      Ryd( 2S)     0.00848
   123    H    9  px     Ryd( 2p)     0.00023
   124    H    9  py     Ryd( 2p)     0.00017
   125    H    9  pz     Ryd( 2p)     0.00010

   126    H   10  S      Val( 1S)     0.76293
   127    H   10  S      Ryd( 2S)     0.00512
   128    H   10  px     Ryd( 2p)     0.00010
   129    H   10  py     Ryd( 2p)     0.00030
   130    H   10  pz     Ryd( 2p)     0.00011

   131    H   11  S      Val( 1S)     0.77831
   132    H   11  S      Ryd( 2S)     0.01911
   133    H   11  px     Ryd( 2p)     0.00012
   134    H   11  py     Ryd( 2p)     0.00008
   135    H   11  pz     Ryd( 2p)     0.00033

   136    H   12  S      Val( 1S)     0.76246
   137    H   12  S      Ryd( 2S)     0.01996
   138    H   12  px     Ryd( 2p)     0.00008
   139    H   12  py     Ryd( 2p)     0.00010
   140    H   12  pz     Ryd( 2p)     0.00037

   141    H   13  S      Val( 1S)     0.76040
   142    H   13  S      Ryd( 2S)     0.03422
   143    H   13  px     Ryd( 2p)     0.00009
   144    H   13  py     Ryd( 2p)     0.00035
   145    H   13  pz     Ryd( 2p)     0.00011

   146    H   14  S      Val( 1S)     0.71740
   147    H   14  S      Ryd( 2S)     0.08666
   148    H   14  px     Ryd( 2p)     0.00022
   149    H   14  py     Ryd( 2p)     0.00026
   150    H   14  pz     Ryd( 2p)     0.00068

   151    H   15  S      Val( 1S)     0.75245
   152    H   15  S      Ryd( 2S)     0.02431
   153    H   15  px     Ryd( 2p)     0.00012
   154    H   15  py     Ryd( 2p)     0.00033
   155    H   15  pz     Ryd( 2p)     0.00012

   156    H   16  S      Val( 1S)     0.75140
   157    H   16  S      Ryd( 2S)     0.01151
   158    H   16  px     Ryd( 2p)     0.00008
   159    H   16  py     Ryd( 2p)     0.00009
   160    H   16  pz     Ryd( 2p)     0.00037

   161    H   17  S      Val( 1S)     0.77666
   162    H   17  S      Ryd( 2S)     0.01126
   163    H   17  px     Ryd( 2p)     0.00011
   164    H   17  py     Ryd( 2p)     0.00010
   165    H   17  pz     Ryd( 2p)     0.00038

   166    H   18  S      Val( 1S)     0.75612
   167    H   18  S      Ryd( 2S)     0.00648
   168    H   18  px     Ryd( 2p)     0.00009
   169    H   18  py     Ryd( 2p)     0.00034
   170    H   18  pz     Ryd( 2p)     0.00012

   171    H   19  S      Val( 1S)     0.64200
   172    H   19  S      Ryd( 2S)     0.04056
   173    H   19  px     Ryd( 2p)     0.00035
   174    H   19  py     Ryd( 2p)     0.00053
   175    H   19  pz     Ryd( 2p)     0.00043

   176    H   20  S      Val( 1S)     0.76663
   177    H   20  S      Ryd( 2S)     0.00332
   178    H   20  px     Ryd( 2p)     0.00016
   179    H   20  py     Ryd( 2p)     0.00031
   180    H   20  pz     Ryd( 2p)     0.00009

   181    H   21  S      Val( 1S)     0.77842
   182    H   21  S      Ryd( 2S)     0.00885
   183    H   21  px     Ryd( 2p)     0.00009
   184    H   21  py     Ryd( 2p)     0.00010
   185    H   21  pz     Ryd( 2p)     0.00036

   186    H   22  S      Val( 1S)     0.77315
   187    H   22  S      Ryd( 2S)     0.00858
   188    H   22  px     Ryd( 2p)     0.00018
   189    H   22  py     Ryd( 2p)     0.00026
   190    H   22  pz     Ryd( 2p)     0.00008

   191    H   23  S      Val( 1S)     0.76294
   192    H   23  S      Ryd( 2S)     0.00301
   193    H   23  px     Ryd( 2p)     0.00008
   194    H   23  py     Ryd( 2p)     0.00011
   195    H   23  pz     Ryd( 2p)     0.00031

   196    H   24  S      Val( 1S)     0.76102
   197    H   24  S      Ryd( 2S)     0.00318
   198    H   24  px     Ryd( 2p)     0.00015
   199    H   24  py     Ryd( 2p)     0.00020
   200    H   24  pz     Ryd( 2p)     0.00016


 Summary of Natural Population Analysis:                  
                                                          
                                       Natural Population 
                Natural  -----------------------------------------------
    Atom  No    Charge         Core      Valence    Rydberg      Total
 -----------------------------------------------------------------------
      C    1   -0.71026      1.99946     4.70014    0.01065     6.71026
      C    2   -0.32855      1.99937     4.31110    0.01808     6.32855
      N    3   -0.34273      1.99937     5.32509    0.01827     7.34273
      C    4   -0.35193      1.99932     4.32680    0.02581     6.35193
      C    5   -0.31374      1.99932     4.28916    0.02525     6.31374
      N    6   -0.59178      1.99949     5.57681    0.01548     7.59178
      C    7   -0.27948      1.99937     4.26562    0.01449     6.27948
      C    8   -0.70166      1.99946     4.69378    0.00842     6.70166
      H    9    0.21806      0.00000     0.77296    0.00898     0.78194
      H   10    0.23144      0.00000     0.76293    0.00563     0.76856
      H   11    0.20204      0.00000     0.77831    0.01964     0.79796
      H   12    0.21703      0.00000     0.76246    0.02051     0.78297
      H   13    0.20483      0.00000     0.76040    0.03477     0.79517
      H   14    0.19477      0.00000     0.71740    0.08782     0.80523
      H   15    0.22267      0.00000     0.75245    0.02488     0.77733
      H   16    0.23655      0.00000     0.75140    0.01205     0.76345
      H   17    0.21150      0.00000     0.77666    0.01184     0.78850
      H   18    0.23686      0.00000     0.75612    0.00703     0.76314
      H   19    0.31613      0.00000     0.64200    0.04188     0.68387
      H   20    0.22949      0.00000     0.76663    0.00389     0.77051
      H   21    0.21217      0.00000     0.77842    0.00941     0.78783
      H   22    0.21775      0.00000     0.77315    0.00910     0.78225
      H   23    0.23355      0.00000     0.76294    0.00351     0.76645
      H   24    0.23529      0.00000     0.76102    0.00369     0.76471
 =======================================================================
   * Total *   -0.00000     15.99517    49.56375    0.44108    66.00000

                                 Natural Population      
 --------------------------------------------------------
   Core                      15.99517 ( 99.9698% of  16)
   Valence                   49.56375 ( 99.1275% of  50)
   Natural Minimal Basis     65.55892 ( 99.3317% of  66)
   Natural Rydberg Basis      0.44108 (  0.6683% of  66)
 --------------------------------------------------------

    Atom  No          Natural Electron Configuration
 ----------------------------------------------------------------------------
      C    1      [core]2S( 1.11)2p( 3.59)3p( 0.01)
      C    2      [core]2S( 1.05)2p( 3.26)3p( 0.01)
      N    3      [core]2S( 1.41)2p( 3.91)3S( 0.01)3p( 0.01)
      C    4      [core]2S( 1.04)2p( 3.28)3p( 0.02)
      C    5      [core]2S( 1.02)2p( 3.26)3p( 0.02)
      N    6      [core]2S( 1.37)2p( 4.20)3p( 0.01)
      C    7      [core]2S( 1.03)2p( 3.24)3p( 0.01)
      C    8      [core]2S( 1.11)2p( 3.58)3p( 0.01)
      H    9            1S( 0.77)2S( 0.01)
      H   10            1S( 0.76)2S( 0.01)
      H   11            1S( 0.78)2S( 0.02)
      H   12            1S( 0.76)2S( 0.02)
      H   13            1S( 0.76)2S( 0.03)
      H   14            1S( 0.72)2S( 0.09)
      H   15            1S( 0.75)2S( 0.02)
      H   16            1S( 0.75)2S( 0.01)
      H   17            1S( 0.78)2S( 0.01)
      H   18            1S( 0.76)2S( 0.01)
      H   19            1S( 0.64)2S( 0.04)
      H   20            1S( 0.77)
      H   21            1S( 0.78)2S( 0.01)
      H   22            1S( 0.77)2S( 0.01)
      H   23            1S( 0.76)
      H   24            1S( 0.76)


 NBO analysis skipped by request.
 1\1\GINC-DRG2-W001\SP\RB3LYP TD-FC\6-31G(d,p)\C6H16N2\QDUEZ\17-Jul-202
 4\0\\# TD(NStates=10, Root=1) B3LYP/6-31G** SCRF=(Solvent=water) volum
 e pop=NPA density=current Geom=AllCheck Guess=Read\\CJKRXEBLWJVYJD-UHF
 FFAOYSA-N_conf_1\\0,1\C,0,4.176547539,0.0126646173,0.3577829795\C,0,2.
 772448795,-0.4833276518,0.6932751143\N,0,1.7995392526,-0.0410793501,-0
 .3088384808\C,0,0.4290520522,-0.4458109959,0.006210297\C,0,-0.54077603
 94,0.0449307462,-1.0727267787\N,0,-1.9251202488,-0.3482049055,-0.79091
 25464\C,0,-2.6299798706,0.5536055083,0.1265452\C,0,-4.0821515282,0.121
 0098406,0.3104720055\H,0,4.9015052267,-0.3459594795,1.0949383915\H,0,4
 .4869178749,-0.3374406788,-0.6316469403\H,0,4.2175351165,1.1081849473,
 0.35677461\H,0,2.7621617293,-1.5811261009,0.7084789279\H,0,2.500092703
 7,-0.1592200455,1.7155130007\H,0,1.8302030417,0.977540514,-0.349873922
 8\H,0,0.101291616,-0.0901872409,1.0006738773\H,0,0.3890663058,-1.54164
 88773,0.0414917132\H,0,-0.4327177348,1.1412106141,-1.1841617983\H,0,-0
 .2419881593,-0.3982882938,-2.0284438799\H,0,-2.4372548562,-0.358276998
 7,-1.6701826651\H,0,-2.1185619121,0.5315223295,1.095997009\H,0,-2.5954
 53126,1.6048904997,-0.2164884274\H,0,-4.6255158727,0.1516873672,-0.641
 3161135\H,0,-4.137384913,-0.9012428139,0.6974406231\H,0,-4.5994569925,
 0.7845664485,1.0101423352\\Version=ES64L-G16RevA.03\State=1-A\HF=-347.
 7899618\RMSD=2.124e-09\Dipole=-0.3379247,-0.1037125,0.0131625\Quadrupo
 le=-1.1114729,-0.5469654,1.6584383,-3.1561047,-0.077402,-0.3021328\PG=
 C01 [X(C6H16N2)]\\@


 Human beings, who are almost unique in having the
 ability to learn from the experience of others, are
 also remarkable for their apparent disinclination to do so.
                               -- Douglas Adams,
                                Last Chance to See
 Job cpu time:       0 days  0 hours 15 minutes 30.1 seconds.
 Elapsed time:       0 days  0 hours  5 minutes 14.8 seconds.
 File lengths (MBytes):  RWF=    378 Int=      0 D2E=      0 Chk=     24 Scr=      1
 Normal termination of Gaussian 16 at Wed Jul 17 14:45:09 2024.
