 Entering Gaussian System, Link 0=g16
 Initial command:
 /opt/sw/arch/manual/gaussian/G16_A03/g16/l1.exe "/scratch/1380795/Gau-10146.inp" -scrdir="/scratch/1380795/"
 Entering Link 1 = /opt/sw/arch/manual/gaussian/G16_A03/g16/l1.exe PID=     10153.
  
 Copyright (c) 1988,1990,1992,1993,1995,1998,2003,2009,2016,
            Gaussian, Inc.  All Rights Reserved.
  
 This is part of the Gaussian(R) 16 program.  It is based on
 the Gaussian(R) 09 system (copyright 2009, Gaussian, Inc.),
 the Gaussian(R) 03 system (copyright 2003, Gaussian, Inc.),
 the Gaussian(R) 98 system (copyright 1998, Gaussian, Inc.),
 the Gaussian(R) 94 system (copyright 1995, Gaussian, Inc.),
 the Gaussian 92(TM) system (copyright 1992, Gaussian, Inc.),
 the Gaussian 90(TM) system (copyright 1990, Gaussian, Inc.),
 the Gaussian 88(TM) system (copyright 1988, Gaussian, Inc.),
 the Gaussian 86(TM) system (copyright 1986, Carnegie Mellon
 University), and the Gaussian 82(TM) system (copyright 1983,
 Carnegie Mellon University). Gaussian is a federally registered
 trademark of Gaussian, Inc.
  
 This software contains proprietary and confidential information,
 including trade secrets, belonging to Gaussian, Inc.
  
 This software is provided under written license and may be
 used, copied, transmitted, or stored only in accord with that
 written license.
  
 The following legend is applicable only to US Government
 contracts under FAR:
  
                    RESTRICTED RIGHTS LEGEND
  
 Use, reproduction and disclosure by the US Government is
 subject to restrictions as set forth in subparagraphs (a)
 and (c) of the Commercial Computer Software - Restricted
 Rights clause in FAR 52.227-19.
  
 Gaussian, Inc.
 340 Quinnipiac St., Bldg. 40, Wallingford CT 06492
  
  
 ---------------------------------------------------------------
 Warning -- This program may not be used in any manner that
 competes with the business of Gaussian, Inc. or will provide
 assistance to any competitor of Gaussian, Inc.  The licensee
 of this program is prohibited from giving any competitor of
 Gaussian, Inc. access to this program.  By using this program,
 the user acknowledges that Gaussian, Inc. is engaged in the
 business of creating and licensing software in the field of
 computational chemistry and represents and warrants to the
 licensee that it is not a competitor of Gaussian, Inc. and that
 it will not use this program in any manner prohibited above.
 ---------------------------------------------------------------
  

 Cite this work as:
 Gaussian 16, Revision A.03,
 M. J. Frisch, G. W. Trucks, H. B. Schlegel, G. E. Scuseria, 
 M. A. Robb, J. R. Cheeseman, G. Scalmani, V. Barone, 
 G. A. Petersson, H. Nakatsuji, X. Li, M. Caricato, A. V. Marenich, 
 J. Bloino, B. G. Janesko, R. Gomperts, B. Mennucci, H. P. Hratchian, 
 J. V. Ortiz, A. F. Izmaylov, J. L. Sonnenberg, D. Williams-Young, 
 F. Ding, F. Lipparini, F. Egidi, J. Goings, B. Peng, A. Petrone, 
 T. Henderson, D. Ranasinghe, V. G. Zakrzewski, J. Gao, N. Rega, 
 G. Zheng, W. Liang, M. Hada, M. Ehara, K. Toyota, R. Fukuda, 
 J. Hasegawa, M. Ishida, T. Nakajima, Y. Honda, O. Kitao, H. Nakai, 
 T. Vreven, K. Throssell, J. A. Montgomery, Jr., J. E. Peralta, 
 F. Ogliaro, M. J. Bearpark, J. J. Heyd, E. N. Brothers, K. N. Kudin, 
 V. N. Staroverov, T. A. Keith, R. Kobayashi, J. Normand, 
 K. Raghavachari, A. P. Rendell, J. C. Burant, S. S. Iyengar, 
 J. Tomasi, M. Cossi, J. M. Millam, M. Klene, C. Adamo, R. Cammi, 
 J. W. Ochterski, R. L. Martin, K. Morokuma, O. Farkas, 
 J. B. Foresman, and D. J. Fox, Gaussian, Inc., Wallingford CT, 2016.
 
 ******************************************
 Gaussian 16:  ES64L-G16RevA.03 25-Dec-2016
                17-Jul-2024 
 ******************************************
 %nprocshared=6
 Will use up to    6 processors via shared memory.
 %mem=12GB
 %Chk=DDAPSNKEOHDLKB-UHFFFAOYSA-N_conf_0_0.chk
 -------------------------------------------------------
 # opt=CalcFc B3LYP/6-31G** SCRF=(Solvent=water) scf=xqc
 -------------------------------------------------------
 1/10=4,18=20,19=15,26=3,38=1/1,3;
 2/9=110,12=2,17=6,18=5,40=1/2;
 3/5=1,6=6,7=101,11=2,25=1,30=1,70=2201,71=2,72=1,74=-5,140=1/1,2,3;
 4//1;
 5/5=2,8=3,13=1,38=5,53=1/2,8;
 8/6=4,10=90,11=11/1;
 11/6=1,8=1,9=11,15=111,16=1/1,2,10;
 10/6=1,13=1/2;
 6/7=2,8=2,9=2,10=2,28=1/1;
 7/10=1,18=20,25=1/1,2,3,16;
 1/10=4,18=20,19=15,26=3/3(2);
 2/9=110/2;
 99//99;
 2/9=110/2;
 3/5=1,6=6,7=101,11=2,25=1,30=1,70=2205,71=1,72=1,74=-5/1,2,3;
 4/5=5,16=3,69=1/1;
 5/5=2,8=3,13=1,38=5,53=1/2,8;
 7//1,2,3,16;
 1/18=20,19=15,26=3/3(-5);
 2/9=110/2;
 6/7=2,8=2,9=2,10=2,19=2,28=1/1;
 99/9=1/99;
 ----------------------------------
 DDAPSNKEOHDLKB-UHFFFAOYSA-N_conf_0
 ----------------------------------
 Symbolic Z-matrix:
 Charge =  0 Multiplicity = 1
 N                     0.04551  -3.00163  -0.55206 
 C                    -0.93392  -1.99422  -0.42494 
 C                    -2.26867  -2.347    -0.63449 
 C                    -3.29392  -1.43059  -0.41065 
 C                    -3.01738  -0.14756   0.07314 
 C                    -4.06699   0.7608    0.29269 
 C                    -3.81908   2.03822   0.79097 
 C                    -2.51751   2.42159   1.08073 
 C                    -1.46536   1.52808   0.867 
 C                    -1.67981   0.22583   0.35347 
 C                    -0.62795  -0.71654   0.11348 
 C                     0.79109  -0.36124   0.40718 
 C                     1.59538   0.29558  -0.58029 
 C                     1.13056   0.633    -1.87525 
 C                     1.94691   1.27301  -2.81068 
 C                     3.25441   1.59765  -2.47893 
 C                     3.74272   1.28431  -1.21211 
 C                     2.93221   0.64001  -0.26207 
 C                     3.44161   0.34868   1.00768 
 C                     2.65747  -0.29561   1.96218 
 C                     1.35579  -0.70267   1.6636 
 N                     0.57692  -1.25501   2.70192 
 H                     0.98466  -2.62883  -0.67437 
 H                    -0.17807  -3.6998   -1.25359 
 H                    -2.52315  -3.34662  -0.97707 
 H                    -4.31931  -1.73764  -0.60514 
 H                    -5.09502   0.47593   0.07886 
 H                    -4.64158   2.72828   0.95734 
 H                    -2.31305   3.41262   1.47684 
 H                    -0.45922   1.86235   1.11432 
 H                     0.10957   0.39966  -2.17212 
 H                     1.55468   1.51807  -3.79415 
 H                     3.89356   2.09789  -3.20136 
 H                     4.76892   1.55202  -0.96855 
 H                     4.45772   0.63188   1.27382 
 H                     3.07447  -0.48102   2.94863 
 H                    -0.21103  -1.7949    2.3467 
 H                     1.11686  -1.78455   3.37729 
 

 GradGradGradGradGradGradGradGradGradGradGradGradGradGradGradGradGradGrad
 Berny optimization.
 Initialization pass.
                           ----------------------------
                           !    Initial Parameters    !
                           ! (Angstroms and Degrees)  !
 --------------------------                            --------------------------
 ! Name  Definition              Value          Derivative Info.                !
 --------------------------------------------------------------------------------
 ! R1    R(1,2)                  1.4108         calculate D2E/DX2 analytically  !
 ! R2    R(1,23)                 1.0178         calculate D2E/DX2 analytically  !
 ! R3    R(1,24)                 1.0147         calculate D2E/DX2 analytically  !
 ! R4    R(2,3)                  1.3964         calculate D2E/DX2 analytically  !
 ! R5    R(2,11)                 1.4199         calculate D2E/DX2 analytically  !
 ! R6    R(3,4)                  1.3932         calculate D2E/DX2 analytically  !
 ! R7    R(3,25)                 1.0869         calculate D2E/DX2 analytically  !
 ! R8    R(4,5)                  1.3988         calculate D2E/DX2 analytically  !
 ! R9    R(4,26)                 1.0879         calculate D2E/DX2 analytically  !
 ! R10   R(5,6)                  1.4053         calculate D2E/DX2 analytically  !
 ! R11   R(5,10)                 1.4167         calculate D2E/DX2 analytically  !
 ! R12   R(6,7)                  1.3934         calculate D2E/DX2 analytically  !
 ! R13   R(6,27)                 1.088          calculate D2E/DX2 analytically  !
 ! R14   R(7,8)                  1.3875         calculate D2E/DX2 analytically  !
 ! R15   R(7,28)                 1.0864         calculate D2E/DX2 analytically  !
 ! R16   R(8,9)                  1.3968         calculate D2E/DX2 analytically  !
 ! R17   R(8,29)                 1.0867         calculate D2E/DX2 analytically  !
 ! R18   R(9,10)                 1.4162         calculate D2E/DX2 analytically  !
 ! R19   R(9,30)                 1.0887         calculate D2E/DX2 analytically  !
 ! R20   R(10,11)                1.4325         calculate D2E/DX2 analytically  !
 ! R21   R(11,12)                1.492          calculate D2E/DX2 analytically  !
 ! R22   R(12,13)                1.433          calculate D2E/DX2 analytically  !
 ! R23   R(12,21)                1.4192         calculate D2E/DX2 analytically  !
 ! R24   R(13,14)                1.4166         calculate D2E/DX2 analytically  !
 ! R25   R(13,18)                1.4167         calculate D2E/DX2 analytically  !
 ! R26   R(14,15)                1.3968         calculate D2E/DX2 analytically  !
 ! R27   R(14,31)                1.0886         calculate D2E/DX2 analytically  !
 ! R28   R(15,16)                1.3874         calculate D2E/DX2 analytically  !
 ! R29   R(15,32)                1.0868         calculate D2E/DX2 analytically  !
 ! R30   R(16,17)                1.3934         calculate D2E/DX2 analytically  !
 ! R31   R(16,33)                1.0866         calculate D2E/DX2 analytically  !
 ! R32   R(17,18)                1.4052         calculate D2E/DX2 analytically  !
 ! R33   R(17,34)                1.0881         calculate D2E/DX2 analytically  !
 ! R34   R(18,19)                1.3988         calculate D2E/DX2 analytically  !
 ! R35   R(19,20)                1.3932         calculate D2E/DX2 analytically  !
 ! R36   R(19,35)                1.0879         calculate D2E/DX2 analytically  !
 ! R37   R(20,21)                1.3962         calculate D2E/DX2 analytically  !
 ! R38   R(20,36)                1.0869         calculate D2E/DX2 analytically  !
 ! R39   R(21,22)                1.4106         calculate D2E/DX2 analytically  !
 ! R40   R(22,37)                1.0191         calculate D2E/DX2 analytically  !
 ! R41   R(22,38)                1.0139         calculate D2E/DX2 analytically  !
 ! A1    A(2,1,23)             112.9463         calculate D2E/DX2 analytically  !
 ! A2    A(2,1,24)             113.6191         calculate D2E/DX2 analytically  !
 ! A3    A(23,1,24)            111.8545         calculate D2E/DX2 analytically  !
 ! A4    A(1,2,3)              118.0132         calculate D2E/DX2 analytically  !
 ! A5    A(1,2,11)             121.8125         calculate D2E/DX2 analytically  !
 ! A6    A(3,2,11)             119.3551         calculate D2E/DX2 analytically  !
 ! A7    A(2,3,4)              120.8716         calculate D2E/DX2 analytically  !
 ! A8    A(2,3,25)             120.2279         calculate D2E/DX2 analytically  !
 ! A9    A(4,3,25)             118.9005         calculate D2E/DX2 analytically  !
 ! A10   A(3,4,5)              120.891          calculate D2E/DX2 analytically  !
 ! A11   A(3,4,26)             118.635          calculate D2E/DX2 analytically  !
 ! A12   A(5,4,26)             120.4672         calculate D2E/DX2 analytically  !
 ! A13   A(4,5,6)              119.9493         calculate D2E/DX2 analytically  !
 ! A14   A(4,5,10)             119.7904         calculate D2E/DX2 analytically  !
 ! A15   A(6,5,10)             120.2568         calculate D2E/DX2 analytically  !
 ! A16   A(5,6,7)              121.0341         calculate D2E/DX2 analytically  !
 ! A17   A(5,6,27)             120.3824         calculate D2E/DX2 analytically  !
 ! A18   A(7,6,27)             118.583          calculate D2E/DX2 analytically  !
 ! A19   A(6,7,8)              119.6633         calculate D2E/DX2 analytically  !
 ! A20   A(6,7,28)             120.156          calculate D2E/DX2 analytically  !
 ! A21   A(8,7,28)             120.1796         calculate D2E/DX2 analytically  !
 ! A22   A(7,8,9)              119.8624         calculate D2E/DX2 analytically  !
 ! A23   A(7,8,29)             120.3066         calculate D2E/DX2 analytically  !
 ! A24   A(9,8,29)             119.8306         calculate D2E/DX2 analytically  !
 ! A25   A(8,9,10)             121.9816         calculate D2E/DX2 analytically  !
 ! A26   A(8,9,30)             117.7086         calculate D2E/DX2 analytically  !
 ! A27   A(10,9,30)            120.3091         calculate D2E/DX2 analytically  !
 ! A28   A(5,10,9)             117.1986         calculate D2E/DX2 analytically  !
 ! A29   A(5,10,11)            119.1254         calculate D2E/DX2 analytically  !
 ! A30   A(9,10,11)            123.6755         calculate D2E/DX2 analytically  !
 ! A31   A(2,11,10)            119.8201         calculate D2E/DX2 analytically  !
 ! A32   A(2,11,12)            119.5958         calculate D2E/DX2 analytically  !
 ! A33   A(10,11,12)           120.579          calculate D2E/DX2 analytically  !
 ! A34   A(11,12,13)           120.4853         calculate D2E/DX2 analytically  !
 ! A35   A(11,12,21)           119.6972         calculate D2E/DX2 analytically  !
 ! A36   A(13,12,21)           119.8035         calculate D2E/DX2 analytically  !
 ! A37   A(12,13,14)           123.7067         calculate D2E/DX2 analytically  !
 ! A38   A(12,13,18)           119.0963         calculate D2E/DX2 analytically  !
 ! A39   A(14,13,18)           117.1966         calculate D2E/DX2 analytically  !
 ! A40   A(13,14,15)           121.9748         calculate D2E/DX2 analytically  !
 ! A41   A(13,14,31)           120.3964         calculate D2E/DX2 analytically  !
 ! A42   A(15,14,31)           117.6285         calculate D2E/DX2 analytically  !
 ! A43   A(14,15,16)           119.8573         calculate D2E/DX2 analytically  !
 ! A44   A(14,15,32)           119.8947         calculate D2E/DX2 analytically  !
 ! A45   A(16,15,32)           120.2476         calculate D2E/DX2 analytically  !
 ! A46   A(15,16,17)           119.6725         calculate D2E/DX2 analytically  !
 ! A47   A(15,16,33)           120.2033         calculate D2E/DX2 analytically  !
 ! A48   A(17,16,33)           120.1236         calculate D2E/DX2 analytically  !
 ! A49   A(16,17,18)           121.0412         calculate D2E/DX2 analytically  !
 ! A50   A(16,17,34)           118.5991         calculate D2E/DX2 analytically  !
 ! A51   A(18,17,34)           120.3594         calculate D2E/DX2 analytically  !
 ! A52   A(13,18,17)           120.2569         calculate D2E/DX2 analytically  !
 ! A53   A(13,18,19)           119.7956         calculate D2E/DX2 analytically  !
 ! A54   A(17,18,19)           119.9445         calculate D2E/DX2 analytically  !
 ! A55   A(18,19,20)           120.8811         calculate D2E/DX2 analytically  !
 ! A56   A(18,19,35)           120.5303         calculate D2E/DX2 analytically  !
 ! A57   A(20,19,35)           118.585          calculate D2E/DX2 analytically  !
 ! A58   A(19,20,21)           120.8673         calculate D2E/DX2 analytically  !
 ! A59   A(19,20,36)           118.9959         calculate D2E/DX2 analytically  !
 ! A60   A(21,20,36)           120.1368         calculate D2E/DX2 analytically  !
 ! A61   A(12,21,20)           119.3521         calculate D2E/DX2 analytically  !
 ! A62   A(12,21,22)           121.7469         calculate D2E/DX2 analytically  !
 ! A63   A(20,21,22)           118.1337         calculate D2E/DX2 analytically  !
 ! A64   A(21,22,37)           112.1966         calculate D2E/DX2 analytically  !
 ! A65   A(21,22,38)           113.6259         calculate D2E/DX2 analytically  !
 ! A66   A(37,22,38)           111.5457         calculate D2E/DX2 analytically  !
 ! D1    D(23,1,2,3)           162.0403         calculate D2E/DX2 analytically  !
 ! D2    D(23,1,2,11)          -28.3963         calculate D2E/DX2 analytically  !
 ! D3    D(24,1,2,3)            33.2604         calculate D2E/DX2 analytically  !
 ! D4    D(24,1,2,11)         -157.1762         calculate D2E/DX2 analytically  !
 ! D5    D(1,2,3,4)            174.3373         calculate D2E/DX2 analytically  !
 ! D6    D(1,2,3,25)            -5.6899         calculate D2E/DX2 analytically  !
 ! D7    D(11,2,3,4)             4.5098         calculate D2E/DX2 analytically  !
 ! D8    D(11,2,3,25)         -175.5174         calculate D2E/DX2 analytically  !
 ! D9    D(1,2,11,10)         -173.4751         calculate D2E/DX2 analytically  !
 ! D10   D(1,2,11,12)            7.3456         calculate D2E/DX2 analytically  !
 ! D11   D(3,2,11,10)           -4.0478         calculate D2E/DX2 analytically  !
 ! D12   D(3,2,11,12)          176.7729         calculate D2E/DX2 analytically  !
 ! D13   D(2,3,4,5)             -2.1866         calculate D2E/DX2 analytically  !
 ! D14   D(2,3,4,26)           178.757          calculate D2E/DX2 analytically  !
 ! D15   D(25,3,4,5)           177.8403         calculate D2E/DX2 analytically  !
 ! D16   D(25,3,4,26)           -1.2162         calculate D2E/DX2 analytically  !
 ! D17   D(3,4,5,6)           -179.9558         calculate D2E/DX2 analytically  !
 ! D18   D(3,4,5,10)            -0.6309         calculate D2E/DX2 analytically  !
 ! D19   D(26,4,5,6)            -0.9166         calculate D2E/DX2 analytically  !
 ! D20   D(26,4,5,10)          178.4083         calculate D2E/DX2 analytically  !
 ! D21   D(4,5,6,7)            179.1303         calculate D2E/DX2 analytically  !
 ! D22   D(4,5,6,27)            -0.6292         calculate D2E/DX2 analytically  !
 ! D23   D(10,5,6,7)            -0.1914         calculate D2E/DX2 analytically  !
 ! D24   D(10,5,6,27)         -179.9509         calculate D2E/DX2 analytically  !
 ! D25   D(4,5,10,9)          -178.7266         calculate D2E/DX2 analytically  !
 ! D26   D(4,5,10,11)            1.0296         calculate D2E/DX2 analytically  !
 ! D27   D(6,5,10,9)             0.5962         calculate D2E/DX2 analytically  !
 ! D28   D(6,5,10,11)         -179.6476         calculate D2E/DX2 analytically  !
 ! D29   D(5,6,7,8)             -0.236          calculate D2E/DX2 analytically  !
 ! D30   D(5,6,7,28)          -179.8667         calculate D2E/DX2 analytically  !
 ! D31   D(27,6,7,8)           179.5278         calculate D2E/DX2 analytically  !
 ! D32   D(27,6,7,28)           -0.1029         calculate D2E/DX2 analytically  !
 ! D33   D(6,7,8,9)              0.2314         calculate D2E/DX2 analytically  !
 ! D34   D(6,7,8,29)          -179.5349         calculate D2E/DX2 analytically  !
 ! D35   D(28,7,8,9)           179.862          calculate D2E/DX2 analytically  !
 ! D36   D(28,7,8,29)            0.0957         calculate D2E/DX2 analytically  !
 ! D37   D(7,8,9,10)             0.2018         calculate D2E/DX2 analytically  !
 ! D38   D(7,8,9,30)          -179.4897         calculate D2E/DX2 analytically  !
 ! D39   D(29,8,9,10)          179.9692         calculate D2E/DX2 analytically  !
 ! D40   D(29,8,9,30)            0.2777         calculate D2E/DX2 analytically  !
 ! D41   D(8,9,10,5)            -0.6091         calculate D2E/DX2 analytically  !
 ! D42   D(8,9,10,11)          179.6469         calculate D2E/DX2 analytically  !
 ! D43   D(30,9,10,5)          179.0746         calculate D2E/DX2 analytically  !
 ! D44   D(30,9,10,11)          -0.6695         calculate D2E/DX2 analytically  !
 ! D45   D(5,10,11,2)            1.3069         calculate D2E/DX2 analytically  !
 ! D46   D(5,10,11,12)        -179.5219         calculate D2E/DX2 analytically  !
 ! D47   D(9,10,11,2)         -178.9536         calculate D2E/DX2 analytically  !
 ! D48   D(9,10,11,12)           0.2175         calculate D2E/DX2 analytically  !
 ! D49   D(2,11,12,13)          91.6479         calculate D2E/DX2 analytically  !
 ! D50   D(2,11,12,21)         -86.9867         calculate D2E/DX2 analytically  !
 ! D51   D(10,11,12,13)        -87.5251         calculate D2E/DX2 analytically  !
 ! D52   D(10,11,12,21)         93.8404         calculate D2E/DX2 analytically  !
 ! D53   D(11,12,13,14)         -0.8355         calculate D2E/DX2 analytically  !
 ! D54   D(11,12,13,18)        178.9255         calculate D2E/DX2 analytically  !
 ! D55   D(21,12,13,14)        177.7976         calculate D2E/DX2 analytically  !
 ! D56   D(21,12,13,18)         -2.4413         calculate D2E/DX2 analytically  !
 ! D57   D(11,12,21,20)       -176.1264         calculate D2E/DX2 analytically  !
 ! D58   D(11,12,21,22)         -6.3496         calculate D2E/DX2 analytically  !
 ! D59   D(13,12,21,20)          5.2296         calculate D2E/DX2 analytically  !
 ! D60   D(13,12,21,22)        175.0064         calculate D2E/DX2 analytically  !
 ! D61   D(12,13,14,15)       -179.9585         calculate D2E/DX2 analytically  !
 ! D62   D(12,13,14,31)          0.2492         calculate D2E/DX2 analytically  !
 ! D63   D(18,13,14,15)          0.2762         calculate D2E/DX2 analytically  !
 ! D64   D(18,13,14,31)       -179.5161         calculate D2E/DX2 analytically  !
 ! D65   D(12,13,18,17)        179.9823         calculate D2E/DX2 analytically  !
 ! D66   D(12,13,18,19)         -0.6459         calculate D2E/DX2 analytically  !
 ! D67   D(14,13,18,17)         -0.2411         calculate D2E/DX2 analytically  !
 ! D68   D(14,13,18,19)        179.1306         calculate D2E/DX2 analytically  !
 ! D69   D(13,14,15,16)         -0.0981         calculate D2E/DX2 analytically  !
 ! D70   D(13,14,15,32)       -179.8761         calculate D2E/DX2 analytically  !
 ! D71   D(31,14,15,16)        179.6997         calculate D2E/DX2 analytically  !
 ! D72   D(31,14,15,32)         -0.0783         calculate D2E/DX2 analytically  !
 ! D73   D(14,15,16,17)         -0.1211         calculate D2E/DX2 analytically  !
 ! D74   D(14,15,16,33)       -179.8392         calculate D2E/DX2 analytically  !
 ! D75   D(32,15,16,17)        179.656          calculate D2E/DX2 analytically  !
 ! D76   D(32,15,16,33)         -0.062          calculate D2E/DX2 analytically  !
 ! D77   D(15,16,17,18)          0.1531         calculate D2E/DX2 analytically  !
 ! D78   D(15,16,17,34)       -179.6521         calculate D2E/DX2 analytically  !
 ! D79   D(33,16,17,18)        179.8714         calculate D2E/DX2 analytically  !
 ! D80   D(33,16,17,34)          0.0662         calculate D2E/DX2 analytically  !
 ! D81   D(16,17,18,13)          0.0338         calculate D2E/DX2 analytically  !
 ! D82   D(16,17,18,19)       -179.337          calculate D2E/DX2 analytically  !
 ! D83   D(34,17,18,13)        179.8356         calculate D2E/DX2 analytically  !
 ! D84   D(34,17,18,19)          0.4647         calculate D2E/DX2 analytically  !
 ! D85   D(13,18,19,20)          0.9568         calculate D2E/DX2 analytically  !
 ! D86   D(13,18,19,35)       -178.3443         calculate D2E/DX2 analytically  !
 ! D87   D(17,18,19,20)       -179.6695         calculate D2E/DX2 analytically  !
 ! D88   D(17,18,19,35)          1.0294         calculate D2E/DX2 analytically  !
 ! D89   D(18,19,20,21)          1.9017         calculate D2E/DX2 analytically  !
 ! D90   D(18,19,20,36)       -178.2281         calculate D2E/DX2 analytically  !
 ! D91   D(35,19,20,21)       -178.7839         calculate D2E/DX2 analytically  !
 ! D92   D(35,19,20,36)          1.0863         calculate D2E/DX2 analytically  !
 ! D93   D(19,20,21,12)         -4.9868         calculate D2E/DX2 analytically  !
 ! D94   D(19,20,21,22)       -175.1321         calculate D2E/DX2 analytically  !
 ! D95   D(36,20,21,12)        175.1445         calculate D2E/DX2 analytically  !
 ! D96   D(36,20,21,22)          4.9992         calculate D2E/DX2 analytically  !
 ! D97   D(12,21,22,37)         29.1597         calculate D2E/DX2 analytically  !
 ! D98   D(12,21,22,38)        156.8507         calculate D2E/DX2 analytically  !
 ! D99   D(20,21,22,37)       -160.9438         calculate D2E/DX2 analytically  !
 ! D100  D(20,21,22,38)        -33.2527         calculate D2E/DX2 analytically  !
 --------------------------------------------------------------------------------
 Trust Radius=3.00D-01 FncErr=1.00D-07 GrdErr=1.00D-06 EigMax=2.50D+02 EigMin=1.00D-04
 Number of steps in this run=    217 maximum allowed number of steps=    228.
 GradGradGradGradGradGradGradGradGradGradGradGradGradGradGradGradGradGrad

                          Input orientation:                          
 ---------------------------------------------------------------------
 Center     Atomic      Atomic             Coordinates (Angstroms)
 Number     Number       Type             X           Y           Z
 ---------------------------------------------------------------------
      1          7           0        0.045509   -3.001631   -0.552056
      2          6           0       -0.933917   -1.994223   -0.424940
      3          6           0       -2.268666   -2.346999   -0.634490
      4          6           0       -3.293915   -1.430588   -0.410648
      5          6           0       -3.017376   -0.147555    0.073136
      6          6           0       -4.066988    0.760800    0.292690
      7          6           0       -3.819082    2.038220    0.790968
      8          6           0       -2.517510    2.421591    1.080732
      9          6           0       -1.465364    1.528078    0.867000
     10          6           0       -1.679811    0.225830    0.353475
     11          6           0       -0.627953   -0.716541    0.113479
     12          6           0        0.791094   -0.361242    0.407177
     13          6           0        1.595378    0.295578   -0.580295
     14          6           0        1.130562    0.632998   -1.875254
     15          6           0        1.946915    1.273013   -2.810684
     16          6           0        3.254409    1.597647   -2.478928
     17          6           0        3.742720    1.284309   -1.212112
     18          6           0        2.932211    0.640013   -0.262065
     19          6           0        3.441607    0.348676    1.007676
     20          6           0        2.657472   -0.295612    1.962183
     21          6           0        1.355787   -0.702673    1.663595
     22          7           0        0.576922   -1.255014    2.701917
     23          1           0        0.984655   -2.628834   -0.674372
     24          1           0       -0.178071   -3.699798   -1.253590
     25          1           0       -2.523146   -3.346621   -0.977068
     26          1           0       -4.319313   -1.737644   -0.605136
     27          1           0       -5.095022    0.475930    0.078857
     28          1           0       -4.641583    2.728279    0.957338
     29          1           0       -2.313054    3.412619    1.476844
     30          1           0       -0.459222    1.862347    1.114318
     31          1           0        0.109572    0.399659   -2.172123
     32          1           0        1.554679    1.518071   -3.794152
     33          1           0        3.893559    2.097893   -3.201356
     34          1           0        4.768916    1.552016   -0.968553
     35          1           0        4.457723    0.631877    1.273822
     36          1           0        3.074473   -0.481024    2.948627
     37          1           0       -0.211030   -1.794900    2.346697
     38          1           0        1.116860   -1.784545    3.377293
 ---------------------------------------------------------------------
                    Distance matrix (angstroms):
                    1          2          3          4          5
     1  N    0.000000
     2  C    1.410782   0.000000
     3  C    2.406397   1.396394   0.000000
     4  C    3.693228   2.426413   1.393216   0.000000
     5  C    4.232952   2.828261   2.428756   1.398819   0.000000
     6  C    5.637563   4.233353   3.708375   2.427861   1.405347
     7  C    6.491447   5.105213   4.864757   3.708410   2.436314
     8  C    6.216623   4.926889   5.073792   4.203130   2.804573
     9  C    4.981438   3.789215   4.232728   3.705359   2.417996
    10  C    3.770043   2.467980   2.818204   2.435762   1.416716
    11  C    2.473485   1.419853   2.431006   2.809258   2.456565
    12  C    2.906490   2.516885   3.793472   4.301121   3.829058
    13  C    3.643416   3.415357   4.681558   5.187834   4.679833
    14  C    4.017303   3.642497   4.687710   5.097005   4.648750
    15  C    5.195125   4.966468   5.967531   6.366783   5.914271
    16  C    5.929859   5.887485   7.033245   7.505234   6.992427
    17  C    5.698625   5.765358   7.046758   7.584672   7.028584
    18  C    4.656041   4.681098   6.009165   6.563087   6.010840
    19  C    5.019045   5.165925   6.524615   7.109479   6.545080
    20  C    4.523968   4.634837   5.934453   6.506728   5.982835
    21  C    3.451253   3.357503   4.595831   5.143158   4.686392
    22  N    3.731141   3.550535   4.519006   4.970137   4.588674
    23  H    1.017809   2.036140   3.265749   4.451012   4.767784
    24  H    1.014680   2.041311   2.565918   3.945675   4.737117
    25  H    2.626336   2.158581   1.086906   2.141519   3.403119
    26  H    4.544464   3.399883   2.139469   1.087910   2.164134
    27  H    6.238313   4.865209   4.057842   2.668035   2.169189
    28  H    7.555063   6.161129   5.824355   4.580805   3.419106
    29  H    7.128945   5.895146   6.134566   5.289742   3.891183
    30  H    5.166222   4.179448   4.904183   4.604827   3.415834
    31  H    3.767957   3.142005   3.945182   4.246919   3.888243
    32  H    5.763374   5.466344   6.288099   6.606932   6.215618
    33  H    6.916026   6.910747   8.019905   8.479269   7.970279
    34  H    6.574173   6.737480   8.052420   8.614896   8.037412
    35  H    6.000321   6.233136   7.599978   8.196286   7.610930
    36  H    5.270945   5.453248   6.698487   7.262422   6.744647
    37  H    3.150362   2.871283   3.664172   4.152091   3.969686
    38  H    4.250750   4.325116   5.279445   5.824837   5.539774
                    6          7          8          9         10
     6  C    0.000000
     7  C    1.393391   0.000000
     8  C    2.404187   1.387453   0.000000
     9  C    2.772543   2.409567   1.396803   0.000000
    10  C    2.447141   2.837717   2.460083   1.416173   0.000000
    11  C    3.747214   4.269778   3.788651   2.511446   1.432504
    12  C    4.987288   5.211375   4.375465   2.978685   2.540258
    13  C    5.748123   5.850943   4.918820   3.603035   3.406414
    14  C    5.633013   5.795029   5.024475   3.880716   3.609878
    15  C    6.786775   6.841356   6.032697   5.023351   4.925610
    16  C    7.873057   7.805165   6.831187   5.785873   5.852428
    17  C    7.970573   7.858852   6.763211   5.613044   5.742411
    18  C    7.022188   6.974512   5.888682   4.626241   4.671315
    19  C    7.553811   7.457824   6.309786   5.048678   5.164494
    20  C    7.008679   6.983142   5.911057   4.639294   4.655306
    21  C    5.781663   5.920578   5.010308   3.683708   3.434151
    22  N    5.606584   5.815666   5.071605   3.909406   3.577838
    23  H    6.159864   6.855983   6.391583   5.065405   4.037939
    24  H    6.116502   7.096621   6.956539   5.786598   4.499827
    25  H    4.568003   5.813941   6.124283   5.318099   3.904352
    26  H    2.666830   4.056659   4.836102   4.580082   3.426534
    27  H    1.087994   2.139129   3.381260   3.860389   3.435350
    28  H    2.154737   1.086448   2.149644   3.396618   3.924155
    29  H    3.392735   2.151167   1.086666   2.154526   3.437816
    30  H    3.860629   3.379963   2.133174   1.088680   2.178741
    31  H    4.863063   5.186435   4.644441   3.604167   3.100121
    32  H    6.991343   7.083162   6.415884   5.554016   5.416144
    33  H    8.795822   8.684874   7.716402   6.752352   6.870509
    34  H    8.960466   8.779864   7.618906   6.498929   6.715103
    35  H    8.581954   8.409307   7.203766   6.004302   6.219425
    36  H    7.719883   7.650045   6.571490   5.383287   5.462388
    37  H    5.061518   5.489184   4.970042   3.847732   3.195873
    38  H    6.547201   6.757673   6.014518   4.893151   4.583280
                   11         12         13         14         15
    11  C    0.000000
    12  C    1.492042   0.000000
    13  C    2.539470   1.432964   0.000000
    14  C    2.978035   2.512618   1.416625   0.000000
    15  C    4.374814   3.789636   2.460405   1.396810   0.000000
    16  C    5.210448   4.270219   2.837706   2.409501   1.387440
    17  C    4.986318   3.747270   2.447010   2.772604   2.404262
    18  C    3.828320   2.456579   1.416696   2.418340   2.804809
    19  C    4.300651   2.808880   2.435782   3.705814   4.203377
    20  C    3.793271   2.430168   2.818110   4.233166   5.074025
    21  C    2.517593   1.419169   2.467580   3.789222   4.926656
    22  N    2.905458   2.471948   3.770213   4.982129   6.217441
    23  H    2.622609   2.519759   2.988983   3.478930   4.551283
    24  H    3.312265   3.852712   4.422837   4.568601   5.627518
    25  H    3.420289   4.670419   5.512285   5.476650   6.684655
    26  H    3.896819   5.388461   6.254453   6.077358   7.293429
    27  H    4.623623   5.954411   6.725211   6.526953   7.653343
    28  H    5.356128   6.273898   6.868918   6.762503   7.728136
    29  H    4.663506   5.002194   5.405886   5.551697   6.411563
    30  H    2.771428   2.647203   3.089961   3.602257   4.641384
    31  H    2.648363   2.774209   2.179994   1.088577   2.132214
    32  H    5.002694   4.665410   3.438753   2.155318   1.086790
    33  H    6.273216   5.356691   3.924275   3.396853   2.149994
    34  H    5.953431   4.623447   3.435218   3.860611   3.381565
    35  H    5.387831   3.896348   3.426932   4.581123   4.837189
    36  H    4.669206   3.418645   3.904372   5.318804   6.125169
    37  H    2.514746   2.611774   4.024983   5.051676   6.377099
    38  H    3.851946   3.309608   4.496487   5.782211   6.951885
                   16         17         18         19         20
    16  C    0.000000
    17  C    1.393360   0.000000
    18  C    2.436258   1.405215   0.000000
    19  C    3.708285   2.427660   1.398787   0.000000
    20  C    4.864589   3.708107   2.428612   1.393219   0.000000
    21  C    5.104580   4.232639   2.827735   2.426152   1.396151
    22  N    6.492131   5.638267   4.233640   3.694415   2.407561
    23  H    5.125558   4.817548   3.827313   4.210874   3.897905
    24  H    6.430109   6.341581   5.430556   5.882648   5.474485
    25  H    7.751226   7.794988   6.794512   7.291962   6.692284
    26  H    8.485076   8.631164   7.639080   8.196693   7.572722
    27  H    8.804176   8.968041   8.036144   8.587953   8.015196
    28  H    8.685214   8.779983   7.950481   8.426329   7.964286
    29  H    7.066746   6.959352   6.182552   6.536359   6.220342
    30  H    5.174218   4.837636   3.858801   4.185575   3.884514
    31  H    3.379246   3.860569   3.416633   4.606103   4.905883
    32  H    2.150635   3.392507   3.891557   5.290135   6.135225
    33  H    1.086582   2.154475   3.418922   4.580389   5.823994
    34  H    2.139403   1.088148   2.168954   2.667444   4.057233
    35  H    4.057561   2.667726   2.164764   1.087901   2.138920
    36  H    5.814775   4.568884   3.403750   2.142541   1.086895
    37  H    6.841440   6.146445   4.755460   4.441808   3.259451
    38  H    7.092507   6.113562   4.734861   3.945905   2.567673
                   21         22         23         24         25
    21  C    0.000000
    22  N    1.410611   0.000000
    23  H    3.051872   3.667827   0.000000
    24  H    4.454824   4.710947   1.683566   0.000000
    25  H    5.386064   5.245967   3.593259   2.387587   0.000000
    26  H    6.198795   5.928123   5.378763   4.628220   2.439950
    27  H    6.746365   6.484409   6.867997   6.586997   4.726671
    28  H    6.945408   6.792862   7.938242   8.132117   6.718193
    29  H    5.516421   5.624906   7.211225   7.912010   7.193966
    30  H    3.189874   3.648563   5.045285   6.051735   5.980555
    31  H    4.181020   5.168426   3.490100   4.210938   4.732227
    32  H    5.895614   7.130563   5.220610   6.056652   6.944771
    33  H    6.160455   7.555839   6.098304   7.347461   8.704268
    34  H    4.864286   6.238957   5.646829   7.220491   8.784696
    35  H    3.399258   4.545375   5.146833   6.829481   8.344309
    36  H    2.157386   2.626345   4.701760   6.212743   7.413236
    37  H    2.028424   1.019081   3.354395   4.073302   4.336028
    38  H    2.040660   1.013937   4.140808   5.175917   5.886441
                   26         27         28         29         30
    26  H    0.000000
    27  H    2.443252   0.000000
    28  H    4.742326   2.459759   0.000000
    29  H    5.906346   4.279937   2.481987   0.000000
    30  H    5.551285   4.948230   4.273948   2.443657   0.000000
    31  H    5.161253   5.671025   6.147314   5.316202   3.641933
    32  H    7.434600   7.765616   7.901578   6.806767   5.316709
    33  H    9.428837   9.704903   9.515291   7.882645   6.134103
    34  H    9.672117   9.977590   9.677301   7.719851   5.636318
    35  H    9.283398   9.628458   9.343042   7.322374   5.071079
    36  H    8.299180   8.711601   8.590832   6.808234   4.619857
    37  H    5.059109   5.844069   6.482228   5.682729   3.867275
    38  H    6.738985   7.387618   7.705935   6.510494   4.572190
                   31         32         33         34         35
    31  H    0.000000
    32  H    2.443390   0.000000
    33  H    4.273392   2.481524   0.000000
    34  H    4.948333   4.279776   2.459601   0.000000
    35  H    5.552917   5.907399   4.742857   2.443715   0.000000
    36  H    5.982335   7.195223   6.718929   4.727441   2.440677
    37  H    5.033747   7.197467   7.923533   6.855114   5.370062
    38  H    6.048256   7.907501   8.127853   6.584568   4.628721
                   36         37         38
    36  H    0.000000
    37  H    3.589306   0.000000
    38  H    2.390642   1.680930   0.000000
 Stoichiometry    C20H16N2
 Framework group  C1[X(C20H16N2)]
 Deg. of freedom   108
 Full point group                 C1      NOp   1
 Largest Abelian subgroup         C1      NOp   1
 Largest concise Abelian subgroup C1      NOp   1
                         Standard orientation:                         
 ---------------------------------------------------------------------
 Center     Atomic      Atomic             Coordinates (Angstroms)
 Number     Number       Type             X           Y           Z
 ---------------------------------------------------------------------
      1          7           0        0.131455    2.480822   -1.775560
      2          6           0        1.025612    1.482828   -1.334203
      3          6           0        2.338898    1.523249   -1.807024
      4          6           0        3.300945    0.640105   -1.321663
      5          6           0        2.988589   -0.280178   -0.315578
      6          6           0        3.974679   -1.161314    0.160052
      7          6           0        3.693212   -2.074760    1.173921
      8          6           0        2.422075   -2.114893    1.728562
      9          6           0        1.433060   -1.244407    1.264706
     10          6           0        1.681473   -0.309954    0.229992
     11          6           0        0.693077    0.593860   -0.278201
     12          6           0       -0.690613    0.597581    0.279992
     13          6           0       -1.690789   -0.280962   -0.250287
     14          6           0       -1.460159   -1.179604   -1.320838
     15          6           0       -2.462808   -2.020059   -1.810133
     16          6           0       -3.728179   -1.989265   -1.241910
     17          6           0       -3.988353   -1.120416   -0.184147
     18          6           0       -2.988853   -0.269305    0.317093
     19          6           0       -3.271288    0.583932    1.388924
     20          6           0       -2.297073    1.440654    1.896851
     21          6           0       -1.025066    1.498544    1.324237
     22          7           0       -0.051438    2.307230    1.947051
     23          1           0       -0.844675    2.230176   -1.633143
     24          1           0        0.306704    2.792587   -2.725120
     25          1           0        2.625899    2.248608   -2.563892
     26          1           0        4.307953    0.690021   -1.730311
     27          1           0        4.979372   -1.139665   -0.256905
     28          1           0        4.467000   -2.747936    1.532328
     29          1           0        2.193223   -2.817913    2.524950
     30          1           0        0.450632   -1.300129    1.730490
     31          1           0       -0.479601   -1.237229   -1.790076
     32          1           0       -2.248048   -2.698095   -2.631874
     33          1           0       -4.511598   -2.642473   -1.616390
     34          1           0       -4.985193   -1.114746    0.252138
     35          1           0       -4.256143    0.583373    1.851081
     36          1           0       -2.541045    2.069679    2.748992
     37          1           0        0.718020    2.535909    1.319225
     38          1           0       -0.433247    3.137662    2.385996
 ---------------------------------------------------------------------
 Rotational constants (GHZ):           0.4521054           0.2245085           0.2108438
 Standard basis: 6-31G(d,p) (6D, 7F)
 There are   410 symmetry adapted cartesian basis functions of A   symmetry.
 There are   410 symmetry adapted basis functions of A   symmetry.
   410 basis functions,   728 primitive gaussians,   410 cartesian basis functions
    75 alpha electrons       75 beta electrons
       nuclear repulsion energy      1671.8402178413 Hartrees.
 NAtoms=   38 NActive=   38 NUniq=   38 SFac= 1.00D+00 NAtFMM=   60 NAOKFM=F Big=F
 Integral buffers will be    131072 words long.
 Raffenetti 2 integral format.
 Two-electron integral symmetry is turned on.
 Force inversion solution in PCM.
 ------------------------------------------------------------------------------
 Polarizable Continuum Model (PCM)
 =================================
 Model                : PCM.
 Atomic radii         : UFF (Universal Force Field).
 Polarization charges : Total charges.
 Charge compensation  : None.
 Solution method      : Matrix inversion.
 Cavity type          : Scaled VdW (van der Waals Surface) (Alpha=1.100).
 Cavity algorithm     : GePol (No added spheres)
                        Default sphere list used, NSphG=   38.
                        Lebedev-Laikov grids with approx.  5.0 points / Ang**2.
                        Smoothing algorithm: York/Karplus (Gamma=1.0000).
                        Polarization charges: spherical gaussians, with
                                              point-specific exponents (IZeta= 3).
                        Self-potential: point-specific (ISelfS= 7).
                        Self-field    : sphere-specific E.n sum rule (ISelfD= 2).
 1st derivatives      : Analytical E(r).r(x)/FMM algorithm (CHGder, D1EAlg=3).
                        Cavity 1st derivative terms included.
 2nd derivatives      : Analytical E(r).r(xy)/FMM algorithm (CHGder, D2EAlg=3).
                        Cavity 2nd derivative terms included.
 Solvent              : Water, Eps=  78.355300 Eps(inf)=   1.777849
 ------------------------------------------------------------------------------
 One-electron integrals computed using PRISM.
 NBasis=   410 RedAO= T EigKep=  2.26D-04  NBF=   410
 NBsUse=   410 1.00D-06 EigRej= -1.00D+00 NBFU=   410
 ExpMin= 1.61D-01 ExpMax= 4.17D+03 ExpMxC= 6.27D+02 IAcc=3 IRadAn=         5 AccDes= 0.00D+00
 Harris functional with IExCor=  402 and IRadAn=       5 diagonalized for initial guess.
 HarFok:  IExCor=  402 AccDes= 0.00D+00 IRadAn=         5 IDoV= 1 UseB2=F ITyADJ=14
 ICtDFT=  3500011 ScaDFX=  1.000000  1.000000  1.000000  1.000000
 FoFCou: FMM=F IPFlag=           0 FMFlag=      100000 FMFlg1=           0
         NFxFlg=           0 DoJE=T BraDBF=F KetDBF=T FulRan=T
         wScrn=  0.000000 ICntrl=       500 IOpCl=  0 I1Cent=   200000004 NGrid=           0
         NMat0=    1 NMatS0=      1 NMatT0=    0 NMatD0=    1 NMtDS0=    0 NMtDT0=    0
 Petite list used in FoFCou.
 Requested convergence on RMS density matrix=1.00D-08 within  32 cycles.
 Requested convergence on MAX density matrix=1.00D-06.
 Requested convergence on             energy=1.00D-06.
 No special actions if energy rises.
 Inv3:  Mode=1 IEnd=    22244187.
 Iteration    1 A*A^-1 deviation from unit magnitude is 3.44D-15 for   1625.
 Iteration    1 A*A^-1 deviation from orthogonality  is 2.08D-15 for   2113    242.
 Iteration    1 A^-1*A deviation from unit magnitude is 3.11D-15 for    547.
 Iteration    1 A^-1*A deviation from orthogonality  is 1.32D-14 for   1455   1365.
 Error on total polarization charges =  0.01102
 SCF Done:  E(RB3LYP) =  -881.331771637     A.U. after   13 cycles
            NFock= 13  Conv=0.32D-08     -V/T= 2.0096
 QCSCF skips out because SCF is already converged.
 DoSCS=F DFT=T ScalE2(SS,OS)=  1.000000  1.000000
 Range of M.O.s used for correlation:     1   410
 NBasis=   410 NAE=    75 NBE=    75 NFC=     0 NFV=     0
 NROrb=    410 NOA=    75 NOB=    75 NVA=   335 NVB=   335
 Symmetrizing basis deriv contribution to polar:
 IMax=3 JMax=2 DiffMx= 0.00D+00
 G2DrvN: will do    39 centers at a time, making    1 passes.
 Calling FoFCou, ICntrl=  3107 FMM=F I1Cent=   0 AccDes= 0.00D+00.
 NEqPCM:  Using equilibrium solvation (IEInf=0, Eps=  78.3553, EpsInf=   1.7778)
 G2PCM: DoFxE=T DoFxN=T DoGrad=T DoDP/DQ/DG/TGxP=FFFF NFrqRd=   0 IEInf=0 SqF1=F DoCFld=F IF1Alg=4.
 End of G2Drv F.D. properties file   721 does not exist.
 End of G2Drv F.D. properties file   722 does not exist.
 End of G2Drv F.D. properties file   788 does not exist.
          IDoAtm=11111111111111111111111111111111111111
 NEqPCM:  Using equilibrium solvation (IEInf=0, Eps=  78.3553, EpsInf=   1.7778)
          Differentiating once with respect to nuclear coordinates.
 CalDSu exits because no D1Ps are significant.
          There are   117 degrees of freedom in the 1st order CPHF.  IDoFFX=6 NUNeed=     0.
    111 vectors produced by pass  0 Test12= 2.51D-14 1.00D-09 XBig12= 1.30D-01 9.83D-02.
 AX will form   111 AO Fock derivatives at one time.
    111 vectors produced by pass  1 Test12= 2.51D-14 1.00D-09 XBig12= 3.11D-02 3.16D-02.
    111 vectors produced by pass  2 Test12= 2.51D-14 1.00D-09 XBig12= 2.37D-04 2.17D-03.
    111 vectors produced by pass  3 Test12= 2.51D-14 1.00D-09 XBig12= 7.66D-07 8.95D-05.
    111 vectors produced by pass  4 Test12= 2.51D-14 1.00D-09 XBig12= 1.19D-09 3.39D-06.
     87 vectors produced by pass  5 Test12= 2.51D-14 1.00D-09 XBig12= 1.43D-12 9.76D-08.
     18 vectors produced by pass  6 Test12= 2.51D-14 1.00D-09 XBig12= 1.73D-15 2.52D-09.
 InvSVY:  IOpt=1 It=  1 EMax= 3.89D-16
 Solved reduced A of dimension   660 with   117 vectors.
 End of Minotr F.D. properties file   721 does not exist.
 End of Minotr F.D. properties file   722 does not exist.
 End of Minotr F.D. properties file   788 does not exist.

 **********************************************************************

            Population analysis using the SCF density.

 **********************************************************************

 Orbital symmetries:
       Occupied  (A) (A) (A) (A) (A) (A) (A) (A) (A) (A) (A) (A)
                 (A) (A) (A) (A) (A) (A) (A) (A) (A) (A) (A) (A)
                 (A) (A) (A) (A) (A) (A) (A) (A) (A) (A) (A) (A)
                 (A) (A) (A) (A) (A) (A) (A) (A) (A) (A) (A) (A)
                 (A) (A) (A) (A) (A) (A) (A) (A) (A) (A) (A) (A)
                 (A) (A) (A) (A) (A) (A) (A) (A) (A) (A) (A) (A)
                 (A) (A) (A)
       Virtual   (A) (A) (A) (A) (A) (A) (A) (A) (A) (A) (A) (A)
                 (A) (A) (A) (A) (A) (A) (A) (A) (A) (A) (A) (A)
                 (A) (A) (A) (A) (A) (A) (A) (A) (A) (A) (A) (A)
                 (A) (A) (A) (A) (A) (A) (A) (A) (A) (A) (A) (A)
                 (A) (A) (A) (A) (A) (A) (A) (A) (A) (A) (A) (A)
                 (A) (A) (A) (A) (A) (A) (A) (A) (A) (A) (A) (A)
                 (A) (A) (A) (A) (A) (A) (A) (A) (A) (A) (A) (A)
                 (A) (A) (A) (A) (A) (A) (A) (A) (A) (A) (A) (A)
                 (A) (A) (A) (A) (A) (A) (A) (A) (A) (A) (A) (A)
                 (A) (A) (A) (A) (A) (A) (A) (A) (A) (A) (A) (A)
                 (A) (A) (A) (A) (A) (A) (A) (A) (A) (A) (A) (A)
                 (A) (A) (A) (A) (A) (A) (A) (A) (A) (A) (A) (A)
                 (A) (A) (A) (A) (A) (A) (A) (A) (A) (A) (A) (A)
                 (A) (A) (A) (A) (A) (A) (A) (A) (A) (A) (A) (A)
                 (A) (A) (A) (A) (A) (A) (A) (A) (A) (A) (A) (A)
                 (A) (A) (A) (A) (A) (A) (A) (A) (A) (A) (A) (A)
                 (A) (A) (A) (A) (A) (A) (A) (A) (A) (A) (A) (A)
                 (A) (A) (A) (A) (A) (A) (A) (A) (A) (A) (A) (A)
                 (A) (A) (A) (A) (A) (A) (A) (A) (A) (A) (A) (A)
                 (A) (A) (A) (A) (A) (A) (A) (A) (A) (A) (A) (A)
                 (A) (A) (A) (A) (A) (A) (A) (A) (A) (A) (A) (A)
                 (A) (A) (A) (A) (A) (A) (A) (A) (A) (A) (A) (A)
                 (A) (A) (A) (A) (A) (A) (A) (A) (A) (A) (A) (A)
                 (A) (A) (A) (A) (A) (A) (A) (A) (A) (A) (A) (A)
                 (A) (A) (A) (A) (A) (A) (A) (A) (A) (A) (A) (A)
                 (A) (A) (A) (A) (A) (A) (A) (A) (A) (A) (A) (A)
                 (A) (A) (A) (A) (A) (A) (A) (A) (A) (A) (A) (A)
                 (A) (A) (A) (A) (A) (A) (A) (A) (A) (A) (A)
 The electronic state is 1-A.
 Alpha  occ. eigenvalues --  -14.33935 -14.33870 -10.23223 -10.23176 -10.19863
 Alpha  occ. eigenvalues --  -10.19808 -10.19238 -10.19209 -10.19192 -10.19186
 Alpha  occ. eigenvalues --  -10.18976 -10.18960 -10.18851 -10.18838 -10.18806
 Alpha  occ. eigenvalues --  -10.18788 -10.18783 -10.18759 -10.18592 -10.18560
 Alpha  occ. eigenvalues --  -10.18389 -10.18378  -0.92154  -0.91008  -0.86886
 Alpha  occ. eigenvalues --   -0.86533  -0.81002  -0.80696  -0.78829  -0.75436
 Alpha  occ. eigenvalues --   -0.73520  -0.73473  -0.71866  -0.69340  -0.63865
 Alpha  occ. eigenvalues --   -0.62297  -0.60512  -0.60423  -0.60411  -0.57154
 Alpha  occ. eigenvalues --   -0.52552  -0.52467  -0.51671  -0.50956  -0.50803
 Alpha  occ. eigenvalues --   -0.48808  -0.47330  -0.47305  -0.44562  -0.44242
 Alpha  occ. eigenvalues --   -0.43834  -0.42460  -0.42148  -0.42033  -0.41017
 Alpha  occ. eigenvalues --   -0.40257  -0.40156  -0.39069  -0.39013  -0.38128
 Alpha  occ. eigenvalues --   -0.36676  -0.35676  -0.35014  -0.34152  -0.33963
 Alpha  occ. eigenvalues --   -0.33765  -0.31924  -0.29635  -0.29525  -0.27582
 Alpha  occ. eigenvalues --   -0.27056  -0.22797  -0.22764  -0.19661  -0.19569
 Alpha virt. eigenvalues --   -0.04200  -0.04142  -0.00103   0.00359   0.03098
 Alpha virt. eigenvalues --    0.03163   0.09122   0.09575   0.10231   0.10570
 Alpha virt. eigenvalues --    0.10768   0.11201   0.11903   0.12071   0.14788
 Alpha virt. eigenvalues --    0.15416   0.15830   0.16336   0.17536   0.17771
 Alpha virt. eigenvalues --    0.18709   0.18827   0.19862   0.20041   0.20511
 Alpha virt. eigenvalues --    0.20637   0.23526   0.25542   0.26218   0.27169
 Alpha virt. eigenvalues --    0.27245   0.29348   0.30785   0.31261   0.31552
 Alpha virt. eigenvalues --    0.33339   0.33563   0.34317   0.34537   0.35308
 Alpha virt. eigenvalues --    0.38039   0.38472   0.41895   0.47940   0.48558
 Alpha virt. eigenvalues --    0.49796   0.50192   0.50578   0.51076   0.51172
 Alpha virt. eigenvalues --    0.51942   0.52539   0.52912   0.53844   0.53906
 Alpha virt. eigenvalues --    0.54801   0.55213   0.55751   0.55994   0.56280
 Alpha virt. eigenvalues --    0.57275   0.58358   0.58879   0.59008   0.59470
 Alpha virt. eigenvalues --    0.59681   0.60062   0.60887   0.61081   0.61289
 Alpha virt. eigenvalues --    0.61553   0.61750   0.62008   0.62812   0.63083
 Alpha virt. eigenvalues --    0.63771   0.64141   0.64795   0.65533   0.67163
 Alpha virt. eigenvalues --    0.67551   0.67775   0.68509   0.69542   0.70986
 Alpha virt. eigenvalues --    0.74365   0.75775   0.76401   0.77589   0.78275
 Alpha virt. eigenvalues --    0.79479   0.80858   0.81465   0.81520   0.82306
 Alpha virt. eigenvalues --    0.82616   0.82973   0.83288   0.83783   0.84074
 Alpha virt. eigenvalues --    0.85647   0.85843   0.86218   0.86518   0.87196
 Alpha virt. eigenvalues --    0.87587   0.88609   0.89904   0.90294   0.91798
 Alpha virt. eigenvalues --    0.92895   0.94685   0.95024   0.95106   0.96336
 Alpha virt. eigenvalues --    0.97097   0.97564   0.98003   1.00443   1.01546
 Alpha virt. eigenvalues --    1.02360   1.02945   1.05264   1.05674   1.07049
 Alpha virt. eigenvalues --    1.07795   1.08608   1.09649   1.12185   1.14059
 Alpha virt. eigenvalues --    1.15272   1.16687   1.17792   1.19011   1.19479
 Alpha virt. eigenvalues --    1.21635   1.23713   1.24467   1.24932   1.25418
 Alpha virt. eigenvalues --    1.26031   1.28533   1.29013   1.32300   1.33034
 Alpha virt. eigenvalues --    1.34695   1.34760   1.36705   1.37190   1.38106
 Alpha virt. eigenvalues --    1.38338   1.39223   1.39613   1.40507   1.41173
 Alpha virt. eigenvalues --    1.42199   1.42430   1.43914   1.44068   1.44794
 Alpha virt. eigenvalues --    1.46360   1.46572   1.50764   1.51660   1.54225
 Alpha virt. eigenvalues --    1.62477   1.63036   1.66968   1.67627   1.72997
 Alpha virt. eigenvalues --    1.74552   1.75260   1.76807   1.77281   1.79662
 Alpha virt. eigenvalues --    1.80528   1.81327   1.81955   1.82672   1.83416
 Alpha virt. eigenvalues --    1.85106   1.85420   1.86136   1.86270   1.87253
 Alpha virt. eigenvalues --    1.89060   1.89398   1.89851   1.90856   1.91131
 Alpha virt. eigenvalues --    1.91339   1.92826   1.93834   1.94248   1.94934
 Alpha virt. eigenvalues --    1.96423   1.97003   1.98217   1.99298   1.99793
 Alpha virt. eigenvalues --    2.00539   2.01233   2.01585   2.01856   2.05261
 Alpha virt. eigenvalues --    2.05935   2.06053   2.07628   2.09809   2.10267
 Alpha virt. eigenvalues --    2.15943   2.17010   2.17980   2.18758   2.19991
 Alpha virt. eigenvalues --    2.20661   2.21131   2.24746   2.25451   2.25582
 Alpha virt. eigenvalues --    2.27239   2.28576   2.28966   2.29349   2.30983
 Alpha virt. eigenvalues --    2.31931   2.32314   2.34434   2.34859   2.35253
 Alpha virt. eigenvalues --    2.35884   2.37463   2.38455   2.38644   2.39259
 Alpha virt. eigenvalues --    2.39431   2.40850   2.41700   2.43670   2.43990
 Alpha virt. eigenvalues --    2.44950   2.45301   2.46237   2.46847   2.47463
 Alpha virt. eigenvalues --    2.47957   2.49212   2.50366   2.51872   2.52348
 Alpha virt. eigenvalues --    2.53726   2.56341   2.56741   2.57237   2.57600
 Alpha virt. eigenvalues --    2.58130   2.58360   2.60197   2.60381   2.61623
 Alpha virt. eigenvalues --    2.62164   2.62748   2.64216   2.65286   2.66273
 Alpha virt. eigenvalues --    2.66594   2.69974   2.70474   2.71142   2.72504
 Alpha virt. eigenvalues --    2.73524   2.75023   2.75722   2.77612   2.78331
 Alpha virt. eigenvalues --    2.81587   2.82075   2.83363   2.83652   2.89105
 Alpha virt. eigenvalues --    2.93458   2.97045   2.99917   3.02517   3.03532
 Alpha virt. eigenvalues --    3.04229   3.08526   3.09009   3.11192   3.17964
 Alpha virt. eigenvalues --    3.19102   3.20375   3.20760   3.24215   3.24416
 Alpha virt. eigenvalues --    3.24852   3.25867   3.27937   3.28526   3.32180
 Alpha virt. eigenvalues --    3.34718   3.34773   3.35748   3.40139   3.40224
 Alpha virt. eigenvalues --    3.47693   3.48181   3.49251   3.49857   3.72045
 Alpha virt. eigenvalues --    3.74280   3.86455   3.87090   4.08379   4.10576
 Alpha virt. eigenvalues --    4.12768   4.13327   4.14130   4.14508   4.16367
 Alpha virt. eigenvalues --    4.16667   4.16795   4.18491   4.25493   4.25626
 Alpha virt. eigenvalues --    4.37917   4.38360   4.42155   4.42276   4.52346
 Alpha virt. eigenvalues --    4.54762   4.63994   4.66754   4.91784   4.96070
          Condensed to atoms (all electrons):
               1          2          3          4          5          6
     1  N    6.854596   0.299758  -0.072613   0.004757   0.000391   0.000001
     2  C    0.299758   4.748972   0.444112  -0.006590  -0.053863  -0.000560
     3  C   -0.072613   0.444112   5.021405   0.482428  -0.002235   0.008784
     4  C    0.004757  -0.006590   0.482428   5.079130   0.431559  -0.093697
     5  C    0.000391  -0.053863  -0.002235   0.431559   4.811381   0.449469
     6  C    0.000001  -0.000560   0.008784  -0.093697   0.449469   5.070643
     7  C   -0.000000   0.000057  -0.000445   0.008751  -0.011074   0.500017
     8  C    0.000001  -0.000260   0.000073  -0.000700  -0.039547  -0.025863
     9  C   -0.000056   0.011903  -0.001628   0.017588  -0.046815  -0.076065
    10  C    0.003844   0.010268  -0.051656  -0.025583   0.450627  -0.025249
    11  C   -0.069773   0.457592  -0.021681  -0.075552  -0.019502   0.015637
    12  C   -0.014110  -0.077740   0.007819  -0.000441   0.008958  -0.000134
    13  C   -0.001930  -0.003484   0.000176   0.000033   0.000062  -0.000006
    14  C    0.000134   0.000266  -0.000130  -0.000034  -0.000156   0.000001
    15  C    0.000007   0.000062  -0.000003  -0.000000  -0.000003   0.000000
    16  C    0.000000  -0.000002   0.000000   0.000000   0.000000  -0.000000
    17  C    0.000002  -0.000005  -0.000000  -0.000000  -0.000000   0.000000
    18  C   -0.000086   0.000010   0.000004   0.000000   0.000005  -0.000000
    19  C    0.000004   0.000024   0.000000   0.000000   0.000000  -0.000000
    20  C   -0.000046   0.000082   0.000004  -0.000000   0.000005  -0.000000
    21  C    0.000955  -0.003861   0.000031   0.000056  -0.000142  -0.000005
    22  N   -0.000484  -0.002197  -0.000119   0.000011  -0.000154   0.000002
    23  H    0.332237  -0.022573   0.006643  -0.000221   0.000016   0.000000
    24  H    0.342768  -0.024939  -0.010677   0.000004  -0.000029  -0.000000
    25  H   -0.006717  -0.037140   0.359933  -0.027822   0.002280  -0.000236
    26  H   -0.000127   0.003460  -0.037725   0.367440  -0.038412  -0.007987
    27  H   -0.000000   0.000008   0.000327  -0.008388  -0.040411   0.370114
    28  H    0.000000  -0.000000   0.000004  -0.000214   0.002744  -0.033827
    29  H   -0.000000   0.000002  -0.000000   0.000009   0.000999   0.004401
    30  H   -0.000002  -0.000015   0.000018  -0.000212   0.005684   0.000587
    31  H   -0.000258   0.002067   0.000139   0.000006  -0.000018  -0.000006
    32  H   -0.000000  -0.000000  -0.000000  -0.000000  -0.000000   0.000000
    33  H   -0.000000   0.000000   0.000000  -0.000000   0.000000   0.000000
    34  H   -0.000000   0.000000   0.000000  -0.000000   0.000000  -0.000000
    35  H   -0.000000   0.000000   0.000000  -0.000000   0.000000   0.000000
    36  H    0.000003  -0.000001  -0.000000   0.000000  -0.000000   0.000000
    37  H    0.001083   0.003767  -0.000095  -0.000097   0.000010  -0.000002
    38  H   -0.000030   0.000054  -0.000004  -0.000001   0.000002  -0.000000
               7          8          9         10         11         12
     1  N   -0.000000   0.000001  -0.000056   0.003844  -0.069773  -0.014110
     2  C    0.000057  -0.000260   0.011903   0.010268   0.457592  -0.077740
     3  C   -0.000445   0.000073  -0.001628  -0.051656  -0.021681   0.007819
     4  C    0.008751  -0.000700   0.017588  -0.025583  -0.075552  -0.000441
     5  C   -0.011074  -0.039547  -0.046815   0.450627  -0.019502   0.008958
     6  C    0.500017  -0.025863  -0.076065  -0.025249   0.015637  -0.000134
     7  C    4.888880   0.502504  -0.024660  -0.039358  -0.000840  -0.000011
     8  C    0.502504   4.866813   0.505338  -0.008129   0.008450   0.000437
     9  C   -0.024660   0.505338   5.130137   0.446084  -0.104240  -0.018283
    10  C   -0.039358  -0.008129   0.446084   4.784377   0.401923  -0.049456
    11  C   -0.000840   0.008450  -0.104240   0.401923   5.366667   0.295591
    12  C   -0.000011   0.000437  -0.018283  -0.049456   0.295591   5.358392
    13  C   -0.000001   0.000044  -0.000646  -0.004978  -0.056066   0.407142
    14  C    0.000001  -0.000004   0.001078  -0.000016  -0.018901  -0.104509
    15  C    0.000000  -0.000001  -0.000014   0.000043   0.000432   0.008332
    16  C   -0.000000   0.000000   0.000002  -0.000001  -0.000002  -0.000796
    17  C   -0.000000   0.000000   0.000001  -0.000008  -0.000130   0.015490
    18  C    0.000000  -0.000002  -0.000231  -0.000052   0.008811  -0.020645
    19  C    0.000000  -0.000001  -0.000035   0.000066  -0.000469  -0.074926
    20  C    0.000000  -0.000005  -0.000259   0.000137   0.007456  -0.020138
    21  C    0.000000   0.000025   0.000184  -0.002377  -0.076092   0.456509
    22  N   -0.000000   0.000012   0.000821  -0.000529  -0.010546  -0.069367
    23  H    0.000000  -0.000000  -0.000003  -0.000211  -0.015678   0.015544
    24  H    0.000000  -0.000000   0.000002  -0.000016   0.005938   0.000060
    25  H    0.000004  -0.000000   0.000018   0.001365   0.003632  -0.000195
    26  H    0.000252   0.000018  -0.000220   0.003926   0.000962   0.000010
    27  H   -0.042899   0.004725   0.000539   0.003947  -0.000182   0.000002
    28  H    0.367741  -0.040030   0.004297   0.001134   0.000014   0.000000
    29  H   -0.040541   0.370262  -0.034343   0.002775  -0.000182  -0.000001
    30  H    0.004760  -0.045785   0.360639  -0.030144  -0.015411   0.012251
    31  H    0.000001  -0.000016   0.000141   0.001330   0.013125  -0.015191
    32  H    0.000000  -0.000000  -0.000001  -0.000001  -0.000003  -0.000180
    33  H   -0.000000  -0.000000  -0.000000   0.000000   0.000000   0.000014
    34  H    0.000000  -0.000000  -0.000000   0.000000   0.000002  -0.000185
    35  H   -0.000000   0.000000   0.000000  -0.000000   0.000011   0.000978
    36  H   -0.000000   0.000000   0.000002  -0.000002  -0.000186   0.003700
    37  H    0.000001  -0.000008  -0.000123   0.000517   0.011883  -0.014935
    38  H   -0.000000  -0.000000  -0.000006   0.000016   0.000040   0.005884
              13         14         15         16         17         18
     1  N   -0.001930   0.000134   0.000007   0.000000   0.000002  -0.000086
     2  C   -0.003484   0.000266   0.000062  -0.000002  -0.000005   0.000010
     3  C    0.000176  -0.000130  -0.000003   0.000000  -0.000000   0.000004
     4  C    0.000033  -0.000034  -0.000000   0.000000  -0.000000   0.000000
     5  C    0.000062  -0.000156  -0.000003   0.000000  -0.000000   0.000005
     6  C   -0.000006   0.000001   0.000000  -0.000000   0.000000  -0.000000
     7  C   -0.000001   0.000001   0.000000  -0.000000  -0.000000   0.000000
     8  C    0.000044  -0.000004  -0.000001   0.000000   0.000000  -0.000002
     9  C   -0.000646   0.001078  -0.000014   0.000002   0.000001  -0.000231
    10  C   -0.004978  -0.000016   0.000043  -0.000001  -0.000008  -0.000052
    11  C   -0.056066  -0.018901   0.000432  -0.000002  -0.000130   0.008811
    12  C    0.407142  -0.104509   0.008332  -0.000796   0.015490  -0.020645
    13  C    4.792518   0.446747  -0.009034  -0.039014  -0.025567   0.449556
    14  C    0.446747   5.129117   0.506328  -0.025199  -0.075904  -0.045681
    15  C   -0.009034   0.506328   4.865787   0.502973  -0.026080  -0.039228
    16  C   -0.039014  -0.025199   0.502973   4.888464   0.500397  -0.011361
    17  C   -0.025567  -0.075904  -0.026080   0.500397   5.069762   0.449503
    18  C    0.449556  -0.045681  -0.039228  -0.011361   0.449503   4.808318
    19  C   -0.026247   0.017349  -0.000668   0.008702  -0.093127   0.433068
    20  C   -0.051501  -0.001532   0.000070  -0.000443   0.008754  -0.002986
    21  C    0.009679   0.011578  -0.000250   0.000054  -0.000550  -0.052263
    22  N    0.003992  -0.000057   0.000001  -0.000000   0.000001   0.000383
    23  H    0.003734   0.000499  -0.000012  -0.000001  -0.000008  -0.000152
    24  H    0.000043  -0.000026  -0.000001   0.000000   0.000000  -0.000002
    25  H   -0.000000   0.000001   0.000000  -0.000000   0.000000  -0.000000
    26  H    0.000000  -0.000000  -0.000000  -0.000000  -0.000000   0.000000
    27  H    0.000000  -0.000000  -0.000000   0.000000  -0.000000   0.000000
    28  H    0.000000  -0.000000  -0.000000  -0.000000   0.000000   0.000000
    29  H   -0.000000  -0.000001  -0.000000   0.000000   0.000000  -0.000000
    30  H    0.001233   0.000153  -0.000016  -0.000001  -0.000006   0.000116
    31  H   -0.031277   0.359829  -0.045166   0.004745   0.000585   0.005678
    32  H    0.002754  -0.034321   0.370295  -0.040480   0.004403   0.000996
    33  H    0.001134   0.004311  -0.040028   0.367689  -0.033818   0.002750
    34  H    0.003953   0.000548   0.004717  -0.042855   0.370055  -0.040400
    35  H    0.003918  -0.000221   0.000018   0.000252  -0.007973  -0.038430
    36  H    0.001347   0.000019  -0.000000   0.000004  -0.000236   0.002306
    37  H   -0.000135  -0.000002  -0.000000   0.000000   0.000000   0.000013
    38  H   -0.000011   0.000002  -0.000000   0.000000  -0.000000  -0.000029
              19         20         21         22         23         24
     1  N    0.000004  -0.000046   0.000955  -0.000484   0.332237   0.342768
     2  C    0.000024   0.000082  -0.003861  -0.002197  -0.022573  -0.024939
     3  C    0.000000   0.000004   0.000031  -0.000119   0.006643  -0.010677
     4  C    0.000000  -0.000000   0.000056   0.000011  -0.000221   0.000004
     5  C    0.000000   0.000005  -0.000142  -0.000154   0.000016  -0.000029
     6  C   -0.000000  -0.000000  -0.000005   0.000002   0.000000  -0.000000
     7  C    0.000000   0.000000   0.000000  -0.000000   0.000000   0.000000
     8  C   -0.000001  -0.000005   0.000025   0.000012  -0.000000  -0.000000
     9  C   -0.000035  -0.000259   0.000184   0.000821  -0.000003   0.000002
    10  C    0.000066   0.000137  -0.002377  -0.000529  -0.000211  -0.000016
    11  C   -0.000469   0.007456  -0.076092  -0.010546  -0.015678   0.005938
    12  C   -0.074926  -0.020138   0.456509  -0.069367   0.015544   0.000060
    13  C   -0.026247  -0.051501   0.009679   0.003992   0.003734   0.000043
    14  C    0.017349  -0.001532   0.011578  -0.000057   0.000499  -0.000026
    15  C   -0.000668   0.000070  -0.000250   0.000001  -0.000012  -0.000001
    16  C    0.008702  -0.000443   0.000054  -0.000000  -0.000001   0.000000
    17  C   -0.093127   0.008754  -0.000550   0.000001  -0.000008   0.000000
    18  C    0.433068  -0.002986  -0.052263   0.000383  -0.000152  -0.000002
    19  C    5.077696   0.482258  -0.006684   0.004766  -0.000045  -0.000001
    20  C    0.482258   5.015346   0.449823  -0.073520  -0.000111   0.000001
    21  C   -0.006684   0.449823   4.735575   0.306497   0.001419   0.000036
    22  N    0.004766  -0.073520   0.306497   6.844407  -0.000246   0.000001
    23  H   -0.000045  -0.000111   0.001419  -0.000246   0.431635  -0.027101
    24  H   -0.000001   0.000001   0.000036   0.000001  -0.027101   0.430289
    25  H   -0.000000  -0.000000  -0.000003   0.000001  -0.000040   0.004268
    26  H   -0.000000   0.000000  -0.000000   0.000000   0.000003  -0.000006
    27  H   -0.000000   0.000000   0.000000  -0.000000   0.000000  -0.000000
    28  H   -0.000000   0.000000   0.000000  -0.000000  -0.000000  -0.000000
    29  H   -0.000000  -0.000000   0.000000  -0.000000  -0.000000   0.000000
    30  H    0.000001   0.000300   0.000981  -0.000274  -0.000001   0.000000
    31  H   -0.000215   0.000020   0.000014  -0.000003  -0.000007  -0.000010
    32  H    0.000009  -0.000000   0.000002  -0.000000  -0.000000  -0.000000
    33  H   -0.000215   0.000004  -0.000001   0.000000  -0.000000  -0.000000
    34  H   -0.008371   0.000326   0.000009   0.000000   0.000000  -0.000000
    35  H    0.367432  -0.037669   0.003428  -0.000127   0.000000  -0.000000
    36  H   -0.027967   0.360404  -0.037764  -0.006725  -0.000005  -0.000000
    37  H   -0.000222   0.006390  -0.022946   0.334873  -0.000090   0.000016
    38  H    0.000010  -0.010722  -0.025451   0.343256  -0.000018   0.000000
              25         26         27         28         29         30
     1  N   -0.006717  -0.000127  -0.000000   0.000000  -0.000000  -0.000002
     2  C   -0.037140   0.003460   0.000008  -0.000000   0.000002  -0.000015
     3  C    0.359933  -0.037725   0.000327   0.000004  -0.000000   0.000018
     4  C   -0.027822   0.367440  -0.008388  -0.000214   0.000009  -0.000212
     5  C    0.002280  -0.038412  -0.040411   0.002744   0.000999   0.005684
     6  C   -0.000236  -0.007987   0.370114  -0.033827   0.004401   0.000587
     7  C    0.000004   0.000252  -0.042899   0.367741  -0.040541   0.004760
     8  C   -0.000000   0.000018   0.004725  -0.040030   0.370262  -0.045785
     9  C    0.000018  -0.000220   0.000539   0.004297  -0.034343   0.360639
    10  C    0.001365   0.003926   0.003947   0.001134   0.002775  -0.030144
    11  C    0.003632   0.000962  -0.000182   0.000014  -0.000182  -0.015411
    12  C   -0.000195   0.000010   0.000002   0.000000  -0.000001   0.012251
    13  C   -0.000000   0.000000   0.000000   0.000000  -0.000000   0.001233
    14  C    0.000001  -0.000000  -0.000000  -0.000000  -0.000001   0.000153
    15  C    0.000000  -0.000000  -0.000000  -0.000000  -0.000000  -0.000016
    16  C   -0.000000  -0.000000   0.000000  -0.000000   0.000000  -0.000001
    17  C    0.000000  -0.000000  -0.000000   0.000000   0.000000  -0.000006
    18  C   -0.000000   0.000000   0.000000   0.000000  -0.000000   0.000116
    19  C   -0.000000  -0.000000  -0.000000  -0.000000  -0.000000   0.000001
    20  C   -0.000000   0.000000   0.000000   0.000000  -0.000000   0.000300
    21  C   -0.000003  -0.000000   0.000000   0.000000   0.000000   0.000981
    22  N    0.000001   0.000000  -0.000000  -0.000000  -0.000000  -0.000274
    23  H   -0.000040   0.000003   0.000000  -0.000000  -0.000000  -0.000001
    24  H    0.004268  -0.000006  -0.000000  -0.000000   0.000000   0.000000
    25  H    0.603316  -0.005312  -0.000012  -0.000000  -0.000000   0.000000
    26  H   -0.005312   0.604344   0.005593  -0.000013   0.000000   0.000002
    27  H   -0.000012   0.005593   0.613556  -0.005551  -0.000202   0.000018
    28  H   -0.000000  -0.000013  -0.005551   0.614349  -0.005458  -0.000204
    29  H   -0.000000   0.000000  -0.000202  -0.005458   0.609513  -0.005803
    30  H    0.000000   0.000002   0.000018  -0.000204  -0.005803   0.616179
    31  H   -0.000001   0.000000   0.000000   0.000000  -0.000000   0.000007
    32  H    0.000000  -0.000000  -0.000000   0.000000   0.000000  -0.000000
    33  H    0.000000   0.000000  -0.000000   0.000000   0.000000   0.000000
    34  H   -0.000000   0.000000   0.000000  -0.000000  -0.000000   0.000000
    35  H   -0.000000  -0.000000   0.000000  -0.000000   0.000000  -0.000000
    36  H    0.000000  -0.000000  -0.000000   0.000000  -0.000000  -0.000001
    37  H    0.000010   0.000000   0.000000   0.000000   0.000000   0.000027
    38  H    0.000000   0.000000   0.000000   0.000000   0.000000   0.000006
              31         32         33         34         35         36
     1  N   -0.000258  -0.000000  -0.000000  -0.000000  -0.000000   0.000003
     2  C    0.002067  -0.000000   0.000000   0.000000   0.000000  -0.000001
     3  C    0.000139  -0.000000   0.000000   0.000000   0.000000  -0.000000
     4  C    0.000006  -0.000000  -0.000000  -0.000000  -0.000000   0.000000
     5  C   -0.000018  -0.000000   0.000000   0.000000   0.000000  -0.000000
     6  C   -0.000006   0.000000   0.000000  -0.000000   0.000000   0.000000
     7  C    0.000001   0.000000  -0.000000   0.000000  -0.000000  -0.000000
     8  C   -0.000016  -0.000000  -0.000000  -0.000000   0.000000   0.000000
     9  C    0.000141  -0.000001  -0.000000  -0.000000   0.000000   0.000002
    10  C    0.001330  -0.000001   0.000000   0.000000  -0.000000  -0.000002
    11  C    0.013125  -0.000003   0.000000   0.000002   0.000011  -0.000186
    12  C   -0.015191  -0.000180   0.000014  -0.000185   0.000978   0.003700
    13  C   -0.031277   0.002754   0.001134   0.003953   0.003918   0.001347
    14  C    0.359829  -0.034321   0.004311   0.000548  -0.000221   0.000019
    15  C   -0.045166   0.370295  -0.040028   0.004717   0.000018  -0.000000
    16  C    0.004745  -0.040480   0.367689  -0.042855   0.000252   0.000004
    17  C    0.000585   0.004403  -0.033818   0.370055  -0.007973  -0.000236
    18  C    0.005678   0.000996   0.002750  -0.040400  -0.038430   0.002306
    19  C   -0.000215   0.000009  -0.000215  -0.008371   0.367432  -0.027967
    20  C    0.000020  -0.000000   0.000004   0.000326  -0.037669   0.360404
    21  C    0.000014   0.000002  -0.000001   0.000009   0.003428  -0.037764
    22  N   -0.000003  -0.000000   0.000000   0.000000  -0.000127  -0.006725
    23  H   -0.000007  -0.000000  -0.000000   0.000000   0.000000  -0.000005
    24  H   -0.000010  -0.000000  -0.000000  -0.000000  -0.000000  -0.000000
    25  H   -0.000001   0.000000   0.000000  -0.000000  -0.000000   0.000000
    26  H    0.000000  -0.000000   0.000000   0.000000  -0.000000  -0.000000
    27  H    0.000000  -0.000000  -0.000000   0.000000   0.000000  -0.000000
    28  H    0.000000   0.000000   0.000000  -0.000000  -0.000000   0.000000
    29  H   -0.000000   0.000000   0.000000  -0.000000   0.000000  -0.000000
    30  H    0.000007  -0.000000   0.000000   0.000000  -0.000000  -0.000001
    31  H    0.616163  -0.005785  -0.000204   0.000018   0.000002   0.000000
    32  H   -0.005785   0.609213  -0.005462  -0.000202   0.000000  -0.000000
    33  H   -0.000204  -0.005462   0.614292  -0.005551  -0.000013  -0.000000
    34  H    0.000018  -0.000202  -0.005551   0.613435   0.005582  -0.000012
    35  H    0.000002   0.000000  -0.000013   0.005582   0.604324  -0.005323
    36  H    0.000000  -0.000000  -0.000000  -0.000012  -0.005323   0.603658
    37  H   -0.000000  -0.000000  -0.000000   0.000000   0.000003  -0.000020
    38  H    0.000000   0.000000  -0.000000  -0.000000  -0.000006   0.004225
              37         38
     1  N    0.001083  -0.000030
     2  C    0.003767   0.000054
     3  C   -0.000095  -0.000004
     4  C   -0.000097  -0.000001
     5  C    0.000010   0.000002
     6  C   -0.000002  -0.000000
     7  C    0.000001  -0.000000
     8  C   -0.000008  -0.000000
     9  C   -0.000123  -0.000006
    10  C    0.000517   0.000016
    11  C    0.011883   0.000040
    12  C   -0.014935   0.005884
    13  C   -0.000135  -0.000011
    14  C   -0.000002   0.000002
    15  C   -0.000000  -0.000000
    16  C    0.000000   0.000000
    17  C    0.000000  -0.000000
    18  C    0.000013  -0.000029
    19  C   -0.000222   0.000010
    20  C    0.006390  -0.010722
    21  C   -0.022946  -0.025451
    22  N    0.334873   0.343256
    23  H   -0.000090  -0.000018
    24  H    0.000016   0.000000
    25  H    0.000010   0.000000
    26  H    0.000000   0.000000
    27  H    0.000000   0.000000
    28  H    0.000000   0.000000
    29  H    0.000000   0.000000
    30  H    0.000027   0.000006
    31  H   -0.000000   0.000000
    32  H   -0.000000   0.000000
    33  H   -0.000000  -0.000000
    34  H    0.000000  -0.000000
    35  H    0.000003  -0.000006
    36  H   -0.000020   0.004225
    37  H    0.430508  -0.027549
    38  H   -0.027549   0.432090
 Mulliken charges:
               1
     1  N   -0.674309
     2  C    0.250766
     3  C   -0.132889
     4  C   -0.152218
     5  C    0.088169
     6  C   -0.156020
     7  C   -0.113141
     8  C   -0.098350
     9  C   -0.171147
    10  C    0.125386
    11  C   -0.112732
    12  C   -0.115873
    13  C    0.121829
    14  C   -0.171270
    15  C   -0.098557
    16  C   -0.113126
    17  C   -0.155540
    18  C    0.090030
    19  C   -0.152191
    20  C   -0.132448
    21  C    0.251534
    22  N   -0.674674
    23  H    0.274794
    24  H    0.279382
    25  H    0.102649
    26  H    0.103792
    27  H    0.098817
    28  H    0.095016
    29  H    0.098572
    30  H    0.094915
    31  H    0.094288
    32  H    0.098765
    33  H    0.095097
    34  H    0.098934
    35  H    0.103815
    36  H    0.102575
    37  H    0.277122
    38  H    0.278239
 Sum of Mulliken charges =  -0.00000
 Mulliken charges with hydrogens summed into heavy atoms:
               1
     1  N   -0.120133
     2  C    0.250766
     3  C   -0.030240
     4  C   -0.048426
     5  C    0.088169
     6  C   -0.057203
     7  C   -0.018126
     8  C    0.000221
     9  C   -0.076232
    10  C    0.125386
    11  C   -0.112732
    12  C   -0.115873
    13  C    0.121829
    14  C   -0.076982
    15  C    0.000208
    16  C   -0.018030
    17  C   -0.056606
    18  C    0.090030
    19  C   -0.048376
    20  C   -0.029872
    21  C    0.251534
    22  N   -0.119314
 APT charges:
               1
     1  N   -1.065159
     2  C   -0.065673
     3  C   -0.574320
     4  C   -0.433213
     5  C   -0.443869
     6  C   -0.497457
     7  C   -0.477783
     8  C   -0.378702
     9  C   -0.571894
    10  C   -0.504903
    11  C   -0.407598
    12  C   -0.406347
    13  C   -0.511395
    14  C   -0.578539
    15  C   -0.379214
    16  C   -0.475383
    17  C   -0.496269
    18  C   -0.431414
    19  C   -0.443116
    20  C   -0.554214
    21  C   -0.069988
    22  N   -1.170061
    23  H    0.269668
    24  H    0.894795
    25  H    0.751768
    26  H    0.854136
    27  H    0.861572
    28  H    0.957915
    29  H    0.634569
    30  H    0.202507
    31  H    0.204028
    32  H    0.637976
    33  H    0.959482
    34  H    0.859628
    35  H    0.848606
    36  H    0.740373
    37  H    0.312382
    38  H    0.947104
 Sum of APT charges =  -0.00000
 APT charges with hydrogens summed into heavy atoms:
               1
     1  N    0.099305
     2  C   -0.065673
     3  C    0.177448
     4  C    0.420923
     5  C   -0.443869
     6  C    0.364115
     7  C    0.480131
     8  C    0.255867
     9  C   -0.369387
    10  C   -0.504903
    11  C   -0.407598
    12  C   -0.406347
    13  C   -0.511395
    14  C   -0.374511
    15  C    0.258762
    16  C    0.484099
    17  C    0.363359
    18  C   -0.431414
    19  C    0.405491
    20  C    0.186158
    21  C   -0.069988
    22  N    0.089425
 Electronic spatial extent (au):  <R**2>=           5916.5435
 Charge=             -0.0000 electrons
 Dipole moment (field-independent basis, Debye):
    X=             -0.6895    Y=              2.7847    Z=             -1.6267  Tot=              3.2979
 Quadrupole moment (field-independent basis, Debye-Ang):
   XX=           -113.8241   YY=           -115.2078   ZZ=           -116.3955
   XY=             -1.2085   XZ=             -6.2138   YZ=             -1.1777
 Traceless Quadrupole moment (field-independent basis, Debye-Ang):
   XX=              1.3184   YY=             -0.0653   ZZ=             -1.2531
   XY=             -1.2085   XZ=             -6.2138   YZ=             -1.1777
 Octapole moment (field-independent basis, Debye-Ang**2):
  XXX=              0.6973  YYY=             37.2543  ZZZ=            -22.5281  XYY=             -2.5301
  XXY=             -9.4103  XXZ=             -0.6113  XZZ=             -6.1568  YZZ=             26.7946
  YYZ=              6.3444  XYZ=            -26.8440
 Hexadecapole moment (field-independent basis, Debye-Ang**3):
 XXXX=          -4459.7686 YYYY=          -1732.8824 ZZZZ=          -1381.2806 XXXY=              7.4045
 XXXZ=           -116.3585 YYYX=            -12.4034 YYYZ=             38.9403 ZZZX=            -44.1999
[...]
   167    C   12  S      Val( 2S)     0.86792
   168    C   12  S      Ryd( 3S)     0.00117
   169    C   12  S      Ryd( 4S)     0.00005
   170    C   12  px     Val( 2p)     1.07049
   171    C   12  px     Ryd( 3p)     0.00508
   172    C   12  py     Val( 2p)     1.01420
   173    C   12  py     Ryd( 3p)     0.00417
   174    C   12  pz     Val( 2p)     1.02376
   175    C   12  pz     Ryd( 3p)     0.00387
   176    C   12  dxy    Ryd( 3d)     0.00071
   177    C   12  dxz    Ryd( 3d)     0.00061
   178    C   12  dyz    Ryd( 3d)     0.00049
   179    C   12  dx2y2  Ryd( 3d)     0.00059
   180    C   12  dz2    Ryd( 3d)     0.00071

   181    C   13  S      Cor( 1S)     1.99897
   182    C   13  S      Val( 2S)     0.86624
   183    C   13  S      Ryd( 3S)     0.00070
   184    C   13  S      Ryd( 4S)     0.00006
   185    C   13  px     Val( 2p)     1.07212
   186    C   13  px     Ryd( 3p)     0.00461
   187    C   13  py     Val( 2p)     1.04390
   188    C   13  py     Ryd( 3p)     0.00280
   189    C   13  pz     Val( 2p)     1.06065
   190    C   13  pz     Ryd( 3p)     0.00339
   191    C   13  dxy    Ryd( 3d)     0.00055
   192    C   13  dxz    Ryd( 3d)     0.00058
   193    C   13  dyz    Ryd( 3d)     0.00044
   194    C   13  dx2y2  Ryd( 3d)     0.00065
   195    C   13  dz2    Ryd( 3d)     0.00063

   196    C   14  S      Cor( 1S)     1.99908
   197    C   14  S      Val( 2S)     0.95572
   198    C   14  S      Ryd( 3S)     0.00074
   199    C   14  S      Ryd( 4S)     0.00005
   200    C   14  px     Val( 2p)     1.18838
   201    C   14  px     Ryd( 3p)     0.00419
   202    C   14  py     Val( 2p)     1.01000
   203    C   14  py     Ryd( 3p)     0.00272
   204    C   14  pz     Val( 2p)     1.02661
   205    C   14  pz     Ryd( 3p)     0.00306
   206    C   14  dxy    Ryd( 3d)     0.00045
   207    C   14  dxz    Ryd( 3d)     0.00059
   208    C   14  dyz    Ryd( 3d)     0.00042
   209    C   14  dx2y2  Ryd( 3d)     0.00066
   210    C   14  dz2    Ryd( 3d)     0.00049

   211    C   15  S      Cor( 1S)     1.99912
   212    C   15  S      Val( 2S)     0.96599
   213    C   15  S      Ryd( 3S)     0.00063
   214    C   15  S      Ryd( 4S)     0.00003
   215    C   15  px     Val( 2p)     1.05834
   216    C   15  px     Ryd( 3p)     0.00446
   217    C   15  py     Val( 2p)     1.09869
   218    C   15  py     Ryd( 3p)     0.00334
   219    C   15  pz     Val( 2p)     1.12533
   220    C   15  pz     Ryd( 3p)     0.00361
   221    C   15  dxy    Ryd( 3d)     0.00052
   222    C   15  dxz    Ryd( 3d)     0.00057
   223    C   15  dyz    Ryd( 3d)     0.00052
   224    C   15  dx2y2  Ryd( 3d)     0.00054
   225    C   15  dz2    Ryd( 3d)     0.00042

   226    C   16  S      Cor( 1S)     1.99911
   227    C   16  S      Val( 2S)     0.97206
   228    C   16  S      Ryd( 3S)     0.00056
   229    C   16  S      Ryd( 4S)     0.00003
   230    C   16  px     Val( 2p)     1.12399
   231    C   16  px     Ryd( 3p)     0.00462
   232    C   16  py     Val( 2p)     1.05648
   233    C   16  py     Ryd( 3p)     0.00286
   234    C   16  pz     Val( 2p)     1.02841
   235    C   16  pz     Ryd( 3p)     0.00289
   236    C   16  dxy    Ryd( 3d)     0.00065
   237    C   16  dxz    Ryd( 3d)     0.00052
   238    C   16  dyz    Ryd( 3d)     0.00045
   239    C   16  dx2y2  Ryd( 3d)     0.00049
   240    C   16  dz2    Ryd( 3d)     0.00063

   241    C   17  S      Cor( 1S)     1.99907
   242    C   17  S      Val( 2S)     0.95579
   243    C   17  S      Ryd( 3S)     0.00069
   244    C   17  S      Ryd( 4S)     0.00004
   245    C   17  px     Val( 2p)     1.16936
   246    C   17  px     Ryd( 3p)     0.00471
   247    C   17  py     Val( 2p)     1.02466
   248    C   17  py     Ryd( 3p)     0.00267
   249    C   17  pz     Val( 2p)     1.05951
   250    C   17  pz     Ryd( 3p)     0.00300
   251    C   17  dxy    Ryd( 3d)     0.00048
   252    C   17  dxz    Ryd( 3d)     0.00056
   253    C   17  dyz    Ryd( 3d)     0.00039
   254    C   17  dx2y2  Ryd( 3d)     0.00057
   255    C   17  dz2    Ryd( 3d)     0.00054

   256    C   18  S      Cor( 1S)     1.99902
   257    C   18  S      Val( 2S)     0.87065
   258    C   18  S      Ryd( 3S)     0.00044
   259    C   18  S      Ryd( 4S)     0.00006
   260    C   18  px     Val( 2p)     1.07612
   261    C   18  px     Ryd( 3p)     0.00482
   262    C   18  py     Val( 2p)     1.04677
   263    C   18  py     Ryd( 3p)     0.00274
   264    C   18  pz     Val( 2p)     1.04709
   265    C   18  pz     Ryd( 3p)     0.00313
   266    C   18  dxy    Ryd( 3d)     0.00054
   267    C   18  dxz    Ryd( 3d)     0.00060
   268    C   18  dyz    Ryd( 3d)     0.00046
   269    C   18  dx2y2  Ryd( 3d)     0.00067
   270    C   18  dz2    Ryd( 3d)     0.00066

   271    C   19  S      Cor( 1S)     1.99907
   272    C   19  S      Val( 2S)     0.95264
   273    C   19  S      Ryd( 3S)     0.00067
   274    C   19  S      Ryd( 4S)     0.00005
   275    C   19  px     Val( 2p)     1.18399
   276    C   19  px     Ryd( 3p)     0.00466
   277    C   19  py     Val( 2p)     1.00641
   278    C   19  py     Ryd( 3p)     0.00275
   279    C   19  pz     Val( 2p)     1.03157
   280    C   19  pz     Ryd( 3p)     0.00306
   281    C   19  dxy    Ryd( 3d)     0.00046
   282    C   19  dxz    Ryd( 3d)     0.00061
   283    C   19  dyz    Ryd( 3d)     0.00043
   284    C   19  dx2y2  Ryd( 3d)     0.00070
   285    C   19  dz2    Ryd( 3d)     0.00051

   286    C   20  S      Cor( 1S)     1.99905
   287    C   20  S      Val( 2S)     0.95494
   288    C   20  S      Ryd( 3S)     0.00072
   289    C   20  S      Ryd( 4S)     0.00003
   290    C   20  px     Val( 2p)     1.05062
   291    C   20  px     Ryd( 3p)     0.00436
   292    C   20  py     Val( 2p)     1.13082
   293    C   20  py     Ryd( 3p)     0.00337
   294    C   20  pz     Val( 2p)     1.14475
   295    C   20  pz     Ryd( 3p)     0.00325
   296    C   20  dxy    Ryd( 3d)     0.00041
   297    C   20  dxz    Ryd( 3d)     0.00055
   298    C   20  dyz    Ryd( 3d)     0.00051
   299    C   20  dx2y2  Ryd( 3d)     0.00058
   300    C   20  dz2    Ryd( 3d)     0.00043

   301    C   21  S      Cor( 1S)     1.99889
   302    C   21  S      Val( 2S)     0.84753
   303    C   21  S      Ryd( 3S)     0.00138
   304    C   21  S      Ryd( 4S)     0.00011
   305    C   21  px     Val( 2p)     0.98530
   306    C   21  px     Ryd( 3p)     0.00483
   307    C   21  py     Val( 2p)     0.94701
   308    C   21  py     Ryd( 3p)     0.00287
   309    C   21  pz     Val( 2p)     0.97807
   310    C   21  pz     Ryd( 3p)     0.00337
   311    C   21  dxy    Ryd( 3d)     0.00107
   312    C   21  dxz    Ryd( 3d)     0.00119
   313    C   21  dyz    Ryd( 3d)     0.00058
   314    C   21  dx2y2  Ryd( 3d)     0.00104
   315    C   21  dz2    Ryd( 3d)     0.00096

   316    N   22  S      Cor( 1S)     1.99947
   317    N   22  S      Val( 2S)     1.36167
   318    N   22  S      Ryd( 3S)     0.00014
   319    N   22  S      Ryd( 4S)     0.00001
   320    N   22  px     Val( 2p)     1.40298
   321    N   22  px     Ryd( 3p)     0.00213
   322    N   22  py     Val( 2p)     1.42862
   323    N   22  py     Ryd( 3p)     0.00200
   324    N   22  pz     Val( 2p)     1.52777
   325    N   22  pz     Ryd( 3p)     0.00245
   326    N   22  dxy    Ryd( 3d)     0.00060
   327    N   22  dxz    Ryd( 3d)     0.00101
   328    N   22  dyz    Ryd( 3d)     0.00052
   329    N   22  dx2y2  Ryd( 3d)     0.00042
   330    N   22  dz2    Ryd( 3d)     0.00051

   331    H   23  S      Val( 1S)     0.58408
   332    H   23  S      Ryd( 2S)     0.00135
   333    H   23  px     Ryd( 2p)     0.00056
   334    H   23  py     Ryd( 2p)     0.00041
   335    H   23  pz     Ryd( 2p)     0.00029

   336    H   24  S      Val( 1S)     0.57765
   337    H   24  S      Ryd( 2S)     0.00112
   338    H   24  px     Ryd( 2p)     0.00020
   339    H   24  py     Ryd( 2p)     0.00041
   340    H   24  pz     Ryd( 2p)     0.00063

   341    H   25  S      Val( 1S)     0.76501
   342    H   25  S      Ryd( 2S)     0.00087
   343    H   25  px     Ryd( 2p)     0.00008
   344    H   25  py     Ryd( 2p)     0.00024
   345    H   25  pz     Ryd( 2p)     0.00030

   346    H   26  S      Val( 1S)     0.76759
   347    H   26  S      Ryd( 2S)     0.00094
   348    H   26  px     Ryd( 2p)     0.00035
   349    H   26  py     Ryd( 2p)     0.00011
   350    H   26  pz     Ryd( 2p)     0.00016

   351    H   27  S      Val( 1S)     0.76960
   352    H   27  S      Ryd( 2S)     0.00101
   353    H   27  px     Ryd( 2p)     0.00035
   354    H   27  py     Ryd( 2p)     0.00011
   355    H   27  pz     Ryd( 2p)     0.00015

   356    H   28  S      Val( 1S)     0.76504
   357    H   28  S      Ryd( 2S)     0.00078
   358    H   28  px     Ryd( 2p)     0.00025
   359    H   28  py     Ryd( 2p)     0.00023
   360    H   28  pz     Ryd( 2p)     0.00014

   361    H   29  S      Val( 1S)     0.76769
   362    H   29  S      Ryd( 2S)     0.00075
   363    H   29  px     Ryd( 2p)     0.00008
   364    H   29  py     Ryd( 2p)     0.00024
   365    H   29  pz     Ryd( 2p)     0.00031

   366    H   30  S      Val( 1S)     0.76831
   367    H   30  S      Ryd( 2S)     0.00097
   368    H   30  px     Ryd( 2p)     0.00035
   369    H   30  py     Ryd( 2p)     0.00013
   370    H   30  pz     Ryd( 2p)     0.00016

   371    H   31  S      Val( 1S)     0.74059
   372    H   31  S      Ryd( 2S)     0.00090
   373    H   31  px     Ryd( 2p)     0.00037
   374    H   31  py     Ryd( 2p)     0.00010
   375    H   31  pz     Ryd( 2p)     0.00014

   376    H   32  S      Val( 1S)     0.74553
   377    H   32  S      Ryd( 2S)     0.00069
   378    H   32  px     Ryd( 2p)     0.00007
   379    H   32  py     Ryd( 2p)     0.00023
   380    H   32  pz     Ryd( 2p)     0.00029

   381    H   33  S      Val( 1S)     0.74343
   382    H   33  S      Ryd( 2S)     0.00065
   383    H   33  px     Ryd( 2p)     0.00025
   384    H   33  py     Ryd( 2p)     0.00022
   385    H   33  pz     Ryd( 2p)     0.00012

   386    H   34  S      Val( 1S)     0.74671
   387    H   34  S      Ryd( 2S)     0.00095
   388    H   34  px     Ryd( 2p)     0.00037
   389    H   34  py     Ryd( 2p)     0.00008
   390    H   34  pz     Ryd( 2p)     0.00014

   391    H   35  S      Val( 1S)     0.74257
   392    H   35  S      Ryd( 2S)     0.00090
   393    H   35  px     Ryd( 2p)     0.00037
   394    H   35  py     Ryd( 2p)     0.00008
   395    H   35  pz     Ryd( 2p)     0.00014

   396    H   36  S      Val( 1S)     0.74205
   397    H   36  S      Ryd( 2S)     0.00082
   398    H   36  px     Ryd( 2p)     0.00008
   399    H   36  py     Ryd( 2p)     0.00022
   400    H   36  pz     Ryd( 2p)     0.00030

   401    H   37  S      Val( 1S)     0.55886
   402    H   37  S      Ryd( 2S)     0.00132
   403    H   37  px     Ryd( 2p)     0.00049
   404    H   37  py     Ryd( 2p)     0.00026
   405    H   37  pz     Ryd( 2p)     0.00047

   406    H   38  S      Val( 1S)     0.56035
   407    H   38  S      Ryd( 2S)     0.00077
   408    H   38  px     Ryd( 2p)     0.00025
   409    H   38  py     Ryd( 2p)     0.00056
   410    H   38  pz     Ryd( 2p)     0.00040

 WARNING:  1 low occupancy (<1.9990e) core orbital  found on  C    2
           1 low occupancy (<1.9990e) core orbital  found on  C   10
           1 low occupancy (<1.9990e) core orbital  found on  C   11
           1 low occupancy (<1.9990e) core orbital  found on  C   12
           1 low occupancy (<1.9990e) core orbital  found on  C   13
           1 low occupancy (<1.9990e) core orbital  found on  C   21


 Summary of Natural Population Analysis:                  
                                                          
                                       Natural Population 
                Natural  -----------------------------------------------
    Atom  No    Charge         Core      Valence    Rydberg      Total
 -----------------------------------------------------------------------
      N    1   -0.83277      1.99949     5.82183    0.01144     7.83277
      C    2    0.19164      1.99891     3.79151    0.01794     5.80836
      C    3   -0.33547      1.99904     4.32186    0.01457     6.33547
      C    4   -0.27323      1.99907     4.25956    0.01460     6.27323
      C    5   -0.07078      1.99902     4.05726    0.01451     6.07078
      C    6   -0.28884      1.99907     4.27571    0.01406     6.28884
      C    7   -0.25134      1.99911     4.23822    0.01401     6.25134
      C    8   -0.29916      1.99912     4.28486    0.01518     6.29916
      C    9   -0.28684      1.99908     4.27393    0.01383     6.28684
      C   10   -0.03477      1.99898     4.02137    0.01442     6.03477
      C   11   -0.18602      1.99894     4.16955    0.01753     6.18602
      C   12    0.00723      1.99897     3.97637    0.01744     5.99277
      C   13   -0.05629      1.99897     4.04291    0.01441     6.05629
      C   14   -0.19316      1.99908     4.18071    0.01337     6.19316
      C   15   -0.26209      1.99912     4.24835    0.01462     6.26209
      C   16   -0.19376      1.99911     4.18095    0.01371     6.19376
      C   17   -0.22204      1.99907     4.20932    0.01365     6.22204
      C   18   -0.05377      1.99902     4.04062    0.01413     6.05377
      C   19   -0.18757      1.99907     4.17460    0.01390     6.18757
      C   20   -0.29441      1.99905     4.28113    0.01422     6.29441
      C   21    0.22582      1.99889     3.75791    0.01739     5.77418
      N   22   -0.73029      1.99947     5.72103    0.00979     7.73029
      H   23    0.41331      0.00000     0.58408    0.00261     0.58669
      H   24    0.42000      0.00000     0.57765    0.00235     0.58000
      H   25    0.23349      0.00000     0.76501    0.00150     0.76651
      H   26    0.23085      0.00000     0.76759    0.00157     0.76915
      H   27    0.22878      0.00000     0.76960    0.00162     0.77122
      H   28    0.23356      0.00000     0.76504    0.00139     0.76644
      H   29    0.23094      0.00000     0.76769    0.00137     0.76906
      H   30    0.23008      0.00000     0.76831    0.00161     0.76992
      H   31    0.25789      0.00000     0.74059    0.00152     0.74211
      H   32    0.25319      0.00000     0.74553    0.00129     0.74681
      H   33    0.25533      0.00000     0.74343    0.00124     0.74467
      H   34    0.25175      0.00000     0.74671    0.00154     0.74825
      H   35    0.25594      0.00000     0.74257    0.00149     0.74406
      H   36    0.25654      0.00000     0.74205    0.00141     0.74346
      H   37    0.43860      0.00000     0.55886    0.00254     0.56140
      H   38    0.43766      0.00000     0.56035    0.00198     0.56234
 =======================================================================
   * Total *   -0.00000     43.97964   105.67462    0.34574   150.00000

                                 Natural Population      
 --------------------------------------------------------
   Core                      43.97964 ( 99.9537% of  44)
   Valence                  105.67462 ( 99.6930% of 106)
   Natural Minimal Basis    149.65426 ( 99.7695% of 150)
   Natural Rydberg Basis      0.34574 (  0.2305% of 150)
 --------------------------------------------------------

    Atom  No          Natural Electron Configuration
 ----------------------------------------------------------------------------
      N    1      [core]2S( 1.35)2p( 4.47)3p( 0.01)
      C    2      [core]2S( 0.83)2p( 2.96)3p( 0.01)
      C    3      [core]2S( 0.94)2p( 3.38)3p( 0.01)
      C    4      [core]2S( 0.94)2p( 3.32)3p( 0.01)
      C    5      [core]2S( 0.86)2p( 3.19)3p( 0.01)
      C    6      [core]2S( 0.94)2p( 3.33)3p( 0.01)
      C    7      [core]2S( 0.96)2p( 3.28)3p( 0.01)
      C    8      [core]2S( 0.95)2p( 3.33)3p( 0.01)
      C    9      [core]2S( 0.94)2p( 3.33)3p( 0.01)
      C   10      [core]2S( 0.86)2p( 3.16)3p( 0.01)
      C   11      [core]2S( 0.85)2p( 3.32)3p( 0.01)
      C   12      [core]2S( 0.87)2p( 3.11)3p( 0.01)
      C   13      [core]2S( 0.87)2p( 3.18)3p( 0.01)
      C   14      [core]2S( 0.96)2p( 3.22)3p( 0.01)
      C   15      [core]2S( 0.97)2p( 3.28)3p( 0.01)
      C   16      [core]2S( 0.97)2p( 3.21)3p( 0.01)
      C   17      [core]2S( 0.96)2p( 3.25)3p( 0.01)
      C   18      [core]2S( 0.87)2p( 3.17)3p( 0.01)
      C   19      [core]2S( 0.95)2p( 3.22)3p( 0.01)
      C   20      [core]2S( 0.95)2p( 3.33)3p( 0.01)
      C   21      [core]2S( 0.85)2p( 2.91)3p( 0.01)
      N   22      [core]2S( 1.36)2p( 4.36)3p( 0.01)
      H   23            1S( 0.58)
      H   24            1S( 0.58)
      H   25            1S( 0.77)
      H   26            1S( 0.77)
      H   27            1S( 0.77)
      H   28            1S( 0.77)
      H   29            1S( 0.77)
      H   30            1S( 0.77)
      H   31            1S( 0.74)
      H   32            1S( 0.75)
      H   33            1S( 0.74)
      H   34            1S( 0.75)
      H   35            1S( 0.74)
      H   36            1S( 0.74)
      H   37            1S( 0.56)
      H   38            1S( 0.56)


 NBO analysis skipped by request.
 1\1\GINC-DRG2-W002\SP\RB3LYP TD-FC\6-31G(d,p)\C20H16N2\QDUEZ\17-Jul-20
 24\0\\# TD(NStates=10, Root=1) B3LYP/6-31G** SCRF=(Solvent=water) volu
 me pop=NPA density=current Geom=AllCheck Guess=Read\\DDAPSNKEOHDLKB-UH
 FFFAOYSA-N_conf_0\\0,1\N,0,0.0833781779,-2.907230499,-0.6227681595\C,0
 ,-0.9151677386,-1.9611504498,-0.4168385588\C,0,-2.2648962179,-2.322840
 6206,-0.7087080216\C,0,-3.2960675085,-1.4530586607,-0.4705440436\C,0,-
 3.0563444765,-0.1638218918,0.078590105\C,0,-4.1130800063,0.7491712556,
 0.3322823234\C,0,-3.8626156942,1.9959901738,0.8631868135\C,0,-2.531428
 4154,2.3742526006,1.1602090989\C,0,-1.4833964528,1.509805896,0.9247438
 277\C,0,-1.7045057819,0.2133049641,0.3781059672\C,0,-0.631482021,-0.70
 11508703,0.1206514503\C,0,0.7879924315,-0.3270369807,0.4229857931\C,0,
 1.6118763469,0.2950849519,-0.5715083533\C,0,1.1303276275,0.5992392783,
 -1.8776674148\C,0,1.9438766354,1.1936379567,-2.8188513347\C,0,3.286627
 6286,1.5203318355,-2.5128288827\C,0,3.7858148692,1.2405331992,-1.25918
 08296\C,0,2.9747918954,0.6285964209,-0.2680883457\C,0,3.4736867022,0.3
 316292812,1.0293456613\C,0,2.6773045423,-0.2583915758,1.9752231337\C,0
 ,1.3213982125,-0.5982630432,1.6873151085\N,0,0.5438620358,-1.141150802
 2,2.7036575654\H,0,1.0192240179,-2.5314777277,-0.7048448592\H,0,-0.117
 1495492,-3.5976125652,-1.3342144029\H,0,-2.4622618449,-3.3073413561,-1
 .1245513719\H,0,-4.3171699631,-1.74448973,-0.7022118251\H,0,-5.1298961
 365,0.4436881892,0.0979026268\H,0,-4.67857462,2.686578369,1.0536348965
 \H,0,-2.3338942156,3.3573173666,1.5785076689\H,0,-0.4674625302,1.81204
 45028,1.1564268309\H,0,0.1021895661,0.3562831964,-2.1248184543\H,0,1.5
 498185651,1.4151131036,-3.8068097242\H,0,3.9159937143,1.9888374017,-3.
 2633857436\H,0,4.8150097239,1.4853628723,-1.0082254905\H,0,4.505227135
 8,0.5794038276,1.2655157977\H,0,3.0702748026,-0.4744723945,2.965179046
 1\H,0,-0.2858236201,-1.6300253935,2.3929273099\H,0,1.0525421618,-1.656
 6920821,3.4096547914\\Version=ES64L-G16RevA.03\State=1-A\HF=-881.34144
 65\RMSD=8.232e-09\Dipole=3.65865,-1.5208554,0.2499695\Quadrupole=-3.79
 74758,-2.0446193,5.842095,2.9183083,3.1709498,-4.5685087\PG=C01 [X(C20
 H16N2)]\\@


 THE TEST OF A FIRST RATE INTELLIGENCE IS THE ABILITY TO HOLD TWO OPPOSED
 IDEAS IN THE MIND AT THE SAME TIME, AND STILL RETAIN THE ABILITY TO FUNCTION.
 ONE SHOULD, FOR EXAMPLE, BE ABLE TO SEE THAT THINGS ARE HOPELESS AND YET BE
 DETERMINED TO MAKE THEM OTHERWISE.

                                                       -- F. SCOTT FITZGERALD
 Job cpu time:       0 days  1 hours 56 minutes 36.9 seconds.
 Elapsed time:       0 days  0 hours 38 minutes 59.0 seconds.
 File lengths (MBytes):  RWF=   1321 Int=      0 D2E=      0 Chk=     83 Scr=      1
 Normal termination of Gaussian 16 at Wed Jul 17 16:53:58 2024.
