 Entering Gaussian System, Link 0=g16
 Initial command:
 /opt/sw/arch/manual/gaussian/G16_A03/g16/l1.exe "/scratch/1380797/Gau-10144.inp" -scrdir="/scratch/1380797/"
 Entering Link 1 = /opt/sw/arch/manual/gaussian/G16_A03/g16/l1.exe PID=     10151.
  
 Copyright (c) 1988,1990,1992,1993,1995,1998,2003,2009,2016,
            Gaussian, Inc.  All Rights Reserved.
  
 This is part of the Gaussian(R) 16 program.  It is based on
 the Gaussian(R) 09 system (copyright 2009, Gaussian, Inc.),
 the Gaussian(R) 03 system (copyright 2003, Gaussian, Inc.),
 the Gaussian(R) 98 system (copyright 1998, Gaussian, Inc.),
 the Gaussian(R) 94 system (copyright 1995, Gaussian, Inc.),
 the Gaussian 92(TM) system (copyright 1992, Gaussian, Inc.),
 the Gaussian 90(TM) system (copyright 1990, Gaussian, Inc.),
 the Gaussian 88(TM) system (copyright 1988, Gaussian, Inc.),
 the Gaussian 86(TM) system (copyright 1986, Carnegie Mellon
 University), and the Gaussian 82(TM) system (copyright 1983,
 Carnegie Mellon University). Gaussian is a federally registered
 trademark of Gaussian, Inc.
  
 This software contains proprietary and confidential information,
 including trade secrets, belonging to Gaussian, Inc.
  
 This software is provided under written license and may be
 used, copied, transmitted, or stored only in accord with that
 written license.
  
 The following legend is applicable only to US Government
 contracts under FAR:
  
                    RESTRICTED RIGHTS LEGEND
  
 Use, reproduction and disclosure by the US Government is
 subject to restrictions as set forth in subparagraphs (a)
 and (c) of the Commercial Computer Software - Restricted
 Rights clause in FAR 52.227-19.
  
 Gaussian, Inc.
 340 Quinnipiac St., Bldg. 40, Wallingford CT 06492
  
  
 ---------------------------------------------------------------
 Warning -- This program may not be used in any manner that
 competes with the business of Gaussian, Inc. or will provide
 assistance to any competitor of Gaussian, Inc.  The licensee
 of this program is prohibited from giving any competitor of
 Gaussian, Inc. access to this program.  By using this program,
 the user acknowledges that Gaussian, Inc. is engaged in the
 business of creating and licensing software in the field of
 computational chemistry and represents and warrants to the
 licensee that it is not a competitor of Gaussian, Inc. and that
 it will not use this program in any manner prohibited above.
 ---------------------------------------------------------------
  

 Cite this work as:
 Gaussian 16, Revision A.03,
 M. J. Frisch, G. W. Trucks, H. B. Schlegel, G. E. Scuseria, 
 M. A. Robb, J. R. Cheeseman, G. Scalmani, V. Barone, 
 G. A. Petersson, H. Nakatsuji, X. Li, M. Caricato, A. V. Marenich, 
 J. Bloino, B. G. Janesko, R. Gomperts, B. Mennucci, H. P. Hratchian, 
 J. V. Ortiz, A. F. Izmaylov, J. L. Sonnenberg, D. Williams-Young, 
 F. Ding, F. Lipparini, F. Egidi, J. Goings, B. Peng, A. Petrone, 
 T. Henderson, D. Ranasinghe, V. G. Zakrzewski, J. Gao, N. Rega, 
 G. Zheng, W. Liang, M. Hada, M. Ehara, K. Toyota, R. Fukuda, 
 J. Hasegawa, M. Ishida, T. Nakajima, Y. Honda, O. Kitao, H. Nakai, 
 T. Vreven, K. Throssell, J. A. Montgomery, Jr., J. E. Peralta, 
 F. Ogliaro, M. J. Bearpark, J. J. Heyd, E. N. Brothers, K. N. Kudin, 
 V. N. Staroverov, T. A. Keith, R. Kobayashi, J. Normand, 
 K. Raghavachari, A. P. Rendell, J. C. Burant, S. S. Iyengar, 
 J. Tomasi, M. Cossi, J. M. Millam, M. Klene, C. Adamo, R. Cammi, 
 J. W. Ochterski, R. L. Martin, K. Morokuma, O. Farkas, 
 J. B. Foresman, and D. J. Fox, Gaussian, Inc., Wallingford CT, 2016.
 
 ******************************************
 Gaussian 16:  ES64L-G16RevA.03 25-Dec-2016
                17-Jul-2024 
 ******************************************
 %nprocshared=6
 Will use up to    6 processors via shared memory.
 %mem=12GB
 %Chk=DDAPSNKEOHDLKB-UHFFFAOYSA-N_conf_2_0.chk
 -------------------------------------------------------
 # opt=CalcFc B3LYP/6-31G** SCRF=(Solvent=water) scf=xqc
 -------------------------------------------------------
 1/10=4,18=20,19=15,26=3,38=1/1,3;
 2/9=110,12=2,17=6,18=5,40=1/2;
 3/5=1,6=6,7=101,11=2,25=1,30=1,70=2201,71=2,72=1,74=-5,140=1/1,2,3;
 4//1;
 5/5=2,8=3,13=1,38=5,53=1/2,8;
 8/6=4,10=90,11=11/1;
 11/6=1,8=1,9=11,15=111,16=1/1,2,10;
 10/6=1,13=1/2;
 6/7=2,8=2,9=2,10=2,28=1/1;
 7/10=1,18=20,25=1/1,2,3,16;
 1/10=4,18=20,19=15,26=3/3(2);
 2/9=110/2;
 99//99;
 2/9=110/2;
 3/5=1,6=6,7=101,11=2,25=1,30=1,70=2205,71=1,72=1,74=-5/1,2,3;
 4/5=5,16=3,69=1/1;
 5/5=2,8=3,13=1,38=5,53=1/2,8;
 7//1,2,3,16;
 1/18=20,19=15,26=3/3(-5);
 2/9=110/2;
 6/7=2,8=2,9=2,10=2,19=2,28=1/1;
 99/9=1/99;
 ----------------------------------
 DDAPSNKEOHDLKB-UHFFFAOYSA-N_conf_2
 ----------------------------------
 Symbolic Z-matrix:
 Charge =  0 Multiplicity = 1
 N                     0.00097  -0.10212  -3.05049 
 C                     0.93841  -0.29903  -2.01475 
 C                     2.23069  -0.69449  -2.36624 
 C                     3.23454  -0.79261  -1.40515 
 C                     2.98674  -0.45418  -0.0707 
 C                     4.01418  -0.55972   0.88231 
 C                     3.79734  -0.21158   2.21397 
 C                     2.55033   0.25154   2.60832 
 C                     1.52071   0.36109   1.6708 
 C                     1.70316   0.00772   0.31161 
 C                     0.67153   0.09863  -0.67811 
 C                    -0.68894   0.59086  -0.31344 
 C                    -1.68489  -0.3179    0.17198 
 C                    -1.47192  -1.71026   0.323 
 C                    -2.46978  -2.5638    0.79925 
 C                    -3.71243  -2.05038   1.1416 
 C                    -3.9546   -0.68458   1.00971 
 C                    -2.95971   0.18485   0.53127 
 C                    -3.22316   1.55418   0.4211 
 C                    -2.25342   2.43273  -0.05723 
 C                    -1.00671   1.96438  -0.47628 
 N                    -0.03179   2.91235  -0.85139 
 H                    -0.96171  -0.10407  -2.72008 
 H                     0.13055  -0.726    -3.84014 
 H                     2.46817  -0.93184  -3.39999 
 H                     4.22314  -1.1239   -1.71578 
 H                     5.00091  -0.91343   0.59079 
 H                     4.6025   -0.29671   2.93842 
 H                     2.37185   0.53312   3.64259 
 H                     0.55904   0.73639   2.01659 
 H                    -0.50917  -2.15084   0.07 
 H                    -2.26896  -3.62677   0.90365 
 H                    -4.4919   -2.70884   1.51511 
 H                    -4.93349  -0.29983   1.28868 
 H                    -4.1889    1.95688   0.71896 
 H                    -2.48094   3.49457  -0.1028 
 H                    -0.41853   3.74273  -1.2861 
 H                     0.7062    2.50084  -1.42108 
 

 GradGradGradGradGradGradGradGradGradGradGradGradGradGradGradGradGradGrad
 Berny optimization.
 Initialization pass.
                           ----------------------------
                           !    Initial Parameters    !
                           ! (Angstroms and Degrees)  !
 --------------------------                            --------------------------
 ! Name  Definition              Value          Derivative Info.                !
 --------------------------------------------------------------------------------
 ! R1    R(1,2)                  1.4108         calculate D2E/DX2 analytically  !
 ! R2    R(1,23)                 1.0178         calculate D2E/DX2 analytically  !
 ! R3    R(1,24)                 1.0147         calculate D2E/DX2 analytically  !
 ! R4    R(2,3)                  1.3964         calculate D2E/DX2 analytically  !
 ! R5    R(2,11)                 1.4199         calculate D2E/DX2 analytically  !
 ! R6    R(3,4)                  1.3932         calculate D2E/DX2 analytically  !
 ! R7    R(3,25)                 1.0869         calculate D2E/DX2 analytically  !
 ! R8    R(4,5)                  1.3988         calculate D2E/DX2 analytically  !
 ! R9    R(4,26)                 1.0879         calculate D2E/DX2 analytically  !
 ! R10   R(5,6)                  1.4053         calculate D2E/DX2 analytically  !
 ! R11   R(5,10)                 1.4167         calculate D2E/DX2 analytically  !
 ! R12   R(6,7)                  1.3934         calculate D2E/DX2 analytically  !
 ! R13   R(6,27)                 1.088          calculate D2E/DX2 analytically  !
 ! R14   R(7,8)                  1.3875         calculate D2E/DX2 analytically  !
 ! R15   R(7,28)                 1.0864         calculate D2E/DX2 analytically  !
 ! R16   R(8,9)                  1.3968         calculate D2E/DX2 analytically  !
 ! R17   R(8,29)                 1.0867         calculate D2E/DX2 analytically  !
 ! R18   R(9,10)                 1.4162         calculate D2E/DX2 analytically  !
 ! R19   R(9,30)                 1.0887         calculate D2E/DX2 analytically  !
 ! R20   R(10,11)                1.4325         calculate D2E/DX2 analytically  !
 ! R21   R(11,12)                1.492          calculate D2E/DX2 analytically  !
 ! R22   R(12,13)                1.433          calculate D2E/DX2 analytically  !
 ! R23   R(12,21)                1.4192         calculate D2E/DX2 analytically  !
 ! R24   R(13,14)                1.4166         calculate D2E/DX2 analytically  !
 ! R25   R(13,18)                1.4167         calculate D2E/DX2 analytically  !
 ! R26   R(14,15)                1.3968         calculate D2E/DX2 analytically  !
 ! R27   R(14,31)                1.0886         calculate D2E/DX2 analytically  !
 ! R28   R(15,16)                1.3874         calculate D2E/DX2 analytically  !
 ! R29   R(15,32)                1.0868         calculate D2E/DX2 analytically  !
 ! R30   R(16,17)                1.3934         calculate D2E/DX2 analytically  !
 ! R31   R(16,33)                1.0866         calculate D2E/DX2 analytically  !
 ! R32   R(17,18)                1.4052         calculate D2E/DX2 analytically  !
 ! R33   R(17,34)                1.0881         calculate D2E/DX2 analytically  !
 ! R34   R(18,19)                1.3988         calculate D2E/DX2 analytically  !
 ! R35   R(19,20)                1.3932         calculate D2E/DX2 analytically  !
 ! R36   R(19,35)                1.0879         calculate D2E/DX2 analytically  !
 ! R37   R(20,21)                1.3962         calculate D2E/DX2 analytically  !
 ! R38   R(20,36)                1.0869         calculate D2E/DX2 analytically  !
 ! R39   R(21,22)                1.4106         calculate D2E/DX2 analytically  !
 ! R40   R(22,37)                1.0139         calculate D2E/DX2 analytically  !
 ! R41   R(22,38)                1.0191         calculate D2E/DX2 analytically  !
 ! A1    A(2,1,23)             112.9482         calculate D2E/DX2 analytically  !
 ! A2    A(2,1,24)             113.62           calculate D2E/DX2 analytically  !
 ! A3    A(23,1,24)            111.8545         calculate D2E/DX2 analytically  !
 ! A4    A(1,2,3)              118.0131         calculate D2E/DX2 analytically  !
 ! A5    A(1,2,11)             121.8128         calculate D2E/DX2 analytically  !
 ! A6    A(3,2,11)             119.3549         calculate D2E/DX2 analytically  !
 ! A7    A(2,3,4)              120.8717         calculate D2E/DX2 analytically  !
 ! A8    A(2,3,25)             120.2277         calculate D2E/DX2 analytically  !
 ! A9    A(4,3,25)             118.9006         calculate D2E/DX2 analytically  !
 ! A10   A(3,4,5)              120.891          calculate D2E/DX2 analytically  !
 ! A11   A(3,4,26)             118.6349         calculate D2E/DX2 analytically  !
 ! A12   A(5,4,26)             120.4672         calculate D2E/DX2 analytically  !
 ! A13   A(4,5,6)              119.9496         calculate D2E/DX2 analytically  !
 ! A14   A(4,5,10)             119.7902         calculate D2E/DX2 analytically  !
 ! A15   A(6,5,10)             120.2568         calculate D2E/DX2 analytically  !
 ! A16   A(5,6,7)              121.034          calculate D2E/DX2 analytically  !
 ! A17   A(5,6,27)             120.3822         calculate D2E/DX2 analytically  !
 ! A18   A(7,6,27)             118.5834         calculate D2E/DX2 analytically  !
 ! A19   A(6,7,8)              119.6635         calculate D2E/DX2 analytically  !
 ! A20   A(6,7,28)             120.1559         calculate D2E/DX2 analytically  !
 ! A21   A(8,7,28)             120.1796         calculate D2E/DX2 analytically  !
 ! A22   A(7,8,9)              119.8622         calculate D2E/DX2 analytically  !
 ! A23   A(7,8,29)             120.3067         calculate D2E/DX2 analytically  !
 ! A24   A(9,8,29)             119.8307         calculate D2E/DX2 analytically  !
 ! A25   A(8,9,10)             121.9817         calculate D2E/DX2 analytically  !
 ! A26   A(8,9,30)             117.7088         calculate D2E/DX2 analytically  !
 ! A27   A(10,9,30)            120.3088         calculate D2E/DX2 analytically  !
 ! A28   A(5,10,9)             117.1986         calculate D2E/DX2 analytically  !
 ! A29   A(5,10,11)            119.1255         calculate D2E/DX2 analytically  !
 ! A30   A(9,10,11)            123.6754         calculate D2E/DX2 analytically  !
 ! A31   A(2,11,10)            119.8203         calculate D2E/DX2 analytically  !
 ! A32   A(2,11,12)            119.5954         calculate D2E/DX2 analytically  !
 ! A33   A(10,11,12)           120.5791         calculate D2E/DX2 analytically  !
 ! A34   A(11,12,13)           120.4852         calculate D2E/DX2 analytically  !
 ! A35   A(11,12,21)           119.6971         calculate D2E/DX2 analytically  !
 ! A36   A(13,12,21)           119.8037         calculate D2E/DX2 analytically  !
 ! A37   A(12,13,14)           123.7069         calculate D2E/DX2 analytically  !
 ! A38   A(12,13,18)           119.0962         calculate D2E/DX2 analytically  !
 ! A39   A(14,13,18)           117.1965         calculate D2E/DX2 analytically  !
 ! A40   A(13,14,15)           121.9748         calculate D2E/DX2 analytically  !
 ! A41   A(13,14,31)           120.3966         calculate D2E/DX2 analytically  !
 ! A42   A(15,14,31)           117.6284         calculate D2E/DX2 analytically  !
 ! A43   A(14,15,16)           119.8573         calculate D2E/DX2 analytically  !
 ! A44   A(14,15,32)           119.8951         calculate D2E/DX2 analytically  !
 ! A45   A(16,15,32)           120.2472         calculate D2E/DX2 analytically  !
 ! A46   A(15,16,17)           119.6726         calculate D2E/DX2 analytically  !
 ! A47   A(15,16,33)           120.2033         calculate D2E/DX2 analytically  !
 ! A48   A(17,16,33)           120.1235         calculate D2E/DX2 analytically  !
 ! A49   A(16,17,18)           121.0412         calculate D2E/DX2 analytically  !
 ! A50   A(16,17,34)           118.599          calculate D2E/DX2 analytically  !
 ! A51   A(18,17,34)           120.3595         calculate D2E/DX2 analytically  !
 ! A52   A(13,18,17)           120.2569         calculate D2E/DX2 analytically  !
 ! A53   A(13,18,19)           119.7957         calculate D2E/DX2 analytically  !
 ! A54   A(17,18,19)           119.9444         calculate D2E/DX2 analytically  !
 ! A55   A(18,19,20)           120.8811         calculate D2E/DX2 analytically  !
 ! A56   A(18,19,35)           120.5304         calculate D2E/DX2 analytically  !
 ! A57   A(20,19,35)           118.5849         calculate D2E/DX2 analytically  !
 ! A58   A(19,20,21)           120.8672         calculate D2E/DX2 analytically  !
 ! A59   A(19,20,36)           118.9959         calculate D2E/DX2 analytically  !
 ! A60   A(21,20,36)           120.1367         calculate D2E/DX2 analytically  !
 ! A61   A(12,21,20)           119.352          calculate D2E/DX2 analytically  !
 ! A62   A(12,21,22)           121.747          calculate D2E/DX2 analytically  !
 ! A63   A(20,21,22)           118.1337         calculate D2E/DX2 analytically  !
 ! A64   A(21,22,37)           113.6256         calculate D2E/DX2 analytically  !
 ! A65   A(21,22,38)           112.197          calculate D2E/DX2 analytically  !
 ! A66   A(37,22,38)           111.5457         calculate D2E/DX2 analytically  !
 ! D1    D(23,1,2,3)           162.0421         calculate D2E/DX2 analytically  !
 ! D2    D(23,1,2,11)          -28.3942         calculate D2E/DX2 analytically  !
 ! D3    D(24,1,2,3)            33.2597         calculate D2E/DX2 analytically  !
 ! D4    D(24,1,2,11)         -157.1766         calculate D2E/DX2 analytically  !
 ! D5    D(1,2,3,4)            174.3364         calculate D2E/DX2 analytically  !
 ! D6    D(1,2,3,25)            -5.6925         calculate D2E/DX2 analytically  !
 ! D7    D(11,2,3,4)             4.5086         calculate D2E/DX2 analytically  !
 ! D8    D(11,2,3,25)         -175.5203         calculate D2E/DX2 analytically  !
 ! D9    D(1,2,11,10)         -173.4743         calculate D2E/DX2 analytically  !
 ! D10   D(1,2,11,12)            7.3461         calculate D2E/DX2 analytically  !
 ! D11   D(3,2,11,10)           -4.0467         calculate D2E/DX2 analytically  !
 ! D12   D(3,2,11,12)          176.7736         calculate D2E/DX2 analytically  !
 ! D13   D(2,3,4,5)             -2.1867         calculate D2E/DX2 analytically  !
 ! D14   D(2,3,4,26)           178.7571         calculate D2E/DX2 analytically  !
 ! D15   D(25,3,4,5)           177.8418         calculate D2E/DX2 analytically  !
 ! D16   D(25,3,4,26)           -1.2144         calculate D2E/DX2 analytically  !
 ! D17   D(3,4,5,6)           -179.9551         calculate D2E/DX2 analytically  !
 ! D18   D(3,4,5,10)            -0.6293         calculate D2E/DX2 analytically  !
 ! D19   D(26,4,5,6)            -0.9161         calculate D2E/DX2 analytically  !
 ! D20   D(26,4,5,10)          178.4097         calculate D2E/DX2 analytically  !
 ! D21   D(4,5,6,7)            179.1308         calculate D2E/DX2 analytically  !
 ! D22   D(4,5,6,27)            -0.6278         calculate D2E/DX2 analytically  !
 ! D23   D(10,5,6,7)            -0.1918         calculate D2E/DX2 analytically  !
 ! D24   D(10,5,6,27)         -179.9505         calculate D2E/DX2 analytically  !
 ! D25   D(4,5,10,9)          -178.7282         calculate D2E/DX2 analytically  !
 ! D26   D(4,5,10,11)            1.0279         calculate D2E/DX2 analytically  !
 ! D27   D(6,5,10,9)             0.5956         calculate D2E/DX2 analytically  !
 ! D28   D(6,5,10,11)         -179.6484         calculate D2E/DX2 analytically  !
 ! D29   D(5,6,7,8)             -0.2351         calculate D2E/DX2 analytically  !
 ! D30   D(5,6,7,28)          -179.8658         calculate D2E/DX2 analytically  !
 ! D31   D(27,6,7,8)           179.5277         calculate D2E/DX2 analytically  !
 ! D32   D(27,6,7,28)           -0.1029         calculate D2E/DX2 analytically  !
 ! D33   D(6,7,8,9)              0.2312         calculate D2E/DX2 analytically  !
 ! D34   D(6,7,8,29)          -179.5351         calculate D2E/DX2 analytically  !
 ! D35   D(28,7,8,9)           179.8618         calculate D2E/DX2 analytically  !
 ! D36   D(28,7,8,29)            0.0955         calculate D2E/DX2 analytically  !
 ! D37   D(7,8,9,10)             0.2008         calculate D2E/DX2 analytically  !
 ! D38   D(7,8,9,30)          -179.49           calculate D2E/DX2 analytically  !
 ! D39   D(29,8,9,10)          179.9682         calculate D2E/DX2 analytically  !
 ! D40   D(29,8,9,30)            0.2775         calculate D2E/DX2 analytically  !
 ! D41   D(8,9,10,5)            -0.6077         calculate D2E/DX2 analytically  !
 ! D42   D(8,9,10,11)          179.6484         calculate D2E/DX2 analytically  !
 ! D43   D(30,9,10,5)          179.0752         calculate D2E/DX2 analytically  !
 ! D44   D(30,9,10,11)          -0.6687         calculate D2E/DX2 analytically  !
 ! D45   D(5,10,11,2)            1.3073         calculate D2E/DX2 analytically  !
 ! D46   D(5,10,11,12)        -179.5212         calculate D2E/DX2 analytically  !
 ! D47   D(9,10,11,2)         -178.9534         calculate D2E/DX2 analytically  !
 ! D48   D(9,10,11,12)           0.218          calculate D2E/DX2 analytically  !
 ! D49   D(2,11,12,13)          91.6341         calculate D2E/DX2 analytically  !
 ! D50   D(2,11,12,21)         -86.9992         calculate D2E/DX2 analytically  !
 ! D51   D(10,11,12,13)        -87.5391         calculate D2E/DX2 analytically  !
 ! D52   D(10,11,12,21)         93.8275         calculate D2E/DX2 analytically  !
 ! D53   D(11,12,13,14)         -0.8341         calculate D2E/DX2 analytically  !
 ! D54   D(11,12,13,18)        178.9277         calculate D2E/DX2 analytically  !
 ! D55   D(21,12,13,14)        177.7978         calculate D2E/DX2 analytically  !
 ! D56   D(21,12,13,18)         -2.4404         calculate D2E/DX2 analytically  !
 ! D57   D(11,12,21,20)       -176.1281         calculate D2E/DX2 analytically  !
 ! D58   D(11,12,21,22)         -6.3508         calculate D2E/DX2 analytically  !
 ! D59   D(13,12,21,20)          5.2291         calculate D2E/DX2 analytically  !
 ! D60   D(13,12,21,22)        175.0064         calculate D2E/DX2 analytically  !
 ! D61   D(12,13,14,15)       -179.9564         calculate D2E/DX2 analytically  !
 ! D62   D(12,13,14,31)          0.251          calculate D2E/DX2 analytically  !
 ! D63   D(18,13,14,15)          0.2775         calculate D2E/DX2 analytically  !
 ! D64   D(18,13,14,31)       -179.515          calculate D2E/DX2 analytically  !
 ! D65   D(12,13,18,17)        179.9812         calculate D2E/DX2 analytically  !
 ! D66   D(12,13,18,19)         -0.6462         calculate D2E/DX2 analytically  !
 ! D67   D(14,13,18,17)         -0.2416         calculate D2E/DX2 analytically  !
 ! D68   D(14,13,18,19)        179.131          calculate D2E/DX2 analytically  !
 ! D69   D(13,14,15,16)         -0.0996         calculate D2E/DX2 analytically  !
 ! D70   D(13,14,15,32)       -179.8795         calculate D2E/DX2 analytically  !
 ! D71   D(31,14,15,16)        179.6985         calculate D2E/DX2 analytically  !
 ! D72   D(31,14,15,32)         -0.0814         calculate D2E/DX2 analytically  !
 ! D73   D(14,15,16,17)         -0.1204         calculate D2E/DX2 analytically  !
 ! D74   D(14,15,16,33)       -179.8389         calculate D2E/DX2 analytically  !
 ! D75   D(32,15,16,17)        179.6587         calculate D2E/DX2 analytically  !
 ! D76   D(32,15,16,33)         -0.0597         calculate D2E/DX2 analytically  !
 ! D77   D(15,16,17,18)          0.1533         calculate D2E/DX2 analytically  !
 ! D78   D(15,16,17,34)       -179.652          calculate D2E/DX2 analytically  !
 ! D79   D(33,16,17,18)        179.8719         calculate D2E/DX2 analytically  !
 ! D80   D(33,16,17,34)          0.0667         calculate D2E/DX2 analytically  !
 ! D81   D(16,17,18,13)          0.0335         calculate D2E/DX2 analytically  !
 ! D82   D(16,17,18,19)       -179.3382         calculate D2E/DX2 analytically  !
 ! D83   D(34,17,18,13)        179.8354         calculate D2E/DX2 analytically  !
 ! D84   D(34,17,18,19)          0.4637         calculate D2E/DX2 analytically  !
 ! D85   D(13,18,19,20)          0.956          calculate D2E/DX2 analytically  !
 ! D86   D(13,18,19,35)       -178.3445         calculate D2E/DX2 analytically  !
 ! D87   D(17,18,19,20)       -179.6694         calculate D2E/DX2 analytically  !
 ! D88   D(17,18,19,35)          1.0301         calculate D2E/DX2 analytically  !
 ! D89   D(18,19,20,21)          1.9029         calculate D2E/DX2 analytically  !
 ! D90   D(18,19,20,36)       -178.2272         calculate D2E/DX2 analytically  !
 ! D91   D(35,19,20,21)       -178.7832         calculate D2E/DX2 analytically  !
 ! D92   D(35,19,20,36)          1.0867         calculate D2E/DX2 analytically  !
 ! D93   D(19,20,21,12)         -4.9873         calculate D2E/DX2 analytically  !
 ! D94   D(19,20,21,22)       -175.1331         calculate D2E/DX2 analytically  !
 ! D95   D(36,20,21,12)        175.1443         calculate D2E/DX2 analytically  !
 ! D96   D(36,20,21,22)          4.9985         calculate D2E/DX2 analytically  !
 ! D97   D(12,21,22,37)        156.8468         calculate D2E/DX2 analytically  !
 ! D98   D(12,21,22,38)         29.1556         calculate D2E/DX2 analytically  !
 ! D99   D(20,21,22,37)        -33.2561         calculate D2E/DX2 analytically  !
 ! D100  D(20,21,22,38)       -160.9474         calculate D2E/DX2 analytically  !
 --------------------------------------------------------------------------------
 Trust Radius=3.00D-01 FncErr=1.00D-07 GrdErr=1.00D-06 EigMax=2.50D+02 EigMin=1.00D-04
 Number of steps in this run=    217 maximum allowed number of steps=    228.
 GradGradGradGradGradGradGradGradGradGradGradGradGradGradGradGradGradGrad

                          Input orientation:                          
 ---------------------------------------------------------------------
 Center     Atomic      Atomic             Coordinates (Angstroms)
 Number     Number       Type             X           Y           Z
 ---------------------------------------------------------------------
      1          7           0        0.000971   -0.102124   -3.050485
      2          6           0        0.938408   -0.299033   -2.014755
      3          6           0        2.230690   -0.694490   -2.366237
      4          6           0        3.234545   -0.792613   -1.405146
      5          6           0        2.986739   -0.454177   -0.070697
      6          6           0        4.014178   -0.559724    0.882312
      7          6           0        3.797335   -0.211578    2.213970
      8          6           0        2.550327    0.251542    2.608323
      9          6           0        1.520710    0.361089    1.670802
     10          6           0        1.703158    0.007716    0.311615
     11          6           0        0.671535    0.098632   -0.678108
     12          6           0       -0.688945    0.590864   -0.313437
     13          6           0       -1.684888   -0.317897    0.171983
     14          6           0       -1.471915   -1.710258    0.323002
     15          6           0       -2.469782   -2.563802    0.799246
     16          6           0       -3.712432   -2.050380    1.141595
     17          6           0       -3.954604   -0.684579    1.009714
     18          6           0       -2.959713    0.184854    0.531271
     19          6           0       -3.223161    1.554184    0.421104
     20          6           0       -2.253420    2.432735   -0.057235
     21          6           0       -1.006712    1.964380   -0.476279
     22          7           0       -0.031790    2.912347   -0.851388
     23          1           0       -0.961710   -0.104066   -2.720077
     24          1           0        0.130550   -0.726003   -3.840142
     25          1           0        2.468168   -0.931842   -3.399990
     26          1           0        4.223135   -1.123895   -1.715777
     27          1           0        5.000910   -0.913434    0.590793
     28          1           0        4.602503   -0.296707    2.938421
     29          1           0        2.371854    0.533119    3.642591
     30          1           0        0.559043    0.736394    2.016590
     31          1           0       -0.509171   -2.150840    0.069998
     32          1           0       -2.268960   -3.626765    0.903655
     33          1           0       -4.491902   -2.708843    1.515113
     34          1           0       -4.933485   -0.299827    1.288682
     35          1           0       -4.188897    1.956884    0.718957
     36          1           0       -2.480937    3.494572   -0.102803
     37          1           0       -0.418532    3.742727   -1.286097
     38          1           0        0.706200    2.500839   -1.421085
 ---------------------------------------------------------------------
                    Distance matrix (angstroms):
                    1          2          3          4          5
     1  N    0.000000
     2  C    1.410779   0.000000
     3  C    2.406396   1.396396   0.000000
     4  C    3.693226   2.426415   1.393215   0.000000
     5  C    4.232952   2.828266   2.428758   1.398821   0.000000
     6  C    5.637564   4.233358   3.708378   2.427865   1.405347
     7  C    6.491444   5.105215   4.864758   3.708413   2.436313
     8  C    6.216623   4.926892   5.073795   4.203135   2.804575
     9  C    4.981438   3.789217   4.232730   3.705363   2.417999
    10  C    3.770042   2.467981   2.818204   2.435763   1.416717
    11  C    2.473486   1.419853   2.431006   2.809257   2.456566
    12  C    2.906484   2.516878   3.793468   4.301117   3.829058
    13  C    3.643210   3.415239   4.681468   5.187824   4.679911
    14  C    4.016952   3.642296   4.687545   5.096993   4.648907
    15  C    5.194700   4.966239   5.967332   6.366773   5.914469
    16  C    5.929469   5.887280   7.033067   7.505222   6.992596
    17  C    5.698337   5.765207   7.046631   7.584661   7.028699
    18  C    4.655855   4.680997   6.009084   6.563077   6.010908
    19  C    5.018996   5.165895   6.524592   7.109473   6.545092
    20  C    4.524084   4.634890   5.934499   6.506727   5.982784
    21  C    3.451435   3.357594   4.595901   5.143157   4.686316
    22  N    3.731506   3.550728   4.519167   4.970144   4.588516
    23  H    1.017806   2.036158   3.265766   4.451034   4.767813
    24  H    1.014679   2.041317   2.565926   3.945684   4.737131
    25  H    2.626337   2.158585   1.086911   2.141524   3.403127
    26  H    4.544461   3.399885   2.139468   1.087911   2.164136
    27  H    6.238311   4.865212   4.057842   2.668036   2.169187
    28  H    7.555061   6.161132   5.824356   4.580808   3.419105
    29  H    7.128947   5.895150   6.134571   5.289749   3.891188
    30  H    5.166218   4.179446   4.904183   4.604829   3.415836
    31  H    3.767612   3.141793   3.945002   4.246909   3.888425
    32  H    5.762891   5.466088   6.287868   6.606931   6.215871
    33  H    6.915604   6.910529   8.019710   8.479259   7.970469
    34  H    6.573913   6.737345   8.052305   8.614886   8.037518
    35  H    6.000267   6.233105   7.599955   8.196282   7.610947
    36  H    5.271140   5.453340   6.698568   7.262423   6.744562
    37  H    4.251109   4.325281   5.279582   5.824814   5.539591
    38  H    3.150827   2.871524   3.664357   4.152061   3.969448
                    6          7          8          9         10
     6  C    0.000000
     7  C    1.393391   0.000000
     8  C    2.404189   1.387453   0.000000
     9  C    2.772543   2.409564   1.396802   0.000000
    10  C    2.447141   2.837714   2.460084   1.416174   0.000000
    11  C    3.747214   4.269774   3.788650   2.511446   1.432502
    12  C    4.987287   5.211372   4.375465   2.978687   2.540257
    13  C    5.748253   5.851136   4.919051   3.603241   3.406520
    14  C    5.633274   5.795412   5.024916   3.881089   3.610077
    15  C    6.787118   6.841868   6.033276   5.023806   4.925842
    16  C    7.873359   7.805625   6.831711   5.786279   5.852627
    17  C    7.970778   7.859167   6.763578   5.613334   5.742550
    18  C    7.022307   6.974693   5.888899   4.626423   4.671401
    19  C    7.553833   7.457858   6.309831   5.048716   5.164510
    20  C    7.008591   6.983008   5.910904   4.639169   4.655241
    21  C    5.781540   5.920396   5.010100   3.683525   3.434050
    22  N    5.606323   5.815284   5.071175   3.909043   3.577639
    23  H    6.159894   6.856011   6.391612   5.065432   4.037966
    24  H    6.116517   7.096633   6.956551   5.786607   4.499835
    25  H    4.568012   5.813950   6.124294   5.318109   3.904359
    26  H    2.666837   4.056666   4.836109   4.580087   3.426536
    27  H    1.087995   2.139134   3.381265   3.860391   3.435350
    28  H    2.154736   1.086449   2.149643   3.396615   3.924154
    29  H    3.392738   2.151169   1.086668   2.154528   3.437820
    30  H    3.860631   3.379963   2.133176   1.088682   2.178741
    31  H    4.863352   5.186844   4.644896   3.604550   3.100345
    32  H    6.991782   7.083810   6.416594   5.554557   5.416427
    33  H    8.796167   8.685400   7.716992   6.752794   6.870725
    34  H    8.960657   8.780158   7.619246   6.499190   6.715227
    35  H    8.581984   8.409352   7.203821   6.004348   6.219445
    36  H    7.719733   7.649816   6.571229   5.383081   5.462284
    37  H    6.546908   6.757258   6.014067   4.892789   4.583073
    38  H    5.061166   5.488711   4.969534   3.847301   3.195596
                   11         12         13         14         15
    11  C    0.000000
    12  C    1.492039   0.000000
    13  C    2.539464   1.432962   0.000000
    14  C    2.978033   2.512620   1.416627   0.000000
    15  C    4.374814   3.789638   2.460408   1.396812   0.000000
    16  C    5.210445   4.270218   2.837706   2.409500   1.387438
    17  C    4.986313   3.747267   2.447010   2.772604   2.404261
    18  C    3.828314   2.456575   1.416695   2.418340   2.804809
    19  C    4.300646   2.808876   2.435781   3.705815   4.203377
    20  C    3.793268   2.430167   2.818110   4.233169   5.074027
    21  C    2.517590   1.419169   2.467581   3.789225   4.926659
    22  N    2.905458   2.471949   3.770212   4.982131   6.217444
    23  H    2.622635   2.519771   2.988766   3.478576   4.550848
    24  H    3.312272   3.852708   4.422613   4.568196   5.627002
    25  H    3.420294   4.670418   5.512150   5.476391   6.684327
    26  H    3.896819   5.388459   6.254439   6.077338   7.293409
    27  H    4.623622   5.954409   6.725323   6.527182   7.653653
    28  H    5.356126   6.273896   6.869128   6.762921   7.728713
    29  H    4.663507   5.002197   5.406154   5.552204   6.412251
    30  H    2.771424   2.647202   3.090199   3.602657   4.641874
    31  H    2.648368   2.774217   2.179998   1.088577   2.132214
    32  H    5.002706   4.665421   3.438763   2.155328   1.086795
    33  H    6.273214   5.356691   3.924277   3.396854   2.149993
    34  H    5.953426   4.623445   3.435219   3.860612   3.381562
    35  H    5.387828   3.896346   3.426933   4.581125   4.837190
    36  H    4.669203   3.418643   3.904372   5.318805   6.125170
    37  H    3.851925   3.309597   4.496479   5.782202   6.951877
    38  H    2.514720   2.611766   4.024977   5.051670   6.377093
                   16         17         18         19         20
    16  C    0.000000
    17  C    1.393360   0.000000
    18  C    2.436258   1.405215   0.000000
    19  C    3.708284   2.427659   1.398787   0.000000
    20  C    4.864588   3.708106   2.428612   1.393218   0.000000
    21  C    5.104580   4.232638   2.827734   2.426150   1.396150
    22  N    6.492131   5.638266   4.233638   3.694413   2.407560
    23  H    5.125146   4.817235   3.827108   4.210816   3.898025
    24  H    6.429634   6.341238   5.430344   5.882589   5.474607
    25  H    7.750931   7.794782   6.794388   7.291934   6.692367
    26  H    8.485056   8.631148   7.639068   8.196688   7.572724
    27  H    8.804451   8.968227   8.036249   8.587972   8.015116
    28  H    8.685740   8.780343   7.950684   8.426369   7.964137
    29  H    7.067388   6.959805   6.182815   6.536416   6.220161
    30  H    5.174671   4.837971   3.859017   4.185621   3.884362
    31  H    3.379244   3.860569   3.416635   4.606106   4.905889
    32  H    2.150633   3.392508   3.891562   5.290141   6.135234
    33  H    1.086583   2.154476   3.418923   4.580388   5.823994
    34  H    2.139402   1.088148   2.168955   2.667444   4.057233
    35  H    4.057562   2.667726   2.164765   1.087902   2.138920
    36  H    5.814774   4.568883   3.403749   2.142541   1.086894
    37  H    7.092500   6.113558   4.734858   3.945909   2.567683
    38  H    6.841435   6.146443   4.755460   4.441812   3.259460
                   21         22         23         24         25
    21  C    0.000000
    22  N    1.410610   0.000000
    23  H    3.052069   3.668174   0.000000
    24  H    4.455009   4.711327   1.683563   0.000000
    25  H    5.386184   5.246232   3.593265   2.387584   0.000000
    26  H    6.198798   5.928138   5.378781   4.628228   2.439953
    27  H    6.746256   6.484178   6.868026   6.587011   4.726677
    28  H    6.945212   6.792448   7.938273   8.132132   6.718202
    29  H    5.516185   5.624418   7.211255   7.912023   7.193979
    30  H    3.189660   3.648172   5.045303   6.051737   5.980561
    31  H    4.181028   5.168434   3.489784   4.210534   4.731947
    32  H    5.895625   7.130575   5.220129   6.056044   6.944375
    33  H    6.160455   7.555839   6.097865   7.346936   8.703938
    34  H    4.864285   6.238957   5.646545   7.220174   8.784507
    35  H    3.399257   4.545374   5.146766   6.829413   8.344278
    36  H    2.157385   2.626344   4.701954   6.212956   7.413381
    37  H    2.040657   1.013938   4.141155   5.176310   5.886695
    38  H    2.028427   1.019080   3.354823   4.073785   4.336346
                   26         27         28         29         30
    26  H    0.000000
    27  H    2.443255   0.000000
    28  H    4.742333   2.459763   0.000000
    29  H    5.906356   4.279943   2.481987   0.000000
    30  H    5.551289   4.948233   4.273949   2.443662   0.000000
    31  H    5.161233   5.671278   6.147753   5.316705   3.642309
    32  H    7.434586   7.766019   7.902313   6.807610   5.317272
    33  H    9.428816   9.705222   9.515902   7.883376   6.134589
    34  H    9.672102   9.977764   9.677640   7.720276   5.636619
    35  H    9.283395   9.628484   9.343094   7.322445   5.071132
    36  H    8.299187   8.711465   8.590573   6.807918   4.619615
    37  H    6.738970   7.387347   7.705476   6.509977   4.571808
    38  H    5.059088   5.843753   6.481723   5.682177   3.866850
                   31         32         33         34         35
    31  H    0.000000
    32  H    2.443398   0.000000
    33  H    4.273391   2.481518   0.000000
    34  H    4.948333   4.279774   2.459599   0.000000
    35  H    5.552921   5.907404   4.742857   2.443715   0.000000
    36  H    5.982340   7.195230   6.718928   4.727440   2.440676
    37  H    6.048251   7.907497   8.127846   6.584568   4.628728
    38  H    5.033743   7.197467   7.923529   6.855117   5.370069
                   36         37         38
    36  H    0.000000
    37  H    2.390665   0.000000
    38  H    3.589319   1.680931   0.000000
 Stoichiometry    C20H16N2
 Framework group  C1[X(C20H16N2)]
 Deg. of freedom   108
 Full point group                 C1      NOp   1
 Largest Abelian subgroup         C1      NOp   1
 Largest concise Abelian subgroup C1      NOp   1
                         Standard orientation:                         
 ---------------------------------------------------------------------
 Center     Atomic      Atomic             Coordinates (Angstroms)
 Number     Number       Type             X           Y           Z
 ---------------------------------------------------------------------
      1          7           0        0.131184    2.480594   -1.775700
      2          6           0        1.025431    1.482682   -1.334347
      3          6           0        2.338670    1.523124   -1.807306
      4          6           0        3.300813    0.640082   -1.321954
      5          6           0        2.988611   -0.280115   -0.315740
      6          6           0        3.974799   -1.161141    0.159891
      7          6           0        3.693477   -2.074503    1.173877
      8          6           0        2.422388   -2.114675    1.728624
      9          6           0        1.433274   -1.244309    1.264758
     10          6           0        1.681542   -0.309927    0.229943
     11          6           0        0.693048    0.593784   -0.278240
     12          6           0       -0.690589    0.597480    0.280078
     13          6           0       -1.690842   -0.280954   -0.250232
     14          6           0       -1.460335   -1.179480   -1.320910
     15          6           0       -2.463073   -2.019800   -1.810257
     16          6           0       -3.728401   -1.989004   -1.241944
     17          6           0       -3.988451   -1.120280   -0.184047
     18          6           0       -2.988867   -0.269294    0.317235
     19          6           0       -3.271187    0.583834    1.389183
     20          6           0       -2.296889    1.440435    1.897155
     21          6           0       -1.024921    1.498331    1.324458
     22          7           0       -0.051210    2.306898    1.947296
     23          1           0       -0.844926    2.229959   -1.633151
     24          1           0        0.306318    2.792301   -2.725300
     25          1           0        2.625546    2.248408   -2.564301
     26          1           0        4.307776    0.690012   -1.730711
     27          1           0        4.979457   -1.139457   -0.257150
     28          1           0        4.467345   -2.747584    1.532293
     29          1           0        2.193651   -2.817633    2.525102
     30          1           0        0.450883   -1.300055    1.730621
     31          1           0       -0.479808   -1.237117   -1.790212
     32          1           0       -2.248428   -2.697714   -2.632135
     33          1           0       -4.511888   -2.642111   -1.616461
     34          1           0       -4.985261   -1.114612    0.252306
     35          1           0       -4.256012    0.583275    1.851406
     36          1           0       -2.540768    2.069363    2.749394
     37          1           0       -0.432946    3.137325    2.386317
     38          1           0        0.718246    2.535568    1.319465
 ---------------------------------------------------------------------
 Rotational constants (GHZ):           0.4521240           0.2244910           0.2108504
 Standard basis: 6-31G(d,p) (6D, 7F)
 There are   410 symmetry adapted cartesian basis functions of A   symmetry.
 There are   410 symmetry adapted basis functions of A   symmetry.
   410 basis functions,   728 primitive gaussians,   410 cartesian basis functions
    75 alpha electrons       75 beta electrons
       nuclear repulsion energy      1671.8384508285 Hartrees.
 NAtoms=   38 NActive=   38 NUniq=   38 SFac= 1.00D+00 NAtFMM=   60 NAOKFM=F Big=F
 Integral buffers will be    131072 words long.
 Raffenetti 2 integral format.
 Two-electron integral symmetry is turned on.
 Force inversion solution in PCM.
 ------------------------------------------------------------------------------
 Polarizable Continuum Model (PCM)
 =================================
 Model                : PCM.
 Atomic radii         : UFF (Universal Force Field).
 Polarization charges : Total charges.
 Charge compensation  : None.
 Solution method      : Matrix inversion.
 Cavity type          : Scaled VdW (van der Waals Surface) (Alpha=1.100).
 Cavity algorithm     : GePol (No added spheres)
                        Default sphere list used, NSphG=   38.
                        Lebedev-Laikov grids with approx.  5.0 points / Ang**2.
                        Smoothing algorithm: York/Karplus (Gamma=1.0000).
                        Polarization charges: spherical gaussians, with
                                              point-specific exponents (IZeta= 3).
                        Self-potential: point-specific (ISelfS= 7).
                        Self-field    : sphere-specific E.n sum rule (ISelfD= 2).
 1st derivatives      : Analytical E(r).r(x)/FMM algorithm (CHGder, D1EAlg=3).
                        Cavity 1st derivative terms included.
 2nd derivatives      : Analytical E(r).r(xy)/FMM algorithm (CHGder, D2EAlg=3).
                        Cavity 2nd derivative terms included.
 Solvent              : Water, Eps=  78.355300 Eps(inf)=   1.777849
 ------------------------------------------------------------------------------
 One-electron integrals computed using PRISM.
 NBasis=   410 RedAO= T EigKep=  2.26D-04  NBF=   410
 NBsUse=   410 1.00D-06 EigRej= -1.00D+00 NBFU=   410
 ExpMin= 1.61D-01 ExpMax= 4.17D+03 ExpMxC= 6.27D+02 IAcc=3 IRadAn=         5 AccDes= 0.00D+00
 Harris functional with IExCor=  402 and IRadAn=       5 diagonalized for initial guess.
 HarFok:  IExCor=  402 AccDes= 0.00D+00 IRadAn=         5 IDoV= 1 UseB2=F ITyADJ=14
 ICtDFT=  3500011 ScaDFX=  1.000000  1.000000  1.000000  1.000000
 FoFCou: FMM=F IPFlag=           0 FMFlag=      100000 FMFlg1=           0
         NFxFlg=           0 DoJE=T BraDBF=F KetDBF=T FulRan=T
         wScrn=  0.000000 ICntrl=       500 IOpCl=  0 I1Cent=   200000004 NGrid=           0
         NMat0=    1 NMatS0=      1 NMatT0=    0 NMatD0=    1 NMtDS0=    0 NMtDT0=    0
 Petite list used in FoFCou.
 Requested convergence on RMS density matrix=1.00D-08 within  32 cycles.
 Requested convergence on MAX density matrix=1.00D-06.
 Requested convergence on             energy=1.00D-06.
 No special actions if energy rises.
 Inv3:  Mode=1 IEnd=    22227852.
 Iteration    1 A*A^-1 deviation from unit magnitude is 3.33D-15 for    181.
 Iteration    1 A*A^-1 deviation from orthogonality  is 2.11D-15 for   2543   1577.
 Iteration    1 A^-1*A deviation from unit magnitude is 3.11D-15 for    181.
 Iteration    1 A^-1*A deviation from orthogonality  is 1.17D-14 for   1416   1365.
 Error on total polarization charges =  0.01102
 SCF Done:  E(RB3LYP) =  -881.331772132     A.U. after   13 cycles
            NFock= 13  Conv=0.32D-08     -V/T= 2.0096
 QCSCF skips out because SCF is already converged.
 DoSCS=F DFT=T ScalE2(SS,OS)=  1.000000  1.000000
 Range of M.O.s used for correlation:     1   410
 NBasis=   410 NAE=    75 NBE=    75 NFC=     0 NFV=     0
 NROrb=    410 NOA=    75 NOB=    75 NVA=   335 NVB=   335
 Symmetrizing basis deriv contribution to polar:
 IMax=3 JMax=2 DiffMx= 0.00D+00
 G2DrvN: will do    39 centers at a time, making    1 passes.
 Calling FoFCou, ICntrl=  3107 FMM=F I1Cent=   0 AccDes= 0.00D+00.
 NEqPCM:  Using equilibrium solvation (IEInf=0, Eps=  78.3553, EpsInf=   1.7778)
 G2PCM: DoFxE=T DoFxN=T DoGrad=T DoDP/DQ/DG/TGxP=FFFF NFrqRd=   0 IEInf=0 SqF1=F DoCFld=F IF1Alg=4.
 End of G2Drv F.D. properties file   721 does not exist.
 End of G2Drv F.D. properties file   722 does not exist.
 End of G2Drv F.D. properties file   788 does not exist.
          IDoAtm=11111111111111111111111111111111111111
 NEqPCM:  Using equilibrium solvation (IEInf=0, Eps=  78.3553, EpsInf=   1.7778)
          Differentiating once with respect to nuclear coordinates.
 CalDSu exits because no D1Ps are significant.
          There are   117 degrees of freedom in the 1st order CPHF.  IDoFFX=6 NUNeed=     0.
    111 vectors produced by pass  0 Test12= 2.51D-14 1.00D-09 XBig12= 1.30D-01 9.83D-02.
 AX will form   111 AO Fock derivatives at one time.
    111 vectors produced by pass  1 Test12= 2.51D-14 1.00D-09 XBig12= 3.11D-02 3.16D-02.
    111 vectors produced by pass  2 Test12= 2.51D-14 1.00D-09 XBig12= 2.37D-04 2.17D-03.
    111 vectors produced by pass  3 Test12= 2.51D-14 1.00D-09 XBig12= 7.66D-07 8.95D-05.
    111 vectors produced by pass  4 Test12= 2.51D-14 1.00D-09 XBig12= 1.19D-09 3.39D-06.
     87 vectors produced by pass  5 Test12= 2.51D-14 1.00D-09 XBig12= 1.43D-12 9.76D-08.
     18 vectors produced by pass  6 Test12= 2.51D-14 1.00D-09 XBig12= 1.73D-15 2.51D-09.
 InvSVY:  IOpt=1 It=  1 EMax= 5.55D-16
 Solved reduced A of dimension   660 with   117 vectors.
 End of Minotr F.D. properties file   721 does not exist.
 End of Minotr F.D. properties file   722 does not exist.
 End of Minotr F.D. properties file   788 does not exist.

 **********************************************************************

            Population analysis using the SCF density.

 **********************************************************************

 Orbital symmetries:
       Occupied  (A) (A) (A) (A) (A) (A) (A) (A) (A) (A) (A) (A)
                 (A) (A) (A) (A) (A) (A) (A) (A) (A) (A) (A) (A)
                 (A) (A) (A) (A) (A) (A) (A) (A) (A) (A) (A) (A)
                 (A) (A) (A) (A) (A) (A) (A) (A) (A) (A) (A) (A)
                 (A) (A) (A) (A) (A) (A) (A) (A) (A) (A) (A) (A)
                 (A) (A) (A) (A) (A) (A) (A) (A) (A) (A) (A) (A)
                 (A) (A) (A)
       Virtual   (A) (A) (A) (A) (A) (A) (A) (A) (A) (A) (A) (A)
                 (A) (A) (A) (A) (A) (A) (A) (A) (A) (A) (A) (A)
                 (A) (A) (A) (A) (A) (A) (A) (A) (A) (A) (A) (A)
                 (A) (A) (A) (A) (A) (A) (A) (A) (A) (A) (A) (A)
                 (A) (A) (A) (A) (A) (A) (A) (A) (A) (A) (A) (A)
                 (A) (A) (A) (A) (A) (A) (A) (A) (A) (A) (A) (A)
                 (A) (A) (A) (A) (A) (A) (A) (A) (A) (A) (A) (A)
                 (A) (A) (A) (A) (A) (A) (A) (A) (A) (A) (A) (A)
                 (A) (A) (A) (A) (A) (A) (A) (A) (A) (A) (A) (A)
                 (A) (A) (A) (A) (A) (A) (A) (A) (A) (A) (A) (A)
                 (A) (A) (A) (A) (A) (A) (A) (A) (A) (A) (A) (A)
                 (A) (A) (A) (A) (A) (A) (A) (A) (A) (A) (A) (A)
                 (A) (A) (A) (A) (A) (A) (A) (A) (A) (A) (A) (A)
                 (A) (A) (A) (A) (A) (A) (A) (A) (A) (A) (A) (A)
                 (A) (A) (A) (A) (A) (A) (A) (A) (A) (A) (A) (A)
                 (A) (A) (A) (A) (A) (A) (A) (A) (A) (A) (A) (A)
                 (A) (A) (A) (A) (A) (A) (A) (A) (A) (A) (A) (A)
                 (A) (A) (A) (A) (A) (A) (A) (A) (A) (A) (A) (A)
                 (A) (A) (A) (A) (A) (A) (A) (A) (A) (A) (A) (A)
                 (A) (A) (A) (A) (A) (A) (A) (A) (A) (A) (A) (A)
                 (A) (A) (A) (A) (A) (A) (A) (A) (A) (A) (A) (A)
                 (A) (A) (A) (A) (A) (A) (A) (A) (A) (A) (A) (A)
                 (A) (A) (A) (A) (A) (A) (A) (A) (A) (A) (A) (A)
                 (A) (A) (A) (A) (A) (A) (A) (A) (A) (A) (A) (A)
                 (A) (A) (A) (A) (A) (A) (A) (A) (A) (A) (A) (A)
                 (A) (A) (A) (A) (A) (A) (A) (A) (A) (A) (A) (A)
                 (A) (A) (A) (A) (A) (A) (A) (A) (A) (A) (A) (A)
                 (A) (A) (A) (A) (A) (A) (A) (A) (A) (A) (A)
 The electronic state is 1-A.
 Alpha  occ. eigenvalues --  -14.33935 -14.33870 -10.23223 -10.23176 -10.19863
 Alpha  occ. eigenvalues --  -10.19808 -10.19238 -10.19209 -10.19192 -10.19187
 Alpha  occ. eigenvalues --  -10.18976 -10.18960 -10.18851 -10.18838 -10.18806
 Alpha  occ. eigenvalues --  -10.18788 -10.18783 -10.18759 -10.18592 -10.18560
 Alpha  occ. eigenvalues --  -10.18389 -10.18378  -0.92154  -0.91008  -0.86886
 Alpha  occ. eigenvalues --   -0.86533  -0.81002  -0.80696  -0.78829  -0.75436
 Alpha  occ. eigenvalues --   -0.73520  -0.73473  -0.71865  -0.69340  -0.63865
 Alpha  occ. eigenvalues --   -0.62297  -0.60512  -0.60423  -0.60411  -0.57154
 Alpha  occ. eigenvalues --   -0.52552  -0.52467  -0.51671  -0.50956  -0.50804
 Alpha  occ. eigenvalues --   -0.48808  -0.47330  -0.47305  -0.44562  -0.44242
 Alpha  occ. eigenvalues --   -0.43834  -0.42460  -0.42148  -0.42033  -0.41017
 Alpha  occ. eigenvalues --   -0.40257  -0.40156  -0.39069  -0.39013  -0.38128
 Alpha  occ. eigenvalues --   -0.36676  -0.35676  -0.35014  -0.34152  -0.33963
 Alpha  occ. eigenvalues --   -0.33765  -0.31924  -0.29635  -0.29525  -0.27583
 Alpha  occ. eigenvalues --   -0.27055  -0.22798  -0.22764  -0.19661  -0.19570
 Alpha virt. eigenvalues --   -0.04200  -0.04142  -0.00103   0.00359   0.03098
 Alpha virt. eigenvalues --    0.03163   0.09123   0.09575   0.10231   0.10570
 Alpha virt. eigenvalues --    0.10768   0.11201   0.11903   0.12071   0.14788
 Alpha virt. eigenvalues --    0.15416   0.15830   0.16335   0.17536   0.17771
 Alpha virt. eigenvalues --    0.18709   0.18827   0.19862   0.20042   0.20511
 Alpha virt. eigenvalues --    0.20637   0.23526   0.25542   0.26218   0.27169
 Alpha virt. eigenvalues --    0.27245   0.29348   0.30785   0.31261   0.31553
 Alpha virt. eigenvalues --    0.33339   0.33563   0.34317   0.34537   0.35308
 Alpha virt. eigenvalues --    0.38039   0.38473   0.41895   0.47940   0.48558
 Alpha virt. eigenvalues --    0.49796   0.50192   0.50578   0.51076   0.51172
 Alpha virt. eigenvalues --    0.51942   0.52539   0.52912   0.53844   0.53906
 Alpha virt. eigenvalues --    0.54800   0.55213   0.55751   0.55994   0.56280
 Alpha virt. eigenvalues --    0.57275   0.58357   0.58878   0.59008   0.59470
 Alpha virt. eigenvalues --    0.59681   0.60062   0.60887   0.61081   0.61289
 Alpha virt. eigenvalues --    0.61553   0.61750   0.62007   0.62812   0.63083
 Alpha virt. eigenvalues --    0.63771   0.64140   0.64795   0.65532   0.67164
 Alpha virt. eigenvalues --    0.67551   0.67775   0.68508   0.69542   0.70986
 Alpha virt. eigenvalues --    0.74366   0.75776   0.76401   0.77588   0.78276
 Alpha virt. eigenvalues --    0.79480   0.80858   0.81466   0.81520   0.82306
 Alpha virt. eigenvalues --    0.82615   0.82973   0.83288   0.83783   0.84074
 Alpha virt. eigenvalues --    0.85647   0.85843   0.86218   0.86519   0.87195
 Alpha virt. eigenvalues --    0.87587   0.88609   0.89904   0.90293   0.91799
 Alpha virt. eigenvalues --    0.92894   0.94685   0.95025   0.95106   0.96336
 Alpha virt. eigenvalues --    0.97097   0.97564   0.98002   1.00443   1.01546
 Alpha virt. eigenvalues --    1.02360   1.02945   1.05265   1.05675   1.07048
 Alpha virt. eigenvalues --    1.07796   1.08606   1.09650   1.12185   1.14059
 Alpha virt. eigenvalues --    1.15271   1.16687   1.17792   1.19012   1.19479
 Alpha virt. eigenvalues --    1.21636   1.23713   1.24467   1.24932   1.25419
 Alpha virt. eigenvalues --    1.26030   1.28533   1.29013   1.32300   1.33034
 Alpha virt. eigenvalues --    1.34695   1.34760   1.36706   1.37191   1.38106
 Alpha virt. eigenvalues --    1.38338   1.39222   1.39613   1.40507   1.41173
 Alpha virt. eigenvalues --    1.42199   1.42430   1.43914   1.44067   1.44794
 Alpha virt. eigenvalues --    1.46360   1.46572   1.50764   1.51660   1.54225
 Alpha virt. eigenvalues --    1.62477   1.63037   1.66968   1.67626   1.72997
 Alpha virt. eigenvalues --    1.74552   1.75260   1.76807   1.77281   1.79662
 Alpha virt. eigenvalues --    1.80529   1.81327   1.81955   1.82671   1.83416
 Alpha virt. eigenvalues --    1.85106   1.85420   1.86136   1.86270   1.87252
 Alpha virt. eigenvalues --    1.89060   1.89398   1.89851   1.90856   1.91130
 Alpha virt. eigenvalues --    1.91339   1.92826   1.93834   1.94248   1.94934
 Alpha virt. eigenvalues --    1.96423   1.97003   1.98217   1.99298   1.99793
 Alpha virt. eigenvalues --    2.00539   2.01233   2.01585   2.01855   2.05261
 Alpha virt. eigenvalues --    2.05935   2.06052   2.07628   2.09809   2.10267
 Alpha virt. eigenvalues --    2.15943   2.17009   2.17980   2.18758   2.19991
 Alpha virt. eigenvalues --    2.20661   2.21131   2.24746   2.25451   2.25582
 Alpha virt. eigenvalues --    2.27239   2.28576   2.28966   2.29349   2.30984
 Alpha virt. eigenvalues --    2.31932   2.32315   2.34434   2.34859   2.35253
 Alpha virt. eigenvalues --    2.35885   2.37462   2.38455   2.38644   2.39259
 Alpha virt. eigenvalues --    2.39431   2.40850   2.41700   2.43670   2.43990
 Alpha virt. eigenvalues --    2.44951   2.45300   2.46237   2.46847   2.47463
 Alpha virt. eigenvalues --    2.47956   2.49213   2.50366   2.51872   2.52348
 Alpha virt. eigenvalues --    2.53727   2.56341   2.56740   2.57237   2.57600
 Alpha virt. eigenvalues --    2.58130   2.58361   2.60196   2.60380   2.61623
 Alpha virt. eigenvalues --    2.62163   2.62748   2.64216   2.65286   2.66274
 Alpha virt. eigenvalues --    2.66594   2.69973   2.70474   2.71142   2.72504
 Alpha virt. eigenvalues --    2.73524   2.75023   2.75722   2.77611   2.78331
 Alpha virt. eigenvalues --    2.81587   2.82075   2.83363   2.83652   2.89105
 Alpha virt. eigenvalues --    2.93457   2.97046   2.99917   3.02517   3.03531
 Alpha virt. eigenvalues --    3.04230   3.08526   3.09009   3.11192   3.17965
 Alpha virt. eigenvalues --    3.19102   3.20375   3.20761   3.24215   3.24416
 Alpha virt. eigenvalues --    3.24852   3.25866   3.27937   3.28526   3.32180
 Alpha virt. eigenvalues --    3.34718   3.34773   3.35748   3.40139   3.40224
 Alpha virt. eigenvalues --    3.47693   3.48181   3.49251   3.49858   3.72045
 Alpha virt. eigenvalues --    3.74280   3.86455   3.87090   4.08379   4.10576
 Alpha virt. eigenvalues --    4.12768   4.13327   4.14130   4.14508   4.16367
 Alpha virt. eigenvalues --    4.16667   4.16796   4.18490   4.25493   4.25627
 Alpha virt. eigenvalues --    4.37917   4.38361   4.42155   4.42275   4.52347
 Alpha virt. eigenvalues --    4.54762   4.63994   4.66754   4.91784   4.96070
          Condensed to atoms (all electrons):
               1          2          3          4          5          6
     1  N    6.854589   0.299765  -0.072614   0.004757   0.000391   0.000001
     2  C    0.299765   4.748953   0.444113  -0.006589  -0.053863  -0.000560
     3  C   -0.072614   0.444113   5.021405   0.482430  -0.002235   0.008784
     4  C    0.004757  -0.006589   0.482430   5.079128   0.431557  -0.093697
     5  C    0.000391  -0.053863  -0.002235   0.431557   4.811383   0.449470
     6  C    0.000001  -0.000560   0.008784  -0.093697   0.449470   5.070641
     7  C   -0.000000   0.000057  -0.000445   0.008751  -0.011074   0.500018
     8  C    0.000001  -0.000260   0.000073  -0.000700  -0.039547  -0.025863
     9  C   -0.000056   0.011903  -0.001627   0.017588  -0.046815  -0.076064
    10  C    0.003844   0.010268  -0.051655  -0.025583   0.450626  -0.025250
    11  C   -0.069771   0.457587  -0.021680  -0.075552  -0.019503   0.015637
    12  C   -0.014109  -0.077742   0.007819  -0.000441   0.008958  -0.000134
    13  C   -0.001932  -0.003486   0.000176   0.000033   0.000062  -0.000006
    14  C    0.000134   0.000266  -0.000130  -0.000034  -0.000156   0.000001
    15  C    0.000007   0.000062  -0.000003  -0.000000  -0.000003   0.000000
    16  C    0.000000  -0.000002   0.000000   0.000000   0.000000  -0.000000
    17  C    0.000002  -0.000005  -0.000000  -0.000000  -0.000000   0.000000
    18  C   -0.000086   0.000010   0.000004   0.000000   0.000005  -0.000000
    19  C    0.000004   0.000024   0.000000   0.000000   0.000000  -0.000000
    20  C   -0.000046   0.000082   0.000004  -0.000000   0.000005  -0.000000
    21  C    0.000955  -0.003858   0.000031   0.000056  -0.000142  -0.000005
    22  N   -0.000483  -0.002196  -0.000119   0.000011  -0.000154   0.000002
    23  H    0.332241  -0.022571   0.006643  -0.000221   0.000016   0.000000
    24  H    0.342769  -0.024939  -0.010677   0.000004  -0.000029  -0.000000
    25  H   -0.006717  -0.037140   0.359932  -0.027822   0.002280  -0.000236
    26  H   -0.000127   0.003460  -0.037725   0.367440  -0.038412  -0.007987
    27  H   -0.000000   0.000008   0.000327  -0.008388  -0.040411   0.370114
    28  H    0.000000  -0.000000   0.000004  -0.000214   0.002744  -0.033827
    29  H   -0.000000   0.000002  -0.000000   0.000009   0.000999   0.004401
    30  H   -0.000002  -0.000015   0.000018  -0.000212   0.005684   0.000587
    31  H   -0.000258   0.002068   0.000139   0.000006  -0.000018  -0.000006
    32  H   -0.000000  -0.000000  -0.000000  -0.000000  -0.000000   0.000000
    33  H   -0.000000   0.000000   0.000000  -0.000000   0.000000   0.000000
    34  H   -0.000000   0.000000   0.000000  -0.000000   0.000000  -0.000000
    35  H   -0.000000   0.000000   0.000000  -0.000000   0.000000   0.000000
    36  H    0.000003  -0.000001  -0.000000   0.000000  -0.000000   0.000000
    37  H   -0.000030   0.000054  -0.000004  -0.000001   0.000002  -0.000000
    38  H    0.001080   0.003765  -0.000095  -0.000097   0.000010  -0.000002
               7          8          9         10         11         12
     1  N   -0.000000   0.000001  -0.000056   0.003844  -0.069771  -0.014109
     2  C    0.000057  -0.000260   0.011903   0.010268   0.457587  -0.077742
     3  C   -0.000445   0.000073  -0.001627  -0.051655  -0.021680   0.007819
     4  C    0.008751  -0.000700   0.017588  -0.025583  -0.075552  -0.000441
     5  C   -0.011074  -0.039547  -0.046815   0.450626  -0.019503   0.008958
     6  C    0.500018  -0.025863  -0.076064  -0.025250   0.015637  -0.000134
     7  C    4.888880   0.502505  -0.024660  -0.039358  -0.000840  -0.000011
     8  C    0.502505   4.866812   0.505338  -0.008130   0.008450   0.000437
     9  C   -0.024660   0.505338   5.130135   0.446086  -0.104239  -0.018283
    10  C   -0.039358  -0.008130   0.446086   4.784377   0.401922  -0.049457
    11  C   -0.000840   0.008450  -0.104239   0.401922   5.366683   0.295590
    12  C   -0.000011   0.000437  -0.018283  -0.049457   0.295590   5.358389
    13  C   -0.000001   0.000044  -0.000645  -0.004975  -0.056067   0.407143
    14  C    0.000001  -0.000004   0.001077  -0.000014  -0.018902  -0.104510
    15  C    0.000000  -0.000001  -0.000014   0.000043   0.000432   0.008332
    16  C   -0.000000   0.000000   0.000002  -0.000001  -0.000002  -0.000796
    17  C   -0.000000   0.000000   0.000001  -0.000008  -0.000130   0.015490
    18  C    0.000000  -0.000002  -0.000231  -0.000052   0.008812  -0.020645
    19  C    0.000000  -0.000001  -0.000035   0.000066  -0.000469  -0.074927
    20  C    0.000000  -0.000005  -0.000259   0.000137   0.007456  -0.020138
    21  C    0.000000   0.000025   0.000183  -0.002380  -0.076087   0.456511
    22  N   -0.000000   0.000012   0.000822  -0.000530  -0.010549  -0.069368
    23  H    0.000000  -0.000000  -0.000003  -0.000211  -0.015677   0.015541
    24  H    0.000000  -0.000000   0.000002  -0.000016   0.005938   0.000060
    25  H    0.000004  -0.000000   0.000018   0.001365   0.003633  -0.000195
    26  H    0.000252   0.000018  -0.000220   0.003926   0.000962   0.000010
    27  H   -0.042899   0.004725   0.000539   0.003947  -0.000182   0.000002
    28  H    0.367741  -0.040030   0.004297   0.001134   0.000014   0.000000
    29  H   -0.040541   0.370262  -0.034343   0.002775  -0.000182  -0.000001
    30  H    0.004760  -0.045785   0.360638  -0.030144  -0.015411   0.012252
    31  H    0.000001  -0.000016   0.000140   0.001329   0.013126  -0.015190
    32  H    0.000000  -0.000000  -0.000001  -0.000001  -0.000003  -0.000180
    33  H   -0.000000  -0.000000  -0.000000   0.000000   0.000000   0.000014
    34  H    0.000000  -0.000000  -0.000000   0.000000   0.000002  -0.000185
    35  H   -0.000000   0.000000   0.000000  -0.000000   0.000011   0.000978
    36  H   -0.000000   0.000000   0.000002  -0.000002  -0.000186   0.003701
    37  H   -0.000000  -0.000000  -0.000006   0.000016   0.000040   0.005884
    38  H    0.000001  -0.000008  -0.000123   0.000518   0.011888  -0.014935
              13         14         15         16         17         18
     1  N   -0.001932   0.000134   0.000007   0.000000   0.000002  -0.000086
     2  C   -0.003486   0.000266   0.000062  -0.000002  -0.000005   0.000010
     3  C    0.000176  -0.000130  -0.000003   0.000000  -0.000000   0.000004
     4  C    0.000033  -0.000034  -0.000000   0.000000  -0.000000   0.000000
     5  C    0.000062  -0.000156  -0.000003   0.000000  -0.000000   0.000005
     6  C   -0.000006   0.000001   0.000000  -0.000000   0.000000  -0.000000
     7  C   -0.000001   0.000001   0.000000  -0.000000  -0.000000   0.000000
     8  C    0.000044  -0.000004  -0.000001   0.000000   0.000000  -0.000002
     9  C   -0.000645   0.001077  -0.000014   0.000002   0.000001  -0.000231
    10  C   -0.004975  -0.000014   0.000043  -0.000001  -0.000008  -0.000052
    11  C   -0.056067  -0.018902   0.000432  -0.000002  -0.000130   0.008812
    12  C    0.407143  -0.104510   0.008332  -0.000796   0.015490  -0.020645
    13  C    4.792526   0.446746  -0.009034  -0.039014  -0.025567   0.449554
    14  C    0.446746   5.129121   0.506327  -0.025199  -0.075904  -0.045680
    15  C   -0.009034   0.506327   4.865787   0.502974  -0.026080  -0.039228
    16  C   -0.039014  -0.025199   0.502974   4.888463   0.500396  -0.011360
    17  C   -0.025567  -0.075904  -0.026080   0.500396   5.069763   0.449502
    18  C    0.449554  -0.045680  -0.039228  -0.011360   0.449502   4.808320
    19  C   -0.026248   0.017349  -0.000668   0.008702  -0.093127   0.433068
    20  C   -0.051501  -0.001532   0.000070  -0.000443   0.008754  -0.002986
    21  C    0.009680   0.011578  -0.000250   0.000054  -0.000550  -0.052264
    22  N    0.003992  -0.000057   0.000001  -0.000000   0.000001   0.000383
    23  H    0.003736   0.000500  -0.000012  -0.000001  -0.000008  -0.000152
    24  H    0.000043  -0.000026  -0.000001   0.000000   0.000000  -0.000002
    25  H   -0.000000   0.000001   0.000000  -0.000000   0.000000  -0.000000
    26  H    0.000000  -0.000000  -0.000000  -0.000000  -0.000000   0.000000
    27  H    0.000000  -0.000000  -0.000000   0.000000  -0.000000   0.000000
    28  H    0.000000  -0.000000  -0.000000  -0.000000   0.000000   0.000000
    29  H   -0.000000  -0.000001  -0.000000   0.000000   0.000000  -0.000000
    30  H    0.001232   0.000153  -0.000016  -0.000001  -0.000006   0.000116
    31  H   -0.031278   0.359829  -0.045166   0.004745   0.000585   0.005678
    32  H    0.002754  -0.034321   0.370295  -0.040479   0.004403   0.000996
    33  H    0.001134   0.004311  -0.040028   0.367689  -0.033817   0.002750
    34  H    0.003953   0.000548   0.004717  -0.042855   0.370055  -0.040401
    35  H    0.003918  -0.000221   0.000018   0.000252  -0.007973  -0.038430
    36  H    0.001347   0.000019  -0.000000   0.000004  -0.000236   0.002306
    37  H   -0.000011   0.000002  -0.000000   0.000000  -0.000000  -0.000029
    38  H   -0.000135  -0.000002  -0.000000   0.000000   0.000000   0.000013
              19         20         21         22         23         24
     1  N    0.000004  -0.000046   0.000955  -0.000483   0.332241   0.342769
     2  C    0.000024   0.000082  -0.003858  -0.002196  -0.022571  -0.024939
     3  C    0.000000   0.000004   0.000031  -0.000119   0.006643  -0.010677
     4  C    0.000000  -0.000000   0.000056   0.000011  -0.000221   0.000004
     5  C    0.000000   0.000005  -0.000142  -0.000154   0.000016  -0.000029
     6  C   -0.000000  -0.000000  -0.000005   0.000002   0.000000  -0.000000
     7  C    0.000000   0.000000   0.000000  -0.000000   0.000000   0.000000
     8  C   -0.000001  -0.000005   0.000025   0.000012  -0.000000  -0.000000
     9  C   -0.000035  -0.000259   0.000183   0.000822  -0.000003   0.000002
    10  C    0.000066   0.000137  -0.002380  -0.000530  -0.000211  -0.000016
    11  C   -0.000469   0.007456  -0.076087  -0.010549  -0.015677   0.005938
    12  C   -0.074927  -0.020138   0.456511  -0.069368   0.015541   0.000060
    13  C   -0.026248  -0.051501   0.009680   0.003992   0.003736   0.000043
    14  C    0.017349  -0.001532   0.011578  -0.000057   0.000500  -0.000026
    15  C   -0.000668   0.000070  -0.000250   0.000001  -0.000012  -0.000001
    16  C    0.008702  -0.000443   0.000054  -0.000000  -0.000001   0.000000
    17  C   -0.093127   0.008754  -0.000550   0.000001  -0.000008   0.000000
    18  C    0.433068  -0.002986  -0.052264   0.000383  -0.000152  -0.000002
    19  C    5.077698   0.482258  -0.006684   0.004766  -0.000045  -0.000001
    20  C    0.482258   5.015349   0.449820  -0.073519  -0.000111   0.000001
    21  C   -0.006684   0.449820   4.735569   0.306496   0.001418   0.000036
    22  N    0.004766  -0.073519   0.306496   6.844409  -0.000246   0.000001
    23  H   -0.000045  -0.000111   0.001418  -0.000246   0.431631  -0.027102
    24  H   -0.000001   0.000001   0.000036   0.000001  -0.027102   0.430289
    25  H   -0.000000  -0.000000  -0.000003   0.000001  -0.000040   0.004268
    26  H   -0.000000   0.000000  -0.000000   0.000000   0.000003  -0.000006
    27  H   -0.000000   0.000000   0.000000  -0.000000   0.000000  -0.000000
    28  H   -0.000000   0.000000   0.000000  -0.000000  -0.000000  -0.000000
    29  H   -0.000000  -0.000000   0.000000  -0.000000  -0.000000   0.000000
    30  H    0.000001   0.000300   0.000981  -0.000275  -0.000001   0.000000
    31  H   -0.000215   0.000020   0.000014  -0.000003  -0.000007  -0.000010
    32  H    0.000009  -0.000000   0.000002  -0.000000  -0.000000  -0.000000
    33  H   -0.000215   0.000004  -0.000001   0.000000  -0.000000  -0.000000
    34  H   -0.008371   0.000326   0.000009   0.000000   0.000000  -0.000000
    35  H    0.367432  -0.037669   0.003428  -0.000127   0.000000  -0.000000
    36  H   -0.027967   0.360403  -0.037764  -0.006725  -0.000005  -0.000000
    37  H    0.000010  -0.010722  -0.025450   0.343255  -0.000018   0.000000
    38  H   -0.000222   0.006390  -0.022947   0.334872  -0.000090   0.000015
              25         26         27         28         29         30
     1  N   -0.006717  -0.000127  -0.000000   0.000000  -0.000000  -0.000002
     2  C   -0.037140   0.003460   0.000008  -0.000000   0.000002  -0.000015
     3  C    0.359932  -0.037725   0.000327   0.000004  -0.000000   0.000018
     4  C   -0.027822   0.367440  -0.008388  -0.000214   0.000009  -0.000212
     5  C    0.002280  -0.038412  -0.040411   0.002744   0.000999   0.005684
     6  C   -0.000236  -0.007987   0.370114  -0.033827   0.004401   0.000587
     7  C    0.000004   0.000252  -0.042899   0.367741  -0.040541   0.004760
     8  C   -0.000000   0.000018   0.004725  -0.040030   0.370262  -0.045785
     9  C    0.000018  -0.000220   0.000539   0.004297  -0.034343   0.360638
    10  C    0.001365   0.003926   0.003947   0.001134   0.002775  -0.030144
    11  C    0.003633   0.000962  -0.000182   0.000014  -0.000182  -0.015411
    12  C   -0.000195   0.000010   0.000002   0.000000  -0.000001   0.012252
    13  C   -0.000000   0.000000   0.000000   0.000000  -0.000000   0.001232
    14  C    0.000001  -0.000000  -0.000000  -0.000000  -0.000001   0.000153
    15  C    0.000000  -0.000000  -0.000000  -0.000000  -0.000000  -0.000016
    16  C   -0.000000  -0.000000   0.000000  -0.000000   0.000000  -0.000001
    17  C    0.000000  -0.000000  -0.000000   0.000000   0.000000  -0.000006
    18  C   -0.000000   0.000000   0.000000   0.000000  -0.000000   0.000116
    19  C   -0.000000  -0.000000  -0.000000  -0.000000  -0.000000   0.000001
    20  C   -0.000000   0.000000   0.000000   0.000000  -0.000000   0.000300
    21  C   -0.000003  -0.000000   0.000000   0.000000   0.000000   0.000981
    22  N    0.000001   0.000000  -0.000000  -0.000000  -0.000000  -0.000275
    23  H   -0.000040   0.000003   0.000000  -0.000000  -0.000000  -0.000001
    24  H    0.004268  -0.000006  -0.000000  -0.000000   0.000000   0.000000
    25  H    0.603318  -0.005312  -0.000012  -0.000000  -0.000000   0.000000
    26  H   -0.005312   0.604344   0.005593  -0.000013   0.000000   0.000002
    27  H   -0.000012   0.005593   0.613556  -0.005551  -0.000202   0.000018
    28  H   -0.000000  -0.000013  -0.005551   0.614350  -0.005458  -0.000204
    29  H   -0.000000   0.000000  -0.000202  -0.005458   0.609513  -0.005803
    30  H    0.000000   0.000002   0.000018  -0.000204  -0.005803   0.616180
    31  H   -0.000001   0.000000   0.000000   0.000000  -0.000000   0.000007
    32  H    0.000000  -0.000000  -0.000000   0.000000   0.000000  -0.000000
    33  H    0.000000   0.000000  -0.000000   0.000000   0.000000   0.000000
    34  H   -0.000000   0.000000   0.000000  -0.000000  -0.000000   0.000000
    35  H   -0.000000  -0.000000   0.000000  -0.000000   0.000000  -0.000000
    36  H    0.000000  -0.000000  -0.000000   0.000000  -0.000000  -0.000001
    37  H    0.000000   0.000000   0.000000   0.000000   0.000000   0.000006
    38  H    0.000010   0.000000   0.000000   0.000000   0.000000   0.000027
              31         32         33         34         35         36
     1  N   -0.000258  -0.000000  -0.000000  -0.000000  -0.000000   0.000003
     2  C    0.002068  -0.000000   0.000000   0.000000   0.000000  -0.000001
     3  C    0.000139  -0.000000   0.000000   0.000000   0.000000  -0.000000
     4  C    0.000006  -0.000000  -0.000000  -0.000000  -0.000000   0.000000
     5  C   -0.000018  -0.000000   0.000000   0.000000   0.000000  -0.000000
     6  C   -0.000006   0.000000   0.000000  -0.000000   0.000000   0.000000
     7  C    0.000001   0.000000  -0.000000   0.000000  -0.000000  -0.000000
     8  C   -0.000016  -0.000000  -0.000000  -0.000000   0.000000   0.000000
     9  C    0.000140  -0.000001  -0.000000  -0.000000   0.000000   0.000002
    10  C    0.001329  -0.000001   0.000000   0.000000  -0.000000  -0.000002
    11  C    0.013126  -0.000003   0.000000   0.000002   0.000011  -0.000186
    12  C   -0.015190  -0.000180   0.000014  -0.000185   0.000978   0.003701
    13  C   -0.031278   0.002754   0.001134   0.003953   0.003918   0.001347
    14  C    0.359829  -0.034321   0.004311   0.000548  -0.000221   0.000019
    15  C   -0.045166   0.370295  -0.040028   0.004717   0.000018  -0.000000
    16  C    0.004745  -0.040479   0.367689  -0.042855   0.000252   0.000004
    17  C    0.000585   0.004403  -0.033817   0.370055  -0.007973  -0.000236
    18  C    0.005678   0.000996   0.002750  -0.040401  -0.038430   0.002306
    19  C   -0.000215   0.000009  -0.000215  -0.008371   0.367432  -0.027967
    20  C    0.000020  -0.000000   0.000004   0.000326  -0.037669   0.360403
    21  C    0.000014   0.000002  -0.000001   0.000009   0.003428  -0.037764
    22  N   -0.000003  -0.000000   0.000000   0.000000  -0.000127  -0.006725
    23  H   -0.000007  -0.000000  -0.000000   0.000000   0.000000  -0.000005
    24  H   -0.000010  -0.000000  -0.000000  -0.000000  -0.000000  -0.000000
    25  H   -0.000001   0.000000   0.000000  -0.000000  -0.000000   0.000000
    26  H    0.000000  -0.000000   0.000000   0.000000  -0.000000  -0.000000
    27  H    0.000000  -0.000000  -0.000000   0.000000   0.000000  -0.000000
    28  H    0.000000   0.000000   0.000000  -0.000000  -0.000000   0.000000
    29  H   -0.000000   0.000000   0.000000  -0.000000   0.000000  -0.000000
    30  H    0.000007  -0.000000   0.000000   0.000000  -0.000000  -0.000001
    31  H    0.616163  -0.005785  -0.000204   0.000018   0.000002   0.000000
    32  H   -0.005785   0.609213  -0.005463  -0.000202   0.000000  -0.000000
    33  H   -0.000204  -0.005463   0.614293  -0.005552  -0.000013  -0.000000
    34  H    0.000018  -0.000202  -0.005552   0.613435   0.005582  -0.000012
    35  H    0.000002   0.000000  -0.000013   0.005582   0.604324  -0.005323
    36  H    0.000000  -0.000000  -0.000000  -0.000012  -0.005323   0.603659
    37  H    0.000000   0.000000  -0.000000  -0.000000  -0.000006   0.004225
    38  H   -0.000000  -0.000000  -0.000000   0.000000   0.000003  -0.000020
              37         38
     1  N   -0.000030   0.001080
     2  C    0.000054   0.003765
     3  C   -0.000004  -0.000095
     4  C   -0.000001  -0.000097
     5  C    0.000002   0.000010
     6  C   -0.000000  -0.000002
     7  C   -0.000000   0.000001
     8  C   -0.000000  -0.000008
     9  C   -0.000006  -0.000123
    10  C    0.000016   0.000518
    11  C    0.000040   0.011888
    12  C    0.005884  -0.014935
    13  C   -0.000011  -0.000135
    14  C    0.000002  -0.000002
    15  C   -0.000000  -0.000000
    16  C    0.000000   0.000000
    17  C   -0.000000   0.000000
    18  C   -0.000029   0.000013
    19  C    0.000010  -0.000222
    20  C   -0.010722   0.006390
    21  C   -0.025450  -0.022947
    22  N    0.343255   0.334872
    23  H   -0.000018  -0.000090
    24  H    0.000000   0.000015
    25  H    0.000000   0.000010
    26  H    0.000000   0.000000
    27  H    0.000000   0.000000
    28  H    0.000000   0.000000
    29  H    0.000000   0.000000
    30  H    0.000006   0.000027
    31  H    0.000000  -0.000000
    32  H    0.000000  -0.000000
    33  H   -0.000000  -0.000000
    34  H   -0.000000   0.000000
    35  H   -0.000006   0.000003
    36  H    0.004225  -0.000020
    37  H    0.432090  -0.027548
    38  H   -0.027548   0.430511
 Mulliken charges:
               1
     1  N   -0.674312
     2  C    0.250782
     3  C   -0.132891
     4  C   -0.152217
     5  C    0.088168
     6  C   -0.156019
     7  C   -0.113143
     8  C   -0.098349
     9  C   -0.171147
    10  C    0.125388
    11  C   -0.112748
    12  C   -0.115865
    13  C    0.121823
    14  C   -0.171270
    15  C   -0.098557
    16  C   -0.113126
    17  C   -0.155540
    18  C    0.090030
    19  C   -0.152191
    20  C   -0.132446
    21  C    0.251539
    22  N   -0.674674
    23  H    0.274795
    24  H    0.279382
    25  H    0.102648
    26  H    0.103792
    27  H    0.098817
    28  H    0.095015
    29  H    0.098572
    30  H    0.094914
    31  H    0.094288
    32  H    0.098765
    33  H    0.095097
    34  H    0.098934
    35  H    0.103815
    36  H    0.102575
    37  H    0.278239
    38  H    0.277119
 Sum of Mulliken charges =  -0.00000
 Mulliken charges with hydrogens summed into heavy atoms:
               1
     1  N   -0.120136
     2  C    0.250782
     3  C   -0.030243
     4  C   -0.048426
     5  C    0.088168
     6  C   -0.057202
     7  C   -0.018127
     8  C    0.000223
     9  C   -0.076233
    10  C    0.125388
    11  C   -0.112748
    12  C   -0.115865
    13  C    0.121823
    14  C   -0.076982
    15  C    0.000208
    16  C   -0.018029
    17  C   -0.056606
    18  C    0.090030
    19  C   -0.048377
    20  C   -0.029871
    21  C    0.251539
    22  N   -0.119316
 APT charges:
               1
     1  N   -1.065156
     2  C   -0.065697
     3  C   -0.574326
     4  C   -0.433209
     5  C   -0.443867
     6  C   -0.497455
     7  C   -0.477788
     8  C   -0.378692
     9  C   -0.571899
    10  C   -0.504902
    11  C   -0.407612
    12  C   -0.406339
    13  C   -0.511404
    14  C   -0.578546
    15  C   -0.379225
    16  C   -0.475377
    17  C   -0.496274
    18  C   -0.431421
    19  C   -0.443109
    20  C   -0.554221
    21  C   -0.069990
    22  N   -1.170029
    23  H    0.269690
    24  H    0.894784
    25  H    0.751749
    26  H    0.854134
    27  H    0.861571
    28  H    0.957931
    29  H    0.634588
    30  H    0.202507
    31  H    0.204032
    32  H    0.638005
    33  H    0.959498
    34  H    0.859632
    35  H    0.848607
    36  H    0.740358
    37  H    0.947080
    38  H    0.312373
 Sum of APT charges =  -0.00000
 APT charges with hydrogens summed into heavy atoms:
               1
     1  N    0.099318
     2  C   -0.065697
     3  C    0.177423
     4  C    0.420925
     5  C   -0.443867
     6  C    0.364115
     7  C    0.480143
     8  C    0.255896
     9  C   -0.369392
    10  C   -0.504902
    11  C   -0.407612
    12  C   -0.406339
    13  C   -0.511404
    14  C   -0.374514
    15  C    0.258780
    16  C    0.484121
    17  C    0.363358
    18  C   -0.431421
    19  C    0.405498
    20  C    0.186137
    21  C   -0.069990
    22  N    0.089424
 Electronic spatial extent (au):  <R**2>=           5916.5955
 Charge=             -0.0000 electrons
 Dipole moment (field-independent basis, Debye):
    X=             -0.6896    Y=              2.7846    Z=             -1.6265  Tot=              3.2977
 Quadrupole moment (field-independent basis, Debye-Ang):
   XX=           -113.8248   YY=           -115.2123   ZZ=           -116.3914
   XY=             -1.2081   XZ=             -6.2124   YZ=             -1.1761
 Traceless Quadrupole moment (field-independent basis, Debye-Ang):
   XX=              1.3181   YY=             -0.0695   ZZ=             -1.2486
   XY=             -1.2081   XZ=             -6.2124   YZ=             -1.1761
 Octapole moment (field-independent basis, Debye-Ang**2):
  XXX=              0.6952  YYY=             37.2479  ZZZ=            -22.5296  XYY=             -2.5276
  XXY=             -9.4152  XXZ=             -0.6132  XZZ=             -6.1600  YZZ=             26.7978
  YYZ=              6.3496  XYZ=            -26.8406
 Hexadecapole moment (field-independent basis, Debye-Ang**3):
 XXXX=          -4459.9672 YYYY=          -1732.5690 ZZZZ=          -1381.5033 XXXY=              7.4045
 XXXZ=           -116.3466 YYYX=            -12.3965 YYYZ=             38.9472 ZZZX=            -44.1955
 ZZZY=            -40.9750 XXYY=          -1059.4313 XXZZ=          -1017.9694 YYZZ=           -388.6218
[...]
   163    C   11  dyz    Ryd( 3d)     0.00044
   164    C   11  dx2y2  Ryd( 3d)     0.00057
   165    C   11  dz2    Ryd( 3d)     0.00061

   166    C   12  S      Cor( 1S)     1.99897
   167    C   12  S      Val( 2S)     0.86792
   168    C   12  S      Ryd( 3S)     0.00117
   169    C   12  S      Ryd( 4S)     0.00005
   170    C   12  px     Val( 2p)     1.07049
   171    C   12  px     Ryd( 3p)     0.00508
   172    C   12  py     Val( 2p)     1.01419
   173    C   12  py     Ryd( 3p)     0.00417
   174    C   12  pz     Val( 2p)     1.02375
   175    C   12  pz     Ryd( 3p)     0.00387
   176    C   12  dxy    Ryd( 3d)     0.00071
   177    C   12  dxz    Ryd( 3d)     0.00061
   178    C   12  dyz    Ryd( 3d)     0.00049
   179    C   12  dx2y2  Ryd( 3d)     0.00059
   180    C   12  dz2    Ryd( 3d)     0.00071

   181    C   13  S      Cor( 1S)     1.99897
   182    C   13  S      Val( 2S)     0.86624
   183    C   13  S      Ryd( 3S)     0.00070
   184    C   13  S      Ryd( 4S)     0.00006
   185    C   13  px     Val( 2p)     1.07212
   186    C   13  px     Ryd( 3p)     0.00461
   187    C   13  py     Val( 2p)     1.04390
   188    C   13  py     Ryd( 3p)     0.00280
   189    C   13  pz     Val( 2p)     1.06065
   190    C   13  pz     Ryd( 3p)     0.00339
   191    C   13  dxy    Ryd( 3d)     0.00055
   192    C   13  dxz    Ryd( 3d)     0.00058
   193    C   13  dyz    Ryd( 3d)     0.00044
   194    C   13  dx2y2  Ryd( 3d)     0.00065
   195    C   13  dz2    Ryd( 3d)     0.00063

   196    C   14  S      Cor( 1S)     1.99908
   197    C   14  S      Val( 2S)     0.95572
   198    C   14  S      Ryd( 3S)     0.00074
   199    C   14  S      Ryd( 4S)     0.00005
   200    C   14  px     Val( 2p)     1.18838
   201    C   14  px     Ryd( 3p)     0.00419
   202    C   14  py     Val( 2p)     1.01000
   203    C   14  py     Ryd( 3p)     0.00272
   204    C   14  pz     Val( 2p)     1.02661
   205    C   14  pz     Ryd( 3p)     0.00306
   206    C   14  dxy    Ryd( 3d)     0.00045
   207    C   14  dxz    Ryd( 3d)     0.00059
   208    C   14  dyz    Ryd( 3d)     0.00042
   209    C   14  dx2y2  Ryd( 3d)     0.00066
   210    C   14  dz2    Ryd( 3d)     0.00049

   211    C   15  S      Cor( 1S)     1.99912
   212    C   15  S      Val( 2S)     0.96599
   213    C   15  S      Ryd( 3S)     0.00063
   214    C   15  S      Ryd( 4S)     0.00003
   215    C   15  px     Val( 2p)     1.05834
   216    C   15  px     Ryd( 3p)     0.00446
   217    C   15  py     Val( 2p)     1.09869
   218    C   15  py     Ryd( 3p)     0.00334
   219    C   15  pz     Val( 2p)     1.12533
   220    C   15  pz     Ryd( 3p)     0.00361
   221    C   15  dxy    Ryd( 3d)     0.00052
   222    C   15  dxz    Ryd( 3d)     0.00057
   223    C   15  dyz    Ryd( 3d)     0.00052
   224    C   15  dx2y2  Ryd( 3d)     0.00054
   225    C   15  dz2    Ryd( 3d)     0.00042

   226    C   16  S      Cor( 1S)     1.99911
   227    C   16  S      Val( 2S)     0.97207
   228    C   16  S      Ryd( 3S)     0.00056
   229    C   16  S      Ryd( 4S)     0.00003
   230    C   16  px     Val( 2p)     1.12399
   231    C   16  px     Ryd( 3p)     0.00462
   232    C   16  py     Val( 2p)     1.05647
   233    C   16  py     Ryd( 3p)     0.00286
   234    C   16  pz     Val( 2p)     1.02841
   235    C   16  pz     Ryd( 3p)     0.00289
   236    C   16  dxy    Ryd( 3d)     0.00065
   237    C   16  dxz    Ryd( 3d)     0.00052
   238    C   16  dyz    Ryd( 3d)     0.00045
   239    C   16  dx2y2  Ryd( 3d)     0.00049
   240    C   16  dz2    Ryd( 3d)     0.00063

   241    C   17  S      Cor( 1S)     1.99907
   242    C   17  S      Val( 2S)     0.95579
   243    C   17  S      Ryd( 3S)     0.00069
   244    C   17  S      Ryd( 4S)     0.00004
   245    C   17  px     Val( 2p)     1.16936
   246    C   17  px     Ryd( 3p)     0.00471
   247    C   17  py     Val( 2p)     1.02466
   248    C   17  py     Ryd( 3p)     0.00267
   249    C   17  pz     Val( 2p)     1.05951
   250    C   17  pz     Ryd( 3p)     0.00300
   251    C   17  dxy    Ryd( 3d)     0.00048
   252    C   17  dxz    Ryd( 3d)     0.00056
   253    C   17  dyz    Ryd( 3d)     0.00039
   254    C   17  dx2y2  Ryd( 3d)     0.00057
   255    C   17  dz2    Ryd( 3d)     0.00054

   256    C   18  S      Cor( 1S)     1.99902
   257    C   18  S      Val( 2S)     0.87065
   258    C   18  S      Ryd( 3S)     0.00044
   259    C   18  S      Ryd( 4S)     0.00006
   260    C   18  px     Val( 2p)     1.07612
   261    C   18  px     Ryd( 3p)     0.00482
   262    C   18  py     Val( 2p)     1.04677
   263    C   18  py     Ryd( 3p)     0.00274
   264    C   18  pz     Val( 2p)     1.04709
   265    C   18  pz     Ryd( 3p)     0.00313
   266    C   18  dxy    Ryd( 3d)     0.00054
   267    C   18  dxz    Ryd( 3d)     0.00060
   268    C   18  dyz    Ryd( 3d)     0.00046
   269    C   18  dx2y2  Ryd( 3d)     0.00067
   270    C   18  dz2    Ryd( 3d)     0.00066

   271    C   19  S      Cor( 1S)     1.99907
   272    C   19  S      Val( 2S)     0.95264
   273    C   19  S      Ryd( 3S)     0.00067
   274    C   19  S      Ryd( 4S)     0.00005
   275    C   19  px     Val( 2p)     1.18399
   276    C   19  px     Ryd( 3p)     0.00466
   277    C   19  py     Val( 2p)     1.00640
   278    C   19  py     Ryd( 3p)     0.00275
   279    C   19  pz     Val( 2p)     1.03156
   280    C   19  pz     Ryd( 3p)     0.00306
   281    C   19  dxy    Ryd( 3d)     0.00046
   282    C   19  dxz    Ryd( 3d)     0.00061
   283    C   19  dyz    Ryd( 3d)     0.00043
   284    C   19  dx2y2  Ryd( 3d)     0.00070
   285    C   19  dz2    Ryd( 3d)     0.00051

   286    C   20  S      Cor( 1S)     1.99905
   287    C   20  S      Val( 2S)     0.95494
   288    C   20  S      Ryd( 3S)     0.00072
   289    C   20  S      Ryd( 4S)     0.00003
   290    C   20  px     Val( 2p)     1.05062
   291    C   20  px     Ryd( 3p)     0.00436
   292    C   20  py     Val( 2p)     1.13082
   293    C   20  py     Ryd( 3p)     0.00337
   294    C   20  pz     Val( 2p)     1.14475
   295    C   20  pz     Ryd( 3p)     0.00325
   296    C   20  dxy    Ryd( 3d)     0.00041
   297    C   20  dxz    Ryd( 3d)     0.00055
   298    C   20  dyz    Ryd( 3d)     0.00051
   299    C   20  dx2y2  Ryd( 3d)     0.00058
   300    C   20  dz2    Ryd( 3d)     0.00043

   301    C   21  S      Cor( 1S)     1.99889
   302    C   21  S      Val( 2S)     0.84753
   303    C   21  S      Ryd( 3S)     0.00138
   304    C   21  S      Ryd( 4S)     0.00011
   305    C   21  px     Val( 2p)     0.98530
   306    C   21  px     Ryd( 3p)     0.00483
   307    C   21  py     Val( 2p)     0.94700
   308    C   21  py     Ryd( 3p)     0.00287
   309    C   21  pz     Val( 2p)     0.97807
   310    C   21  pz     Ryd( 3p)     0.00337
   311    C   21  dxy    Ryd( 3d)     0.00107
   312    C   21  dxz    Ryd( 3d)     0.00119
   313    C   21  dyz    Ryd( 3d)     0.00058
   314    C   21  dx2y2  Ryd( 3d)     0.00104
   315    C   21  dz2    Ryd( 3d)     0.00096

   316    N   22  S      Cor( 1S)     1.99947
   317    N   22  S      Val( 2S)     1.36167
   318    N   22  S      Ryd( 3S)     0.00014
   319    N   22  S      Ryd( 4S)     0.00001
   320    N   22  px     Val( 2p)     1.40298
   321    N   22  px     Ryd( 3p)     0.00213
   322    N   22  py     Val( 2p)     1.42861
   323    N   22  py     Ryd( 3p)     0.00200
   324    N   22  pz     Val( 2p)     1.52776
   325    N   22  pz     Ryd( 3p)     0.00245
   326    N   22  dxy    Ryd( 3d)     0.00060
   327    N   22  dxz    Ryd( 3d)     0.00101
   328    N   22  dyz    Ryd( 3d)     0.00052
   329    N   22  dx2y2  Ryd( 3d)     0.00042
   330    N   22  dz2    Ryd( 3d)     0.00051

   331    H   23  S      Val( 1S)     0.58408
   332    H   23  S      Ryd( 2S)     0.00135
   333    H   23  px     Ryd( 2p)     0.00056
   334    H   23  py     Ryd( 2p)     0.00041
   335    H   23  pz     Ryd( 2p)     0.00029

   336    H   24  S      Val( 1S)     0.57765
   337    H   24  S      Ryd( 2S)     0.00112
   338    H   24  px     Ryd( 2p)     0.00020
   339    H   24  py     Ryd( 2p)     0.00041
   340    H   24  pz     Ryd( 2p)     0.00063

   341    H   25  S      Val( 1S)     0.76501
   342    H   25  S      Ryd( 2S)     0.00087
   343    H   25  px     Ryd( 2p)     0.00008
   344    H   25  py     Ryd( 2p)     0.00024
   345    H   25  pz     Ryd( 2p)     0.00030

   346    H   26  S      Val( 1S)     0.76759
   347    H   26  S      Ryd( 2S)     0.00094
   348    H   26  px     Ryd( 2p)     0.00035
   349    H   26  py     Ryd( 2p)     0.00011
   350    H   26  pz     Ryd( 2p)     0.00016

   351    H   27  S      Val( 1S)     0.76960
   352    H   27  S      Ryd( 2S)     0.00101
   353    H   27  px     Ryd( 2p)     0.00035
   354    H   27  py     Ryd( 2p)     0.00011
   355    H   27  pz     Ryd( 2p)     0.00015

   356    H   28  S      Val( 1S)     0.76504
   357    H   28  S      Ryd( 2S)     0.00078
   358    H   28  px     Ryd( 2p)     0.00025
   359    H   28  py     Ryd( 2p)     0.00023
   360    H   28  pz     Ryd( 2p)     0.00014

   361    H   29  S      Val( 1S)     0.76769
   362    H   29  S      Ryd( 2S)     0.00075
   363    H   29  px     Ryd( 2p)     0.00008
   364    H   29  py     Ryd( 2p)     0.00024
   365    H   29  pz     Ryd( 2p)     0.00031

   366    H   30  S      Val( 1S)     0.76832
   367    H   30  S      Ryd( 2S)     0.00097
   368    H   30  px     Ryd( 2p)     0.00035
   369    H   30  py     Ryd( 2p)     0.00013
   370    H   30  pz     Ryd( 2p)     0.00016

   371    H   31  S      Val( 1S)     0.74059
   372    H   31  S      Ryd( 2S)     0.00090
   373    H   31  px     Ryd( 2p)     0.00037
   374    H   31  py     Ryd( 2p)     0.00010
   375    H   31  pz     Ryd( 2p)     0.00014

   376    H   32  S      Val( 1S)     0.74553
   377    H   32  S      Ryd( 2S)     0.00069
   378    H   32  px     Ryd( 2p)     0.00007
   379    H   32  py     Ryd( 2p)     0.00023
   380    H   32  pz     Ryd( 2p)     0.00029

   381    H   33  S      Val( 1S)     0.74343
   382    H   33  S      Ryd( 2S)     0.00065
   383    H   33  px     Ryd( 2p)     0.00025
   384    H   33  py     Ryd( 2p)     0.00022
   385    H   33  pz     Ryd( 2p)     0.00012

   386    H   34  S      Val( 1S)     0.74671
   387    H   34  S      Ryd( 2S)     0.00095
   388    H   34  px     Ryd( 2p)     0.00037
   389    H   34  py     Ryd( 2p)     0.00008
   390    H   34  pz     Ryd( 2p)     0.00014

   391    H   35  S      Val( 1S)     0.74257
   392    H   35  S      Ryd( 2S)     0.00090
   393    H   35  px     Ryd( 2p)     0.00037
   394    H   35  py     Ryd( 2p)     0.00008
   395    H   35  pz     Ryd( 2p)     0.00014

   396    H   36  S      Val( 1S)     0.74205
   397    H   36  S      Ryd( 2S)     0.00082
   398    H   36  px     Ryd( 2p)     0.00008
   399    H   36  py     Ryd( 2p)     0.00022
   400    H   36  pz     Ryd( 2p)     0.00030

   401    H   37  S      Val( 1S)     0.56035
   402    H   37  S      Ryd( 2S)     0.00077
   403    H   37  px     Ryd( 2p)     0.00025
   404    H   37  py     Ryd( 2p)     0.00056
   405    H   37  pz     Ryd( 2p)     0.00040

   406    H   38  S      Val( 1S)     0.55886
   407    H   38  S      Ryd( 2S)     0.00132
   408    H   38  px     Ryd( 2p)     0.00049
   409    H   38  py     Ryd( 2p)     0.00026
   410    H   38  pz     Ryd( 2p)     0.00047

 WARNING:  1 low occupancy (<1.9990e) core orbital  found on  C    2
           1 low occupancy (<1.9990e) core orbital  found on  C   10
           1 low occupancy (<1.9990e) core orbital  found on  C   11
           1 low occupancy (<1.9990e) core orbital  found on  C   12
           1 low occupancy (<1.9990e) core orbital  found on  C   13
           1 low occupancy (<1.9990e) core orbital  found on  C   21


 Summary of Natural Population Analysis:                  
                                                          
                                       Natural Population 
                Natural  -----------------------------------------------
    Atom  No    Charge         Core      Valence    Rydberg      Total
 -----------------------------------------------------------------------
      N    1   -0.83277      1.99949     5.82184    0.01144     7.83277
      C    2    0.19164      1.99891     3.79151    0.01794     5.80836
      C    3   -0.33547      1.99904     4.32186    0.01457     6.33547
      C    4   -0.27323      1.99907     4.25956    0.01460     6.27323
      C    5   -0.07078      1.99902     4.05726    0.01451     6.07078
      C    6   -0.28884      1.99907     4.27572    0.01406     6.28884
      C    7   -0.25134      1.99911     4.23822    0.01401     6.25134
      C    8   -0.29916      1.99912     4.28486    0.01518     6.29916
      C    9   -0.28684      1.99908     4.27394    0.01383     6.28684
      C   10   -0.03477      1.99898     4.02137    0.01442     6.03477
      C   11   -0.18603      1.99894     4.16956    0.01753     6.18603
      C   12    0.00724      1.99897     3.97636    0.01744     5.99276
      C   13   -0.05629      1.99897     4.04291    0.01441     6.05629
      C   14   -0.19316      1.99908     4.18071    0.01337     6.19316
      C   15   -0.26209      1.99912     4.24835    0.01462     6.26209
      C   16   -0.19376      1.99911     4.18095    0.01371     6.19376
      C   17   -0.22203      1.99907     4.20931    0.01365     6.22203
      C   18   -0.05377      1.99902     4.04062    0.01413     6.05377
      C   19   -0.18756      1.99907     4.17460    0.01390     6.18756
      C   20   -0.29440      1.99905     4.28113    0.01422     6.29440
      C   21    0.22582      1.99889     3.75790    0.01739     5.77418
      N   22   -0.73028      1.99947     5.72102    0.00979     7.73028
      H   23    0.41331      0.00000     0.58408    0.00261     0.58669
      H   24    0.42000      0.00000     0.57765    0.00235     0.58000
      H   25    0.23349      0.00000     0.76501    0.00150     0.76651
      H   26    0.23085      0.00000     0.76759    0.00157     0.76915
      H   27    0.22878      0.00000     0.76960    0.00162     0.77122
      H   28    0.23356      0.00000     0.76504    0.00139     0.76644
      H   29    0.23093      0.00000     0.76769    0.00137     0.76907
      H   30    0.23008      0.00000     0.76832    0.00161     0.76992
      H   31    0.25789      0.00000     0.74059    0.00152     0.74211
      H   32    0.25319      0.00000     0.74553    0.00129     0.74681
      H   33    0.25533      0.00000     0.74343    0.00124     0.74467
      H   34    0.25175      0.00000     0.74671    0.00154     0.74825
      H   35    0.25594      0.00000     0.74257    0.00149     0.74406
      H   36    0.25654      0.00000     0.74205    0.00141     0.74346
      H   37    0.43767      0.00000     0.56035    0.00198     0.56233
      H   38    0.43860      0.00000     0.55886    0.00254     0.56140
 =======================================================================
   * Total *   -0.00000     43.97964   105.67462    0.34574   150.00000

                                 Natural Population      
 --------------------------------------------------------
   Core                      43.97964 ( 99.9537% of  44)
   Valence                  105.67462 ( 99.6930% of 106)
   Natural Minimal Basis    149.65426 ( 99.7695% of 150)
   Natural Rydberg Basis      0.34574 (  0.2305% of 150)
 --------------------------------------------------------

    Atom  No          Natural Electron Configuration
 ----------------------------------------------------------------------------
      N    1      [core]2S( 1.35)2p( 4.47)3p( 0.01)
      C    2      [core]2S( 0.83)2p( 2.96)3p( 0.01)
      C    3      [core]2S( 0.94)2p( 3.38)3p( 0.01)
      C    4      [core]2S( 0.94)2p( 3.32)3p( 0.01)
      C    5      [core]2S( 0.86)2p( 3.19)3p( 0.01)
      C    6      [core]2S( 0.94)2p( 3.33)3p( 0.01)
      C    7      [core]2S( 0.96)2p( 3.28)3p( 0.01)
      C    8      [core]2S( 0.95)2p( 3.33)3p( 0.01)
      C    9      [core]2S( 0.94)2p( 3.33)3p( 0.01)
      C   10      [core]2S( 0.86)2p( 3.16)3p( 0.01)
      C   11      [core]2S( 0.85)2p( 3.32)3p( 0.01)
      C   12      [core]2S( 0.87)2p( 3.11)3p( 0.01)
      C   13      [core]2S( 0.87)2p( 3.18)3p( 0.01)
      C   14      [core]2S( 0.96)2p( 3.22)3p( 0.01)
      C   15      [core]2S( 0.97)2p( 3.28)3p( 0.01)
      C   16      [core]2S( 0.97)2p( 3.21)3p( 0.01)
      C   17      [core]2S( 0.96)2p( 3.25)3p( 0.01)
      C   18      [core]2S( 0.87)2p( 3.17)3p( 0.01)
      C   19      [core]2S( 0.95)2p( 3.22)3p( 0.01)
      C   20      [core]2S( 0.95)2p( 3.33)3p( 0.01)
      C   21      [core]2S( 0.85)2p( 2.91)3p( 0.01)
      N   22      [core]2S( 1.36)2p( 4.36)3p( 0.01)
      H   23            1S( 0.58)
      H   24            1S( 0.58)
      H   25            1S( 0.77)
      H   26            1S( 0.77)
      H   27            1S( 0.77)
      H   28            1S( 0.77)
      H   29            1S( 0.77)
      H   30            1S( 0.77)
      H   31            1S( 0.74)
      H   32            1S( 0.75)
      H   33            1S( 0.74)
      H   34            1S( 0.75)
      H   35            1S( 0.74)
      H   36            1S( 0.74)
      H   37            1S( 0.56)
      H   38            1S( 0.56)


 NBO analysis skipped by request.
 1\1\GINC-DRG2-W002\SP\RB3LYP TD-FC\6-31G(d,p)\C20H16N2\QDUEZ\17-Jul-20
 24\0\\# TD(NStates=10, Root=1) B3LYP/6-31G** SCRF=(Solvent=water) volu
 me pop=NPA density=current Geom=AllCheck Guess=Read\\DDAPSNKEOHDLKB-UH
 FFFAOYSA-N_conf_2\\0,1\N,0,-0.0530685459,-0.1772243931,-2.9685931961\C
 ,0,0.9199054554,-0.2922763253,-1.9813479983\C,0,2.212873638,-0.7692403
 475,-2.353521405\C,0,3.2272342173,-0.8479754725,-1.4362261798\C,0,3.02
 67486832,-0.4536547099,-0.0851290031\C,0,4.0669188832,-0.5280574713,0.
 8777398151\C,0,3.854684603,-0.1434952444,2.1839625952\C,0,2.5800641005
 ,0.3327674427,2.5736812696\C,0,1.5493463748,0.4164228258,1.6617021815\
 C,0,1.7323159434,0.0289357183,0.3033970741\C,0,0.6755380863,0.10283478
 81,-0.661823916\C,0,-0.6847571696,0.6008438973,-0.2772998632\C,0,-1.69
 95004892,-0.3062575089,0.1724796603\C,0,-1.470396117,-1.7077869482,0.2
 89428274\C,0,-2.4642746116,-2.560937551,0.7199379387\C,0,-3.7462239876
 ,-2.0664844168,1.0597626342\C,0,-4.0030733303,-0.7163262765,0.95871762
 96\C,0,-3.0020592336,0.18834438,0.5182281882\C,0,-3.2500967398,1.58350
 15666,0.4067195196\C,0,-2.2724798451,2.4437052711,-0.0191306712\C,0,-0
 .9737797252,1.9663726386,-0.369012216\N,0,-0.0045367022,2.8918516361,-
 0.738197626\H,0,-1.005574792,-0.1411011859,-2.6292391928\H,0,0.0517789
 638,-0.8076162612,-3.7525623638\H,0,2.3806511586,-1.0695478948,-3.3844
 368469\H,0,4.2043328282,-1.2168463448,-1.7369999202\H,0,5.0399952829,-
 0.8967916065,0.562579131\H,0,4.6575802638,-0.2041932652,2.9124169912\H
 ,0,2.4126212728,0.6356988755,3.6035381706\H,0,0.5768172872,0.782834657
 2,1.9732732588\H,0,-0.4914144154,-2.0998969401,0.0344306166\H,0,-2.261
 2526063,-3.6252115303,0.8005465896\H,0,-4.5194586857,-2.7495692242,1.3
 980494754\H,0,-4.9825137083,-0.3205894506,1.2161105765\H,0,-4.23458592
 37,1.9648563024,0.6647773457\H,0,-2.474337879,3.5089584142,-0.09408585
 54\H,0,-0.3558705907,3.7443487205,-1.1538699904\H,0,0.7798480558,2.508
 8032346,-1.2500026914\\Version=ES64L-G16RevA.03\State=1-A\HF=-881.3414
 465\RMSD=8.211e-09\Dipole=-3.4811954,1.1222364,-1.5444537\Quadrupole=-
 4.2423208,7.5994266,-3.3571058,-0.5604651,-3.9024867,-2.6013104\PG=C01
  [X(C20H16N2)]\\@


 IN THE UNIVERSE THE DIFFICULT THINGS ARE DONE AS IF THEY WERE EASY.

                                                          -- LAO-TSU
 Job cpu time:       0 days  1 hours 55 minutes 45.3 seconds.
 Elapsed time:       0 days  0 hours 38 minutes 41.8 seconds.
 File lengths (MBytes):  RWF=   1321 Int=      0 D2E=      0 Chk=     83 Scr=      1
 Normal termination of Gaussian 16 at Wed Jul 17 16:53:27 2024.
