 Entering Gaussian System, Link 0=g16
 Initial command:
 /opt/sw/arch/manual/gaussian/G16_A03/g16/l1.exe "/scratch/1380885/Gau-100368.inp" -scrdir="/scratch/1380885/"
 Entering Link 1 = /opt/sw/arch/manual/gaussian/G16_A03/g16/l1.exe PID=    100369.
  
 Copyright (c) 1988,1990,1992,1993,1995,1998,2003,2009,2016,
            Gaussian, Inc.  All Rights Reserved.
  
 This is part of the Gaussian(R) 16 program.  It is based on
 the Gaussian(R) 09 system (copyright 2009, Gaussian, Inc.),
 the Gaussian(R) 03 system (copyright 2003, Gaussian, Inc.),
 the Gaussian(R) 98 system (copyright 1998, Gaussian, Inc.),
 the Gaussian(R) 94 system (copyright 1995, Gaussian, Inc.),
 the Gaussian 92(TM) system (copyright 1992, Gaussian, Inc.),
 the Gaussian 90(TM) system (copyright 1990, Gaussian, Inc.),
 the Gaussian 88(TM) system (copyright 1988, Gaussian, Inc.),
 the Gaussian 86(TM) system (copyright 1986, Carnegie Mellon
 University), and the Gaussian 82(TM) system (copyright 1983,
 Carnegie Mellon University). Gaussian is a federally registered
 trademark of Gaussian, Inc.
  
 This software contains proprietary and confidential information,
 including trade secrets, belonging to Gaussian, Inc.
  
 This software is provided under written license and may be
 used, copied, transmitted, or stored only in accord with that
 written license.
  
 The following legend is applicable only to US Government
 contracts under FAR:
  
                    RESTRICTED RIGHTS LEGEND
  
 Use, reproduction and disclosure by the US Government is
 subject to restrictions as set forth in subparagraphs (a)
 and (c) of the Commercial Computer Software - Restricted
 Rights clause in FAR 52.227-19.
  
 Gaussian, Inc.
 340 Quinnipiac St., Bldg. 40, Wallingford CT 06492
  
  
 ---------------------------------------------------------------
 Warning -- This program may not be used in any manner that
 competes with the business of Gaussian, Inc. or will provide
 assistance to any competitor of Gaussian, Inc.  The licensee
 of this program is prohibited from giving any competitor of
 Gaussian, Inc. access to this program.  By using this program,
 the user acknowledges that Gaussian, Inc. is engaged in the
 business of creating and licensing software in the field of
 computational chemistry and represents and warrants to the
 licensee that it is not a competitor of Gaussian, Inc. and that
 it will not use this program in any manner prohibited above.
 ---------------------------------------------------------------
  

 Cite this work as:
 Gaussian 16, Revision A.03,
 M. J. Frisch, G. W. Trucks, H. B. Schlegel, G. E. Scuseria, 
 M. A. Robb, J. R. Cheeseman, G. Scalmani, V. Barone, 
 G. A. Petersson, H. Nakatsuji, X. Li, M. Caricato, A. V. Marenich, 
 J. Bloino, B. G. Janesko, R. Gomperts, B. Mennucci, H. P. Hratchian, 
 J. V. Ortiz, A. F. Izmaylov, J. L. Sonnenberg, D. Williams-Young, 
 F. Ding, F. Lipparini, F. Egidi, J. Goings, B. Peng, A. Petrone, 
 T. Henderson, D. Ranasinghe, V. G. Zakrzewski, J. Gao, N. Rega, 
 G. Zheng, W. Liang, M. Hada, M. Ehara, K. Toyota, R. Fukuda, 
 J. Hasegawa, M. Ishida, T. Nakajima, Y. Honda, O. Kitao, H. Nakai, 
 T. Vreven, K. Throssell, J. A. Montgomery, Jr., J. E. Peralta, 
 F. Ogliaro, M. J. Bearpark, J. J. Heyd, E. N. Brothers, K. N. Kudin, 
 V. N. Staroverov, T. A. Keith, R. Kobayashi, J. Normand, 
 K. Raghavachari, A. P. Rendell, J. C. Burant, S. S. Iyengar, 
 J. Tomasi, M. Cossi, J. M. Millam, M. Klene, C. Adamo, R. Cammi, 
 J. W. Ochterski, R. L. Martin, K. Morokuma, O. Farkas, 
 J. B. Foresman, and D. J. Fox, Gaussian, Inc., Wallingford CT, 2016.
 
 ******************************************
 Gaussian 16:  ES64L-G16RevA.03 25-Dec-2016
                18-Jul-2024 
 ******************************************
 %nprocshared=6
 Will use up to    6 processors via shared memory.
 %mem=12GB
 %Chk=JSKXMAPMKXVJKT-UHFFFAOYSA-N_conf_3_0.chk
 -------------------------------------------------------
 # opt=CalcFc B3LYP/6-31G** SCRF=(Solvent=water) scf=xqc
 -------------------------------------------------------
 1/10=4,18=20,19=15,26=3,38=1/1,3;
 2/9=110,12=2,17=6,18=5,40=1/2;
 3/5=1,6=6,7=101,11=2,25=1,30=1,70=2201,71=2,72=1,74=-5,140=1/1,2,3;
 4//1;
 5/5=2,8=3,13=1,38=5,53=1/2,8;
 8/6=4,10=90,11=11/1;
 11/6=1,8=1,9=11,15=111,16=1/1,2,10;
 10/6=1,13=1/2;
 6/7=2,8=2,9=2,10=2,28=1/1;
 7/10=1,18=20,25=1/1,2,3,16;
 1/10=4,18=20,19=15,26=3/3(2);
 2/9=110/2;
 99//99;
 2/9=110/2;
 3/5=1,6=6,7=101,11=2,25=1,30=1,70=2205,71=1,72=1,74=-5/1,2,3;
 4/5=5,16=3,69=1/1;
 5/5=2,8=3,13=1,38=5,53=1/2,8;
 7//1,2,3,16;
 1/18=20,19=15,26=3/3(-5);
 2/9=110/2;
 6/7=2,8=2,9=2,10=2,19=2,28=1/1;
 99/9=1/99;
 ----------------------------------
 JSKXMAPMKXVJKT-UHFFFAOYSA-N_conf_3
 ----------------------------------
 Symbolic Z-matrix:
 Charge =  0 Multiplicity = 1
 C                    -6.95228   1.091     0.24936 
 C                    -5.58691   0.47421   0.29533 
 C                    -5.06289  -0.00413   1.49732 
 C                    -3.80144  -0.60957   1.52832 
 C                    -3.02166  -0.74258   0.37113 
 N                    -1.79934  -1.39994   0.46265 
 C                    -0.76985  -1.31154  -0.57013 
 C                    -0.13708   0.07784  -0.67044 
 C                     0.62978   0.50264   0.58159 
 N                     1.77072  -0.37184   0.83719 
 C                     3.03869  -0.10149   0.31799 
 C                     3.28599   0.77778  -0.74002 
 C                     4.57677   0.95087  -1.25792 
 C                     5.65505   0.23108  -0.73874 
 C                     7.02881   0.39021  -1.31716 
 C                     5.41371  -0.6897    0.28161 
 C                     4.12174  -0.85503   0.79377 
 C                    -3.58207  -0.30777  -0.83365 
 C                    -4.84379   0.30003  -0.87411 
 H                    -7.71002   0.31413   0.10719 
 H                    -7.02808   1.81309  -0.57058 
 H                    -7.16742   1.63042   1.17785 
 H                    -5.63273   0.08106   2.41944 
 H                    -3.43052  -0.98464   2.47905 
 H                    -1.42372  -1.44018   1.40496 
 H                    -1.1803   -1.60668  -1.54264 
 H                     0.00161  -2.05665  -0.34348 
 H                     0.53248   0.08169  -1.53792 
 H                    -0.90827   0.82962  -0.87361 
 H                    -0.03685   0.45962   1.45107 
 H                     0.94123   1.55132   0.50573 
 H                     1.82646  -0.67447   1.80728 
 H                     2.48393   1.35392  -1.18969 
 H                     4.7275    1.64947  -2.07757 
 H                     7.15964  -0.29171  -2.16378 
 H                     7.79671   0.17263  -0.56718 
 H                     7.19131   1.41794  -1.66004 
 H                     6.22413  -1.29353   0.68266 
 H                     3.96588  -1.59455   1.57552 
 H                    -3.0549   -0.44041  -1.7734 
 H                    -5.24202   0.62581  -1.83224 
 

 GradGradGradGradGradGradGradGradGradGradGradGradGradGradGradGradGradGrad
 Berny optimization.
 Initialization pass.
                           ----------------------------
                           !    Initial Parameters    !
                           ! (Angstroms and Degrees)  !
 --------------------------                            --------------------------
 ! Name  Definition              Value          Derivative Info.                !
 --------------------------------------------------------------------------------
 ! R1    R(1,2)                  1.4989         calculate D2E/DX2 analytically  !
 ! R2    R(1,20)                 1.0945         calculate D2E/DX2 analytically  !
 ! R3    R(1,21)                 1.0952         calculate D2E/DX2 analytically  !
 ! R4    R(1,22)                 1.0951         calculate D2E/DX2 analytically  !
 ! R5    R(2,3)                  1.3958         calculate D2E/DX2 analytically  !
 ! R6    R(2,19)                 1.3965         calculate D2E/DX2 analytically  !
 ! R7    R(3,4)                  1.3996         calculate D2E/DX2 analytically  !
 ! R8    R(3,23)                 1.0873         calculate D2E/DX2 analytically  !
 ! R9    R(4,5)                  1.4017         calculate D2E/DX2 analytically  !
 ! R10   R(4,24)                 1.0873         calculate D2E/DX2 analytically  !
 ! R11   R(5,6)                  1.3909         calculate D2E/DX2 analytically  !
 ! R12   R(5,18)                 1.3981         calculate D2E/DX2 analytically  !
 ! R13   R(6,7)                  1.4609         calculate D2E/DX2 analytically  !
 ! R14   R(6,25)                 1.0152         calculate D2E/DX2 analytically  !
 ! R15   R(7,8)                  1.53           calculate D2E/DX2 analytically  !
 ! R16   R(7,26)                 1.0961         calculate D2E/DX2 analytically  !
 ! R17   R(7,27)                 1.0962         calculate D2E/DX2 analytically  !
 ! R18   R(8,9)                  1.5284         calculate D2E/DX2 analytically  !
 ! R19   R(8,28)                 1.0958         calculate D2E/DX2 analytically  !
 ! R20   R(8,29)                 1.096          calculate D2E/DX2 analytically  !
 ! R21   R(9,10)                 1.4601         calculate D2E/DX2 analytically  !
 ! R22   R(9,30)                 1.0965         calculate D2E/DX2 analytically  !
 ! R23   R(9,31)                 1.0966         calculate D2E/DX2 analytically  !
 ! R24   R(10,11)                1.3966         calculate D2E/DX2 analytically  !
 ! R25   R(10,32)                1.0177         calculate D2E/DX2 analytically  !
 ! R26   R(11,12)                1.3977         calculate D2E/DX2 analytically  !
 ! R27   R(11,17)                1.4026         calculate D2E/DX2 analytically  !
 ! R28   R(12,13)                1.4015         calculate D2E/DX2 analytically  !
 ! R29   R(12,33)                1.0851         calculate D2E/DX2 analytically  !
 ! R30   R(13,14)                1.3965         calculate D2E/DX2 analytically  !
 ! R31   R(13,34)                1.0875         calculate D2E/DX2 analytically  !
 ! R32   R(14,15)                1.499          calculate D2E/DX2 analytically  !
 ! R33   R(14,16)                1.3954         calculate D2E/DX2 analytically  !
 ! R34   R(15,35)                1.0949         calculate D2E/DX2 analytically  !
 ! R35   R(15,36)                1.0952         calculate D2E/DX2 analytically  !
 ! R36   R(15,37)                1.0955         calculate D2E/DX2 analytically  !
 ! R37   R(16,17)                1.3996         calculate D2E/DX2 analytically  !
 ! R38   R(16,38)                1.0873         calculate D2E/DX2 analytically  !
 ! R39   R(17,39)                1.0873         calculate D2E/DX2 analytically  !
 ! R40   R(18,19)                1.4011         calculate D2E/DX2 analytically  !
 ! R41   R(18,40)                1.0856         calculate D2E/DX2 analytically  !
 ! R42   R(19,41)                1.0875         calculate D2E/DX2 analytically  !
 ! A1    A(2,1,20)             110.0327         calculate D2E/DX2 analytically  !
 ! A2    A(2,1,21)             110.9349         calculate D2E/DX2 analytically  !
 ! A3    A(2,1,22)             110.8316         calculate D2E/DX2 analytically  !
 ! A4    A(20,1,21)            108.8335         calculate D2E/DX2 analytically  !
 ! A5    A(20,1,22)            108.889          calculate D2E/DX2 analytically  !
 ! A6    A(21,1,22)            107.2405         calculate D2E/DX2 analytically  !
 ! A7    A(1,2,3)              120.6246         calculate D2E/DX2 analytically  !
 ! A8    A(1,2,19)             120.6882         calculate D2E/DX2 analytically  !
 ! A9    A(3,2,19)             118.5959         calculate D2E/DX2 analytically  !
 ! A10   A(2,3,4)              120.3786         calculate D2E/DX2 analytically  !
 ! A11   A(2,3,23)             120.445          calculate D2E/DX2 analytically  !
 ! A12   A(4,3,23)             119.1743         calculate D2E/DX2 analytically  !
 ! A13   A(3,4,5)              121.6122         calculate D2E/DX2 analytically  !
 ! A14   A(3,4,24)             118.4296         calculate D2E/DX2 analytically  !
 ! A15   A(5,4,24)             119.9579         calculate D2E/DX2 analytically  !
 ! A16   A(4,5,6)              118.6469         calculate D2E/DX2 analytically  !
 ! A17   A(4,5,18)             117.3165         calculate D2E/DX2 analytically  !
 ! A18   A(6,5,18)             123.7763         calculate D2E/DX2 analytically  !
 ! A19   A(5,6,7)              122.9678         calculate D2E/DX2 analytically  !
 ! A20   A(5,6,25)             113.888          calculate D2E/DX2 analytically  !
 ! A21   A(7,6,25)             113.4436         calculate D2E/DX2 analytically  !
 ! A22   A(6,7,8)              113.1253         calculate D2E/DX2 analytically  !
 ! A23   A(6,7,26)             110.3079         calculate D2E/DX2 analytically  !
 ! A24   A(6,7,27)             107.9759         calculate D2E/DX2 analytically  !
 ! A25   A(8,7,26)             109.952          calculate D2E/DX2 analytically  !
 ! A26   A(8,7,27)             109.8614         calculate D2E/DX2 analytically  !
 ! A27   A(26,7,27)            105.3053         calculate D2E/DX2 analytically  !
 ! A28   A(7,8,9)              113.9658         calculate D2E/DX2 analytically  !
 ! A29   A(7,8,28)             107.9261         calculate D2E/DX2 analytically  !
 ! A30   A(7,8,29)             110.1236         calculate D2E/DX2 analytically  !
 ! A31   A(9,8,28)             109.9329         calculate D2E/DX2 analytically  !
 ! A32   A(9,8,29)             108.3157         calculate D2E/DX2 analytically  !
 ! A33   A(28,8,29)            106.3064         calculate D2E/DX2 analytically  !
 ! A34   A(8,9,10)             111.6546         calculate D2E/DX2 analytically  !
 ! A35   A(8,9,30)             109.4892         calculate D2E/DX2 analytically  !
 ! A36   A(8,9,31)             110.5863         calculate D2E/DX2 analytically  !
 ! A37   A(10,9,30)            108.2269         calculate D2E/DX2 analytically  !
 ! A38   A(10,9,31)            111.281          calculate D2E/DX2 analytically  !
 ! A39   A(30,9,31)            105.3702         calculate D2E/DX2 analytically  !
 ! A40   A(9,10,11)            121.901          calculate D2E/DX2 analytically  !
 ! A41   A(9,10,32)            112.8154         calculate D2E/DX2 analytically  !
 ! A42   A(11,10,32)           111.2355         calculate D2E/DX2 analytically  !
 ! A43   A(10,11,12)           124.3207         calculate D2E/DX2 analytically  !
 ! A44   A(10,11,17)           118.0975         calculate D2E/DX2 analytically  !
 ! A45   A(12,11,17)           117.2657         calculate D2E/DX2 analytically  !
 ! A46   A(11,12,13)           121.356          calculate D2E/DX2 analytically  !
 ! A47   A(11,12,33)           121.1252         calculate D2E/DX2 analytically  !
 ! A48   A(13,12,33)           117.5186         calculate D2E/DX2 analytically  !
 ! A49   A(12,13,14)           120.6678         calculate D2E/DX2 analytically  !
 ! A50   A(12,13,34)           119.0462         calculate D2E/DX2 analytically  !
 ! A51   A(14,13,34)           120.2842         calculate D2E/DX2 analytically  !
 ! A52   A(13,14,15)           120.6252         calculate D2E/DX2 analytically  !
 ! A53   A(13,14,16)           118.5808         calculate D2E/DX2 analytically  !
 ! A54   A(15,14,16)           120.7098         calculate D2E/DX2 analytically  !
 ! A55   A(14,15,35)           109.9828         calculate D2E/DX2 analytically  !
 ! A56   A(14,15,36)           110.9303         calculate D2E/DX2 analytically  !
 ! A57   A(14,15,37)           110.872          calculate D2E/DX2 analytically  !
 ! A58   A(35,15,36)           108.7831         calculate D2E/DX2 analytically  !
 ! A59   A(35,15,37)           108.9364         calculate D2E/DX2 analytically  !
 ! A60   A(36,15,37)           107.2589         calculate D2E/DX2 analytically  !
 ! A61   A(14,16,17)           120.3431         calculate D2E/DX2 analytically  !
 ! A62   A(14,16,38)           120.4808         calculate D2E/DX2 analytically  !
 ! A63   A(17,16,38)           119.1739         calculate D2E/DX2 analytically  !
 ! A64   A(11,17,16)           121.6834         calculate D2E/DX2 analytically  !
 ! A65   A(11,17,39)           119.9074         calculate D2E/DX2 analytically  !
 ! A66   A(16,17,39)           118.4079         calculate D2E/DX2 analytically  !
 ! A67   A(5,18,19)            121.3848         calculate D2E/DX2 analytically  !
 ! A68   A(5,18,40)            120.8833         calculate D2E/DX2 analytically  !
 ! A69   A(19,18,40)           117.7289         calculate D2E/DX2 analytically  !
 ! A70   A(2,19,18)            120.606          calculate D2E/DX2 analytically  !
 ! A71   A(2,19,41)            120.3683         calculate D2E/DX2 analytically  !
 ! A72   A(18,19,41)           119.0227         calculate D2E/DX2 analytically  !
 ! D1    D(20,1,2,3)           -86.7403         calculate D2E/DX2 analytically  !
 ! D2    D(20,1,2,19)           89.7356         calculate D2E/DX2 analytically  !
 ! D3    D(21,1,2,3)           152.7701         calculate D2E/DX2 analytically  !
 ! D4    D(21,1,2,19)          -30.7539         calculate D2E/DX2 analytically  !
 ! D5    D(22,1,2,3)            33.7519         calculate D2E/DX2 analytically  !
 ! D6    D(22,1,2,19)         -149.7722         calculate D2E/DX2 analytically  !
 ! D7    D(1,2,3,4)            178.3829         calculate D2E/DX2 analytically  !
 ! D8    D(1,2,3,23)            -1.0884         calculate D2E/DX2 analytically  !
 ! D9    D(19,2,3,4)             1.8345         calculate D2E/DX2 analytically  !
 ! D10   D(19,2,3,23)         -177.6369         calculate D2E/DX2 analytically  !
 ! D11   D(1,2,19,18)         -178.3592         calculate D2E/DX2 analytically  !
 ! D12   D(1,2,19,41)            1.004          calculate D2E/DX2 analytically  !
 ! D13   D(3,2,19,18)           -1.813          calculate D2E/DX2 analytically  !
 ! D14   D(3,2,19,41)          177.5502         calculate D2E/DX2 analytically  !
 ! D15   D(2,3,4,5)              0.7191         calculate D2E/DX2 analytically  !
 ! D16   D(2,3,4,24)          -179.0707         calculate D2E/DX2 analytically  !
 ! D17   D(23,3,4,5)          -179.8029         calculate D2E/DX2 analytically  !
 ! D18   D(23,3,4,24)            0.4073         calculate D2E/DX2 analytically  !
 ! D19   D(3,4,5,6)           -177.577          calculate D2E/DX2 analytically  !
 ! D20   D(3,4,5,18)            -3.2138         calculate D2E/DX2 analytically  !
 ! D21   D(24,4,5,6)             2.2097         calculate D2E/DX2 analytically  !
 ! D22   D(24,4,5,18)          176.5728         calculate D2E/DX2 analytically  !
 ! D23   D(4,5,6,7)           -164.3556         calculate D2E/DX2 analytically  !
 ! D24   D(4,5,6,25)           -20.6591         calculate D2E/DX2 analytically  !
 ! D25   D(18,5,6,7)            21.671          calculate D2E/DX2 analytically  !
 ! D26   D(18,5,6,25)          165.3676         calculate D2E/DX2 analytically  !
 ! D27   D(4,5,18,19)            3.2322         calculate D2E/DX2 analytically  !
 ! D28   D(4,5,18,40)         -176.1302         calculate D2E/DX2 analytically  !
 ! D29   D(6,5,18,19)          177.2797         calculate D2E/DX2 analytically  !
 ! D30   D(6,5,18,40)           -2.0826         calculate D2E/DX2 analytically  !
 ! D31   D(5,6,7,8)             68.4215         calculate D2E/DX2 analytically  !
 ! D32   D(5,6,7,26)           -55.1983         calculate D2E/DX2 analytically  !
 ! D33   D(5,6,7,27)          -169.7789         calculate D2E/DX2 analytically  !
 ! D34   D(25,6,7,8)           -75.4177         calculate D2E/DX2 analytically  !
 ! D35   D(25,6,7,26)          160.9624         calculate D2E/DX2 analytically  !
 ! D36   D(25,6,7,27)           46.3819         calculate D2E/DX2 analytically  !
 ! D37   D(6,7,8,9)             64.0113         calculate D2E/DX2 analytically  !
 ! D38   D(6,7,8,28)          -173.5824         calculate D2E/DX2 analytically  !
 ! D39   D(6,7,8,29)           -57.9358         calculate D2E/DX2 analytically  !
 ! D40   D(26,7,8,9)          -172.1733         calculate D2E/DX2 analytically  !
 ! D41   D(26,7,8,28)          -49.7671         calculate D2E/DX2 analytically  !
 ! D42   D(26,7,8,29)           65.8795         calculate D2E/DX2 analytically  !
 ! D43   D(27,7,8,9)           -56.724          calculate D2E/DX2 analytically  !
 ! D44   D(27,7,8,28)           65.6822         calculate D2E/DX2 analytically  !
 ! D45   D(27,7,8,29)         -178.6712         calculate D2E/DX2 analytically  !
 ! D46   D(7,8,9,10)            63.2648         calculate D2E/DX2 analytically  !
 ! D47   D(7,8,9,30)           -56.5698         calculate D2E/DX2 analytically  !
 ! D48   D(7,8,9,31)          -172.2451         calculate D2E/DX2 analytically  !
 ! D49   D(28,8,9,10)          -58.0336         calculate D2E/DX2 analytically  !
 ! D50   D(28,8,9,30)         -177.8682         calculate D2E/DX2 analytically  !
 ! D51   D(28,8,9,31)           66.4565         calculate D2E/DX2 analytically  !
 ! D52   D(29,8,9,10)         -173.7965         calculate D2E/DX2 analytically  !
 ! D53   D(29,8,9,30)           66.369          calculate D2E/DX2 analytically  !
 ! D54   D(29,8,9,31)          -49.3063         calculate D2E/DX2 analytically  !
 ! D55   D(8,9,10,11)           90.7108         calculate D2E/DX2 analytically  !
 ! D56   D(8,9,10,32)         -132.844          calculate D2E/DX2 analytically  !
 ! D57   D(30,9,10,11)        -148.714          calculate D2E/DX2 analytically  !
 ! D58   D(30,9,10,32)         -12.2688         calculate D2E/DX2 analytically  !
 ! D59   D(31,9,10,11)         -33.3897         calculate D2E/DX2 analytically  !
 ! D60   D(31,9,10,32)         103.0555         calculate D2E/DX2 analytically  !
 ! D61   D(9,10,11,12)         -17.4259         calculate D2E/DX2 analytically  !
 ! D62   D(9,10,11,17)         169.22           calculate D2E/DX2 analytically  !
 ! D63   D(32,10,11,12)       -154.4725         calculate D2E/DX2 analytically  !
 ! D64   D(32,10,11,17)         32.1734         calculate D2E/DX2 analytically  !
 ! D65   D(10,11,12,13)       -176.6507         calculate D2E/DX2 analytically  !
 ! D66   D(10,11,12,33)          3.4805         calculate D2E/DX2 analytically  !
 ! D67   D(17,11,12,13)         -3.246          calculate D2E/DX2 analytically  !
 ! D68   D(17,11,12,33)        176.8853         calculate D2E/DX2 analytically  !
 ! D69   D(10,11,17,16)        177.0113         calculate D2E/DX2 analytically  !
 ! D70   D(10,11,17,39)         -2.5658         calculate D2E/DX2 analytically  !
 ! D71   D(12,11,17,16)          3.1843         calculate D2E/DX2 analytically  !
 ! D72   D(12,11,17,39)       -176.3928         calculate D2E/DX2 analytically  !
 ! D73   D(11,12,13,14)          0.8617         calculate D2E/DX2 analytically  !
 ! D74   D(11,12,13,34)       -179.6236         calculate D2E/DX2 analytically  !
 ! D75   D(33,12,13,14)       -179.2649         calculate D2E/DX2 analytically  !
 ! D76   D(33,12,13,34)          0.2497         calculate D2E/DX2 analytically  !
 ! D77   D(12,13,14,15)        178.3851         calculate D2E/DX2 analytically  !
 ! D78   D(12,13,14,16)          1.6972         calculate D2E/DX2 analytically  !
 ! D79   D(34,13,14,15)         -1.1235         calculate D2E/DX2 analytically  !
 ! D80   D(34,13,14,16)       -177.8115         calculate D2E/DX2 analytically  !
 ! D81   D(13,14,15,35)        -86.5761         calculate D2E/DX2 analytically  !
 ! D82   D(13,14,15,36)        153.0331         calculate D2E/DX2 analytically  !
 ! D83   D(13,14,15,37)         33.9686         calculate D2E/DX2 analytically  !
 ! D84   D(16,14,15,35)         90.0409         calculate D2E/DX2 analytically  !
 ! D85   D(16,14,15,36)        -30.3499         calculate D2E/DX2 analytically  !
 ! D86   D(16,14,15,37)       -149.4144         calculate D2E/DX2 analytically  !
 ! D87   D(13,14,16,17)         -1.7632         calculate D2E/DX2 analytically  !
 ! D88   D(13,14,16,38)        177.6991         calculate D2E/DX2 analytically  !
 ! D89   D(15,14,16,17)       -178.4482         calculate D2E/DX2 analytically  !
 ! D90   D(15,14,16,38)          1.0141         calculate D2E/DX2 analytically  !
 ! D91   D(14,16,17,11)         -0.7171         calculate D2E/DX2 analytically  !
 ! D92   D(14,16,17,39)        178.8661         calculate D2E/DX2 analytically  !
 ! D93   D(38,16,17,11)        179.8136         calculate D2E/DX2 analytically  !
 ! D94   D(38,16,17,39)         -0.6032         calculate D2E/DX2 analytically  !
 ! D95   D(5,18,19,2)           -0.7704         calculate D2E/DX2 analytically  !
 ! D96   D(5,18,19,41)         179.8579         calculate D2E/DX2 analytically  !
 ! D97   D(40,18,19,2)         178.6114         calculate D2E/DX2 analytically  !
 ! D98   D(40,18,19,41)         -0.7603         calculate D2E/DX2 analytically  !
 --------------------------------------------------------------------------------
 Trust Radius=3.00D-01 FncErr=1.00D-07 GrdErr=1.00D-06 EigMax=2.50D+02 EigMin=1.00D-04
 Number of steps in this run=    222 maximum allowed number of steps=    246.
 GradGradGradGradGradGradGradGradGradGradGradGradGradGradGradGradGradGrad

                          Input orientation:                          
 ---------------------------------------------------------------------
 Center     Atomic      Atomic             Coordinates (Angstroms)
 Number     Number       Type             X           Y           Z
 ---------------------------------------------------------------------
      1          6           0       -6.952279    1.090995    0.249364
      2          6           0       -5.586906    0.474211    0.295330
      3          6           0       -5.062887   -0.004135    1.497318
      4          6           0       -3.801437   -0.609567    1.528319
      5          6           0       -3.021661   -0.742579    0.371134
      6          7           0       -1.799335   -1.399942    0.462647
      7          6           0       -0.769850   -1.311536   -0.570131
      8          6           0       -0.137082    0.077841   -0.670436
      9          6           0        0.629782    0.502639    0.581592
     10          7           0        1.770720   -0.371836    0.837190
     11          6           0        3.038687   -0.101491    0.317987
     12          6           0        3.285992    0.777779   -0.740021
     13          6           0        4.576768    0.950872   -1.257923
     14          6           0        5.655049    0.231080   -0.738739
     15          6           0        7.028812    0.390206   -1.317158
     16          6           0        5.413709   -0.689697    0.281613
     17          6           0        4.121735   -0.855028    0.793766
     18          6           0       -3.582073   -0.307767   -0.833647
     19          6           0       -4.843790    0.300030   -0.874112
     20          1           0       -7.710023    0.314132    0.107193
     21          1           0       -7.028081    1.813094   -0.570580
     22          1           0       -7.167418    1.630416    1.177853
     23          1           0       -5.632727    0.081061    2.419438
     24          1           0       -3.430522   -0.984639    2.479049
     25          1           0       -1.423717   -1.440179    1.404963
     26          1           0       -1.180304   -1.606675   -1.542643
     27          1           0        0.001611   -2.056650   -0.343476
     28          1           0        0.532483    0.081691   -1.537918
     29          1           0       -0.908268    0.829624   -0.873610
     30          1           0       -0.036848    0.459624    1.451066
     31          1           0        0.941227    1.551324    0.505727
     32          1           0        1.826464   -0.674466    1.807283
     33          1           0        2.483934    1.353919   -1.189693
     34          1           0        4.727501    1.649474   -2.077565
     35          1           0        7.159635   -0.291706   -2.163776
     36          1           0        7.796711    0.172632   -0.567179
     37          1           0        7.191310    1.417935   -1.660039
     38          1           0        6.224125   -1.293530    0.682664
     39          1           0        3.965878   -1.594553    1.575515
     40          1           0       -3.054904   -0.440415   -1.773396
     41          1           0       -5.242021    0.625811   -1.832241
 ---------------------------------------------------------------------
                    Distance matrix (angstroms):
                    1          2          3          4          5
     1  C    0.000000
     2  C    1.498926   0.000000
     3  C    2.515254   1.395774   0.000000
     4  C    3.802031   2.425435   1.399559   0.000000
     5  C    4.338961   2.840212   2.445444   1.401720   0.000000
     6  N    5.727398   4.229200   3.697241   2.401824   1.390892
     7  C    6.683274   5.209793   4.941033   3.753234   2.506061
     8  C    6.951217   5.548909   5.382326   4.328343   3.174705
     9  C    7.612108   6.223339   5.788078   4.665725   3.863663
    10  N    8.864318   7.425905   6.875257   5.619886   4.829242
    11  C   10.062114   8.644813   8.187539   6.964936   6.094394
    12  C   10.290733   8.938256   8.678758   7.569791   6.582753
    13  C   11.628004  10.292719  10.071065   8.966183   7.953473
    14  C   12.675193  11.292031  10.951229   9.760705   8.801427
    15  C   14.086021  12.718628  12.421189  11.242356  10.254049
    16  C   12.493581  11.062025  10.569153   9.299442   8.436011
    17  C   11.256872   9.811882   9.250745   7.960934   7.156771
    18  C    3.806276   2.430110   2.778201   2.391252   1.398078
    19  C    2.516655   1.396480   2.400875   2.772281   2.440866
    20  H    1.094488   2.137440   3.006838   4.260266   4.813216
    21  H    1.095208   2.149278   3.382383   4.548175   4.844553
    22  H    1.095150   2.147947   2.683815   4.058346   4.844502
    23  H    2.733204   2.160671   1.087327   2.150508   3.419298
    24  H    4.656450   3.398068   2.142382   1.087265   2.160802
    25  H    6.189286   4.714691   3.913350   2.521644   2.027036
    26  H    6.618490   5.208299   5.184973   4.158770   2.792812
    27  H    7.656090   6.168051   5.766323   4.478933   3.373073
    28  H    7.761103   6.400139   6.366175   5.353737   4.117746
    29  H    6.153004   4.835535   4.855648   4.026284   2.913356
    30  H    7.047405   5.669134   5.047602   3.914240   3.394209
    31  H    7.911072   6.619740   6.281089   5.311121   4.580893
    32  H    9.089021   7.652680   6.928823   5.635185   5.056825
    33  H    9.548934   8.253341   8.125198   7.123816   6.094511
    34  H   11.922406  10.648890  10.553004   9.531445   8.471573
    35  H   14.383367  13.004159  12.762302  11.570554  10.501802
    36  H   14.800096  13.414771  13.025462  11.811858  10.897487
    37  H   14.275637  12.961361  12.734069  11.623978  10.634766
    38  H   13.397438  11.948866  11.389594  10.084386   9.267425
    39  H   11.321529   9.857705   9.168105   7.829663   7.141575
    40  H    4.650409   3.395173   3.862629   3.389283   2.165967
    41  H    2.733945   2.160668   3.393359   3.859378   3.414287
                    6          7          8          9         10
     6  N    0.000000
     7  C    1.460919   0.000000
     8  C    2.496158   1.529976   0.000000
     9  C    3.087810   2.564501   1.528433   0.000000
    10  N    3.733977   3.052554   2.472824   1.460061   0.000000
    11  C    5.011323   4.093644   3.330863   2.497456   1.396566
    12  C    5.661222   4.565518   3.494595   2.979566   2.470882
    13  C    7.010092   5.846185   4.829877   4.377606   3.743389
    14  C    7.724727   6.609646   5.794560   5.202916   4.234981
    15  C    9.181967   8.017051   7.201795   6.675738   5.733188
    16  C    7.250188   6.272843   5.683907   4.939394   3.698793
    17  C    5.955304   5.098649   4.599093   3.752601   2.400548
    18  C    2.459955   2.997598   3.470345   4.516567   5.607869
    19  C    3.734372   4.391643   4.716349   5.667460   6.865253
    20  H    6.164465   7.160137   7.616428   8.355414   9.533517
    21  H    6.223419   6.994910   7.106824   7.854149   9.174674
    22  H    6.205715   7.255302   7.433188   7.900869   9.165991
    23  H    4.551625   5.875748   6.304716   6.540216   7.584172
    24  H    2.626618   4.059991   4.679195   4.722118   5.488547
    25  H    1.015218   2.084486   2.875256   2.944374   3.415868
    26  H    2.108821   1.096065   2.164867   3.498284   3.987101
    27  H    2.079545   1.096230   2.163837   2.792904   2.713359
    28  H    3.410993   2.138637   1.095836   2.163096   2.716626
    29  H    2.747826   2.166986   1.095986   2.142458   3.398135
    30  H    2.746146   2.785595   2.157911   1.096462   2.082180
    31  H    4.027717   3.504457   2.171926   1.096582   2.120489
    32  H    3.934563   3.577541   3.249703   2.078448   1.017729
    33  H    5.353539   4.251544   2.961035   2.701853   2.755932
    34  H    7.638796   6.423458   5.302284   5.017734   4.617796
    35  H    9.401566   8.152086   7.457125   7.127904   6.168681
    36  H    9.778427   8.694179   7.935032   7.265911   6.211382
    37  H    9.658050   8.486341   7.515351   6.994021   6.230748
    38  H    8.027182   7.105316   6.646541   5.876489   4.550408
    39  H    5.874865   5.206824   4.967442   4.063944   2.618946
    40  H    2.738071   2.725467   3.162087   4.473503   5.486940
    41  H    4.606764   5.034536   5.264073   6.349790   7.569657
                   11         12         13         14         15
    11  C    0.000000
    12  C    1.397733   0.000000
    13  C    2.440626   1.401531   0.000000
    14  C    2.841236   2.431319   1.396547   0.000000
    15  C    4.340111   3.806836   2.516023   1.499038   0.000000
    16  C    2.447047   2.779281   2.400439   1.395419   2.516111
    17  C    1.402561   2.391031   2.770877   2.424717   3.802328
    18  C    6.723338   6.953955   8.266249   9.253312  10.644803
    19  C    7.982215   8.144911   9.450811  10.499938  11.881207
    20  H   10.758808  11.038346  12.378782  13.392075  14.807695
    21  H   10.285670  10.367290  11.657118  12.782521  14.148436
    22  H   10.387658  10.662036  12.013355  13.040212  14.467071
    23  H    8.924284   9.487420  10.886384  11.722222  13.205010
    24  H    6.877558   7.653763   9.045875   9.714923  11.211558
    25  H    4.783999   5.630422   6.986695   7.582710   9.066724
    26  H    4.850506   5.126170   6.306028   7.123598   8.451506
    27  H    3.672058   4.356420   5.550988   6.111571   7.504446
    28  H    3.123940   2.950083   4.146097   5.186684   6.507396
    29  H    4.226740   4.196707   5.499820   6.591932   7.961598
    30  H    3.325301   3.992912   5.372653   6.102882   7.588901
    31  H    2.677010   2.765535   4.085115   5.050926   6.459860
    32  H    2.003942   3.275362   4.427345   4.686182   6.161175
    33  H    2.167734   1.085099   2.132383   3.394127   4.647677
    34  H    3.414183   2.151006   1.087465   2.159779   2.731301
    35  H    4.814307   4.263331   3.005956   2.137245   1.094935
    36  H    4.847418   4.554412   3.383905   2.149318   1.095206
    37  H    4.844122   4.062972   2.686200   2.148841   1.095537
    38  H    3.420667   3.866133   3.393671   2.160710   2.735283
    39  H    2.161086   3.384067   3.857557   3.397352   4.657079
    40  H    6.451403   6.539023   7.774562   8.796858  10.128149
    41  H    8.586185   8.599014   9.840942  10.958910  12.283899
                   16         17         18         19         20
    16  C    0.000000
    17  C    1.399583   0.000000
    18  C    9.072694   7.892821   0.000000
    19  C   10.369742   9.192204   1.401065   0.000000
    20  H   13.163224  11.909191   4.279242   3.029596   0.000000
    21  H   12.719605  11.545507   4.054902   2.674439   1.780816
    22  H   12.824622  11.565895   4.545040   3.373387   1.781386
    23  H   11.277771   9.933207   3.865091   3.393794   3.117043
    24  H    9.117902   7.739093   3.384535   3.858936   5.062277
    25  H    6.969615   5.609635   3.309416   4.463117   6.654282
    26  H    6.902881   5.842550   2.821052   4.183729   7.003478
    27  H    5.616948   4.439892   4.017667   5.414187   8.080409
    28  H    5.266128   4.381430   4.192522   5.421495   8.408289
    29  H    6.603807   5.560497   2.905941   3.970995   6.891414
    30  H    5.691847   4.410687   4.286890   5.342155   7.791328
    31  H    5.007544   3.998641   5.070541   6.077508   8.748349
    32  H    3.898233   2.515569   6.030030   7.254778   9.737157
    33  H    3.863249   3.390568   6.299556   7.409845  10.328593
    34  H    3.392393   3.857982   8.627117   9.740580  12.698359
    35  H    3.030938   4.277058  10.823761  12.087001  15.054272
    36  H    2.672594   4.051383  11.392038  12.644869  15.522037
    37  H    3.372239   4.539803  10.941972  12.112432  15.046303
    38  H    1.087304   2.150505   9.971583  11.289895  14.038385
    39  H    2.142232   1.087345   8.026921   9.338114  11.921650
    40  H    8.717948   7.633242   1.085647   2.134732   5.077016
    41  H   10.942739   9.837110   2.150392   1.087535   3.154296
                   21         22         23         24         25
    21  H    0.000000
    22  H    1.763464   0.000000
    23  H    3.726547   2.509443   0.000000
    24  H    5.483610   4.742997   2.447240   0.000000
    25  H    6.774619   6.516919   4.589020   2.321302   0.000000
    26  H    6.843700   7.329761   6.194402   4.650206   2.962322
    27  H    8.027644   8.203894   6.629424   4.571147   2.338511
    28  H    7.816369   8.310381   7.326014   5.742690   3.847512
    29  H    6.205736   6.635264   5.807325   4.570956   3.257236
    30  H    7.402451   7.231213   5.691654   3.828795   2.352612
    31  H    8.045920   8.136838   7.002916   5.425615   3.917994
    32  H    9.499746   9.305836   7.522307   5.308802   3.363310
    33  H    9.543195   9.941344   8.973638   7.342296   5.459758
    34  H   11.852910  12.332364  11.402512   9.708482   7.714366
    35  H   14.431208  14.836627  13.593725  11.583929   9.366367
    36  H   14.915281  15.135899  13.757837  11.690575   9.565919
    37  H   14.266540  14.638027  13.523509  11.650224   9.580279
    38  H   13.669042  13.715980  12.061958   9.825203   7.683275
    39  H   11.708327  11.597795   9.780241   7.476303   5.394502
    40  H    4.723473   5.469093   4.949440   4.303551   3.709752
    41  H    2.488260   3.711745   4.304204   4.945938   5.415464
                   26         27         28         29         30
    26  H    0.000000
    27  H    1.742814   0.000000
    28  H    2.405045   2.506196   0.000000
    29  H    2.541095   3.072377   1.753986   0.000000
    30  H    3.813054   3.090873   3.066104   2.510058   0.000000
    31  H    4.320841   3.823807   2.550171   2.417447   1.744163
    32  H    4.596919   3.141064   3.665587   4.114393   2.210200
    33  H    4.724016   4.302325   2.355417   3.447002   3.758685
    34  H    6.766890   6.251117   4.510803   5.820958   6.046983
    35  H    8.465786   7.593802   6.667104   8.246997   8.088322
    36  H    9.203492   8.110692   7.329367   8.735113   8.094462
    37  H    8.902020   8.093074   6.792676   8.158905   7.927395
    38  H    7.737934   6.352559   6.262349   7.602684   6.547043
    39  H    6.017163   4.428485   4.928637   5.969267   4.500772
    40  H    2.219806   3.741547   3.632821   2.651540   4.507315
    41  H    4.643858   6.075171   5.807546   4.443190   6.156424
                   31         32         33         34         35
    31  H    0.000000
    32  H    2.726139   0.000000
    33  H    2.300731   3.678108   0.000000
    34  H    4.584638   5.376686   2.430897   0.000000
    35  H    7.013673   6.660220   5.051644   3.113020   0.000000
    36  H    7.074573   6.480702   5.478008   3.725907   1.780617
    37  H    6.616031   6.721758   4.731248   2.509640   1.782590
    38  H    6.002793   4.581204   4.950126   4.303490   3.159280
    39  H    4.493273   2.340378   4.305349   4.944571   5.087219
    40  H    5.013031   6.058366   5.851416   8.063869  10.223078
    41  H    6.674970   8.056075   7.786745  10.024941  12.439970
                   36         37         38         39         40
    36  H    0.000000
    37  H    1.763983   0.000000
    38  H    2.486919   3.711570   0.000000
    39  H    4.731740   5.472413   2.446932   0.000000
    40  H   10.935646  10.413991   9.636412   7.863754   0.000000
    41  H   13.107795  12.459729  11.894585  10.066193   2.433882
                   41
    41  H    0.000000
 Stoichiometry    C17H22N2
 Framework group  C1[X(C17H22N2)]
 Deg. of freedom   117
 Full point group                 C1      NOp   1
 Largest Abelian subgroup         C1      NOp   1
 Largest concise Abelian subgroup C1      NOp   1
                         Standard orientation:                         
 ---------------------------------------------------------------------
 Center     Atomic      Atomic             Coordinates (Angstroms)
 Number     Number       Type             X           Y           Z
 ---------------------------------------------------------------------
      1          6           0       -6.952490   -0.900028   -0.759970
      2          6           0       -5.592995   -0.422410   -0.347130
      3          6           0       -5.163739    0.865962   -0.669655
      4          6           0       -3.906703    1.318338   -0.252547
      5          6           0       -3.037777    0.499660    0.481996
      6          7           0       -1.824341    1.028811    0.908791
      7          6           0       -0.716997    0.199930    1.378928
      8          6           0       -0.082783   -0.641197    0.269377
      9          6           0        0.581705    0.183876   -0.832357
     10          7           0        1.701784    0.966627   -0.318057
     11          6           0        3.005827    0.467002   -0.302490
     12          6           0        3.332860   -0.886176   -0.427446
     13          6           0        4.659854   -1.327391   -0.334151
     14          6           0        5.696208   -0.422487   -0.094442
     15          6           0        7.110742   -0.899843    0.040979
     16          6           0        5.378222    0.924214    0.085764
     17          6           0        4.050462    1.356201   -0.010529
     18          6           0       -3.502952   -0.768236    0.843482
     19          6           0       -4.759517   -1.229710    0.429875
     20          1           0       -7.694170   -0.616726   -0.006606
     21          1           0       -6.965803   -1.988855   -0.877268
     22          1           0       -7.241834   -0.466255   -1.723024
     23          1           0       -5.804714    1.533521   -1.240441
     24          1           0       -3.610617    2.332781   -0.508250
     25          1           0       -1.523985    1.844150    0.383743
     26          1           0       -1.048619   -0.449377    2.197333
     27          1           0        0.036615    0.861560    1.821684
     28          1           0        0.653014   -1.309147    0.731223
     29          1           0       -0.837991   -1.287490   -0.192303
     30          1           0       -0.151196    0.876156   -1.263443
     31          1           0        0.894772   -0.461523   -1.661779
     32          1           0        1.681920    1.935483   -0.629019
     33          1           0        2.566857   -1.634486   -0.602698
     34          1           0        4.872422   -2.388282   -0.443257
     35          1           0        7.310045   -1.190173    1.077738
     36          1           0        7.817881   -0.114878   -0.247570
     37          1           0        7.296424   -1.760334   -0.611155
     38          1           0        6.156476    1.649307    0.311133
     39          1           0        3.835902    2.409391    0.154016
     40          1           0       -2.902975   -1.425562    1.465237
     41          1           0       -5.082092   -2.223555    0.731454
 ---------------------------------------------------------------------
 Rotational constants (GHZ):           1.5008655           0.1067468           0.1038400
 Standard basis: 6-31G(d,p) (6D, 7F)
 There are   395 symmetry adapted cartesian basis functions of A   symmetry.
 There are   395 symmetry adapted basis functions of A   symmetry.
   395 basis functions,   686 primitive gaussians,   395 cartesian basis functions
    69 alpha electrons       69 beta electrons
       nuclear repulsion energy      1288.9498832707 Hartrees.
 NAtoms=   41 NActive=   41 NUniq=   41 SFac= 1.00D+00 NAtFMM=   60 NAOKFM=F Big=F
 Integral buffers will be    131072 words long.
 Raffenetti 2 integral format.
 Two-electron integral symmetry is turned on.
 Force inversion solution in PCM.
 ------------------------------------------------------------------------------
 Polarizable Continuum Model (PCM)
 =================================
 Model                : PCM.
 Atomic radii         : UFF (Universal Force Field).
 Polarization charges : Total charges.
 Charge compensation  : None.
 Solution method      : Matrix inversion.
 Cavity type          : Scaled VdW (van der Waals Surface) (Alpha=1.100).
 Cavity algorithm     : GePol (No added spheres)
                        Default sphere list used, NSphG=   41.
                        Lebedev-Laikov grids with approx.  5.0 points / Ang**2.
                        Smoothing algorithm: York/Karplus (Gamma=1.0000).
                        Polarization charges: spherical gaussians, with
                                              point-specific exponents (IZeta= 3).
                        Self-potential: point-specific (ISelfS= 7).
                        Self-field    : sphere-specific E.n sum rule (ISelfD= 2).
 1st derivatives      : Analytical E(r).r(x)/FMM algorithm (CHGder, D1EAlg=3).
                        Cavity 1st derivative terms included.
 2nd derivatives      : Analytical E(r).r(xy)/FMM algorithm (CHGder, D2EAlg=3).
                        Cavity 2nd derivative terms included.
 Solvent              : Water, Eps=  78.355300 Eps(inf)=   1.777849
 ------------------------------------------------------------------------------
 One-electron integrals computed using PRISM.
 NBasis=   395 RedAO= T EigKep=  4.11D-04  NBF=   395
 NBsUse=   395 1.00D-06 EigRej= -1.00D+00 NBFU=   395
 ExpMin= 1.61D-01 ExpMax= 4.17D+03 ExpMxC= 6.27D+02 IAcc=3 IRadAn=         5 AccDes= 0.00D+00
 Harris functional with IExCor=  402 and IRadAn=       5 diagonalized for initial guess.
 HarFok:  IExCor=  402 AccDes= 0.00D+00 IRadAn=         5 IDoV= 1 UseB2=F ITyADJ=14
 ICtDFT=  3500011 ScaDFX=  1.000000  1.000000  1.000000  1.000000
 FoFCou: FMM=F IPFlag=           0 FMFlag=      100000 FMFlg1=           0
         NFxFlg=           0 DoJE=T BraDBF=F KetDBF=T FulRan=T
         wScrn=  0.000000 ICntrl=       500 IOpCl=  0 I1Cent=   200000004 NGrid=           0
         NMat0=    1 NMatS0=      1 NMatT0=    0 NMatD0=    1 NMtDS0=    0 NMtDT0=    0
 Petite list used in FoFCou.
 Requested convergence on RMS density matrix=1.00D-08 within  32 cycles.
 Requested convergence on MAX density matrix=1.00D-06.
 Requested convergence on             energy=1.00D-06.
 No special actions if energy rises.
 Inv3:  Mode=1 IEnd=    25404300.
 Iteration    1 A*A^-1 deviation from unit magnitude is 2.89D-15 for    192.
 Iteration    1 A*A^-1 deviation from orthogonality  is 2.86D-15 for   2654    828.
 Iteration    1 A^-1*A deviation from unit magnitude is 3.33D-15 for    192.
 Iteration    1 A^-1*A deviation from orthogonality  is 3.88D-15 for   2195   1529.
 Error on total polarization charges =  0.01327
 SCF Done:  E(RB3LYP) =  -770.608740206     A.U. after   12 cycles
            NFock= 12  Conv=0.52D-08     -V/T= 2.0097
 QCSCF skips out because SCF is already converged.
 DoSCS=F DFT=T ScalE2(SS,OS)=  1.000000  1.000000
 Range of M.O.s used for correlation:     1   395
 NBasis=   395 NAE=    69 NBE=    69 NFC=     0 NFV=     0
 NROrb=    395 NOA=    69 NOB=    69 NVA=   326 NVB=   326
 Symmetrizing basis deriv contribution to polar:
 IMax=3 JMax=2 DiffMx= 0.00D+00
 G2DrvN: will do    42 centers at a time, making    1 passes.
 Calling FoFCou, ICntrl=  3107 FMM=F I1Cent=   0 AccDes= 0.00D+00.
 NEqPCM:  Using equilibrium solvation (IEInf=0, Eps=  78.3553, EpsInf=   1.7778)
 G2PCM: DoFxE=T DoFxN=T DoGrad=T DoDP/DQ/DG/TGxP=FFFF NFrqRd=   0 IEInf=0 SqF1=F DoCFld=F IF1Alg=4.
 End of G2Drv F.D. properties file   721 does not exist.
 End of G2Drv F.D. properties file   722 does not exist.
 End of G2Drv F.D. properties file   788 does not exist.
          IDoAtm=11111111111111111111111111111111111111111
 NEqPCM:  Using equilibrium solvation (IEInf=0, Eps=  78.3553, EpsInf=   1.7778)
          Differentiating once with respect to nuclear coordinates.
 CalDSu exits because no D1Ps are significant.
          There are   126 degrees of freedom in the 1st order CPHF.  IDoFFX=6 NUNeed=     0.
    120 vectors produced by pass  0 Test12= 2.25D-14 1.00D-09 XBig12= 1.44D-01 1.80D-01.
 AX will form   120 AO Fock derivatives at one time.
    120 vectors produced by pass  1 Test12= 2.25D-14 1.00D-09 XBig12= 2.44D-02 4.52D-02.
    120 vectors produced by pass  2 Test12= 2.25D-14 1.00D-09 XBig12= 2.29D-04 2.42D-03.
    120 vectors produced by pass  3 Test12= 2.25D-14 1.00D-09 XBig12= 5.70D-07 8.66D-05.
    120 vectors produced by pass  4 Test12= 2.25D-14 1.00D-09 XBig12= 6.61D-10 1.70D-06.
     69 vectors produced by pass  5 Test12= 2.25D-14 1.00D-09 XBig12= 5.52D-13 5.67D-08.
      9 vectors produced by pass  6 Test12= 2.25D-14 1.00D-09 XBig12= 4.82D-16 1.98D-09.
 InvSVY:  IOpt=1 It=  1 EMax= 5.55D-16
 Solved reduced A of dimension   678 with   126 vectors.
 End of Minotr F.D. properties file   721 does not exist.
 End of Minotr F.D. properties file   722 does not exist.
 End of Minotr F.D. properties file   788 does not exist.

 **********************************************************************

            Population analysis using the SCF density.

 **********************************************************************

 Orbital symmetries:
       Occupied  (A) (A) (A) (A) (A) (A) (A) (A) (A) (A) (A) (A)
                 (A) (A) (A) (A) (A) (A) (A) (A) (A) (A) (A) (A)
                 (A) (A) (A) (A) (A) (A) (A) (A) (A) (A) (A) (A)
                 (A) (A) (A) (A) (A) (A) (A) (A) (A) (A) (A) (A)
                 (A) (A) (A) (A) (A) (A) (A) (A) (A) (A) (A) (A)
                 (A) (A) (A) (A) (A) (A) (A) (A) (A)
       Virtual   (A) (A) (A) (A) (A) (A) (A) (A) (A) (A) (A) (A)
                 (A) (A) (A) (A) (A) (A) (A) (A) (A) (A) (A) (A)
                 (A) (A) (A) (A) (A) (A) (A) (A) (A) (A) (A) (A)
                 (A) (A) (A) (A) (A) (A) (A) (A) (A) (A) (A) (A)
                 (A) (A) (A) (A) (A) (A) (A) (A) (A) (A) (A) (A)
                 (A) (A) (A) (A) (A) (A) (A) (A) (A) (A) (A) (A)
                 (A) (A) (A) (A) (A) (A) (A) (A) (A) (A) (A) (A)
                 (A) (A) (A) (A) (A) (A) (A) (A) (A) (A) (A) (A)
                 (A) (A) (A) (A) (A) (A) (A) (A) (A) (A) (A) (A)
                 (A) (A) (A) (A) (A) (A) (A) (A) (A) (A) (A) (A)
                 (A) (A) (A) (A) (A) (A) (A) (A) (A) (A) (A) (A)
                 (A) (A) (A) (A) (A) (A) (A) (A) (A) (A) (A) (A)
                 (A) (A) (A) (A) (A) (A) (A) (A) (A) (A) (A) (A)
                 (A) (A) (A) (A) (A) (A) (A) (A) (A) (A) (A) (A)
                 (A) (A) (A) (A) (A) (A) (A) (A) (A) (A) (A) (A)
                 (A) (A) (A) (A) (A) (A) (A) (A) (A) (A) (A) (A)
                 (A) (A) (A) (A) (A) (A) (A) (A) (A) (A) (A) (A)
                 (A) (A) (A) (A) (A) (A) (A) (A) (A) (A) (A) (A)
                 (A) (A) (A) (A) (A) (A) (A) (A) (A) (A) (A) (A)
                 (A) (A) (A) (A) (A) (A) (A) (A) (A) (A) (A) (A)
                 (A) (A) (A) (A) (A) (A) (A) (A) (A) (A) (A) (A)
                 (A) (A) (A) (A) (A) (A) (A) (A) (A) (A) (A) (A)
                 (A) (A) (A) (A) (A) (A) (A) (A) (A) (A) (A) (A)
                 (A) (A) (A) (A) (A) (A) (A) (A) (A) (A) (A) (A)
                 (A) (A) (A) (A) (A) (A) (A) (A) (A) (A) (A) (A)
                 (A) (A) (A) (A) (A) (A) (A) (A) (A) (A) (A) (A)
                 (A) (A) (A) (A) (A) (A) (A) (A) (A) (A) (A) (A)
                 (A) (A)
 The electronic state is 1-A.
 Alpha  occ. eigenvalues --  -14.33804 -14.33727 -10.22113 -10.22099 -10.21277
 Alpha  occ. eigenvalues --  -10.21130 -10.18209 -10.18185 -10.18131 -10.18123
 Alpha  occ. eigenvalues --  -10.18118 -10.17979 -10.17905 -10.17878 -10.17796
 Alpha  occ. eigenvalues --  -10.17742 -10.17717 -10.17473 -10.17409  -0.93070
 Alpha  occ. eigenvalues --   -0.92334  -0.84206  -0.83879  -0.78010  -0.75830
 Alpha  occ. eigenvalues --   -0.74258  -0.73702  -0.73344  -0.69096  -0.66954
 Alpha  occ. eigenvalues --   -0.65115  -0.60968  -0.60266  -0.59253  -0.57100
 Alpha  occ. eigenvalues --   -0.56079  -0.52211  -0.51905  -0.49561  -0.47558
 Alpha  occ. eigenvalues --   -0.45560  -0.45400  -0.45153  -0.44529  -0.43090
 Alpha  occ. eigenvalues --   -0.42650  -0.41612  -0.41586  -0.41204  -0.40937
 Alpha  occ. eigenvalues --   -0.40854  -0.40571  -0.38196  -0.37312  -0.37218
 Alpha  occ. eigenvalues --   -0.36316  -0.35738  -0.34567  -0.34266  -0.33976
 Alpha  occ. eigenvalues --   -0.33752  -0.32852  -0.32761  -0.28741  -0.27933
 Alpha  occ. eigenvalues --   -0.24473  -0.24392  -0.19312  -0.18844
 Alpha virt. eigenvalues --   -0.00026   0.00130   0.02024   0.02269   0.07440
 Alpha virt. eigenvalues --    0.10083   0.10351   0.11249   0.11615   0.12499
 Alpha virt. eigenvalues --    0.13231   0.13626   0.14828   0.15054   0.15354
 Alpha virt. eigenvalues --    0.15750   0.16176   0.16875   0.17728   0.17922
 Alpha virt. eigenvalues --    0.18267   0.18669   0.19122   0.19352   0.20653
 Alpha virt. eigenvalues --    0.21015   0.21285   0.22001   0.23428   0.23851
 Alpha virt. eigenvalues --    0.24338   0.25227   0.25397   0.26461   0.29684
 Alpha virt. eigenvalues --    0.30077   0.32993   0.33601   0.34324   0.34571
 Alpha virt. eigenvalues --    0.34959   0.35340   0.38344   0.39025   0.46773
 Alpha virt. eigenvalues --    0.47192   0.49936   0.50868   0.51785   0.52267
 Alpha virt. eigenvalues --    0.52542   0.52704   0.53326   0.54206   0.54550
 Alpha virt. eigenvalues --    0.55223   0.55429   0.56198   0.57508   0.58228
 Alpha virt. eigenvalues --    0.58745   0.59109   0.59558   0.60107   0.60237
 Alpha virt. eigenvalues --    0.60306   0.60449   0.62174   0.62743   0.62805
 Alpha virt. eigenvalues --    0.63707   0.64756   0.65382   0.65892   0.66337
 Alpha virt. eigenvalues --    0.67699   0.68861   0.70327   0.70968   0.71634
 Alpha virt. eigenvalues --    0.72114   0.72441   0.74898   0.75233   0.75531
 Alpha virt. eigenvalues --    0.77276   0.78328   0.78806   0.79818   0.80255
 Alpha virt. eigenvalues --    0.81241   0.82405   0.82914   0.83794   0.84244
 Alpha virt. eigenvalues --    0.84970   0.85697   0.86056   0.86181   0.87250
 Alpha virt. eigenvalues --    0.87829   0.88870   0.89105   0.89401   0.89918
 Alpha virt. eigenvalues --    0.90613   0.92167   0.93198   0.93593   0.94116
 Alpha virt. eigenvalues --    0.94438   0.94972   0.96727   0.98217   0.99873
 Alpha virt. eigenvalues --    1.00049   1.00566   1.01333   1.02356   1.04181
 Alpha virt. eigenvalues --    1.05939   1.06235   1.08540   1.09359   1.13424
 Alpha virt. eigenvalues --    1.14379   1.15997   1.17339   1.18098   1.18557
 Alpha virt. eigenvalues --    1.18758   1.19940   1.22448   1.26049   1.27152
 Alpha virt. eigenvalues --    1.28237   1.30522   1.31904   1.31938   1.33337
 Alpha virt. eigenvalues --    1.37433   1.38859   1.39765   1.40422   1.41718
 Alpha virt. eigenvalues --    1.41741   1.42243   1.43027   1.43734   1.45226
 Alpha virt. eigenvalues --    1.46035   1.46477   1.50073   1.53426   1.58264
 Alpha virt. eigenvalues --    1.58850   1.60807   1.64643   1.68740   1.73984
 Alpha virt. eigenvalues --    1.74153   1.74876   1.75476   1.76953   1.77907
 Alpha virt. eigenvalues --    1.78847   1.79268   1.80806   1.81292   1.82353
 Alpha virt. eigenvalues --    1.83592   1.83998   1.84669   1.85271   1.85778
 Alpha virt. eigenvalues --    1.87595   1.89083   1.91190   1.92320   1.93409
 Alpha virt. eigenvalues --    1.93532   1.93649   1.94578   1.96113   1.96893
 Alpha virt. eigenvalues --    1.97670   1.97900   1.98083   2.00067   2.01744
 Alpha virt. eigenvalues --    2.02403   2.03076   2.05247   2.05322   2.05709
 Alpha virt. eigenvalues --    2.07169   2.07911   2.08673   2.10063   2.10296
 Alpha virt. eigenvalues --    2.11317   2.12522   2.13697   2.14746   2.15798
 Alpha virt. eigenvalues --    2.16555   2.18095   2.18820   2.21199   2.21799
 Alpha virt. eigenvalues --    2.22144   2.25714   2.26666   2.27482   2.28856
 Alpha virt. eigenvalues --    2.29969   2.30795   2.31514   2.32676   2.32924
 Alpha virt. eigenvalues --    2.33529   2.34787   2.37544   2.38588   2.39306
 Alpha virt. eigenvalues --    2.41274   2.41834   2.42514   2.42959   2.43333
 Alpha virt. eigenvalues --    2.43950   2.45066   2.45738   2.47894   2.48545
 Alpha virt. eigenvalues --    2.49497   2.50936   2.51468   2.54225   2.54759
 Alpha virt. eigenvalues --    2.56547   2.57361   2.57889   2.59358   2.59890
 Alpha virt. eigenvalues --    2.59997   2.60354   2.61626   2.61938   2.63555
 Alpha virt. eigenvalues --    2.64589   2.66772   2.67955   2.68797   2.70456
 Alpha virt. eigenvalues --    2.70591   2.72479   2.73115   2.73803   2.74312
 Alpha virt. eigenvalues --    2.76558   2.77110   2.79267   2.80404   2.82246
 Alpha virt. eigenvalues --    2.82811   2.84591   2.85695   2.87973   2.88495
 Alpha virt. eigenvalues --    2.89246   2.90492   2.91518   2.91767   2.93404
 Alpha virt. eigenvalues --    3.00285   3.02356   3.06715   3.07114   3.07981
 Alpha virt. eigenvalues --    3.09116   3.19440   3.19504   3.20806   3.21095
 Alpha virt. eigenvalues --    3.25831   3.25961   3.28801   3.31081   3.31998
 Alpha virt. eigenvalues --    3.32594   3.33584   3.37415   3.38107   3.39761
 Alpha virt. eigenvalues --    3.43326   3.44150   3.44437   3.47024   3.47867
 Alpha virt. eigenvalues --    3.50531   3.51086   3.53996   3.54293   3.59094
 Alpha virt. eigenvalues --    3.83541   3.83912   4.13257   4.13959   4.14769
 Alpha virt. eigenvalues --    4.16214   4.16609   4.17644   4.19583   4.22446
 Alpha virt. eigenvalues --    4.37926   4.38634   4.43604   4.44412   4.45352
 Alpha virt. eigenvalues --    4.53801   4.56199   4.62700   4.70040   4.84851
 Alpha virt. eigenvalues --    4.85716
          Condensed to atoms (all electrons):
               1          2          3          4          5          6
     1  C    5.034765   0.356611  -0.065205   0.007445   0.000417   0.000001
     2  C    0.356611   4.711304   0.549534  -0.034624  -0.028746   0.000442
     3  C   -0.065205   0.549534   4.898609   0.506615  -0.022152   0.004917
     4  C    0.007445  -0.034624   0.506615   5.007802   0.523554  -0.068107
     5  C    0.000417  -0.028746  -0.022152   0.523554   4.561684   0.286962
     6  N    0.000001   0.000442   0.004917  -0.068107   0.286962   6.934529
     7  C   -0.000000  -0.000008  -0.000136   0.005180  -0.038418   0.307495
     8  C    0.000000   0.000003   0.000008   0.000318   0.000181  -0.073460
     9  C    0.000000  -0.000000  -0.000002  -0.000032  -0.000763  -0.005017
    10  N    0.000000  -0.000000  -0.000000   0.000000   0.000025  -0.000444
    11  C   -0.000000   0.000000   0.000000  -0.000000   0.000001   0.000011
    12  C    0.000000  -0.000000   0.000000   0.000000  -0.000000  -0.000003
    13  C   -0.000000  -0.000000  -0.000000   0.000000  -0.000000  -0.000000
    14  C    0.000000   0.000000   0.000000  -0.000000   0.000000   0.000000
    15  C    0.000000   0.000000   0.000000  -0.000000  -0.000000   0.000000
    16  C    0.000000  -0.000000  -0.000000   0.000000  -0.000000  -0.000000
    17  C    0.000000   0.000000  -0.000000  -0.000000   0.000000   0.000000
    18  C    0.007613  -0.035336  -0.050214  -0.049545   0.532041  -0.072236
    19  C   -0.063208   0.555024  -0.024889  -0.050840  -0.023140   0.005051
    20  H    0.374044  -0.030973  -0.001861  -0.000185   0.000062   0.000000
    21  H    0.374187  -0.029137   0.003188  -0.000227   0.000009  -0.000000
    22  H    0.374087  -0.029369  -0.004031   0.000186   0.000003  -0.000000
    23  H   -0.009339  -0.044974   0.368380  -0.039531   0.003878  -0.000107
    24  H   -0.000198   0.004066  -0.033744   0.360882  -0.045480  -0.008721
    25  H   -0.000000  -0.000011   0.000060  -0.010311  -0.029784   0.352805
    26  H   -0.000000  -0.000005   0.000006  -0.000094  -0.009480  -0.033752
    27  H   -0.000000   0.000000   0.000002  -0.000217   0.004367  -0.033018
    28  H   -0.000000   0.000000  -0.000000  -0.000007  -0.000115   0.005422
    29  H   -0.000000  -0.000005  -0.000029  -0.000002   0.006648  -0.009096
    30  H   -0.000000   0.000001  -0.000005  -0.000123   0.001113   0.008604
    31  H    0.000000   0.000000   0.000000  -0.000003  -0.000038   0.000068
    32  H   -0.000000  -0.000000   0.000000  -0.000000  -0.000004   0.000044
    33  H   -0.000000   0.000000  -0.000000  -0.000000  -0.000000   0.000002
    34  H    0.000000  -0.000000   0.000000  -0.000000  -0.000000  -0.000000
    35  H    0.000000   0.000000   0.000000   0.000000   0.000000  -0.000000
    36  H    0.000000   0.000000   0.000000  -0.000000  -0.000000  -0.000000
    37  H    0.000000   0.000000   0.000000  -0.000000  -0.000000   0.000000
    38  H    0.000000  -0.000000   0.000000   0.000000   0.000000  -0.000000
    39  H    0.000000   0.000000  -0.000000  -0.000000  -0.000000   0.000000
    40  H   -0.000201   0.004050   0.000758   0.005300  -0.041712  -0.008773
    41  H   -0.009441  -0.044218   0.005682   0.000629   0.003767  -0.000111
               7          8          9         10         11         12
     1  C   -0.000000   0.000000   0.000000   0.000000  -0.000000   0.000000
     2  C   -0.000008   0.000003  -0.000000  -0.000000   0.000000  -0.000000
     3  C   -0.000136   0.000008  -0.000002  -0.000000   0.000000   0.000000
     4  C    0.005180   0.000318  -0.000032   0.000000  -0.000000   0.000000
     5  C   -0.038418   0.000181  -0.000763   0.000025   0.000001  -0.000000
     6  N    0.307495  -0.073460  -0.005017  -0.000444   0.000011  -0.000003
     7  C    4.817643   0.356394  -0.038984  -0.006326   0.000408   0.000002
     8  C    0.356394   5.059524   0.360818  -0.069100  -0.005506   0.000207
     9  C   -0.038984   0.360818   4.838401   0.290764  -0.036256  -0.004677
    10  N   -0.006326  -0.069100   0.290764   6.945826   0.286955  -0.071928
    11  C    0.000408  -0.005506  -0.036256   0.286955   4.581781   0.532321
    12  C    0.000002   0.000207  -0.004677  -0.071928   0.532321   4.971451
    13  C   -0.000003   0.000105  -0.000011   0.004973  -0.023810   0.499742
    14  C    0.000000  -0.000000  -0.000002   0.000447  -0.029342  -0.034266
    15  C    0.000000   0.000000  -0.000000   0.000001   0.000395   0.007532
    16  C   -0.000000   0.000003  -0.000145   0.004835  -0.023471  -0.050152
    17  C    0.000007  -0.000291   0.004416  -0.065249   0.520566  -0.048751
    18  C   -0.004218  -0.003020   0.000162  -0.000001  -0.000000   0.000000
    19  C    0.000022  -0.000099   0.000003  -0.000000  -0.000000  -0.000000
    20  H   -0.000000  -0.000000  -0.000000  -0.000000   0.000000  -0.000000
    21  H    0.000000  -0.000000   0.000000   0.000000  -0.000000   0.000000
    22  H    0.000000  -0.000000   0.000000   0.000000  -0.000000   0.000000
    23  H    0.000002  -0.000000   0.000000  -0.000000  -0.000000   0.000000
    24  H    0.000062   0.000016  -0.000016   0.000000  -0.000000   0.000000
    25  H   -0.039498  -0.002791   0.002239   0.000672  -0.000007  -0.000001
    26  H    0.386238  -0.047399   0.004842   0.000133  -0.000034  -0.000002
    27  H    0.382673  -0.048329  -0.009836   0.014749   0.000560  -0.000156
    28  H   -0.030955   0.366025  -0.035589  -0.005316   0.001957   0.001707
    29  H   -0.032767   0.367626  -0.033143   0.004429   0.000162  -0.000201
    30  H   -0.009789  -0.043894   0.383220  -0.033645   0.004109   0.000022
    31  H    0.005047  -0.052177   0.383063  -0.046626  -0.001426   0.003639
    32  H    0.000167   0.004734  -0.035725   0.347667  -0.026237   0.006302
    33  H   -0.000019  -0.001470   0.003563  -0.008775  -0.041151   0.360933
    34  H    0.000000  -0.000001   0.000004  -0.000111   0.003812  -0.038928
    35  H    0.000000   0.000000   0.000000  -0.000000   0.000068  -0.000233
    36  H   -0.000000  -0.000000  -0.000000  -0.000000   0.000000  -0.000213
    37  H   -0.000000  -0.000000  -0.000000  -0.000000   0.000006   0.000197
    38  H   -0.000000  -0.000000   0.000002  -0.000107   0.003953   0.000487
    39  H   -0.000001  -0.000010   0.000009  -0.007747  -0.047181   0.005414
    40  H    0.003500  -0.000642   0.000017   0.000000   0.000000  -0.000000
    41  H    0.000006  -0.000002   0.000000  -0.000000   0.000000   0.000000
              13         14         15         16         17         18
     1  C   -0.000000   0.000000   0.000000   0.000000   0.000000   0.007613
     2  C   -0.000000   0.000000   0.000000  -0.000000   0.000000  -0.035336
     3  C   -0.000000   0.000000   0.000000  -0.000000  -0.000000  -0.050214
     4  C    0.000000  -0.000000  -0.000000   0.000000  -0.000000  -0.049545
     5  C   -0.000000   0.000000  -0.000000  -0.000000   0.000000   0.532041
     6  N   -0.000000   0.000000   0.000000  -0.000000   0.000000  -0.072236
     7  C   -0.000003   0.000000   0.000000  -0.000000   0.000007  -0.004218
     8  C    0.000105  -0.000000   0.000000   0.000003  -0.000291  -0.003020
     9  C   -0.000011  -0.000002  -0.000000  -0.000145   0.004416   0.000162
    10  N    0.004973   0.000447   0.000001   0.004835  -0.065249  -0.000001
    11  C   -0.023810  -0.029342   0.000395  -0.023471   0.520566  -0.000000
    12  C    0.499742  -0.034266   0.007532  -0.050152  -0.048751   0.000000
    13  C    4.914048   0.555139  -0.064485  -0.025501  -0.050704   0.000000
    14  C    0.555139   4.707901   0.356479   0.549713  -0.034340  -0.000000
    15  C   -0.064485   0.356479   5.034843  -0.063977   0.007541  -0.000000
    16  C   -0.025501   0.549713  -0.063977   4.898257   0.507287   0.000000
    17  C   -0.050704  -0.034340   0.007541   0.507287   4.999097  -0.000000
    18  C    0.000000  -0.000000  -0.000000   0.000000  -0.000000   4.976421
    19  C    0.000000   0.000000   0.000000   0.000000  -0.000000   0.500008
    20  H   -0.000000   0.000000   0.000000   0.000000   0.000000  -0.000226
    21  H    0.000000   0.000000   0.000000   0.000000  -0.000000   0.000193
    22  H    0.000000   0.000000   0.000000   0.000000  -0.000000  -0.000218
    23  H    0.000000  -0.000000   0.000000   0.000000   0.000000   0.000512
    24  H    0.000000  -0.000000   0.000000   0.000000   0.000000   0.005418
    25  H   -0.000000   0.000000  -0.000000   0.000000   0.000000   0.006210
    26  H    0.000000   0.000000  -0.000000   0.000000  -0.000001   0.004068
    27  H   -0.000002   0.000000   0.000000  -0.000001  -0.000017   0.000063
    28  H   -0.000001  -0.000001   0.000000  -0.000004  -0.000144  -0.000073
    29  H   -0.000004   0.000000  -0.000000  -0.000000   0.000006   0.004036
    30  H   -0.000005   0.000000  -0.000000   0.000003  -0.000210  -0.000037
    31  H   -0.000232  -0.000016   0.000000   0.000000   0.000768  -0.000006
    32  H   -0.000094  -0.000007  -0.000000   0.000006  -0.011489   0.000000
    33  H   -0.034838   0.003958  -0.000199   0.000788   0.005124  -0.000000
    34  H    0.368186  -0.044979  -0.009240   0.005666   0.000608   0.000000
    35  H   -0.002369  -0.030701   0.373858  -0.001436  -0.000190  -0.000000
    36  H    0.003250  -0.029055   0.374237  -0.004206   0.000169   0.000000
    37  H   -0.003951  -0.029191   0.374441   0.002957  -0.000228   0.000000
    38  H    0.005784  -0.044428  -0.009536   0.368391  -0.039805  -0.000000
    39  H    0.000747   0.004174  -0.000198  -0.033210   0.361295  -0.000000
    40  H   -0.000000   0.000000   0.000000  -0.000000   0.000000   0.361432
    41  H    0.000000  -0.000000   0.000000   0.000000   0.000000  -0.039243
              19         20         21         22         23         24
     1  C   -0.063208   0.374044   0.374187   0.374087  -0.009339  -0.000198
     2  C    0.555024  -0.030973  -0.029137  -0.029369  -0.044974   0.004066
     3  C   -0.024889  -0.001861   0.003188  -0.004031   0.368380  -0.033744
     4  C   -0.050840  -0.000185  -0.000227   0.000186  -0.039531   0.360882
     5  C   -0.023140   0.000062   0.000009   0.000003   0.003878  -0.045480
     6  N    0.005051   0.000000  -0.000000  -0.000000  -0.000107  -0.008721
     7  C    0.000022  -0.000000   0.000000   0.000000   0.000002   0.000062
     8  C   -0.000099  -0.000000  -0.000000  -0.000000  -0.000000   0.000016
     9  C    0.000003  -0.000000   0.000000   0.000000   0.000000  -0.000016
    10  N   -0.000000  -0.000000   0.000000   0.000000  -0.000000   0.000000
    11  C   -0.000000   0.000000  -0.000000  -0.000000  -0.000000  -0.000000
    12  C   -0.000000  -0.000000   0.000000   0.000000   0.000000   0.000000
    13  C    0.000000  -0.000000   0.000000   0.000000   0.000000   0.000000
    14  C    0.000000   0.000000   0.000000   0.000000  -0.000000  -0.000000
    15  C    0.000000   0.000000   0.000000   0.000000   0.000000   0.000000
    16  C    0.000000   0.000000   0.000000   0.000000   0.000000   0.000000
    17  C   -0.000000   0.000000  -0.000000  -0.000000   0.000000   0.000000
    18  C    0.500008  -0.000226   0.000193  -0.000218   0.000512   0.005418
    19  C    4.911425  -0.002057  -0.004015   0.003056   0.005745   0.000757
    20  H   -0.002057   0.597011  -0.030100  -0.030556   0.000703   0.000001
    21  H   -0.004015  -0.030100   0.597783  -0.029237   0.000049   0.000003
    22  H    0.003056  -0.030556  -0.029237   0.598771   0.004522  -0.000004
    23  H    0.005745   0.000703   0.000049   0.004522   0.628532  -0.006293
    24  H    0.000757   0.000001   0.000003  -0.000004  -0.006293   0.629659
    25  H   -0.000085   0.000000  -0.000000  -0.000000  -0.000011   0.006177
    26  H    0.000177   0.000000  -0.000000  -0.000000   0.000000  -0.000001
    27  H   -0.000005   0.000000  -0.000000  -0.000000  -0.000000  -0.000013
    28  H    0.000005   0.000000  -0.000000  -0.000000   0.000000  -0.000000
    29  H   -0.000185  -0.000000   0.000000   0.000000  -0.000000  -0.000000
    30  H    0.000000   0.000000  -0.000000  -0.000000  -0.000000   0.000016
    31  H   -0.000000   0.000000  -0.000000  -0.000000   0.000000  -0.000000
    32  H    0.000000   0.000000  -0.000000  -0.000000   0.000000  -0.000000
    33  H    0.000000   0.000000  -0.000000  -0.000000   0.000000  -0.000000
    34  H    0.000000   0.000000   0.000000  -0.000000   0.000000  -0.000000
    35  H   -0.000000   0.000000   0.000000   0.000000   0.000000   0.000000
    36  H    0.000000   0.000000   0.000000   0.000000   0.000000  -0.000000
    37  H    0.000000   0.000000   0.000000   0.000000   0.000000  -0.000000
    38  H   -0.000000   0.000000   0.000000   0.000000  -0.000000   0.000000
    39  H    0.000000   0.000000  -0.000000  -0.000000   0.000000  -0.000000
    40  H   -0.035032   0.000002  -0.000006   0.000003   0.000017  -0.000192
    41  H    0.367750   0.000612   0.004759   0.000054  -0.000185   0.000017
              25         26         27         28         29         30
     1  C   -0.000000  -0.000000  -0.000000  -0.000000  -0.000000  -0.000000
     2  C   -0.000011  -0.000005   0.000000   0.000000  -0.000005   0.000001
     3  C    0.000060   0.000006   0.000002  -0.000000  -0.000029  -0.000005
     4  C   -0.010311  -0.000094  -0.000217  -0.000007  -0.000002  -0.000123
     5  C   -0.029784  -0.009480   0.004367  -0.000115   0.006648   0.001113
     6  N    0.352805  -0.033752  -0.033018   0.005422  -0.009096   0.008604
     7  C   -0.039498   0.386238   0.382673  -0.030955  -0.032767  -0.009789
     8  C   -0.002791  -0.047399  -0.048329   0.366025   0.367626  -0.043894
     9  C    0.002239   0.004842  -0.009836  -0.035589  -0.033143   0.383220
    10  N    0.000672   0.000133   0.014749  -0.005316   0.004429  -0.033645
    11  C   -0.000007  -0.000034   0.000560   0.001957   0.000162   0.004109
    12  C   -0.000001  -0.000002  -0.000156   0.001707  -0.000201   0.000022
    13  C   -0.000000   0.000000  -0.000002  -0.000001  -0.000004  -0.000005
    14  C    0.000000   0.000000   0.000000  -0.000001   0.000000   0.000000
    15  C   -0.000000  -0.000000   0.000000   0.000000  -0.000000  -0.000000
    16  C    0.000000   0.000000  -0.000001  -0.000004  -0.000000   0.000003
    17  C    0.000000  -0.000001  -0.000017  -0.000144   0.000006  -0.000210
    18  C    0.006210   0.004068   0.000063  -0.000073   0.004036  -0.000037
    19  C   -0.000085   0.000177  -0.000005   0.000005  -0.000185   0.000000
    20  H    0.000000   0.000000   0.000000   0.000000  -0.000000   0.000000
    21  H   -0.000000  -0.000000  -0.000000  -0.000000   0.000000  -0.000000
    22  H   -0.000000  -0.000000  -0.000000  -0.000000   0.000000  -0.000000
    23  H   -0.000011   0.000000  -0.000000   0.000000  -0.000000  -0.000000
    24  H    0.006177  -0.000001  -0.000013  -0.000000  -0.000000   0.000016
    25  H    0.444500   0.005033  -0.004598  -0.000067  -0.000191   0.002277
    26  H    0.005033   0.611980  -0.033049  -0.001233  -0.004560   0.000200
    27  H   -0.004598  -0.033049   0.605209  -0.000734   0.005706   0.000533
    28  H   -0.000067  -0.001233  -0.000734   0.627303  -0.032596   0.006036
    29  H   -0.000191  -0.004560   0.005706  -0.032596   0.623025  -0.001801
    30  H    0.002277   0.000200   0.000533   0.006036  -0.001801   0.614740
    31  H    0.000012  -0.000124   0.000341  -0.004764   0.000286  -0.033502
    32  H    0.000016   0.000007  -0.000585   0.000025  -0.000192  -0.008574
    33  H   -0.000000   0.000001   0.000024   0.001944   0.000265  -0.000020
    34  H    0.000000   0.000000   0.000000  -0.000003   0.000000  -0.000000
    35  H   -0.000000  -0.000000  -0.000000   0.000000  -0.000000  -0.000000
    36  H    0.000000   0.000000   0.000000  -0.000000   0.000000   0.000000
    37  H    0.000000   0.000000   0.000000  -0.000000   0.000000   0.000000
    38  H   -0.000000  -0.000000  -0.000000  -0.000000   0.000000  -0.000000
    39  H    0.000000  -0.000000   0.000018  -0.000002   0.000000  -0.000015
    40  H   -0.000090   0.001747  -0.000089   0.000048   0.000745   0.000002
    41  H    0.000003   0.000003  -0.000000  -0.000000  -0.000003  -0.000000
              31         32         33         34         35         36
     1  C    0.000000  -0.000000  -0.000000   0.000000   0.000000   0.000000
     2  C    0.000000  -0.000000   0.000000  -0.000000   0.000000   0.000000
     3  C    0.000000   0.000000  -0.000000   0.000000   0.000000   0.000000
     4  C   -0.000003  -0.000000  -0.000000  -0.000000   0.000000  -0.000000
     5  C   -0.000038  -0.000004  -0.000000  -0.000000   0.000000  -0.000000
     6  N    0.000068   0.000044   0.000002  -0.000000  -0.000000  -0.000000
     7  C    0.005047   0.000167  -0.000019   0.000000   0.000000  -0.000000
     8  C   -0.052177   0.004734  -0.001470  -0.000001   0.000000  -0.000000
     9  C    0.383063  -0.035725   0.003563   0.000004   0.000000  -0.000000
    10  N   -0.046626   0.347667  -0.008775  -0.000111  -0.000000  -0.000000
    11  C   -0.001426  -0.026237  -0.041151   0.003812   0.000068   0.000000
    12  C    0.003639   0.006302   0.360933  -0.038928  -0.000233  -0.000213
    13  C   -0.000232  -0.000094  -0.034838   0.368186  -0.002369   0.003250
    14  C   -0.000016  -0.000007   0.003958  -0.044979  -0.030701  -0.029055
    15  C    0.000000  -0.000000  -0.000199  -0.009240   0.373858   0.374237
    16  C    0.000000   0.000006   0.000788   0.005666  -0.001436  -0.004206
    17  C    0.000768  -0.011489   0.005124   0.000608  -0.000190   0.000169
    18  C   -0.000006   0.000000  -0.000000   0.000000  -0.000000   0.000000
    19  C   -0.000000   0.000000   0.000000   0.000000  -0.000000   0.000000
    20  H    0.000000   0.000000   0.000000   0.000000   0.000000   0.000000
    21  H   -0.000000  -0.000000  -0.000000   0.000000   0.000000   0.000000
    22  H   -0.000000  -0.000000  -0.000000  -0.000000   0.000000   0.000000
    23  H    0.000000   0.000000   0.000000   0.000000   0.000000   0.000000
    24  H   -0.000000  -0.000000  -0.000000  -0.000000   0.000000  -0.000000
    25  H    0.000012   0.000016  -0.000000   0.000000  -0.000000   0.000000
    26  H   -0.000124   0.000007   0.000001   0.000000  -0.000000   0.000000
    27  H    0.000341  -0.000585   0.000024   0.000000  -0.000000   0.000000
    28  H   -0.004764   0.000025   0.001944  -0.000003   0.000000  -0.000000
    29  H    0.000286  -0.000192   0.000265   0.000000  -0.000000   0.000000
    30  H   -0.033502  -0.008574  -0.000020  -0.000000  -0.000000   0.000000
    31  H    0.635567   0.001898   0.002090   0.000007  -0.000000   0.000000
    32  H    0.001898   0.445194  -0.000082   0.000003   0.000000  -0.000000
    33  H    0.002090  -0.000082   0.620754  -0.006267   0.000001   0.000003
    34  H    0.000007   0.000003  -0.006267   0.627026   0.000701   0.000051
    35  H   -0.000000   0.000000   0.000001   0.000701   0.595333  -0.030088
    36  H    0.000000  -0.000000   0.000003   0.000051  -0.030088   0.597380
    37  H    0.000000  -0.000000  -0.000004   0.004477  -0.030030  -0.029255
    38  H    0.000000  -0.000010   0.000017  -0.000184   0.000650   0.004725
    39  H    0.000026   0.005543  -0.000190   0.000017   0.000001  -0.000005
    40  H    0.000001  -0.000000   0.000000  -0.000000  -0.000000   0.000000
    41  H    0.000000   0.000000  -0.000000   0.000000   0.000000   0.000000
              37         38         39         40         41
     1  C    0.000000   0.000000   0.000000  -0.000201  -0.009441
     2  C    0.000000  -0.000000   0.000000   0.004050  -0.044218
     3  C    0.000000   0.000000  -0.000000   0.000758   0.005682
     4  C   -0.000000   0.000000  -0.000000   0.005300   0.000629
     5  C   -0.000000   0.000000  -0.000000  -0.041712   0.003767
     6  N    0.000000  -0.000000   0.000000  -0.008773  -0.000111
     7  C   -0.000000  -0.000000  -0.000001   0.003500   0.000006
     8  C   -0.000000  -0.000000  -0.000010  -0.000642  -0.000002
     9  C   -0.000000   0.000002   0.000009   0.000017   0.000000
    10  N   -0.000000  -0.000107  -0.007747   0.000000  -0.000000
    11  C    0.000006   0.003953  -0.047181   0.000000   0.000000
    12  C    0.000197   0.000487   0.005414  -0.000000   0.000000
    13  C   -0.003951   0.005784   0.000747  -0.000000   0.000000
    14  C   -0.029191  -0.044428   0.004174   0.000000  -0.000000
    15  C    0.374441  -0.009536  -0.000198   0.000000   0.000000
    16  C    0.002957   0.368391  -0.033210  -0.000000   0.000000
    17  C   -0.000228  -0.039805   0.361295   0.000000   0.000000
    18  C    0.000000  -0.000000  -0.000000   0.361432  -0.039243
    19  C    0.000000  -0.000000   0.000000  -0.035032   0.367750
    20  H    0.000000   0.000000   0.000000   0.000002   0.000612
    21  H    0.000000   0.000000  -0.000000  -0.000006   0.004759
    22  H    0.000000   0.000000  -0.000000   0.000003   0.000054
    23  H    0.000000  -0.000000   0.000000   0.000017  -0.000185
    24  H   -0.000000   0.000000  -0.000000  -0.000192   0.000017
    25  H    0.000000  -0.000000   0.000000  -0.000090   0.000003
    26  H    0.000000  -0.000000  -0.000000   0.001747   0.000003
    27  H    0.000000  -0.000000   0.000018  -0.000089  -0.000000
[...]
   149    N   10  dx2y2  Ryd( 3d)     0.00070
   150    N   10  dz2    Ryd( 3d)     0.00064

   151    C   11  S      Cor( 1S)     1.99901
   152    C   11  S      Val( 2S)     0.83506
   153    C   11  S      Ryd( 3S)     0.00112
   154    C   11  S      Ryd( 4S)     0.00009
   155    C   11  px     Val( 2p)     0.92127
   156    C   11  px     Ryd( 3p)     0.00541
   157    C   11  py     Val( 2p)     1.07945
   158    C   11  py     Ryd( 3p)     0.00572
   159    C   11  pz     Val( 2p)     0.98091
   160    C   11  pz     Ryd( 3p)     0.00112
   161    C   11  dxy    Ryd( 3d)     0.00093
   162    C   11  dxz    Ryd( 3d)     0.00160
   163    C   11  dyz    Ryd( 3d)     0.00073
   164    C   11  dx2y2  Ryd( 3d)     0.00103
   165    C   11  dz2    Ryd( 3d)     0.00041

   166    C   12  S      Cor( 1S)     1.99906
   167    C   12  S      Val( 2S)     0.94862
   168    C   12  S      Ryd( 3S)     0.00062
   169    C   12  S      Ryd( 4S)     0.00004
   170    C   12  px     Val( 2p)     1.14169
   171    C   12  px     Ryd( 3p)     0.00358
   172    C   12  py     Val( 2p)     1.11939
   173    C   12  py     Ryd( 3p)     0.00431
   174    C   12  pz     Val( 2p)     1.08782
   175    C   12  pz     Ryd( 3p)     0.00120
   176    C   12  dxy    Ryd( 3d)     0.00068
   177    C   12  dxz    Ryd( 3d)     0.00040
   178    C   12  dyz    Ryd( 3d)     0.00039
   179    C   12  dx2y2  Ryd( 3d)     0.00058
   180    C   12  dz2    Ryd( 3d)     0.00036

   181    C   13  S      Cor( 1S)     1.99905
   182    C   13  S      Val( 2S)     0.95049
   183    C   13  S      Ryd( 3S)     0.00061
   184    C   13  S      Ryd( 4S)     0.00004
   185    C   13  px     Val( 2p)     1.06782
   186    C   13  px     Ryd( 3p)     0.00375
   187    C   13  py     Val( 2p)     1.19169
   188    C   13  py     Ryd( 3p)     0.00518
   189    C   13  pz     Val( 2p)     1.00491
   190    C   13  pz     Ryd( 3p)     0.00064
   191    C   13  dxy    Ryd( 3d)     0.00062
   192    C   13  dxz    Ryd( 3d)     0.00064
   193    C   13  dyz    Ryd( 3d)     0.00030
   194    C   13  dx2y2  Ryd( 3d)     0.00076
   195    C   13  dz2    Ryd( 3d)     0.00037

   196    C   14  S      Cor( 1S)     1.99902
   197    C   14  S      Val( 2S)     0.88124
   198    C   14  S      Ryd( 3S)     0.00040
   199    C   14  S      Ryd( 4S)     0.00005
   200    C   14  px     Val( 2p)     1.06534
   201    C   14  px     Ryd( 3p)     0.00462
   202    C   14  py     Val( 2p)     1.08013
   203    C   14  py     Ryd( 3p)     0.00426
   204    C   14  pz     Val( 2p)     1.03679
   205    C   14  pz     Ryd( 3p)     0.00197
   206    C   14  dxy    Ryd( 3d)     0.00076
   207    C   14  dxz    Ryd( 3d)     0.00059
   208    C   14  dyz    Ryd( 3d)     0.00046
   209    C   14  dx2y2  Ryd( 3d)     0.00069
   210    C   14  dz2    Ryd( 3d)     0.00033

   211    C   15  S      Cor( 1S)     1.99940
   212    C   15  S      Val( 2S)     1.09722
   213    C   15  S      Ryd( 3S)     0.00019
   214    C   15  S      Ryd( 4S)     0.00001
   215    C   15  px     Val( 2p)     1.10664
   216    C   15  px     Ryd( 3p)     0.00102
   217    C   15  py     Val( 2p)     1.24094
   218    C   15  py     Ryd( 3p)     0.00251
   219    C   15  pz     Val( 2p)     1.24881
   220    C   15  pz     Ryd( 3p)     0.00029
   221    C   15  dxy    Ryd( 3d)     0.00041
   222    C   15  dxz    Ryd( 3d)     0.00076
   223    C   15  dyz    Ryd( 3d)     0.00034
   224    C   15  dx2y2  Ryd( 3d)     0.00074
   225    C   15  dz2    Ryd( 3d)     0.00059

   226    C   16  S      Cor( 1S)     1.99905
   227    C   16  S      Val( 2S)     0.95099
   228    C   16  S      Ryd( 3S)     0.00062
   229    C   16  S      Ryd( 4S)     0.00005
   230    C   16  px     Val( 2p)     1.13356
   231    C   16  px     Ryd( 3p)     0.00428
   232    C   16  py     Val( 2p)     1.12761
   233    C   16  py     Ryd( 3p)     0.00454
   234    C   16  pz     Val( 2p)     1.00438
   235    C   16  pz     Ryd( 3p)     0.00060
   236    C   16  dxy    Ryd( 3d)     0.00076
   237    C   16  dxz    Ryd( 3d)     0.00049
   238    C   16  dyz    Ryd( 3d)     0.00047
   239    C   16  dx2y2  Ryd( 3d)     0.00060
   240    C   16  dz2    Ryd( 3d)     0.00035

   241    C   17  S      Cor( 1S)     1.99906
   242    C   17  S      Val( 2S)     0.95170
   243    C   17  S      Ryd( 3S)     0.00069
   244    C   17  S      Ryd( 4S)     0.00004
   245    C   17  px     Val( 2p)     1.06964
   246    C   17  px     Ryd( 3p)     0.00410
   247    C   17  py     Val( 2p)     1.18378
   248    C   17  py     Ryd( 3p)     0.00459
   249    C   17  pz     Val( 2p)     1.06782
   250    C   17  pz     Ryd( 3p)     0.00092
   251    C   17  dxy    Ryd( 3d)     0.00067
   252    C   17  dxz    Ryd( 3d)     0.00050
   253    C   17  dyz    Ryd( 3d)     0.00031
   254    C   17  dx2y2  Ryd( 3d)     0.00061
   255    C   17  dz2    Ryd( 3d)     0.00037

   256    C   18  S      Cor( 1S)     1.99907
   257    C   18  S      Val( 2S)     0.94359
   258    C   18  S      Ryd( 3S)     0.00068
   259    C   18  S      Ryd( 4S)     0.00004
   260    C   18  px     Val( 2p)     1.12867
   261    C   18  px     Ryd( 3p)     0.00438
   262    C   18  py     Val( 2p)     1.10589
   263    C   18  py     Ryd( 3p)     0.00517
   264    C   18  pz     Val( 2p)     1.16278
   265    C   18  pz     Ryd( 3p)     0.00657
   266    C   18  dxy    Ryd( 3d)     0.00057
   267    C   18  dxz    Ryd( 3d)     0.00056
   268    C   18  dyz    Ryd( 3d)     0.00048
   269    C   18  dx2y2  Ryd( 3d)     0.00060
   270    C   18  dz2    Ryd( 3d)     0.00037

   271    C   19  S      Cor( 1S)     1.99906
   272    C   19  S      Val( 2S)     0.94218
   273    C   19  S      Ryd( 3S)     0.00067
   274    C   19  S      Ryd( 4S)     0.00004
   275    C   19  px     Val( 2p)     1.07865
   276    C   19  px     Ryd( 3p)     0.00471
   277    C   19  py     Val( 2p)     1.18003
   278    C   19  py     Ryd( 3p)     0.00493
   279    C   19  pz     Val( 2p)     1.12239
   280    C   19  pz     Ryd( 3p)     0.00585
   281    C   19  dxy    Ryd( 3d)     0.00059
   282    C   19  dxz    Ryd( 3d)     0.00049
   283    C   19  dyz    Ryd( 3d)     0.00041
   284    C   19  dx2y2  Ryd( 3d)     0.00064
   285    C   19  dz2    Ryd( 3d)     0.00045

   286    H   20  S      Val( 1S)     0.74920
   287    H   20  S      Ryd( 2S)     0.00176
   288    H   20  px     Ryd( 2p)     0.00023
   289    H   20  py     Ryd( 2p)     0.00019
   290    H   20  pz     Ryd( 2p)     0.00011

   291    H   21  S      Val( 1S)     0.75636
   292    H   21  S      Ryd( 2S)     0.00094
   293    H   21  px     Ryd( 2p)     0.00009
   294    H   21  py     Ryd( 2p)     0.00029
   295    H   21  pz     Ryd( 2p)     0.00012

   296    H   22  S      Val( 1S)     0.74534
   297    H   22  S      Ryd( 2S)     0.00131
   298    H   22  px     Ryd( 2p)     0.00010
   299    H   22  py     Ryd( 2p)     0.00010
   300    H   22  pz     Ryd( 2p)     0.00035

   301    H   23  S      Val( 1S)     0.77364
   302    H   23  S      Ryd( 2S)     0.00096
   303    H   23  px     Ryd( 2p)     0.00020
   304    H   23  py     Ryd( 2p)     0.00020
   305    H   23  pz     Ryd( 2p)     0.00026

   306    H   24  S      Val( 1S)     0.77200
   307    H   24  S      Ryd( 2S)     0.00119
   308    H   24  px     Ryd( 2p)     0.00011
   309    H   24  py     Ryd( 2p)     0.00037
   310    H   24  pz     Ryd( 2p)     0.00019

   311    H   25  S      Val( 1S)     0.55759
   312    H   25  S      Ryd( 2S)     0.00224
   313    H   25  px     Ryd( 2p)     0.00020
   314    H   25  py     Ryd( 2p)     0.00055
   315    H   25  pz     Ryd( 2p)     0.00043

   316    H   26  S      Val( 1S)     0.73696
   317    H   26  S      Ryd( 2S)     0.00149
   318    H   26  px     Ryd( 2p)     0.00009
   319    H   26  py     Ryd( 2p)     0.00018
   320    H   26  pz     Ryd( 2p)     0.00027

   321    H   27  S      Val( 1S)     0.73438
   322    H   27  S      Ryd( 2S)     0.00184
   323    H   27  px     Ryd( 2p)     0.00025
   324    H   27  py     Ryd( 2p)     0.00016
   325    H   27  pz     Ryd( 2p)     0.00014

   326    H   28  S      Val( 1S)     0.74460
   327    H   28  S      Ryd( 2S)     0.00132
   328    H   28  px     Ryd( 2p)     0.00021
   329    H   28  py     Ryd( 2p)     0.00020
   330    H   28  pz     Ryd( 2p)     0.00014

   331    H   29  S      Val( 1S)     0.74588
   332    H   29  S      Ryd( 2S)     0.00314
   333    H   29  px     Ryd( 2p)     0.00023
   334    H   29  py     Ryd( 2p)     0.00018
   335    H   29  pz     Ryd( 2p)     0.00014

   336    H   30  S      Val( 1S)     0.75254
   337    H   30  S      Ryd( 2S)     0.00150
   338    H   30  px     Ryd( 2p)     0.00021
   339    H   30  py     Ryd( 2p)     0.00018
   340    H   30  pz     Ryd( 2p)     0.00016

   341    H   31  S      Val( 1S)     0.75909
   342    H   31  S      Ryd( 2S)     0.00205
   343    H   31  px     Ryd( 2p)     0.00010
   344    H   31  py     Ryd( 2p)     0.00018
   345    H   31  pz     Ryd( 2p)     0.00026

   346    H   32  S      Val( 1S)     0.56983
   347    H   32  S      Ryd( 2S)     0.00160
   348    H   32  px     Ryd( 2p)     0.00018
   349    H   32  py     Ryd( 2p)     0.00056
   350    H   32  pz     Ryd( 2p)     0.00050

   351    H   33  S      Val( 1S)     0.75755
   352    H   33  S      Ryd( 2S)     0.00097
   353    H   33  px     Ryd( 2p)     0.00022
   354    H   33  py     Ryd( 2p)     0.00023
   355    H   33  pz     Ryd( 2p)     0.00016

   356    H   34  S      Val( 1S)     0.75843
   357    H   34  S      Ryd( 2S)     0.00097
   358    H   34  px     Ryd( 2p)     0.00008
   359    H   34  py     Ryd( 2p)     0.00040
   360    H   34  pz     Ryd( 2p)     0.00012

   361    H   35  S      Val( 1S)     0.75451
   362    H   35  S      Ryd( 2S)     0.00098
   363    H   35  px     Ryd( 2p)     0.00013
   364    H   35  py     Ryd( 2p)     0.00010
   365    H   35  pz     Ryd( 2p)     0.00031

   366    H   36  S      Val( 1S)     0.75480
   367    H   36  S      Ryd( 2S)     0.00095
   368    H   36  px     Ryd( 2p)     0.00018
   369    H   36  py     Ryd( 2p)     0.00015
   370    H   36  pz     Ryd( 2p)     0.00020

   371    H   37  S      Val( 1S)     0.75734
   372    H   37  S      Ryd( 2S)     0.00079
   373    H   37  px     Ryd( 2p)     0.00008
   374    H   37  py     Ryd( 2p)     0.00033
   375    H   37  pz     Ryd( 2p)     0.00009

   376    H   38  S      Val( 1S)     0.75755
   377    H   38  S      Ryd( 2S)     0.00096
   378    H   38  px     Ryd( 2p)     0.00025
   379    H   38  py     Ryd( 2p)     0.00023
   380    H   38  pz     Ryd( 2p)     0.00013

   381    H   39  S      Val( 1S)     0.75779
   382    H   39  S      Ryd( 2S)     0.00097
   383    H   39  px     Ryd( 2p)     0.00007
   384    H   39  py     Ryd( 2p)     0.00039
   385    H   39  pz     Ryd( 2p)     0.00013

   386    H   40  S      Val( 1S)     0.76730
   387    H   40  S      Ryd( 2S)     0.00106
   388    H   40  px     Ryd( 2p)     0.00020
   389    H   40  py     Ryd( 2p)     0.00021
   390    H   40  pz     Ryd( 2p)     0.00027

   391    H   41  S      Val( 1S)     0.77201
   392    H   41  S      Ryd( 2S)     0.00101
   393    H   41  px     Ryd( 2p)     0.00011
   394    H   41  py     Ryd( 2p)     0.00036
   395    H   41  pz     Ryd( 2p)     0.00018

 WARNING:  1 low occupancy (<1.9990e) core orbital  found on  C    5


 Summary of Natural Population Analysis:                  
                                                          
                                       Natural Population 
                Natural  -----------------------------------------------
    Atom  No    Charge         Core      Valence    Rydberg      Total
 -----------------------------------------------------------------------
      C    1   -0.70891      1.99939     4.70231    0.00721     6.70891
      C    2    0.04779      1.99903     3.93813    0.01504     5.95221
      C    3   -0.36196      1.99906     4.34376    0.01914     6.36196
      C    4   -0.35172      1.99908     4.33270    0.01994     6.35172
      C    5    0.16416      1.99899     3.81715    0.01971     5.83584
      N    6   -0.44278      1.99940     5.43264    0.01073     7.44278
      C    7   -0.29342      1.99931     4.27635    0.01776     6.29342
      C    8   -0.48336      1.99930     4.47371    0.01036     6.48336
      C    9   -0.27666      1.99933     4.26067    0.01666     6.27666
      N   10   -0.65482      1.99940     5.64278    0.01264     7.65482
      C   11    0.16614      1.99901     3.81670    0.01815     5.83386
      C   12   -0.30873      1.99906     4.29751    0.01216     6.30873
      C   13   -0.22686      1.99905     4.21491    0.01290     6.22686
      C   14   -0.07667      1.99902     4.06350    0.01414     6.07667
      C   15   -0.69988      1.99940     4.69361    0.00687     6.69988
      C   16   -0.22835      1.99905     4.21655    0.01276     6.22835
      C   17   -0.28480      1.99906     4.27293    0.01281     6.28480
      C   18   -0.35942      1.99907     4.34094    0.01942     6.35942
      C   19   -0.34110      1.99906     4.32326    0.01878     6.34110
      H   20    0.24851      0.00000     0.74920    0.00229     0.75149
      H   21    0.24220      0.00000     0.75636    0.00144     0.75780
      H   22    0.25281      0.00000     0.74534    0.00185     0.74719
      H   23    0.22473      0.00000     0.77364    0.00163     0.77527
      H   24    0.22613      0.00000     0.77200    0.00186     0.77387
      H   25    0.43899      0.00000     0.55759    0.00342     0.56101
      H   26    0.26100      0.00000     0.73696    0.00204     0.73900
      H   27    0.26323      0.00000     0.73438    0.00238     0.73677
      H   28    0.25353      0.00000     0.74460    0.00187     0.74647
      H   29    0.25043      0.00000     0.74588    0.00369     0.74957
      H   30    0.24541      0.00000     0.75254    0.00205     0.75459
      H   31    0.23832      0.00000     0.75909    0.00259     0.76168
      H   32    0.42733      0.00000     0.56983    0.00284     0.57267
      H   33    0.24088      0.00000     0.75755    0.00158     0.75912
      H   34    0.24001      0.00000     0.75843    0.00157     0.75999
      H   35    0.24397      0.00000     0.75451    0.00152     0.75603
      H   36    0.24372      0.00000     0.75480    0.00148     0.75628
      H   37    0.24137      0.00000     0.75734    0.00129     0.75863
      H   38    0.24088      0.00000     0.75755    0.00156     0.75912
      H   39    0.24064      0.00000     0.75779    0.00157     0.75936
      H   40    0.23096      0.00000     0.76730    0.00174     0.76904
      H   41    0.22633      0.00000     0.77201    0.00167     0.77367
 =======================================================================
   * Total *   -0.00000     37.98407    99.69481    0.32112   138.00000

                                 Natural Population      
 --------------------------------------------------------
   Core                      37.98407 ( 99.9581% of  38)
   Valence                   99.69481 ( 99.6948% of 100)
   Natural Minimal Basis    137.67888 ( 99.7673% of 138)
   Natural Rydberg Basis      0.32112 (  0.2327% of 138)
 --------------------------------------------------------

    Atom  No          Natural Electron Configuration
 ----------------------------------------------------------------------------
      C    1      [core]2S( 1.10)2p( 3.60)
      C    2      [core]2S( 0.89)2p( 3.04)3p( 0.01)
      C    3      [core]2S( 0.94)2p( 3.40)3p( 0.02)
      C    4      [core]2S( 0.94)2p( 3.39)3p( 0.02)
      C    5      [core]2S( 0.84)2p( 2.97)3p( 0.01)3d( 0.01)
      N    6      [core]2S( 1.28)2p( 4.16)3p( 0.01)
      C    7      [core]2S( 1.02)2p( 3.25)3p( 0.01)
      C    8      [core]2S( 1.05)2p( 3.42)3p( 0.01)
      C    9      [core]2S( 1.02)2p( 3.24)3p( 0.01)
      N   10      [core]2S( 1.25)2p( 4.39)3p( 0.01)
      C   11      [core]2S( 0.84)2p( 2.98)3p( 0.01)
      C   12      [core]2S( 0.95)2p( 3.35)3p( 0.01)
      C   13      [core]2S( 0.95)2p( 3.26)3p( 0.01)
      C   14      [core]2S( 0.88)2p( 3.18)3p( 0.01)
      C   15      [core]2S( 1.10)2p( 3.60)
      C   16      [core]2S( 0.95)2p( 3.27)3p( 0.01)
      C   17      [core]2S( 0.95)2p( 3.32)3p( 0.01)
      C   18      [core]2S( 0.94)2p( 3.40)3p( 0.02)
      C   19      [core]2S( 0.94)2p( 3.38)3p( 0.02)
      H   20            1S( 0.75)
      H   21            1S( 0.76)
      H   22            1S( 0.75)
      H   23            1S( 0.77)
      H   24            1S( 0.77)
      H   25            1S( 0.56)
      H   26            1S( 0.74)
      H   27            1S( 0.73)
      H   28            1S( 0.74)
      H   29            1S( 0.75)
      H   30            1S( 0.75)
      H   31            1S( 0.76)
      H   32            1S( 0.57)
      H   33            1S( 0.76)
      H   34            1S( 0.76)
      H   35            1S( 0.75)
      H   36            1S( 0.75)
      H   37            1S( 0.76)
      H   38            1S( 0.76)
      H   39            1S( 0.76)
      H   40            1S( 0.77)
      H   41            1S( 0.77)


 NBO analysis skipped by request.
 1\1\GINC-DRG2-W002\SP\RB3LYP TD-FC\6-31G(d,p)\C17H22N2\QDUEZ\18-Jul-20
 24\0\\# TD(NStates=10, Root=1) B3LYP/6-31G** SCRF=(Solvent=water) volu
 me pop=NPA density=current Geom=AllCheck Guess=Read\\JSKXMAPMKXVJKT-UH
 FFFAOYSA-N_conf_3\\0,1\C,0,-7.0109671808,1.0926681826,0.3441651423\C,0
 ,-5.6473849096,0.4412810206,0.339192248\C,0,-5.0915983669,-0.094825560
 2,1.5126867247\C,0,-3.8321251755,-0.6817847549,1.5234083354\C,0,-3.057
 8208635,-0.7669221916,0.3455477249\N,0,-1.8293158051,-1.4176320727,0.3
 789017347\C,0,-0.8089002911,-1.2666759538,-0.6516698635\C,0,-0.1546800
 299,0.1233080722,-0.7456096681\C,0,0.650553512,0.5124544792,0.50496724
 06\N,0,1.7799327975,-0.3711682208,0.7748453955\C,0,3.0580540731,-0.147
 7651054,0.277145081\C,0,3.3226234383,0.738573395,-0.7833278929\C,0,4.6
 260512664,0.9070559664,-1.2584147012\C,0,5.7122217467,0.2145487222,-0.
 7153330171\C,0,7.1169092569,0.3949617408,-1.2425626454\C,0,5.439641715
 6,-0.6683693629,0.3433320732\C,0,4.1515169049,-0.8498029229,0.83067290
 61\C,0,-3.6068333371,-0.2291672285,-0.8338763445\C,0,-4.8752316368,0.3
 56095093,-0.8236131705\H,0,-7.7673712311,0.4443036024,0.8011427807\H,0
 ,-7.3422640987,1.3261463103,-0.6718328173\H,0,-7.0117217212,2.03055092
 34,0.9137077534\H,0,-5.6570201949,-0.0501635587,2.4411007134\H,0,-3.43
 35686991,-1.0888871563,2.4499905851\H,0,-1.4716908563,-1.5809654523,1.
 3097502042\H,0,-1.2424717062,-1.5342846706,-1.6215196419\H,0,-0.033862
 7438,-2.0104535829,-0.4433863131\H,0,0.4995283358,0.1340939332,-1.6255
 661927\H,0,-0.923872114,0.8863641225,-0.9137957051\H,0,-0.0076588958,0
 .4787583645,1.3788712974\H,0,0.9896910727,1.5535672188,0.4135928408\H,
 0,1.7608134367,-0.8271453199,1.675019366\H,0,2.51720555,1.2988689639,-
 1.2447812695\H,0,4.7942971601,1.6018037901,-2.0783440953\H,0,7.4963742
 38,-0.5219720299,-1.7103849136\H,0,7.8192970402,0.6558290353,-0.442323
 9468\H,0,7.159061975,1.1887897279,-1.993880142\H,0,6.2559719289,-1.224
 1897646,0.7997073392\H,0,3.9770130626,-1.5388791752,1.6539274348\H,0,-
 3.0519015163,-0.2688322999,-1.7647255534\H,0,-5.2684971379,0.759863719
 6,-1.7539993282\\Version=ES64L-G16RevA.03\State=1-A\HF=-770.6132211\RM
 SD=7.752e-09\Dipole=1.5695991,-0.4400751,0.4584995\Quadrupole=-13.1958
 274,4.4318316,8.7639959,-3.2115552,1.8284793,-4.251867\PG=C01 [X(C17H2
 2N2)]\\@


 I DO NOT DEFINE TIME, SPACE, PLACE, AND MOTION, AS BEING WELL KNOWN TO ALL.
                                            -- NEWTON (1642-1726), PRINCIPIA
 Job cpu time:       0 days  1 hours 18 minutes 44.9 seconds.
 Elapsed time:       0 days  0 hours 26 minutes 19.9 seconds.
 File lengths (MBytes):  RWF=   1249 Int=      0 D2E=      0 Chk=     79 Scr=      1
 Normal termination of Gaussian 16 at Thu Jul 18 06:49:38 2024.
