 Entering Gaussian System, Link 0=g16
 Initial command:
 /opt/sw/arch/manual/gaussian/G16_A03/g16/l1.exe "/scratch/1380883/Gau-76851.inp" -scrdir="/scratch/1380883/"
 Entering Link 1 = /opt/sw/arch/manual/gaussian/G16_A03/g16/l1.exe PID=     76852.
  
 Copyright (c) 1988,1990,1992,1993,1995,1998,2003,2009,2016,
            Gaussian, Inc.  All Rights Reserved.
  
 This is part of the Gaussian(R) 16 program.  It is based on
 the Gaussian(R) 09 system (copyright 2009, Gaussian, Inc.),
 the Gaussian(R) 03 system (copyright 2003, Gaussian, Inc.),
 the Gaussian(R) 98 system (copyright 1998, Gaussian, Inc.),
 the Gaussian(R) 94 system (copyright 1995, Gaussian, Inc.),
 the Gaussian 92(TM) system (copyright 1992, Gaussian, Inc.),
 the Gaussian 90(TM) system (copyright 1990, Gaussian, Inc.),
 the Gaussian 88(TM) system (copyright 1988, Gaussian, Inc.),
 the Gaussian 86(TM) system (copyright 1986, Carnegie Mellon
 University), and the Gaussian 82(TM) system (copyright 1983,
 Carnegie Mellon University). Gaussian is a federally registered
 trademark of Gaussian, Inc.
  
 This software contains proprietary and confidential information,
 including trade secrets, belonging to Gaussian, Inc.
  
 This software is provided under written license and may be
 used, copied, transmitted, or stored only in accord with that
 written license.
  
 The following legend is applicable only to US Government
 contracts under FAR:
  
                    RESTRICTED RIGHTS LEGEND
  
 Use, reproduction and disclosure by the US Government is
 subject to restrictions as set forth in subparagraphs (a)
 and (c) of the Commercial Computer Software - Restricted
 Rights clause in FAR 52.227-19.
  
 Gaussian, Inc.
 340 Quinnipiac St., Bldg. 40, Wallingford CT 06492
  
  
 ---------------------------------------------------------------
 Warning -- This program may not be used in any manner that
 competes with the business of Gaussian, Inc. or will provide
 assistance to any competitor of Gaussian, Inc.  The licensee
 of this program is prohibited from giving any competitor of
 Gaussian, Inc. access to this program.  By using this program,
 the user acknowledges that Gaussian, Inc. is engaged in the
 business of creating and licensing software in the field of
 computational chemistry and represents and warrants to the
 licensee that it is not a competitor of Gaussian, Inc. and that
 it will not use this program in any manner prohibited above.
 ---------------------------------------------------------------
  

 Cite this work as:
 Gaussian 16, Revision A.03,
 M. J. Frisch, G. W. Trucks, H. B. Schlegel, G. E. Scuseria, 
 M. A. Robb, J. R. Cheeseman, G. Scalmani, V. Barone, 
 G. A. Petersson, H. Nakatsuji, X. Li, M. Caricato, A. V. Marenich, 
 J. Bloino, B. G. Janesko, R. Gomperts, B. Mennucci, H. P. Hratchian, 
 J. V. Ortiz, A. F. Izmaylov, J. L. Sonnenberg, D. Williams-Young, 
 F. Ding, F. Lipparini, F. Egidi, J. Goings, B. Peng, A. Petrone, 
 T. Henderson, D. Ranasinghe, V. G. Zakrzewski, J. Gao, N. Rega, 
 G. Zheng, W. Liang, M. Hada, M. Ehara, K. Toyota, R. Fukuda, 
 J. Hasegawa, M. Ishida, T. Nakajima, Y. Honda, O. Kitao, H. Nakai, 
 T. Vreven, K. Throssell, J. A. Montgomery, Jr., J. E. Peralta, 
 F. Ogliaro, M. J. Bearpark, J. J. Heyd, E. N. Brothers, K. N. Kudin, 
 V. N. Staroverov, T. A. Keith, R. Kobayashi, J. Normand, 
 K. Raghavachari, A. P. Rendell, J. C. Burant, S. S. Iyengar, 
 J. Tomasi, M. Cossi, J. M. Millam, M. Klene, C. Adamo, R. Cammi, 
 J. W. Ochterski, R. L. Martin, K. Morokuma, O. Farkas, 
 J. B. Foresman, and D. J. Fox, Gaussian, Inc., Wallingford CT, 2016.
 
 ******************************************
 Gaussian 16:  ES64L-G16RevA.03 25-Dec-2016
                18-Jul-2024 
 ******************************************
 %nprocshared=6
 Will use up to    6 processors via shared memory.
 %mem=12GB
 %Chk=JSKXMAPMKXVJKT-UHFFFAOYSA-N_conf_1_0.chk
 -------------------------------------------------------
 # opt=CalcFc B3LYP/6-31G** SCRF=(Solvent=water) scf=xqc
 -------------------------------------------------------
 1/10=4,18=20,19=15,26=3,38=1/1,3;
 2/9=110,12=2,17=6,18=5,40=1/2;
 3/5=1,6=6,7=101,11=2,25=1,30=1,70=2201,71=2,72=1,74=-5,140=1/1,2,3;
 4//1;
 5/5=2,8=3,13=1,38=5,53=1/2,8;
 8/6=4,10=90,11=11/1;
 11/6=1,8=1,9=11,15=111,16=1/1,2,10;
 10/6=1,13=1/2;
 6/7=2,8=2,9=2,10=2,28=1/1;
 7/10=1,18=20,25=1/1,2,3,16;
 1/10=4,18=20,19=15,26=3/3(2);
 2/9=110/2;
 99//99;
 2/9=110/2;
 3/5=1,6=6,7=101,11=2,25=1,30=1,70=2205,71=1,72=1,74=-5/1,2,3;
 4/5=5,16=3,69=1/1;
 5/5=2,8=3,13=1,38=5,53=1/2,8;
 7//1,2,3,16;
 1/18=20,19=15,26=3/3(-5);
 2/9=110/2;
 6/7=2,8=2,9=2,10=2,19=2,28=1/1;
 99/9=1/99;
 ----------------------------------
 JSKXMAPMKXVJKT-UHFFFAOYSA-N_conf_1
 ----------------------------------
 Symbolic Z-matrix:
 Charge =  0 Multiplicity = 1
 C                    -7.40611   0.54855  -1.11244 
 C                    -5.99842   0.44467  -0.60782 
 C                    -5.63761  -0.5588    0.29297 
 C                    -4.33016  -0.62972   0.78691 
 C                    -3.34423   0.28293   0.38638 
 N                    -2.07421   0.1889    0.96681 
 C                    -0.95182   0.90401   0.36784 
 C                     0.36053   0.56215   1.07237 
 C                     0.87913  -0.82352   0.68852 
 N                     2.17569  -1.07008   1.31105 
 C                     3.37185  -0.83133   0.63217 
 C                     3.4878    0.00815  -0.47982 
 C                     4.73011   0.26062  -1.07693 
 C                     5.89624  -0.3097   -0.56213 
 C                     7.22974  -0.01067  -1.17785 
 C                     5.80232  -1.10519   0.58066 
 C                     4.55724  -1.35267   1.16998 
 C                    -3.73332   1.31583  -0.47235 
 C                    -5.03996   1.39317  -0.9719 
 H                    -8.00145   1.17028  -0.43674 
 H                    -7.86942  -0.44117  -1.18355 
 H                    -7.43012   0.99064  -2.11405 
 H                    -6.37076  -1.28905   0.6269 
 H                    -4.0882   -1.41242   1.5016 
 H                    -1.86901  -0.76262   1.25643 
 H                    -0.8707    0.67687  -0.70211 
 H                    -1.11573   1.98282   0.47574 
 H                     1.10457   1.31977   0.79867 
 H                     0.23845   0.62672   2.16109 
 H                     0.18301  -1.58309   1.06303 
 H                     0.91578  -0.96056  -0.39855 
 H                     2.20618  -1.93671   1.84261 
 H                     2.61663   0.49156  -0.90907 
 H                     4.77626   0.91572  -1.94382 
 H                     7.13377   0.15386  -2.25627 
 H                     7.66142   0.88478  -0.72026 
 H                     7.92113  -0.84831  -1.03783 
 H                     6.69547  -1.53316   1.02939 
 H                     4.52262  -1.96203   2.06984 
 H                    -3.0326    2.08926  -0.77022 
 H                    -5.30212   2.20953  -1.64098 
 

 GradGradGradGradGradGradGradGradGradGradGradGradGradGradGradGradGradGrad
 Berny optimization.
 Initialization pass.
                           ----------------------------
                           !    Initial Parameters    !
                           ! (Angstroms and Degrees)  !
 --------------------------                            --------------------------
 ! Name  Definition              Value          Derivative Info.                !
 --------------------------------------------------------------------------------
 ! R1    R(1,2)                  1.499          calculate D2E/DX2 analytically  !
 ! R2    R(1,20)                 1.0943         calculate D2E/DX2 analytically  !
 ! R3    R(1,21)                 1.0951         calculate D2E/DX2 analytically  !
 ! R4    R(1,22)                 1.0951         calculate D2E/DX2 analytically  !
 ! R5    R(2,3)                  1.3959         calculate D2E/DX2 analytically  !
 ! R6    R(2,19)                 1.3967         calculate D2E/DX2 analytically  !
 ! R7    R(3,4)                  1.3994         calculate D2E/DX2 analytically  !
 ! R8    R(3,23)                 1.0873         calculate D2E/DX2 analytically  !
 ! R9    R(4,5)                  1.4019         calculate D2E/DX2 analytically  !
 ! R10   R(4,24)                 1.0872         calculate D2E/DX2 analytically  !
 ! R11   R(5,6)                  1.3995         calculate D2E/DX2 analytically  !
 ! R12   R(5,18)                 1.3985         calculate D2E/DX2 analytically  !
 ! R13   R(6,7)                  1.4594         calculate D2E/DX2 analytically  !
 ! R14   R(6,25)                 1.0156         calculate D2E/DX2 analytically  !
 ! R15   R(7,8)                  1.5282         calculate D2E/DX2 analytically  !
 ! R16   R(7,26)                 1.0968         calculate D2E/DX2 analytically  !
 ! R17   R(7,27)                 1.0965         calculate D2E/DX2 analytically  !
 ! R18   R(8,9)                  1.5285         calculate D2E/DX2 analytically  !
 ! R19   R(8,28)                 1.0966         calculate D2E/DX2 analytically  !
 ! R20   R(8,29)                 1.0974         calculate D2E/DX2 analytically  !
 ! R21   R(9,10)                 1.4592         calculate D2E/DX2 analytically  !
 ! R22   R(9,30)                 1.0963         calculate D2E/DX2 analytically  !
 ! R23   R(9,31)                 1.0963         calculate D2E/DX2 analytically  !
 ! R24   R(10,11)                1.396          calculate D2E/DX2 analytically  !
 ! R25   R(10,32)                1.0171         calculate D2E/DX2 analytically  !
 ! R26   R(11,12)                1.3981         calculate D2E/DX2 analytically  !
 ! R27   R(11,17)                1.4022         calculate D2E/DX2 analytically  !
 ! R28   R(12,13)                1.4013         calculate D2E/DX2 analytically  !
 ! R29   R(12,33)                1.0848         calculate D2E/DX2 analytically  !
 ! R30   R(13,14)                1.3965         calculate D2E/DX2 analytically  !
 ! R31   R(13,34)                1.0876         calculate D2E/DX2 analytically  !
 ! R32   R(14,15)                1.4989         calculate D2E/DX2 analytically  !
 ! R33   R(14,16)                1.3956         calculate D2E/DX2 analytically  !
 ! R34   R(15,35)                1.0951         calculate D2E/DX2 analytically  !
 ! R35   R(15,36)                1.0943         calculate D2E/DX2 analytically  !
 ! R36   R(15,37)                1.0951         calculate D2E/DX2 analytically  !
 ! R37   R(16,17)                1.3996         calculate D2E/DX2 analytically  !
 ! R38   R(16,38)                1.0873         calculate D2E/DX2 analytically  !
 ! R39   R(17,39)                1.0873         calculate D2E/DX2 analytically  !
 ! R40   R(18,19)                1.401          calculate D2E/DX2 analytically  !
 ! R41   R(18,40)                1.0853         calculate D2E/DX2 analytically  !
 ! R42   R(19,41)                1.0876         calculate D2E/DX2 analytically  !
 ! A1    A(2,1,20)             110.0234         calculate D2E/DX2 analytically  !
 ! A2    A(2,1,21)             110.8876         calculate D2E/DX2 analytically  !
 ! A3    A(2,1,22)             110.8831         calculate D2E/DX2 analytically  !
 ! A4    A(20,1,21)            108.8681         calculate D2E/DX2 analytically  !
 ! A5    A(20,1,22)            108.8718         calculate D2E/DX2 analytically  !
 ! A6    A(21,1,22)            107.2284         calculate D2E/DX2 analytically  !
 ! A7    A(1,2,3)              120.6494         calculate D2E/DX2 analytically  !
 ! A8    A(1,2,19)             120.6376         calculate D2E/DX2 analytically  !
 ! A9    A(3,2,19)             118.6206         calculate D2E/DX2 analytically  !
 ! A10   A(2,3,4)              120.3767         calculate D2E/DX2 analytically  !
 ! A11   A(2,3,23)             120.4432         calculate D2E/DX2 analytically  !
 ! A12   A(4,3,23)             119.1776         calculate D2E/DX2 analytically  !
 ! A13   A(3,4,5)              121.5481         calculate D2E/DX2 analytically  !
 ! A14   A(3,4,24)             118.4531         calculate D2E/DX2 analytically  !
 ! A15   A(5,4,24)             119.998          calculate D2E/DX2 analytically  !
 ! A16   A(4,5,6)              118.4222         calculate D2E/DX2 analytically  !
 ! A17   A(4,5,18)             117.4246         calculate D2E/DX2 analytically  !
 ! A18   A(6,5,18)             123.8331         calculate D2E/DX2 analytically  !
 ! A19   A(5,6,7)              119.6543         calculate D2E/DX2 analytically  !
 ! A20   A(5,6,25)             111.3818         calculate D2E/DX2 analytically  !
 ! A21   A(7,6,25)             114.8817         calculate D2E/DX2 analytically  !
 ! A22   A(6,7,8)              111.1993         calculate D2E/DX2 analytically  !
 ! A23   A(6,7,26)             110.8407         calculate D2E/DX2 analytically  !
 ! A24   A(6,7,27)             109.0711         calculate D2E/DX2 analytically  !
 ! A25   A(8,7,26)             109.8699         calculate D2E/DX2 analytically  !
 ! A26   A(8,7,27)             107.6432         calculate D2E/DX2 analytically  !
 ! A27   A(26,7,27)            108.1072         calculate D2E/DX2 analytically  !
 ! A28   A(7,8,9)              112.2327         calculate D2E/DX2 analytically  !
 ! A29   A(7,8,28)             108.2429         calculate D2E/DX2 analytically  !
 ! A30   A(7,8,29)             110.405          calculate D2E/DX2 analytically  !
 ! A31   A(9,8,28)             109.4779         calculate D2E/DX2 analytically  !
 ! A32   A(9,8,29)             109.8896         calculate D2E/DX2 analytically  !
 ! A33   A(28,8,29)            106.4059         calculate D2E/DX2 analytically  !
 ! A34   A(8,9,10)             110.3343         calculate D2E/DX2 analytically  !
 ! A35   A(8,9,30)             109.0804         calculate D2E/DX2 analytically  !
 ! A36   A(8,9,31)             111.9426         calculate D2E/DX2 analytically  !
 ! A37   A(10,9,30)            107.5408         calculate D2E/DX2 analytically  !
 ! A38   A(10,9,31)            111.8511         calculate D2E/DX2 analytically  !
 ! A39   A(30,9,31)            105.865          calculate D2E/DX2 analytically  !
 ! A40   A(9,10,11)            121.667          calculate D2E/DX2 analytically  !
 ! A41   A(9,10,32)            113.1759         calculate D2E/DX2 analytically  !
 ! A42   A(11,10,32)           111.9749         calculate D2E/DX2 analytically  !
 ! A43   A(10,11,12)           124.0942         calculate D2E/DX2 analytically  !
 ! A44   A(10,11,17)           118.3116         calculate D2E/DX2 analytically  !
 ! A45   A(12,11,17)           117.2706         calculate D2E/DX2 analytically  !
 ! A46   A(11,12,13)           121.3733         calculate D2E/DX2 analytically  !
 ! A47   A(11,12,33)           121.0422         calculate D2E/DX2 analytically  !
 ! A48   A(13,12,33)           117.584          calculate D2E/DX2 analytically  !
 ! A49   A(12,13,14)           120.6408         calculate D2E/DX2 analytically  !
 ! A50   A(12,13,34)           119.0642         calculate D2E/DX2 analytically  !
 ! A51   A(14,13,34)           120.2926         calculate D2E/DX2 analytically  !
 ! A52   A(13,14,15)           120.6637         calculate D2E/DX2 analytically  !
 ! A53   A(13,14,16)           118.5852         calculate D2E/DX2 analytically  !
 ! A54   A(15,14,16)           120.6611         calculate D2E/DX2 analytically  !
 ! A55   A(14,15,35)           110.8866         calculate D2E/DX2 analytically  !
 ! A56   A(14,15,36)           110.0237         calculate D2E/DX2 analytically  !
 ! A57   A(14,15,37)           110.8886         calculate D2E/DX2 analytically  !
 ! A58   A(35,15,36)           108.869          calculate D2E/DX2 analytically  !
 ! A59   A(35,15,37)           107.2274         calculate D2E/DX2 analytically  !
 ! A60   A(36,15,37)           108.8671         calculate D2E/DX2 analytically  !
 ! A61   A(14,16,17)           120.3624         calculate D2E/DX2 analytically  !
 ! A62   A(14,16,38)           120.4663         calculate D2E/DX2 analytically  !
 ! A63   A(17,16,38)           119.1691         calculate D2E/DX2 analytically  !
 ! A64   A(11,17,16)           121.6561         calculate D2E/DX2 analytically  !
 ! A65   A(11,17,39)           119.925          calculate D2E/DX2 analytically  !
 ! A66   A(16,17,39)           118.4182         calculate D2E/DX2 analytically  !
 ! A67   A(5,18,19)            121.2797         calculate D2E/DX2 analytically  !
 ! A68   A(5,18,40)            121.0134         calculate D2E/DX2 analytically  !
 ! A69   A(19,18,40)           117.7061         calculate D2E/DX2 analytically  !
 ! A70   A(2,19,18)            120.6344         calculate D2E/DX2 analytically  !
 ! A71   A(2,19,41)            120.3106         calculate D2E/DX2 analytically  !
 ! A72   A(18,19,41)           119.0521         calculate D2E/DX2 analytically  !
 ! D1    D(20,1,2,3)            88.3014         calculate D2E/DX2 analytically  !
 ! D2    D(20,1,2,19)          -88.1543         calculate D2E/DX2 analytically  !
 ! D3    D(21,1,2,3)           -32.1948         calculate D2E/DX2 analytically  !
 ! D4    D(21,1,2,19)          151.3496         calculate D2E/DX2 analytically  !
 ! D5    D(22,1,2,3)          -151.2008         calculate D2E/DX2 analytically  !
 ! D6    D(22,1,2,19)           32.3436         calculate D2E/DX2 analytically  !
 ! D7    D(1,2,3,4)           -178.3527         calculate D2E/DX2 analytically  !
 ! D8    D(1,2,3,23)             1.0592         calculate D2E/DX2 analytically  !
 ! D9    D(19,2,3,4)            -1.8267         calculate D2E/DX2 analytically  !
 ! D10   D(19,2,3,23)          177.5852         calculate D2E/DX2 analytically  !
 ! D11   D(1,2,19,18)          178.3191         calculate D2E/DX2 analytically  !
 ! D12   D(1,2,19,41)           -1.0561         calculate D2E/DX2 analytically  !
 ! D13   D(3,2,19,18)            1.7926         calculate D2E/DX2 analytically  !
 ! D14   D(3,2,19,41)         -177.5825         calculate D2E/DX2 analytically  !
 ! D15   D(2,3,4,5)             -0.8168         calculate D2E/DX2 analytically  !
 ! D16   D(2,3,4,24)           178.8408         calculate D2E/DX2 analytically  !
 ! D17   D(23,3,4,5)           179.7639         calculate D2E/DX2 analytically  !
 ! D18   D(23,3,4,24)           -0.5785         calculate D2E/DX2 analytically  !
 ! D19   D(3,4,5,6)            177.1672         calculate D2E/DX2 analytically  !
 ! D20   D(3,4,5,18)             3.4119         calculate D2E/DX2 analytically  !
 ! D21   D(24,4,5,6)            -2.4852         calculate D2E/DX2 analytically  !
 ! D22   D(24,4,5,18)         -176.2405         calculate D2E/DX2 analytically  !
 ! D23   D(4,5,6,7)            166.0096         calculate D2E/DX2 analytically  !
 ! D24   D(4,5,6,25)            28.0342         calculate D2E/DX2 analytically  !
 ! D25   D(18,5,6,7)           -20.6652         calculate D2E/DX2 analytically  !
 ! D26   D(18,5,6,25)         -158.6405         calculate D2E/DX2 analytically  !
 ! D27   D(4,5,18,19)           -3.4416         calculate D2E/DX2 analytically  !
 ! D28   D(4,5,18,40)          176.2113         calculate D2E/DX2 analytically  !
 ! D29   D(6,5,18,19)         -176.8284         calculate D2E/DX2 analytically  !
 ! D30   D(6,5,18,40)            2.8244         calculate D2E/DX2 analytically  !
 ! D31   D(5,6,7,8)           -174.5694         calculate D2E/DX2 analytically  !
 ! D32   D(5,6,7,26)           -52.0404         calculate D2E/DX2 analytically  !
 ! D33   D(5,6,7,27)            66.8721         calculate D2E/DX2 analytically  !
 ! D34   D(25,6,7,8)           -37.9748         calculate D2E/DX2 analytically  !
 ! D35   D(25,6,7,26)           84.5542         calculate D2E/DX2 analytically  !
 ! D36   D(25,6,7,27)         -156.5333         calculate D2E/DX2 analytically  !
 ! D37   D(6,7,8,9)             75.4346         calculate D2E/DX2 analytically  !
 ! D38   D(6,7,8,28)          -163.6335         calculate D2E/DX2 analytically  !
 ! D39   D(6,7,8,29)           -47.5352         calculate D2E/DX2 analytically  !
 ! D40   D(26,7,8,9)           -47.6532         calculate D2E/DX2 analytically  !
 ! D41   D(26,7,8,28)           73.2788         calculate D2E/DX2 analytically  !
 ! D42   D(26,7,8,29)         -170.6229         calculate D2E/DX2 analytically  !
 ! D43   D(27,7,8,9)          -165.1516         calculate D2E/DX2 analytically  !
 ! D44   D(27,7,8,28)          -44.2197         calculate D2E/DX2 analytically  !
 ! D45   D(27,7,8,29)           71.8787         calculate D2E/DX2 analytically  !
 ! D46   D(7,8,9,10)           176.1255         calculate D2E/DX2 analytically  !
 ! D47   D(7,8,9,30)           -65.9512         calculate D2E/DX2 analytically  !
 ! D48   D(7,8,9,31)            50.8697         calculate D2E/DX2 analytically  !
 ! D49   D(28,8,9,10)           55.9077         calculate D2E/DX2 analytically  !
 ! D50   D(28,8,9,30)          173.8309         calculate D2E/DX2 analytically  !
 ! D51   D(28,8,9,31)          -69.3482         calculate D2E/DX2 analytically  !
 ! D52   D(29,8,9,10)          -60.6148         calculate D2E/DX2 analytically  !
 ! D53   D(29,8,9,30)           57.3084         calculate D2E/DX2 analytically  !
 ! D54   D(29,8,9,31)          174.1293         calculate D2E/DX2 analytically  !
 ! D55   D(8,9,10,11)          -95.4188         calculate D2E/DX2 analytically  !
 ! D56   D(8,9,10,32)          126.6522         calculate D2E/DX2 analytically  !
 ! D57   D(30,9,10,11)         145.7154         calculate D2E/DX2 analytically  !
 ! D58   D(30,9,10,32)           7.7864         calculate D2E/DX2 analytically  !
 ! D59   D(31,9,10,11)          29.889          calculate D2E/DX2 analytically  !
 ! D60   D(31,9,10,32)        -108.04           calculate D2E/DX2 analytically  !
 ! D61   D(9,10,11,12)          20.2269         calculate D2E/DX2 analytically  !
 ! D62   D(9,10,11,17)        -166.4963         calculate D2E/DX2 analytically  !
 ! D63   D(32,10,11,12)        158.6031         calculate D2E/DX2 analytically  !
 ! D64   D(32,10,11,17)        -28.12           calculate D2E/DX2 analytically  !
 ! D65   D(10,11,12,13)        176.7076         calculate D2E/DX2 analytically  !
 ! D66   D(10,11,12,33)         -3.0299         calculate D2E/DX2 analytically  !
 ! D67   D(17,11,12,13)          3.3664         calculate D2E/DX2 analytically  !
 ! D68   D(17,11,12,33)       -176.3711         calculate D2E/DX2 analytically  !
 ! D69   D(10,11,17,16)       -177.0721         calculate D2E/DX2 analytically  !
 ! D70   D(10,11,17,39)          2.6232         calculate D2E/DX2 analytically  !
 ! D71   D(12,11,17,16)         -3.334          calculate D2E/DX2 analytically  !
 ! D72   D(12,11,17,39)        176.3613         calculate D2E/DX2 analytically  !
 ! D73   D(11,12,13,14)         -0.872          calculate D2E/DX2 analytically  !
 ! D74   D(11,12,13,34)        179.6791         calculate D2E/DX2 analytically  !
 ! D75   D(33,12,13,14)        178.8742         calculate D2E/DX2 analytically  !
 ! D76   D(33,12,13,34)         -0.5747         calculate D2E/DX2 analytically  !
 ! D77   D(12,13,14,15)       -178.3441         calculate D2E/DX2 analytically  !
 ! D78   D(12,13,14,16)         -1.7693         calculate D2E/DX2 analytically  !
 ! D79   D(34,13,14,15)          1.0981         calculate D2E/DX2 analytically  !
 ! D80   D(34,13,14,16)        177.6728         calculate D2E/DX2 analytically  !
 ! D81   D(13,14,15,35)        -32.2878         calculate D2E/DX2 analytically  !
 ! D82   D(13,14,15,36)         88.209          calculate D2E/DX2 analytically  !
 ! D83   D(13,14,15,37)       -151.2953         calculate D2E/DX2 analytically  !
 ! D84   D(16,14,15,35)        151.2089         calculate D2E/DX2 analytically  !
 ! D85   D(16,14,15,36)        -88.2943         calculate D2E/DX2 analytically  !
 ! D86   D(16,14,15,37)         32.2014         calculate D2E/DX2 analytically  !
 ! D87   D(13,14,16,17)          1.8061         calculate D2E/DX2 analytically  !
 ! D88   D(13,14,16,38)       -177.6549         calculate D2E/DX2 analytically  !
 ! D89   D(15,14,16,17)        178.3809         calculate D2E/DX2 analytically  !
 ! D90   D(15,14,16,38)         -1.0801         calculate D2E/DX2 analytically  !
 ! D91   D(14,16,17,11)          0.7884         calculate D2E/DX2 analytically  !
 ! D92   D(14,16,17,39)       -178.9113         calculate D2E/DX2 analytically  !
 ! D93   D(38,16,17,11)       -179.7437         calculate D2E/DX2 analytically  !
 ! D94   D(38,16,17,39)          0.5566         calculate D2E/DX2 analytically  !
 ! D95   D(5,18,19,2)            0.8938         calculate D2E/DX2 analytically  !
 ! D96   D(5,18,19,41)        -179.7233         calculate D2E/DX2 analytically  !
 ! D97   D(40,18,19,2)        -178.7701         calculate D2E/DX2 analytically  !
 ! D98   D(40,18,19,41)          0.6128         calculate D2E/DX2 analytically  !
 --------------------------------------------------------------------------------
 Trust Radius=3.00D-01 FncErr=1.00D-07 GrdErr=1.00D-06 EigMax=2.50D+02 EigMin=1.00D-04
 Number of steps in this run=    222 maximum allowed number of steps=    246.
 GradGradGradGradGradGradGradGradGradGradGradGradGradGradGradGradGradGrad

                          Input orientation:                          
 ---------------------------------------------------------------------
 Center     Atomic      Atomic             Coordinates (Angstroms)
 Number     Number       Type             X           Y           Z
 ---------------------------------------------------------------------
      1          6           0       -7.406106    0.548548   -1.112440
      2          6           0       -5.998422    0.444670   -0.607822
      3          6           0       -5.637608   -0.558801    0.292972
      4          6           0       -4.330162   -0.629722    0.786905
      5          6           0       -3.344226    0.282931    0.386384
      6          7           0       -2.074209    0.188900    0.966807
      7          6           0       -0.951820    0.904010    0.367843
      8          6           0        0.360535    0.562151    1.072374
      9          6           0        0.879125   -0.823518    0.688524
     10          7           0        2.175687   -1.070084    1.311049
     11          6           0        3.371852   -0.831326    0.632168
     12          6           0        3.487797    0.008155   -0.479821
     13          6           0        4.730115    0.260621   -1.076928
     14          6           0        5.896244   -0.309698   -0.562133
     15          6           0        7.229745   -0.010672   -1.177852
     16          6           0        5.802325   -1.105193    0.580660
     17          6           0        4.557241   -1.352673    1.169976
     18          6           0       -3.733320    1.315825   -0.472351
     19          6           0       -5.039960    1.393172   -0.971902
     20          1           0       -8.001454    1.170283   -0.436744
     21          1           0       -7.869422   -0.441167   -1.183548
     22          1           0       -7.430116    0.990638   -2.114047
     23          1           0       -6.370764   -1.289052    0.626902
     24          1           0       -4.088204   -1.412422    1.501602
     25          1           0       -1.869010   -0.762618    1.256434
     26          1           0       -0.870699    0.676867   -0.702110
     27          1           0       -1.115730    1.982823    0.475736
     28          1           0        1.104572    1.319768    0.798674
     29          1           0        0.238452    0.626720    2.161090
     30          1           0        0.183013   -1.583087    1.063032
     31          1           0        0.915775   -0.960555   -0.398545
     32          1           0        2.206178   -1.936706    1.842610
     33          1           0        2.616631    0.491561   -0.909069
     34          1           0        4.776255    0.915718   -1.943820
     35          1           0        7.133770    0.153860   -2.256267
     36          1           0        7.661422    0.884776   -0.720261
     37          1           0        7.921127   -0.848311   -1.037829
     38          1           0        6.695467   -1.533164    1.029387
     39          1           0        4.522618   -1.962026    2.069845
     40          1           0       -3.032598    2.089265   -0.770224
     41          1           0       -5.302116    2.209533   -1.640983
 ---------------------------------------------------------------------
                    Distance matrix (angstroms):
                    1          2          3          4          5
     1  C    0.000000
     2  C    1.499000   0.000000
     3  C    2.515748   1.395913   0.000000
     4  C    3.802270   2.425423   1.399434   0.000000
     5  C    4.337729   2.838902   2.444758   1.401936   0.000000
     6  N    5.734260   4.236075   3.702827   2.406623   1.399527
     7  C    6.631395   5.160534   4.909382   3.733784   2.471778
     8  C    8.068104   6.578237   6.151562   4.848164   3.778068
     9  C    8.589009   7.112628   6.534091   5.213819   4.376324
    10  N   10.015189   8.531858   7.895914   6.541767   5.758045
    11  C   11.005093   9.537703   9.019961   7.706206   6.812318
    12  C   10.925628   9.497120   9.175602   7.945563   6.892195
    13  C   12.139687  10.740365  10.489888   9.292750   8.205897
    14  C   13.341361  11.918651  11.568189  10.319966   9.307909
    15  C   14.646676  13.248271  12.962736  11.742016  10.693077
    16  C   13.418796  11.961279  11.456587  10.145733   9.253325
    17  C   12.326627  10.854172  10.263251   8.924984   8.106935
    18  C    3.806281   2.430628   2.779614   2.393137   1.398460
    19  C    2.516304   1.396732   2.401518   2.772962   2.439896
    20  H    1.094331   2.137269   3.018276   4.267988   4.811934
    21  H    1.095105   2.148676   2.678609   4.055195   4.844214
    22  H    1.095097   2.148614   3.377512   4.544316   4.842262
    23  H    2.733865   2.160782   1.087333   2.150435   3.418906
    24  H    4.656940   3.398146   2.142454   1.087178   2.161352
    25  H    6.163615   4.688821   3.895142   2.509062   2.006595
    26  H    6.549532   5.133843   5.023990   3.986505   2.730995
    27  H    6.644417   5.232657   5.190437   4.153889   2.804248
    28  H    8.756641   7.293597   7.017246   5.773819   4.586590
    29  H    8.316331   6.826318   6.278806   4.933484   4.012898
    30  H    8.177485   6.716673   5.960015   4.621028   4.047380
    31  H    8.487681   7.058653   6.602002   5.388377   4.506659
    32  H   10.358803   8.887691   8.113260   6.748812   6.152590
    33  H   10.024961   8.620446   8.407177   7.238200   6.103567
    34  H   12.216215  10.867403  10.752952   9.631826   8.471864
    35  H   14.590137  13.238445  13.042799  11.886826  10.806880
    36  H   15.076381  13.667395  13.415467  12.180450  11.077507
    37  H   15.390934  13.986085  13.626964  12.388363  11.411234
    38  H   14.414413  12.950950  12.393403  11.065239  10.222871
    39  H   12.598585  11.119999  10.409443   9.043930   8.352311
    40  H    4.649569   3.395170   3.863770   3.391344   2.167416
    41  H    2.732216   2.160325   3.393584   3.860143   3.413993
                    6          7          8          9         10
     6  N    0.000000
     7  C    1.459417   0.000000
     8  C    2.465449   1.528236   0.000000
     9  C    3.134424   2.537627   1.528515   0.000000
    10  N    4.445802   3.816802   2.452740   1.459247   0.000000
    11  C    5.550894   4.666411   3.347177   2.493376   1.395957
    12  C    5.749897   4.607743   3.534967   2.976891   2.468086
    13  C    7.104985   5.897940   4.878898   4.372905   3.741432
    14  C    8.131075   7.016689   5.837449   5.196117   4.234329
    15  C    9.550023   8.376385   7.251048   6.668917   5.732406
    16  C    7.991468   7.049870   5.712696   4.932431   3.699622
    17  C    6.811303   6.007145   4.613938   3.747044   2.402407
    18  C    2.468560   2.934666   4.440028   5.215273   6.617359
    19  C    3.742265   4.329791   5.833953   6.535006   7.958960
    20  H    6.169709   7.100395   8.518810   9.170941  10.566372
    21  H    6.213334   7.215923   8.592324   8.954771  10.369318
    22  H    6.230585   6.937983   8.427996   8.954834  10.404292
    23  H    4.556343   5.851631   6.995411   7.265082   8.576585
    24  H    2.628006   4.060563   4.886150   5.067767   6.276132
    25  H    1.015567   2.099638   2.599954   2.806862   4.056733
    26  H    2.114670   1.096802   2.162843   2.692007   4.047853
    27  H    2.092365   1.096515   2.133926   3.449677   4.566334
    28  H    3.378132   2.141779   1.096579   2.157924   2.668559
    29  H    2.639393   2.170108   1.097441   2.163817   2.711935
    30  H    2.871280   2.820778   2.152592   1.096255   2.072543
    31  H    3.482160   2.748066   2.188728   1.096286   2.126519
    32  H    4.858698   4.496394   3.200618   2.081387   1.017114
    33  H    5.061076   3.812409   3.003509   2.701973   2.749925
    34  H    7.478561   6.176955   5.359200   5.014160   4.615250
    35  H    9.755835   8.533783   7.557994   6.981951   6.229476
    36  H    9.905199   8.681721   7.524665   7.134599   6.167738
    37  H   10.247005   9.152909   7.975269   7.250566   6.210998
    38  H    8.937373   8.053475   6.672598   5.869380   4.552164
    39  H    7.025759   6.409402   4.968838   4.059469   2.622864
    40  H    2.747212   2.651351   4.152179   5.090562   6.437344
    41  H    4.615508   4.966372   6.491670   7.268682   8.682621
                   11         12         13         14         15
    11  C    0.000000
    12  C    1.398102   0.000000
    13  C    2.440950   1.401295   0.000000
    14  C    2.840952   2.430724   1.396472   0.000000
    15  C    4.339698   3.806544   2.516334   1.498917   0.000000
    16  C    2.446396   2.778705   2.400559   1.395568   2.515525
    17  C    1.402208   2.391107   2.771494   2.425062   3.802044
    18  C    7.504245   7.338569   8.550363   9.766212  11.065538
    19  C    8.847599   8.653500   9.836059  11.075569  12.351472
    20  H   11.597461  11.547957  12.780069  13.976841  15.294879
    21  H   11.393652  11.387869  12.619517  13.780312  15.105304
    22  H   11.293527  11.083176  12.226191  13.479287  14.723811
    23  H    9.753364  10.004939  11.337285  12.363350  13.779159
    24  H    7.532996   7.958635   9.338664  10.254960  11.714963
    25  H    5.278358   5.683665   7.073898   7.988209   9.448730
    26  H    4.696188   4.415097   5.628754   6.839914   8.143478
    27  H    5.299273   5.099496   6.288930   7.449872   8.738153
    28  H    3.129774   3.005768   4.217136   5.240904   6.572250
    29  H    3.779113   4.232645   5.549219   6.348499   7.773865
    30  H    3.304464   3.979202   5.353020   6.074841   7.559794
    31  H    2.666718   2.749600   4.062100   5.025480   6.432403
    32  H    2.011425   3.289182   4.440969   4.695373   6.170010
    33  H    2.166979   1.084835   2.132680   3.393854   4.648151
    34  H    3.414707   2.151067   1.087558   2.159879   2.732127
    35  H    4.844138   4.058338   2.679514   2.148592   1.095108
    36  H    4.813988   4.271466   3.018169   2.137201   1.094332
    37  H    4.846141   4.549651   3.378435   2.148614   1.095105
    38  H    3.420055   3.865556   3.393647   2.160686   2.734107
    39  H    2.160939   3.384266   3.858159   3.397697   4.656592
    40  H    7.177292   6.850613   7.981084   9.247840  10.482918
    41  H    9.468461   9.135477  10.235334  11.528821  12.735436
                   16         17         18         19         20
    16  C    0.000000
    17  C    1.399562   0.000000
    18  C    9.894377   8.862930   0.000000
    19  C   11.234208  10.209485   1.401014   0.000000
    20  H   14.027018  12.909984   4.270763   3.017702   0.000000
    21  H   13.801088  12.680374   4.549743   3.378676   1.780989
    22  H   13.665703  12.648029   4.057981   2.679435   1.781024
    23  H   12.174565  10.941676   3.866504   3.394340   3.136690
    24  H    9.938063   8.652010   3.386114   3.859459   5.073567
    25  H    7.708658   6.453863   3.283942   4.434844   6.649048
    26  H    7.024991   6.089850   2.942049   4.238940   7.152730
    27  H    7.576696   6.617409   2.862785   4.224089   6.993286
    28  H    5.291205   4.381864   5.002071   6.394966   9.190664
    29  H    6.037712   4.853066   4.815065   6.185848   8.656804
    30  H    5.660189   4.381598   5.108695   6.346536   8.764467
    31  H    4.985793   3.984255   5.177011   6.429584   9.168365
    32  H    3.900795   2.514166   7.156511   8.456719  10.910756
    33  H    3.862326   3.389630   6.418100   7.709749  10.650234
    34  H    3.392624   3.858664   8.645125   9.875761  12.868797
    35  H    3.377294   4.543928  11.073670  12.303869  15.278050
    36  H    3.018048   4.267917  11.405588  12.714044  15.668044
    37  H    2.678585   4.055183  11.867156  13.153645  16.061277
    38  H    1.087299   2.150431  10.914741  12.259236  15.015248
    39  H    2.142308   1.087324   9.239458  10.580759  13.150921
    40  H    9.491328   8.556691   1.085334   2.134179   5.064116
    41  H   11.799649  10.853466   2.150705   1.087584   3.133155
                   21         22         23         24         25
    21  H    0.000000
    22  H    1.763203   0.000000
    23  H    2.498523   3.719142   0.000000
    24  H    4.738247   5.478685   2.447529   0.000000
    25  H    6.485507   6.734980   4.575941   2.325334   0.000000
    26  H    7.103795   6.716991   5.990144   4.424230   2.627667
    27  H    7.364871   6.896585   6.192205   4.627710   2.952010
    28  H    9.357493   9.024032   7.919349   5.909644   3.658970
    29  H    8.835418   8.787273   7.050223   4.828351   2.681428
    30  H    8.437584   8.641621   6.574850   4.297065   2.218416
    31  H    8.835479   8.740938   7.365671   5.371644   3.245484
    32  H   10.626006  10.820473   8.686849   6.325378   4.281267
    33  H   10.531032  10.131050   9.289944   7.375046   5.136471
    34  H   12.740970  12.207788  11.650135   9.791313   7.564257
    35  H   15.053258  14.588598  13.884059  11.937652   9.707165
    36  H   15.594227  15.156133  14.263332  12.176515   9.871695
    37  H   15.796470  15.498408  14.395268  12.287839  10.055733
    38  H   14.772459  14.689549  13.074708  10.794681   8.602067
    39  H   12.901947  13.003500  11.009121   8.647035   6.553863
    40  H    5.474376   4.727685   4.950590   4.305498   3.687074
    41  H    3.718403   2.497575   4.304116   4.946513   5.386550
                   26         27         28         29         30
    26  H    0.000000
    27  H    1.775635   0.000000
    28  H    2.562688   2.339587   0.000000
    29  H    3.070935   2.552105   1.756888   0.000000
    30  H    3.055066   3.840230   3.057078   2.468209   0.000000
    31  H    2.442293   3.681692   2.582412   3.087061   1.749485
    32  H    4.772163   5.316590   3.592766   3.247235   2.196813
    33  H    3.498377   4.251125   2.426651   3.885856   3.757106
    34  H    5.786794   6.458208   4.600629   6.125803   6.031837
    35  H    8.170708   8.880495   6.858807   8.202564   7.896060
    36  H    8.534674   8.926058   6.744529   7.966761   8.074472
    37  H    8.929451   9.590150   7.385035   8.451763   8.051828
    38  H    8.070266   8.583909   6.280968   6.902094   6.512733
    39  H    6.613271   7.063567   4.906025   5.006397   4.470955
    40  H    2.583275   2.288696   4.491073   4.629406   5.214130
    41  H    4.782050   4.696565   6.912977   6.903546   7.195992
                   31         32         33         34         35
    31  H    0.000000
    32  H    2.764198   0.000000
    33  H    2.293945   3.692789   0.000000
    34  H    4.561971   5.392464   2.431994   0.000000
    35  H    6.584566   6.741841   4.725837   2.497184   0.000000
    36  H    7.000893   6.654980   5.063614   3.134046   1.781002
    37  H    7.035356   6.491700   5.472615   3.717908   1.763199
    38  H    5.980946   4.580163   4.949144   4.303529   3.719366
    39  H    4.483883   2.327696   4.304277   4.945224   5.478169
    40  H    5.002919   7.104936   5.872454   7.983278  10.455102
    41  H    7.089096   9.257494   8.135950  10.165590  12.619652
                   36         37         38         39         40
    36  H    0.000000
    37  H    1.780979   0.000000
    38  H    3.137001   2.498930   0.000000
    39  H    5.073565   4.737918   2.446988   0.000000
    40  H   10.761754  11.343943  10.535456   9.031070   0.000000
    41  H   13.063538  13.585594  12.848372  11.300333   2.433803
                   41
    41  H    0.000000
 Stoichiometry    C17H22N2
 Framework group  C1[X(C17H22N2)]
 Deg. of freedom   117
 Full point group                 C1      NOp   1
 Largest Abelian subgroup         C1      NOp   1
 Largest concise Abelian subgroup C1      NOp   1
                         Standard orientation:                         
 ---------------------------------------------------------------------
 Center     Atomic      Atomic             Coordinates (Angstroms)
 Number     Number       Type             X           Y           Z
 ---------------------------------------------------------------------
      1          6           0       -7.448440    0.811269   -0.696363
      2          6           0       -6.028443    0.442579   -0.388666
      3          6           0       -5.567440   -0.856887   -0.606461
      4          6           0       -4.250304   -1.203678   -0.285054
      5          6           0       -3.353202   -0.265539    0.244595
      6          7           0       -2.069865   -0.697209    0.598693
      7          6           0       -1.023393    0.286225    0.858790
      8          6           0        0.325487   -0.391786    1.096126
      9          6           0        0.953952   -0.899290   -0.201499
     10          7           0        2.277516   -1.455469    0.059740
     11          6           0        3.436843   -0.694518   -0.100290
     12          6           0        3.461126    0.703306   -0.114056
     13          6           0        4.666682    1.411089   -0.210519
     14          6           0        5.886132    0.733930   -0.277851
     15          6           0        7.178216    1.490841   -0.343849
     16          6           0        5.880566   -0.659941   -0.209286
     17          6           0        4.671691   -1.358713   -0.113829
     18          6           0       -3.844160    1.016780    0.509752
     19          6           0       -5.161141    1.371979    0.190009
     20          1           0       -8.082920    0.617345    0.173918
     21          1           0       -7.826553    0.233220   -1.546154
     22          1           0       -7.527654    1.870318   -0.963528
     23          1           0       -6.229494   -1.614469   -1.018831
     24          1           0       -3.929839   -2.229410   -0.449770
     25          1           0       -1.778991   -1.492609    0.038241
     26          1           0       -0.941814    0.998109    0.028404
     27          1           0       -1.277092    0.848032    1.765627
     28          1           0        0.997090    0.335635    1.567607
     29          1           0        0.217339   -1.220338    1.807589
     30          1           0        0.332016   -1.704344   -0.609980
     31          1           0        0.983222   -0.121885   -0.973915
     32          1           0        2.391308   -2.401740   -0.295428
     33          1           0        2.544440    1.279429   -0.045959
     34          1           0        4.641477    2.498280   -0.223259
     35          1           0        7.049718    2.436530   -0.880898
     36          1           0        7.539617    1.704075    0.666835
     37          1           0        7.941064    0.915226   -0.878623
     38          1           0        6.814740   -1.216189   -0.220510
     39          1           0        4.705030   -2.443292   -0.044172
     40          1           0       -3.217481    1.770073    0.976413
     41          1           0       -5.503811    2.380873    0.408067
 ---------------------------------------------------------------------
 Rotational constants (GHZ):           1.4626708           0.0941464           0.0906129
 Standard basis: 6-31G(d,p) (6D, 7F)
 There are   395 symmetry adapted cartesian basis functions of A   symmetry.
 There are   395 symmetry adapted basis functions of A   symmetry.
   395 basis functions,   686 primitive gaussians,   395 cartesian basis functions
    69 alpha electrons       69 beta electrons
       nuclear repulsion energy      1257.8184716455 Hartrees.
 NAtoms=   41 NActive=   41 NUniq=   41 SFac= 1.00D+00 NAtFMM=   60 NAOKFM=F Big=F
 Integral buffers will be    131072 words long.
 Raffenetti 2 integral format.
 Two-electron integral symmetry is turned on.
 Force inversion solution in PCM.
 ------------------------------------------------------------------------------
 Polarizable Continuum Model (PCM)
 =================================
 Model                : PCM.
 Atomic radii         : UFF (Universal Force Field).
 Polarization charges : Total charges.
 Charge compensation  : None.
 Solution method      : Matrix inversion.
 Cavity type          : Scaled VdW (van der Waals Surface) (Alpha=1.100).
 Cavity algorithm     : GePol (No added spheres)
                        Default sphere list used, NSphG=   41.
                        Lebedev-Laikov grids with approx.  5.0 points / Ang**2.
                        Smoothing algorithm: York/Karplus (Gamma=1.0000).
                        Polarization charges: spherical gaussians, with
                                              point-specific exponents (IZeta= 3).
                        Self-potential: point-specific (ISelfS= 7).
                        Self-field    : sphere-specific E.n sum rule (ISelfD= 2).
 1st derivatives      : Analytical E(r).r(x)/FMM algorithm (CHGder, D1EAlg=3).
                        Cavity 1st derivative terms included.
 2nd derivatives      : Analytical E(r).r(xy)/FMM algorithm (CHGder, D2EAlg=3).
                        Cavity 2nd derivative terms included.
 Solvent              : Water, Eps=  78.355300 Eps(inf)=   1.777849
 ------------------------------------------------------------------------------
 One-electron integrals computed using PRISM.
 NBasis=   395 RedAO= T EigKep=  4.16D-04  NBF=   395
 NBsUse=   395 1.00D-06 EigRej= -1.00D+00 NBFU=   395
 ExpMin= 1.61D-01 ExpMax= 4.17D+03 ExpMxC= 6.27D+02 IAcc=3 IRadAn=         5 AccDes= 0.00D+00
 Harris functional with IExCor=  402 and IRadAn=       5 diagonalized for initial guess.
 HarFok:  IExCor=  402 AccDes= 0.00D+00 IRadAn=         5 IDoV= 1 UseB2=F ITyADJ=14
 ICtDFT=  3500011 ScaDFX=  1.000000  1.000000  1.000000  1.000000
 FoFCou: FMM=F IPFlag=           0 FMFlag=      100000 FMFlg1=           0
         NFxFlg=           0 DoJE=T BraDBF=F KetDBF=T FulRan=T
         wScrn=  0.000000 ICntrl=       500 IOpCl=  0 I1Cent=   200000004 NGrid=           0
         NMat0=    1 NMatS0=      1 NMatT0=    0 NMatD0=    1 NMtDS0=    0 NMtDT0=    0
 Petite list used in FoFCou.
 Requested convergence on RMS density matrix=1.00D-08 within  32 cycles.
 Requested convergence on MAX density matrix=1.00D-06.
 Requested convergence on             energy=1.00D-06.
 No special actions if energy rises.
 Inv3:  Mode=1 IEnd=    25526667.
 Iteration    1 A*A^-1 deviation from unit magnitude is 3.55D-15 for    195.
 Iteration    1 A*A^-1 deviation from orthogonality  is 2.22D-15 for   2754   2234.
 Iteration    1 A^-1*A deviation from unit magnitude is 3.55D-15 for    195.
 Iteration    1 A^-1*A deviation from orthogonality  is 5.65D-14 for   2770   2754.
 Error on total polarization charges =  0.01340
 SCF Done:  E(RB3LYP) =  -770.607316582     A.U. after   12 cycles
            NFock= 12  Conv=0.46D-08     -V/T= 2.0097
 QCSCF skips out because SCF is already converged.
 DoSCS=F DFT=T ScalE2(SS,OS)=  1.000000  1.000000
 Range of M.O.s used for correlation:     1   395
 NBasis=   395 NAE=    69 NBE=    69 NFC=     0 NFV=     0
 NROrb=    395 NOA=    69 NOB=    69 NVA=   326 NVB=   326
 Symmetrizing basis deriv contribution to polar:
 IMax=3 JMax=2 DiffMx= 0.00D+00
 G2DrvN: will do    42 centers at a time, making    1 passes.
 Calling FoFCou, ICntrl=  3107 FMM=F I1Cent=   0 AccDes= 0.00D+00.
 NEqPCM:  Using equilibrium solvation (IEInf=0, Eps=  78.3553, EpsInf=   1.7778)
 G2PCM: DoFxE=T DoFxN=T DoGrad=T DoDP/DQ/DG/TGxP=FFFF NFrqRd=   0 IEInf=0 SqF1=F DoCFld=F IF1Alg=4.
 End of G2Drv F.D. properties file   721 does not exist.
 End of G2Drv F.D. properties file   722 does not exist.
 End of G2Drv F.D. properties file   788 does not exist.
          IDoAtm=11111111111111111111111111111111111111111
 NEqPCM:  Using equilibrium solvation (IEInf=0, Eps=  78.3553, EpsInf=   1.7778)
          Differentiating once with respect to nuclear coordinates.
 CalDSu exits because no D1Ps are significant.
          There are   126 degrees of freedom in the 1st order CPHF.  IDoFFX=6 NUNeed=     0.
    120 vectors produced by pass  0 Test12= 2.25D-14 1.00D-09 XBig12= 1.45D-01 1.76D-01.
 AX will form   120 AO Fock derivatives at one time.
    120 vectors produced by pass  1 Test12= 2.25D-14 1.00D-09 XBig12= 2.13D-02 5.07D-02.
    120 vectors produced by pass  2 Test12= 2.25D-14 1.00D-09 XBig12= 2.02D-04 2.36D-03.
    120 vectors produced by pass  3 Test12= 2.25D-14 1.00D-09 XBig12= 4.97D-07 1.04D-04.
    120 vectors produced by pass  4 Test12= 2.25D-14 1.00D-09 XBig12= 6.16D-10 2.60D-06.
     70 vectors produced by pass  5 Test12= 2.25D-14 1.00D-09 XBig12= 5.36D-13 5.16D-08.
     13 vectors produced by pass  6 Test12= 2.25D-14 1.00D-09 XBig12= 4.52D-16 1.89D-09.
 InvSVY:  IOpt=1 It=  1 EMax= 5.00D-16
 Solved reduced A of dimension   683 with   126 vectors.
 End of Minotr F.D. properties file   721 does not exist.
 End of Minotr F.D. properties file   722 does not exist.
 End of Minotr F.D. properties file   788 does not exist.

 **********************************************************************

            Population analysis using the SCF density.

 **********************************************************************

 Orbital symmetries:
       Occupied  (A) (A) (A) (A) (A) (A) (A) (A) (A) (A) (A) (A)
                 (A) (A) (A) (A) (A) (A) (A) (A) (A) (A) (A) (A)
                 (A) (A) (A) (A) (A) (A) (A) (A) (A) (A) (A) (A)
                 (A) (A) (A) (A) (A) (A) (A) (A) (A) (A) (A) (A)
                 (A) (A) (A) (A) (A) (A) (A) (A) (A) (A) (A) (A)
                 (A) (A) (A) (A) (A) (A) (A) (A) (A)
       Virtual   (A) (A) (A) (A) (A) (A) (A) (A) (A) (A) (A) (A)
                 (A) (A) (A) (A) (A) (A) (A) (A) (A) (A) (A) (A)
                 (A) (A) (A) (A) (A) (A) (A) (A) (A) (A) (A) (A)
                 (A) (A) (A) (A) (A) (A) (A) (A) (A) (A) (A) (A)
                 (A) (A) (A) (A) (A) (A) (A) (A) (A) (A) (A) (A)
                 (A) (A) (A) (A) (A) (A) (A) (A) (A) (A) (A) (A)
                 (A) (A) (A) (A) (A) (A) (A) (A) (A) (A) (A) (A)
                 (A) (A) (A) (A) (A) (A) (A) (A) (A) (A) (A) (A)
                 (A) (A) (A) (A) (A) (A) (A) (A) (A) (A) (A) (A)
                 (A) (A) (A) (A) (A) (A) (A) (A) (A) (A) (A) (A)
                 (A) (A) (A) (A) (A) (A) (A) (A) (A) (A) (A) (A)
                 (A) (A) (A) (A) (A) (A) (A) (A) (A) (A) (A) (A)
                 (A) (A) (A) (A) (A) (A) (A) (A) (A) (A) (A) (A)
                 (A) (A) (A) (A) (A) (A) (A) (A) (A) (A) (A) (A)
                 (A) (A) (A) (A) (A) (A) (A) (A) (A) (A) (A) (A)
                 (A) (A) (A) (A) (A) (A) (A) (A) (A) (A) (A) (A)
                 (A) (A) (A) (A) (A) (A) (A) (A) (A) (A) (A) (A)
                 (A) (A) (A) (A) (A) (A) (A) (A) (A) (A) (A) (A)
                 (A) (A) (A) (A) (A) (A) (A) (A) (A) (A) (A) (A)
                 (A) (A) (A) (A) (A) (A) (A) (A) (A) (A) (A) (A)
                 (A) (A) (A) (A) (A) (A) (A) (A) (A) (A) (A) (A)
                 (A) (A) (A) (A) (A) (A) (A) (A) (A) (A) (A) (A)
                 (A) (A) (A) (A) (A) (A) (A) (A) (A) (A) (A) (A)
                 (A) (A) (A) (A) (A) (A) (A) (A) (A) (A) (A) (A)
                 (A) (A) (A) (A) (A) (A) (A) (A) (A) (A) (A) (A)
                 (A) (A) (A) (A) (A) (A) (A) (A) (A) (A) (A) (A)
                 (A) (A) (A) (A) (A) (A) (A) (A) (A) (A) (A) (A)
                 (A) (A)
 The electronic state is 1-A.
 Alpha  occ. eigenvalues --  -14.33845 -14.33741 -10.22146 -10.22002 -10.21557
 Alpha  occ. eigenvalues --  -10.21280 -10.18301 -10.18206 -10.18196 -10.18187
 Alpha  occ. eigenvalues --  -10.18168 -10.18114 -10.18099 -10.17911 -10.17898
 Alpha  occ. eigenvalues --  -10.17879 -10.17847 -10.17454 -10.17450  -0.93048
 Alpha  occ. eigenvalues --   -0.92509  -0.84265  -0.83954  -0.78453  -0.75900
 Alpha  occ. eigenvalues --   -0.74241  -0.73744  -0.73470  -0.69041  -0.66654
 Alpha  occ. eigenvalues --   -0.65075  -0.61445  -0.60232  -0.58692  -0.57163
 Alpha  occ. eigenvalues --   -0.56720  -0.52510  -0.51836  -0.49355  -0.47918
 Alpha  occ. eigenvalues --   -0.45698  -0.45497  -0.44946  -0.43989  -0.43702
 Alpha  occ. eigenvalues --   -0.42742  -0.42088  -0.41599  -0.41524  -0.41072
 Alpha  occ. eigenvalues --   -0.40986  -0.40203  -0.38401  -0.37608  -0.37203
 Alpha  occ. eigenvalues --   -0.36559  -0.35297  -0.34707  -0.34321  -0.34146
 Alpha  occ. eigenvalues --   -0.33719  -0.32919  -0.32786  -0.28455  -0.28236
 Alpha  occ. eigenvalues --   -0.24469  -0.24463  -0.19280  -0.19224
 Alpha virt. eigenvalues --   -0.00000   0.00076   0.02061   0.02109   0.07860
 Alpha virt. eigenvalues --    0.09226   0.10508   0.10713   0.11162   0.12646
 Alpha virt. eigenvalues --    0.13319   0.13401   0.14005   0.14813   0.15243
 Alpha virt. eigenvalues --    0.15307   0.16280   0.16704   0.17652   0.17928
 Alpha virt. eigenvalues --    0.18068   0.18419   0.19158   0.19695   0.20860
 Alpha virt. eigenvalues --    0.21059   0.21462   0.22357   0.22757   0.24051
 Alpha virt. eigenvalues --    0.24417   0.25413   0.26214   0.27156   0.29330
 Alpha virt. eigenvalues --    0.29881   0.33212   0.34003   0.34097   0.34989
 Alpha virt. eigenvalues --    0.35115   0.35447   0.37138   0.38602   0.46790
 Alpha virt. eigenvalues --    0.47320   0.50520   0.51377   0.51429   0.52242
 Alpha virt. eigenvalues --    0.52345   0.52532   0.52954   0.54262   0.54712
 Alpha virt. eigenvalues --    0.55804   0.56254   0.56937   0.57695   0.58406
 Alpha virt. eigenvalues --    0.58871   0.59009   0.59447   0.59643   0.60227
 Alpha virt. eigenvalues --    0.60300   0.60642   0.61720   0.62798   0.63087
 Alpha virt. eigenvalues --    0.64414   0.64690   0.65532   0.65791   0.66565
 Alpha virt. eigenvalues --    0.67765   0.68434   0.70402   0.70791   0.71726
 Alpha virt. eigenvalues --    0.72134   0.72327   0.74643   0.74835   0.75465
 Alpha virt. eigenvalues --    0.76822   0.78519   0.79279   0.80080   0.80719
 Alpha virt. eigenvalues --    0.82049   0.82528   0.83551   0.84054   0.84534
 Alpha virt. eigenvalues --    0.84830   0.85396   0.85757   0.86021   0.86631
 Alpha virt. eigenvalues --    0.87292   0.88155   0.88672   0.89239   0.89404
 Alpha virt. eigenvalues --    0.89772   0.90312   0.92868   0.93669   0.93990
 Alpha virt. eigenvalues --    0.94145   0.94803   0.95675   0.97344   0.97648
 Alpha virt. eigenvalues --    0.99558   1.00443   1.00567   1.01783   1.04117
 Alpha virt. eigenvalues --    1.05084   1.07940   1.08951   1.09619   1.14050
 Alpha virt. eigenvalues --    1.15367   1.15997   1.17562   1.17889   1.18609
 Alpha virt. eigenvalues --    1.19039   1.20887   1.23245   1.26532   1.27443
 Alpha virt. eigenvalues --    1.27600   1.29991   1.31135   1.31763   1.33227
 Alpha virt. eigenvalues --    1.37875   1.38752   1.39931   1.40410   1.41704
 Alpha virt. eigenvalues --    1.41771   1.42064   1.43202   1.44402   1.44904
 Alpha virt. eigenvalues --    1.46397   1.47045   1.48403   1.53105   1.57420
 Alpha virt. eigenvalues --    1.58839   1.63988   1.68606   1.71363   1.73121
 Alpha virt. eigenvalues --    1.73767   1.74343   1.75057   1.76014   1.77360
 Alpha virt. eigenvalues --    1.78094   1.78600   1.79495   1.79961   1.82297
 Alpha virt. eigenvalues --    1.83210   1.84149   1.84771   1.85534   1.86028
 Alpha virt. eigenvalues --    1.87126   1.87728   1.90271   1.91737   1.92970
 Alpha virt. eigenvalues --    1.93372   1.93665   1.94091   1.95831   1.96618
 Alpha virt. eigenvalues --    1.96929   1.98030   1.98721   2.00401   2.02095
 Alpha virt. eigenvalues --    2.02310   2.02719   2.03475   2.05271   2.05314
 Alpha virt. eigenvalues --    2.05673   2.07147   2.07986   2.09603   2.10108
 Alpha virt. eigenvalues --    2.10520   2.12544   2.13123   2.14602   2.15673
 Alpha virt. eigenvalues --    2.16518   2.17205   2.19007   2.21071   2.21674
 Alpha virt. eigenvalues --    2.22204   2.24270   2.25527   2.27584   2.29161
 Alpha virt. eigenvalues --    2.29744   2.31309   2.32602   2.32740   2.33410
 Alpha virt. eigenvalues --    2.33910   2.36708   2.37594   2.38915   2.39936
 Alpha virt. eigenvalues --    2.41310   2.42096   2.42713   2.42747   2.43269
 Alpha virt. eigenvalues --    2.43704   2.44266   2.47270   2.48548   2.49102
 Alpha virt. eigenvalues --    2.49811   2.51479   2.52980   2.53854   2.55839
 Alpha virt. eigenvalues --    2.57307   2.58078   2.58315   2.59654   2.59862
 Alpha virt. eigenvalues --    2.60994   2.61209   2.62271   2.63518   2.64654
 Alpha virt. eigenvalues --    2.66122   2.67076   2.68687   2.69876   2.70828
 Alpha virt. eigenvalues --    2.71529   2.72737   2.73580   2.74140   2.74839
 Alpha virt. eigenvalues --    2.76507   2.77664   2.80154   2.81065   2.82197
 Alpha virt. eigenvalues --    2.82821   2.84961   2.86469   2.87170   2.88601
 Alpha virt. eigenvalues --    2.89814   2.90000   2.90490   2.92300   2.94072
 Alpha virt. eigenvalues --    3.00098   3.01013   3.06609   3.06873   3.09265
 Alpha virt. eigenvalues --    3.09551   3.19459   3.19548   3.20289   3.21163
 Alpha virt. eigenvalues --    3.25796   3.25807   3.26562   3.30069   3.31057
 Alpha virt. eigenvalues --    3.32013   3.36588   3.36891   3.37538   3.38965
 Alpha virt. eigenvalues --    3.41228   3.44072   3.44246   3.46809   3.47541
 Alpha virt. eigenvalues --    3.49672   3.50954   3.52241   3.54979   3.58746
 Alpha virt. eigenvalues --    3.83563   3.83620   4.13950   4.13990   4.14392
 Alpha virt. eigenvalues --    4.16309   4.16356   4.17835   4.20872   4.23508
 Alpha virt. eigenvalues --    4.36236   4.38597   4.40120   4.44219   4.44351
 Alpha virt. eigenvalues --    4.52927   4.55153   4.59642   4.71190   4.84783
 Alpha virt. eigenvalues --    4.85166
          Condensed to atoms (all electrons):
               1          2          3          4          5          6
     1  C    5.034381   0.356639  -0.064613   0.007494   0.000413   0.000001
     2  C    0.356639   4.707872   0.549392  -0.034108  -0.029217   0.000427
     3  C   -0.064613   0.549392   4.899928   0.505752  -0.021821   0.004868
     4  C    0.007494  -0.034108   0.505752   5.005296   0.519629  -0.066621
     5  C    0.000413  -0.029217  -0.021821   0.519629   4.573238   0.286641
     6  N    0.000001   0.000427   0.004868  -0.066621   0.286641   6.974081
     7  C   -0.000000   0.000003  -0.000145   0.004678  -0.035655   0.292406
     8  C   -0.000000   0.000000   0.000003  -0.000207   0.003547  -0.042106
     9  C    0.000000   0.000000  -0.000000  -0.000033  -0.000033  -0.003026
    10  N   -0.000000   0.000000   0.000000  -0.000000   0.000001   0.000048
    11  C    0.000000   0.000000  -0.000000  -0.000000   0.000000  -0.000002
    12  C   -0.000000   0.000000  -0.000000  -0.000000  -0.000000   0.000001
    13  C    0.000000  -0.000000  -0.000000  -0.000000  -0.000000   0.000000
    14  C    0.000000  -0.000000   0.000000   0.000000   0.000000  -0.000000
    15  C    0.000000   0.000000   0.000000   0.000000   0.000000  -0.000000
    16  C    0.000000   0.000000  -0.000000  -0.000000  -0.000000   0.000000
    17  C   -0.000000   0.000000   0.000000  -0.000000   0.000000   0.000000
    18  C    0.007516  -0.033957  -0.050174  -0.049123   0.533689  -0.071357
    19  C   -0.063740   0.555242  -0.025415  -0.050217  -0.023599   0.005039
    20  H    0.374065  -0.030560  -0.001691  -0.000190   0.000064   0.000000
    21  H    0.374252  -0.029211  -0.004096   0.000177   0.000003  -0.000000
    22  H    0.374384  -0.029168   0.003096  -0.000227   0.000007  -0.000000
    23  H   -0.009432  -0.044722   0.368478  -0.039643   0.003861  -0.000108
    24  H   -0.000198   0.004089  -0.033768   0.361535  -0.045680  -0.008471
    25  H   -0.000000  -0.000007  -0.000027  -0.011050  -0.027060   0.345257
    26  H    0.000000  -0.000012  -0.000004   0.000760   0.002233  -0.059684
    27  H    0.000000  -0.000005   0.000004  -0.000270  -0.008666  -0.042267
    28  H   -0.000000  -0.000000  -0.000000   0.000004  -0.000116   0.003659
    29  H    0.000000   0.000000  -0.000000  -0.000003   0.000428   0.000245
    30  H   -0.000000   0.000000  -0.000000  -0.000013  -0.000079   0.001292
    31  H    0.000000   0.000000  -0.000000   0.000000   0.000021  -0.000502
    32  H    0.000000  -0.000000  -0.000000   0.000000  -0.000000   0.000002
    33  H    0.000000  -0.000000   0.000000   0.000000   0.000000  -0.000002
    34  H   -0.000000   0.000000  -0.000000  -0.000000   0.000000   0.000000
    35  H    0.000000   0.000000   0.000000  -0.000000   0.000000   0.000000
    36  H    0.000000   0.000000   0.000000   0.000000  -0.000000  -0.000000
    37  H    0.000000   0.000000   0.000000  -0.000000   0.000000   0.000000
    38  H    0.000000   0.000000   0.000000   0.000000  -0.000000   0.000000
    39  H    0.000000   0.000000  -0.000000  -0.000000  -0.000000  -0.000000
    40  H   -0.000200   0.004026   0.000779   0.005182  -0.042589  -0.009367
    41  H   -0.009342  -0.044632   0.005672   0.000606   0.003828  -0.000108
               7          8          9         10         11         12
     1  C   -0.000000  -0.000000   0.000000  -0.000000   0.000000  -0.000000
     2  C    0.000003   0.000000   0.000000   0.000000   0.000000   0.000000
     3  C   -0.000145   0.000003  -0.000000   0.000000  -0.000000  -0.000000
     4  C    0.004678  -0.000207  -0.000033  -0.000000  -0.000000  -0.000000
     5  C   -0.035655   0.003547  -0.000033   0.000001   0.000000  -0.000000
     6  N    0.292406  -0.042106  -0.003026   0.000048  -0.000002   0.000001
     7  C    4.815469   0.330054  -0.036031   0.004227   0.000143  -0.000192
     8  C    0.330054   5.027247   0.363134  -0.064458  -0.005264   0.000157
     9  C   -0.036031   0.363134   4.833741   0.285390  -0.035943  -0.004656
    10  N    0.004227  -0.064458   0.285390   6.954215   0.289273  -0.072515
    11  C    0.000143  -0.005264  -0.035943   0.289273   4.573833   0.532322
    12  C   -0.000192   0.000157  -0.004656  -0.072515   0.532322   4.973658
    13  C   -0.000002   0.000093  -0.000035   0.004903  -0.023971   0.500841
    14  C    0.000000   0.000000  -0.000001   0.000454  -0.029222  -0.034608
    15  C   -0.000000   0.000000  -0.000000   0.000001   0.000403   0.007602
    16  C   -0.000000   0.000002  -0.000140   0.004798  -0.023221  -0.050360
    17  C    0.000004  -0.000250   0.004310  -0.065457   0.521529  -0.049374
    18  C   -0.006543   0.000419   0.000003  -0.000000  -0.000000   0.000000
    19  C    0.000002  -0.000005   0.000000  -0.000000   0.000000   0.000000
    20  H   -0.000000  -0.000000   0.000000   0.000000  -0.000000   0.000000
    21  H   -0.000000   0.000000  -0.000000  -0.000000  -0.000000  -0.000000
    22  H    0.000000   0.000000  -0.000000  -0.000000  -0.000000  -0.000000
    23  H    0.000002  -0.000000  -0.000000  -0.000000  -0.000000   0.000000
    24  H    0.000088  -0.000014  -0.000006  -0.000000  -0.000000  -0.000000
    25  H   -0.042642  -0.005047   0.003156  -0.000150   0.000002   0.000000
    26  H    0.376680  -0.036774  -0.012300  -0.000003   0.000026  -0.000097
    27  H    0.384994  -0.027346   0.004985  -0.000113  -0.000006   0.000011
    28  H   -0.030101   0.382829  -0.040507  -0.003029   0.001361   0.002313
    29  H   -0.032256   0.370654  -0.036451   0.002173   0.000437  -0.000136
    30  H   -0.001830  -0.044269   0.384652  -0.028844   0.003868   0.000153
    31  H    0.001657  -0.057893   0.382966  -0.044939  -0.000258   0.003577
    32  H   -0.000175   0.004245  -0.034729   0.347286  -0.026162   0.006287
    33  H    0.000208  -0.001331   0.003345  -0.008939  -0.041341   0.360902
    34  H    0.000000  -0.000001   0.000005  -0.000110   0.003814  -0.039041
    35  H    0.000000   0.000000  -0.000000  -0.000000   0.000007   0.000198
    36  H   -0.000000  -0.000000   0.000000  -0.000000   0.000066  -0.000234
    37  H    0.000000  -0.000000  -0.000000  -0.000000   0.000001  -0.000214
    38  H    0.000000  -0.000000   0.000002  -0.000107   0.003949   0.000489
    39  H    0.000000  -0.000007   0.000031  -0.008129  -0.046700   0.005389
    40  H    0.004983  -0.000073  -0.000001  -0.000000  -0.000000   0.000000
    41  H    0.000002  -0.000000  -0.000000   0.000000  -0.000000  -0.000000
              13         14         15         16         17         18
     1  C    0.000000   0.000000   0.000000   0.000000  -0.000000   0.007516
     2  C   -0.000000  -0.000000   0.000000   0.000000   0.000000  -0.033957
     3  C   -0.000000   0.000000   0.000000  -0.000000   0.000000  -0.050174
     4  C   -0.000000   0.000000   0.000000  -0.000000  -0.000000  -0.049123
     5  C   -0.000000   0.000000   0.000000  -0.000000   0.000000   0.533689
     6  N    0.000000  -0.000000  -0.000000   0.000000   0.000000  -0.071357
     7  C   -0.000002   0.000000  -0.000000  -0.000000   0.000004  -0.006543
     8  C    0.000093   0.000000   0.000000   0.000002  -0.000250   0.000419
     9  C   -0.000035  -0.000001  -0.000000  -0.000140   0.004310   0.000003
    10  N    0.004903   0.000454   0.000001   0.004798  -0.065457  -0.000000
    11  C   -0.023971  -0.029222   0.000403  -0.023221   0.521529  -0.000000
    12  C    0.500841  -0.034608   0.007602  -0.050360  -0.049374   0.000000
    13  C    4.910580   0.555795  -0.063805  -0.025458  -0.050417   0.000000
    14  C    0.555795   4.708723   0.356576   0.549438  -0.034280   0.000000
    15  C   -0.063805   0.356576   5.034479  -0.064675   0.007487  -0.000000
    16  C   -0.025458   0.549438  -0.064675   4.897100   0.508322   0.000000
    17  C   -0.050417  -0.034280   0.007487   0.508322   5.000664  -0.000000
    18  C    0.000000   0.000000  -0.000000   0.000000  -0.000000   4.975594
    19  C    0.000000  -0.000000  -0.000000   0.000000  -0.000000   0.496063
    20  H    0.000000   0.000000   0.000000   0.000000   0.000000  -0.000239
    21  H    0.000000   0.000000   0.000000   0.000000   0.000000  -0.000212
    22  H    0.000000   0.000000   0.000000   0.000000   0.000000   0.000205
    23  H    0.000000  -0.000000   0.000000   0.000000  -0.000000   0.000507
    24  H   -0.000000   0.000000   0.000000  -0.000000  -0.000000   0.005293
    25  H    0.000000   0.000000   0.000000   0.000000  -0.000000   0.006522
    26  H   -0.000001   0.000000  -0.000000  -0.000000   0.000000   0.003023
    27  H    0.000000  -0.000000   0.000000   0.000000  -0.000000   0.004569
    28  H    0.000018  -0.000000  -0.000000  -0.000002  -0.000176  -0.000002
    29  H   -0.000004   0.000000   0.000000  -0.000000   0.000017  -0.000031
    30  H   -0.000005   0.000000  -0.000000   0.000003  -0.000210  -0.000001
    31  H   -0.000250  -0.000016   0.000000  -0.000007   0.000794   0.000001
    32  H   -0.000097  -0.000007  -0.000000   0.000021  -0.011320   0.000000
    33  H   -0.034424   0.003960  -0.000201   0.000803   0.005066   0.000000
    34  H    0.368013  -0.044547  -0.009349   0.005678   0.000615  -0.000000
    35  H   -0.003984  -0.029199   0.374444   0.003068  -0.000227   0.000000
    36  H   -0.002240  -0.030715   0.373977  -0.001597  -0.000189  -0.000000
    37  H    0.003159  -0.029144   0.374263  -0.004158   0.000177   0.000000
    38  H    0.005781  -0.044749  -0.009435   0.368596  -0.039802  -0.000000
    39  H    0.000749   0.004141  -0.000197  -0.033367   0.361404   0.000000
    40  H    0.000000  -0.000000   0.000000   0.000000  -0.000000   0.362558
    41  H    0.000000   0.000000   0.000000  -0.000000   0.000000  -0.039301
              19         20         21         22         23         24
     1  C   -0.063740   0.374065   0.374252   0.374384  -0.009432  -0.000198
     2  C    0.555242  -0.030560  -0.029211  -0.029168  -0.044722   0.004089
     3  C   -0.025415  -0.001691  -0.004096   0.003096   0.368478  -0.033768
     4  C   -0.050217  -0.000190   0.000177  -0.000227  -0.039643   0.361535
     5  C   -0.023599   0.000064   0.000003   0.000007   0.003861  -0.045680
     6  N    0.005039   0.000000  -0.000000  -0.000000  -0.000108  -0.008471
     7  C    0.000002  -0.000000  -0.000000   0.000000   0.000002   0.000088
     8  C   -0.000005  -0.000000   0.000000   0.000000  -0.000000  -0.000014
     9  C    0.000000   0.000000  -0.000000  -0.000000  -0.000000  -0.000006
    10  N   -0.000000   0.000000  -0.000000  -0.000000  -0.000000  -0.000000
    11  C    0.000000  -0.000000  -0.000000  -0.000000  -0.000000  -0.000000
    12  C    0.000000   0.000000  -0.000000  -0.000000   0.000000  -0.000000
    13  C    0.000000   0.000000   0.000000   0.000000   0.000000  -0.000000
    14  C   -0.000000   0.000000   0.000000   0.000000  -0.000000   0.000000
    15  C   -0.000000   0.000000   0.000000   0.000000   0.000000   0.000000
    16  C    0.000000   0.000000   0.000000   0.000000   0.000000  -0.000000
    17  C   -0.000000   0.000000   0.000000   0.000000  -0.000000  -0.000000
    18  C    0.496063  -0.000239  -0.000212   0.000205   0.000507   0.005293
    19  C    4.915650  -0.002251   0.003152  -0.003991   0.005750   0.000746
    20  H   -0.002251   0.595103  -0.030200  -0.029972   0.000671   0.000001
    21  H    0.003152  -0.030200   0.597583  -0.029283   0.004619  -0.000005
    22  H   -0.003991  -0.029972  -0.029283   0.596768   0.000050   0.000003
    23  H    0.005750   0.000671   0.004619   0.000050   0.627557  -0.006237
    24  H    0.000746   0.000001  -0.000005   0.000003  -0.006237   0.627709
    25  H   -0.000085   0.000000  -0.000000  -0.000000  -0.000011   0.006068
    26  H   -0.000222  -0.000000   0.000000   0.000000  -0.000000   0.000025
    27  H    0.000261   0.000000  -0.000000  -0.000000   0.000000  -0.000007
    28  H   -0.000000  -0.000000   0.000000   0.000000   0.000000   0.000000
    29  H   -0.000000  -0.000000   0.000000   0.000000  -0.000000   0.000006
    30  H   -0.000000   0.000000  -0.000000  -0.000000   0.000000  -0.000003
    31  H   -0.000000  -0.000000   0.000000  -0.000000  -0.000000   0.000001
    32  H    0.000000  -0.000000   0.000000   0.000000   0.000000   0.000000
    33  H   -0.000000  -0.000000   0.000000   0.000000  -0.000000   0.000000
    34  H    0.000000   0.000000   0.000000  -0.000000   0.000000  -0.000000
    35  H    0.000000   0.000000   0.000000   0.000000   0.000000  -0.000000
    36  H    0.000000   0.000000   0.000000   0.000000   0.000000   0.000000
    37  H    0.000000   0.000000   0.000000   0.000000   0.000000  -0.000000
    38  H   -0.000000   0.000000   0.000000   0.000000   0.000000  -0.000000
    39  H    0.000000   0.000000   0.000000   0.000000  -0.000000  -0.000000
    40  H   -0.035365   0.000002   0.000003  -0.000005   0.000018  -0.000189
    41  H    0.368229   0.000660   0.000053   0.004611  -0.000184   0.000017
              25         26         27         28         29         30
     1  C   -0.000000   0.000000   0.000000  -0.000000   0.000000  -0.000000
     2  C   -0.000007  -0.000012  -0.000005  -0.000000   0.000000   0.000000
     3  C   -0.000027  -0.000004   0.000004  -0.000000  -0.000000  -0.000000
     4  C   -0.011050   0.000760  -0.000270   0.000004  -0.000003  -0.000013
     5  C   -0.027060   0.002233  -0.008666  -0.000116   0.000428  -0.000079
     6  N    0.345257  -0.059684  -0.042267   0.003659   0.000245   0.001292
     7  C   -0.042642   0.376680   0.384994  -0.030101  -0.032256  -0.001830
     8  C   -0.005047  -0.036774  -0.027346   0.382829   0.370654  -0.044269
     9  C    0.003156  -0.012300   0.004985  -0.040507  -0.036451   0.384652
    10  N   -0.000150  -0.000003  -0.000113  -0.003029   0.002173  -0.028844
    11  C    0.000002   0.000026  -0.000006   0.001361   0.000437   0.003868
    12  C    0.000000  -0.000097   0.000011   0.002313  -0.000136   0.000153
    13  C    0.000000  -0.000001   0.000000   0.000018  -0.000004  -0.000005
    14  C    0.000000   0.000000  -0.000000  -0.000000   0.000000   0.000000
    15  C    0.000000  -0.000000   0.000000  -0.000000   0.000000  -0.000000
    16  C    0.000000  -0.000000   0.000000  -0.000002  -0.000000   0.000003
    17  C   -0.000000   0.000000  -0.000000  -0.000176   0.000017  -0.000210
    18  C    0.006522   0.003023   0.004569  -0.000002  -0.000031  -0.000001
    19  C   -0.000085  -0.000222   0.000261  -0.000000  -0.000000  -0.000000
    20  H    0.000000  -0.000000   0.000000  -0.000000  -0.000000   0.000000
    21  H   -0.000000   0.000000  -0.000000   0.000000   0.000000  -0.000000
    22  H   -0.000000   0.000000  -0.000000   0.000000   0.000000  -0.000000
    23  H   -0.000011  -0.000000   0.000000   0.000000  -0.000000   0.000000
    24  H    0.006068   0.000025  -0.000007   0.000000   0.000006  -0.000003
    25  H    0.448465  -0.000699   0.005323   0.000027  -0.000099   0.004188
    26  H   -0.000699   0.665188  -0.053657   0.000494   0.006435  -0.000132
    27  H    0.005323  -0.053657   0.627554  -0.006386  -0.004344  -0.000091
    28  H    0.000027   0.000494  -0.006386   0.607718  -0.032057   0.005649
    29  H   -0.000099   0.006435  -0.004344  -0.032057   0.615187  -0.006435
    30  H    0.004188  -0.000132  -0.000091   0.005649  -0.006435   0.611087
    31  H   -0.000046   0.006401  -0.000059  -0.005371   0.005680  -0.033861
    32  H    0.000004  -0.000002   0.000004   0.000024   0.000152  -0.008629
    33  H   -0.000001   0.000314  -0.000034   0.001773   0.000008  -0.000003
    34  H   -0.000000  -0.000000   0.000000  -0.000002   0.000000  -0.000000
    35  H    0.000000  -0.000000  -0.000000  -0.000000   0.000000   0.000000
    36  H   -0.000000   0.000000   0.000000   0.000000  -0.000000  -0.000000
    37  H    0.000000   0.000000  -0.000000   0.000000   0.000000   0.000000
    38  H   -0.000000   0.000000  -0.000000  -0.000000  -0.000000  -0.000000
    39  H    0.000000   0.000000   0.000000  -0.000002   0.000002  -0.000016
    40  H   -0.000045   0.001187   0.000857   0.000010   0.000006  -0.000000
    41  H    0.000003   0.000001  -0.000001   0.000000   0.000000   0.000000
              31         32         33         34         35         36
     1  C    0.000000   0.000000   0.000000  -0.000000   0.000000   0.000000
     2  C    0.000000  -0.000000  -0.000000   0.000000   0.000000   0.000000
     3  C   -0.000000  -0.000000   0.000000  -0.000000   0.000000   0.000000
     4  C    0.000000   0.000000   0.000000  -0.000000  -0.000000   0.000000
     5  C    0.000021  -0.000000   0.000000   0.000000   0.000000  -0.000000
     6  N   -0.000502   0.000002  -0.000002   0.000000   0.000000  -0.000000
     7  C    0.001657  -0.000175   0.000208   0.000000   0.000000  -0.000000
     8  C   -0.057893   0.004245  -0.001331  -0.000001   0.000000  -0.000000
     9  C    0.382966  -0.034729   0.003345   0.000005  -0.000000   0.000000
    10  N   -0.044939   0.347286  -0.008939  -0.000110  -0.000000  -0.000000
    11  C   -0.000258  -0.026162  -0.041341   0.003814   0.000007   0.000066
    12  C    0.003577   0.006287   0.360902  -0.039041   0.000198  -0.000234
    13  C   -0.000250  -0.000097  -0.034424   0.368013  -0.003984  -0.002240
    14  C   -0.000016  -0.000007   0.003960  -0.044547  -0.029199  -0.030715
    15  C    0.000000  -0.000000  -0.000201  -0.009349   0.374444   0.373977
    16  C   -0.000007   0.000021   0.000803   0.005678   0.003068  -0.001597
    17  C    0.000794  -0.011320   0.005066   0.000615  -0.000227  -0.000189
    18  C    0.000001   0.000000   0.000000  -0.000000   0.000000  -0.000000
    19  C   -0.000000   0.000000  -0.000000   0.000000   0.000000   0.000000
    20  H   -0.000000  -0.000000  -0.000000   0.000000   0.000000   0.000000
    21  H    0.000000   0.000000   0.000000   0.000000   0.000000   0.000000
    22  H   -0.000000   0.000000   0.000000  -0.000000   0.000000   0.000000
    23  H   -0.000000   0.000000  -0.000000   0.000000   0.000000   0.000000
    24  H    0.000001   0.000000   0.000000  -0.000000  -0.000000   0.000000
    25  H   -0.000046   0.000004  -0.000001  -0.000000   0.000000  -0.000000
    26  H    0.006401  -0.000002   0.000314  -0.000000  -0.000000   0.000000
    27  H   -0.000059   0.000004  -0.000034   0.000000  -0.000000   0.000000
    28  H   -0.005371   0.000024   0.001773  -0.000002  -0.000000   0.000000
    29  H    0.005680   0.000152   0.000008   0.000000   0.000000  -0.000000
    30  H   -0.033861  -0.008629  -0.000003  -0.000000   0.000000  -0.000000
    31  H    0.626429   0.002152   0.001906   0.000007   0.000000  -0.000000
    32  H    0.002152   0.443702  -0.000083   0.000003  -0.000000   0.000000
    33  H    0.001906  -0.000083   0.621926  -0.006271  -0.000005   0.000002
    34  H    0.000007   0.000003  -0.006271   0.626749   0.004620   0.000655
    35  H    0.000000  -0.000000  -0.000005   0.004620   0.596901  -0.030023
    36  H   -0.000000   0.000000   0.000002   0.000655  -0.030023   0.595487
    37  H    0.000000  -0.000000   0.000003   0.000053  -0.029279  -0.030231
    38  H    0.000000  -0.000011   0.000017  -0.000184   0.000046   0.000689
    39  H    0.000024   0.005861  -0.000192   0.000017   0.000003   0.000001
    40  H   -0.000001   0.000000  -0.000000   0.000000  -0.000000   0.000000
    41  H    0.000000   0.000000   0.000000  -0.000000   0.000000   0.000000
              37         38         39         40         41
     1  C    0.000000   0.000000   0.000000  -0.000200  -0.009342
     2  C    0.000000   0.000000   0.000000   0.004026  -0.044632
     3  C    0.000000   0.000000  -0.000000   0.000779   0.005672
     4  C   -0.000000   0.000000  -0.000000   0.005182   0.000606
     5  C    0.000000  -0.000000  -0.000000  -0.042589   0.003828
     6  N    0.000000   0.000000  -0.000000  -0.009367  -0.000108
     7  C    0.000000   0.000000   0.000000   0.004983   0.000002
     8  C   -0.000000  -0.000000  -0.000007  -0.000073  -0.000000
     9  C   -0.000000   0.000002   0.000031  -0.000001  -0.000000
    10  N   -0.000000  -0.000107  -0.008129  -0.000000   0.000000
    11  C    0.000001   0.003949  -0.046700  -0.000000  -0.000000
    12  C   -0.000214   0.000489   0.005389   0.000000  -0.000000
    13  C    0.003159   0.005781   0.000749   0.000000   0.000000
    14  C   -0.029144  -0.044749   0.004141  -0.000000   0.000000
    15  C    0.374263  -0.009435  -0.000197   0.000000   0.000000
    16  C   -0.004158   0.368596  -0.033367   0.000000  -0.000000
    17  C    0.000177  -0.039802   0.361404  -0.000000   0.000000
    18  C    0.000000  -0.000000   0.000000   0.362558  -0.039301
    19  C    0.000000  -0.000000   0.000000  -0.035365   0.368229
    20  H    0.000000   0.000000   0.000000   0.000002   0.000660
    21  H    0.000000   0.000000   0.000000   0.000003   0.000053
    22  H    0.000000   0.000000   0.000000  -0.000005   0.004611
    23  H    0.000000   0.000000  -0.000000   0.000018  -0.000184
    24  H   -0.000000  -0.000000  -0.000000  -0.000189   0.000017
    25  H    0.000000  -0.000000   0.000000  -0.000045   0.000003
    26  H    0.000000   0.000000   0.000000   0.001187   0.000001
    27  H   -0.000000  -0.000000   0.000000   0.000857  -0.000001
[...]
   148    N   10  dyz    Ryd( 3d)     0.00043
   149    N   10  dx2y2  Ryd( 3d)     0.00072
   150    N   10  dz2    Ryd( 3d)     0.00054

   151    C   11  S      Cor( 1S)     1.99899
   152    C   11  S      Val( 2S)     0.84383
   153    C   11  S      Ryd( 3S)     0.00132
   154    C   11  S      Ryd( 4S)     0.00009
   155    C   11  px     Val( 2p)     0.94605
   156    C   11  px     Ryd( 3p)     0.00533
   157    C   11  py     Val( 2p)     1.04974
   158    C   11  py     Ryd( 3p)     0.00593
   159    C   11  pz     Val( 2p)     0.97179
   160    C   11  pz     Ryd( 3p)     0.00170
   161    C   11  dxy    Ryd( 3d)     0.00114
   162    C   11  dxz    Ryd( 3d)     0.00125
   163    C   11  dyz    Ryd( 3d)     0.00143
   164    C   11  dx2y2  Ryd( 3d)     0.00085
   165    C   11  dz2    Ryd( 3d)     0.00040

   166    C   12  S      Cor( 1S)     1.99907
   167    C   12  S      Val( 2S)     0.94378
   168    C   12  S      Ryd( 3S)     0.00066
   169    C   12  S      Ryd( 4S)     0.00004
   170    C   12  px     Val( 2p)     1.17024
   171    C   12  px     Ryd( 3p)     0.00348
   172    C   12  py     Val( 2p)     1.07562
   173    C   12  py     Ryd( 3p)     0.00485
   174    C   12  pz     Val( 2p)     1.14991
   175    C   12  pz     Ryd( 3p)     0.00780
   176    C   12  dxy    Ryd( 3d)     0.00057
   177    C   12  dxz    Ryd( 3d)     0.00048
   178    C   12  dyz    Ryd( 3d)     0.00047
   179    C   12  dx2y2  Ryd( 3d)     0.00068
   180    C   12  dz2    Ryd( 3d)     0.00039

   181    C   13  S      Cor( 1S)     1.99907
   182    C   13  S      Val( 2S)     0.94224
   183    C   13  S      Ryd( 3S)     0.00068
   184    C   13  S      Ryd( 4S)     0.00004
   185    C   13  px     Val( 2p)     1.05420
   186    C   13  px     Ryd( 3p)     0.00474
   187    C   13  py     Val( 2p)     1.18927
   188    C   13  py     Ryd( 3p)     0.00467
   189    C   13  pz     Val( 2p)     1.13822
   190    C   13  pz     Ryd( 3p)     0.00633
   191    C   13  dxy    Ryd( 3d)     0.00063
   192    C   13  dxz    Ryd( 3d)     0.00054
   193    C   13  dyz    Ryd( 3d)     0.00033
   194    C   13  dx2y2  Ryd( 3d)     0.00071
   195    C   13  dz2    Ryd( 3d)     0.00036

   196    C   14  S      Cor( 1S)     1.99903
   197    C   14  S      Val( 2S)     0.89376
   198    C   14  S      Ryd( 3S)     0.00045
   199    C   14  S      Ryd( 4S)     0.00005
   200    C   14  px     Val( 2p)     1.06483
   201    C   14  px     Ryd( 3p)     0.00454
   202    C   14  py     Val( 2p)     1.08056
   203    C   14  py     Ryd( 3p)     0.00449
   204    C   14  pz     Val( 2p)     0.89677
   205    C   14  pz     Ryd( 3p)     0.00196
   206    C   14  dxy    Ryd( 3d)     0.00074
   207    C   14  dxz    Ryd( 3d)     0.00073
   208    C   14  dyz    Ryd( 3d)     0.00097
   209    C   14  dx2y2  Ryd( 3d)     0.00082
   210    C   14  dz2    Ryd( 3d)     0.00032

   211    C   15  S      Cor( 1S)     1.99939
   212    C   15  S      Val( 2S)     1.10186
   213    C   15  S      Ryd( 3S)     0.00021
   214    C   15  S      Ryd( 4S)     0.00001
   215    C   15  px     Val( 2p)     1.14001
   216    C   15  px     Ryd( 3p)     0.00135
   217    C   15  py     Val( 2p)     1.21409
   218    C   15  py     Ryd( 3p)     0.00237
   219    C   15  pz     Val( 2p)     1.24669
   220    C   15  pz     Ryd( 3p)     0.00046
   221    C   15  dxy    Ryd( 3d)     0.00049
   222    C   15  dxz    Ryd( 3d)     0.00088
   223    C   15  dyz    Ryd( 3d)     0.00027
   224    C   15  dx2y2  Ryd( 3d)     0.00067
   225    C   15  dz2    Ryd( 3d)     0.00051

   226    C   16  S      Cor( 1S)     1.99907
   227    C   16  S      Val( 2S)     0.93975
   228    C   16  S      Ryd( 3S)     0.00068
   229    C   16  S      Ryd( 4S)     0.00004
   230    C   16  px     Val( 2p)     1.15774
   231    C   16  px     Ryd( 3p)     0.00441
   232    C   16  py     Val( 2p)     1.08565
   233    C   16  py     Ryd( 3p)     0.00491
   234    C   16  pz     Val( 2p)     1.15932
   235    C   16  pz     Ryd( 3p)     0.00656
   236    C   16  dxy    Ryd( 3d)     0.00068
   237    C   16  dxz    Ryd( 3d)     0.00045
   238    C   16  dyz    Ryd( 3d)     0.00040
   239    C   16  dx2y2  Ryd( 3d)     0.00062
   240    C   16  dz2    Ryd( 3d)     0.00037

   241    C   17  S      Cor( 1S)     1.99908
   242    C   17  S      Val( 2S)     0.94338
   243    C   17  S      Ryd( 3S)     0.00072
   244    C   17  S      Ryd( 4S)     0.00003
   245    C   17  px     Val( 2p)     1.04773
   246    C   17  px     Ryd( 3p)     0.00503
   247    C   17  py     Val( 2p)     1.18602
   248    C   17  py     Ryd( 3p)     0.00414
   249    C   17  pz     Val( 2p)     1.15815
   250    C   17  pz     Ryd( 3p)     0.00762
   251    C   17  dxy    Ryd( 3d)     0.00059
   252    C   17  dxz    Ryd( 3d)     0.00064
   253    C   17  dyz    Ryd( 3d)     0.00033
   254    C   17  dx2y2  Ryd( 3d)     0.00066
   255    C   17  dz2    Ryd( 3d)     0.00039

   256    C   18  S      Cor( 1S)     1.99906
   257    C   18  S      Val( 2S)     0.94985
   258    C   18  S      Ryd( 3S)     0.00063
   259    C   18  S      Ryd( 4S)     0.00004
   260    C   18  px     Val( 2p)     1.12253
   261    C   18  px     Ryd( 3p)     0.00333
   262    C   18  py     Val( 2p)     1.12261
   263    C   18  py     Ryd( 3p)     0.00410
   264    C   18  pz     Val( 2p)     1.10040
   265    C   18  pz     Ryd( 3p)     0.00151
   266    C   18  dxy    Ryd( 3d)     0.00063
   267    C   18  dxz    Ryd( 3d)     0.00045
   268    C   18  dyz    Ryd( 3d)     0.00044
   269    C   18  dx2y2  Ryd( 3d)     0.00056
   270    C   18  dz2    Ryd( 3d)     0.00034

   271    C   19  S      Cor( 1S)     1.99905
   272    C   19  S      Val( 2S)     0.95081
   273    C   19  S      Ryd( 3S)     0.00061
   274    C   19  S      Ryd( 4S)     0.00004
   275    C   19  px     Val( 2p)     1.07086
   276    C   19  px     Ryd( 3p)     0.00353
   277    C   19  py     Val( 2p)     1.17695
   278    C   19  py     Ryd( 3p)     0.00485
   279    C   19  pz     Val( 2p)     1.01627
   280    C   19  pz     Ryd( 3p)     0.00110
   281    C   19  dxy    Ryd( 3d)     0.00064
   282    C   19  dxz    Ryd( 3d)     0.00054
   283    C   19  dyz    Ryd( 3d)     0.00035
   284    C   19  dx2y2  Ryd( 3d)     0.00068
   285    C   19  dz2    Ryd( 3d)     0.00046

   286    H   20  S      Val( 1S)     0.75442
   287    H   20  S      Ryd( 2S)     0.00096
   288    H   20  px     Ryd( 2p)     0.00020
   289    H   20  py     Ryd( 2p)     0.00017
   290    H   20  pz     Ryd( 2p)     0.00016

   291    H   21  S      Val( 1S)     0.75462
   292    H   21  S      Ryd( 2S)     0.00095
   293    H   21  px     Ryd( 2p)     0.00010
   294    H   21  py     Ryd( 2p)     0.00010
   295    H   21  pz     Ryd( 2p)     0.00033

   296    H   22  S      Val( 1S)     0.75731
   297    H   22  S      Ryd( 2S)     0.00079
   298    H   22  px     Ryd( 2p)     0.00009
   299    H   22  py     Ryd( 2p)     0.00032
   300    H   22  pz     Ryd( 2p)     0.00009

   301    H   23  S      Val( 1S)     0.75734
   302    H   23  S      Ryd( 2S)     0.00096
   303    H   23  px     Ryd( 2p)     0.00020
   304    H   23  py     Ryd( 2p)     0.00024
   305    H   23  pz     Ryd( 2p)     0.00017

   306    H   24  S      Val( 1S)     0.75727
   307    H   24  S      Ryd( 2S)     0.00096
   308    H   24  px     Ryd( 2p)     0.00009
   309    H   24  py     Ryd( 2p)     0.00037
   310    H   24  pz     Ryd( 2p)     0.00013

   311    H   25  S      Val( 1S)     0.58346
   312    H   25  S      Ryd( 2S)     0.00183
   313    H   25  px     Ryd( 2p)     0.00022
   314    H   25  py     Ryd( 2p)     0.00049
   315    H   25  pz     Ryd( 2p)     0.00055

   316    H   26  S      Val( 1S)     0.77605
   317    H   26  S      Ryd( 2S)     0.00275
   318    H   26  px     Ryd( 2p)     0.00009
   319    H   26  py     Ryd( 2p)     0.00022
   320    H   26  pz     Ryd( 2p)     0.00025

   321    H   27  S      Val( 1S)     0.75216
   322    H   27  S      Ryd( 2S)     0.00153
   323    H   27  px     Ryd( 2p)     0.00011
   324    H   27  py     Ryd( 2p)     0.00015
   325    H   27  pz     Ryd( 2p)     0.00031

   326    H   28  S      Val( 1S)     0.74039
   327    H   28  S      Ryd( 2S)     0.00293
   328    H   28  px     Ryd( 2p)     0.00020
   329    H   28  py     Ryd( 2p)     0.00021
   330    H   28  pz     Ryd( 2p)     0.00014

   331    H   29  S      Val( 1S)     0.74662
   332    H   29  S      Ryd( 2S)     0.00222
   333    H   29  px     Ryd( 2p)     0.00008
   334    H   29  py     Ryd( 2p)     0.00022
   335    H   29  pz     Ryd( 2p)     0.00023

   336    H   30  S      Val( 1S)     0.74305
   337    H   30  S      Ryd( 2S)     0.00100
   338    H   30  px     Ryd( 2p)     0.00017
   339    H   30  py     Ryd( 2p)     0.00024
   340    H   30  pz     Ryd( 2p)     0.00014

   341    H   31  S      Val( 1S)     0.74314
   342    H   31  S      Ryd( 2S)     0.00266
   343    H   31  px     Ryd( 2p)     0.00007
   344    H   31  py     Ryd( 2p)     0.00022
   345    H   31  pz     Ryd( 2p)     0.00025

   346    H   32  S      Val( 1S)     0.55090
   347    H   32  S      Ryd( 2S)     0.00228
   348    H   32  px     Ryd( 2p)     0.00015
   349    H   32  py     Ryd( 2p)     0.00060
   350    H   32  pz     Ryd( 2p)     0.00042

   351    H   33  S      Val( 1S)     0.76820
   352    H   33  S      Ryd( 2S)     0.00125
   353    H   33  px     Ryd( 2p)     0.00029
   354    H   33  py     Ryd( 2p)     0.00015
   355    H   33  pz     Ryd( 2p)     0.00024

   356    H   34  S      Val( 1S)     0.77166
   357    H   34  S      Ryd( 2S)     0.00101
   358    H   34  px     Ryd( 2p)     0.00006
   359    H   34  py     Ryd( 2p)     0.00039
   360    H   34  pz     Ryd( 2p)     0.00020

   361    H   35  S      Val( 1S)     0.75619
   362    H   35  S      Ryd( 2S)     0.00091
   363    H   35  px     Ryd( 2p)     0.00008
   364    H   35  py     Ryd( 2p)     0.00033
   365    H   35  pz     Ryd( 2p)     0.00008

   366    H   36  S      Val( 1S)     0.74526
   367    H   36  S      Ryd( 2S)     0.00135
   368    H   36  px     Ryd( 2p)     0.00017
   369    H   36  py     Ryd( 2p)     0.00010
   370    H   36  pz     Ryd( 2p)     0.00027

   371    H   37  S      Val( 1S)     0.74815
   372    H   37  S      Ryd( 2S)     0.00168
   373    H   37  px     Ryd( 2p)     0.00018
   374    H   37  py     Ryd( 2p)     0.00011
   375    H   37  pz     Ryd( 2p)     0.00025

   376    H   38  S      Val( 1S)     0.77338
   377    H   38  S      Ryd( 2S)     0.00096
   378    H   38  px     Ryd( 2p)     0.00031
   379    H   38  py     Ryd( 2p)     0.00014
   380    H   38  pz     Ryd( 2p)     0.00022

   381    H   39  S      Val( 1S)     0.77167
   382    H   39  S      Ryd( 2S)     0.00122
   383    H   39  px     Ryd( 2p)     0.00006
   384    H   39  py     Ryd( 2p)     0.00039
   385    H   39  pz     Ryd( 2p)     0.00023

   386    H   40  S      Val( 1S)     0.75461
   387    H   40  S      Ryd( 2S)     0.00082
   388    H   40  px     Ryd( 2p)     0.00019
   389    H   40  py     Ryd( 2p)     0.00024
   390    H   40  pz     Ryd( 2p)     0.00018

   391    H   41  S      Val( 1S)     0.75840
   392    H   41  S      Ryd( 2S)     0.00097
   393    H   41  px     Ryd( 2p)     0.00010
   394    H   41  py     Ryd( 2p)     0.00038
   395    H   41  pz     Ryd( 2p)     0.00012

 WARNING:  1 low occupancy (<1.9990e) core orbital  found on  C   11


 Summary of Natural Population Analysis:                  
                                                          
                                       Natural Population 
                Natural  -----------------------------------------------
    Atom  No    Charge         Core      Valence    Rydberg      Total
 -----------------------------------------------------------------------
      C    1   -0.69994      1.99940     4.69367    0.00687     6.69994
      C    2   -0.07616      1.99902     4.06302    0.01412     6.07616
      C    3   -0.22753      1.99905     4.21581    0.01268     6.22753
      C    4   -0.28172      1.99906     4.26996    0.01270     6.28172
      C    5    0.16529      1.99902     3.81796    0.01774     5.83471
      N    6   -0.65104      1.99941     5.63932    0.01231     7.65104
      C    7   -0.26993      1.99933     4.25590    0.01470     6.26993
      C    8   -0.48307      1.99931     4.47188    0.01188     6.48307
      C    9   -0.28761      1.99931     4.27219    0.01611     6.28761
      N   10   -0.44057      1.99939     5.42998    0.01120     7.44057
      C   11    0.17017      1.99899     3.81140    0.01944     5.82983
      C   12   -0.35803      1.99907     4.33955    0.01941     6.35803
      C   13   -0.34201      1.99907     4.32392    0.01902     6.34201
      C   14    0.04998      1.99903     3.93592    0.01506     5.95002
      C   15   -0.70927      1.99939     4.70265    0.00722     6.70927
      C   16   -0.36065      1.99907     4.34246    0.01912     6.36065
      C   17   -0.35451      1.99908     4.33528    0.02015     6.35451
      C   18   -0.30648      1.99906     4.29539    0.01203     6.30648
      C   19   -0.22675      1.99905     4.21489    0.01280     6.22675
      H   20    0.24408      0.00000     0.75442    0.00150     0.75592
      H   21    0.24390      0.00000     0.75462    0.00148     0.75610
      H   22    0.24141      0.00000     0.75731    0.00129     0.75859
      H   23    0.24110      0.00000     0.75734    0.00156     0.75890
      H   24    0.24117      0.00000     0.75727    0.00156     0.75883
      H   25    0.41345      0.00000     0.58346    0.00309     0.58655
      H   26    0.22063      0.00000     0.77605    0.00331     0.77937
      H   27    0.24575      0.00000     0.75216    0.00209     0.75425
      H   28    0.25614      0.00000     0.74039    0.00347     0.74386
      H   29    0.25063      0.00000     0.74662    0.00275     0.74937
      H   30    0.25540      0.00000     0.74305    0.00155     0.74460
      H   31    0.25366      0.00000     0.74314    0.00319     0.74634
      H   32    0.44565      0.00000     0.55090    0.00345     0.55435
      H   33    0.22986      0.00000     0.76820    0.00193     0.77014
      H   34    0.22668      0.00000     0.77166    0.00167     0.77332
      H   35    0.24241      0.00000     0.75619    0.00140     0.75759
      H   36    0.25285      0.00000     0.74526    0.00190     0.74715
      H   37    0.24963      0.00000     0.74815    0.00222     0.75037
      H   38    0.22499      0.00000     0.77338    0.00163     0.77501
      H   39    0.22645      0.00000     0.77167    0.00189     0.77355
      H   40    0.24396      0.00000     0.75461    0.00143     0.75604
      H   41    0.24003      0.00000     0.75840    0.00156     0.75997
 =======================================================================
   * Total *    0.00000     37.98410    99.69542    0.32048   138.00000

                                 Natural Population      
 --------------------------------------------------------
   Core                      37.98410 ( 99.9582% of  38)
   Valence                   99.69542 ( 99.6954% of 100)
   Natural Minimal Basis    137.67952 ( 99.7678% of 138)
   Natural Rydberg Basis      0.32048 (  0.2322% of 138)
 --------------------------------------------------------

    Atom  No          Natural Electron Configuration
 ----------------------------------------------------------------------------
      C    1      [core]2S( 1.10)2p( 3.60)
      C    2      [core]2S( 0.88)2p( 3.18)3p( 0.01)
      C    3      [core]2S( 0.95)2p( 3.26)3p( 0.01)
      C    4      [core]2S( 0.95)2p( 3.32)3p( 0.01)
      C    5      [core]2S( 0.83)2p( 2.98)3p( 0.01)
      N    6      [core]2S( 1.26)2p( 4.38)3p( 0.01)
      C    7      [core]2S( 1.02)2p( 3.24)3p( 0.01)
      C    8      [core]2S( 1.05)2p( 3.42)3p( 0.01)
      C    9      [core]2S( 1.02)2p( 3.25)3p( 0.01)
      N   10      [core]2S( 1.27)2p( 4.16)3p( 0.01)
      C   11      [core]2S( 0.84)2p( 2.97)3p( 0.01)3d( 0.01)
      C   12      [core]2S( 0.94)2p( 3.40)3p( 0.02)
      C   13      [core]2S( 0.94)2p( 3.38)3p( 0.02)
      C   14      [core]2S( 0.89)2p( 3.04)3p( 0.01)
      C   15      [core]2S( 1.10)2p( 3.60)
      C   16      [core]2S( 0.94)2p( 3.40)3p( 0.02)
      C   17      [core]2S( 0.94)2p( 3.39)3p( 0.02)
      C   18      [core]2S( 0.95)2p( 3.35)3p( 0.01)
      C   19      [core]2S( 0.95)2p( 3.26)3p( 0.01)
      H   20            1S( 0.75)
      H   21            1S( 0.75)
      H   22            1S( 0.76)
      H   23            1S( 0.76)
      H   24            1S( 0.76)
      H   25            1S( 0.58)
      H   26            1S( 0.78)
      H   27            1S( 0.75)
      H   28            1S( 0.74)
      H   29            1S( 0.75)
      H   30            1S( 0.74)
      H   31            1S( 0.74)
      H   32            1S( 0.55)
      H   33            1S( 0.77)
      H   34            1S( 0.77)
      H   35            1S( 0.76)
      H   36            1S( 0.75)
      H   37            1S( 0.75)
      H   38            1S( 0.77)
      H   39            1S( 0.77)
      H   40            1S( 0.75)
      H   41            1S( 0.76)


 NBO analysis skipped by request.
 1\1\GINC-DRG2-W001\SP\RB3LYP TD-FC\6-31G(d,p)\C17H22N2\QDUEZ\18-Jul-20
 24\0\\# TD(NStates=10, Root=1) B3LYP/6-31G** SCRF=(Solvent=water) volu
 me pop=NPA density=current Geom=AllCheck Guess=Read\\JSKXMAPMKXVJKT-UH
 FFFAOYSA-N_conf_1\\0,1\C,0,-7.4531972078,0.5308489437,-1.1010514275\C,
 0,-6.0339466342,0.4525063447,-0.587944379\C,0,-5.6375186201,-0.5609959
 937,0.3016926864\C,0,-4.3375789466,-0.6418084506,0.7840982017\C,0,-3.3
 584238241,0.2976829067,0.3941023887\N,0,-2.0764921468,0.2190005847,0.9
 316208474\C,0,-0.9595679393,0.9485889091,0.3423019037\C,0,0.3663209442
 ,0.6100306366,1.0284085938\C,0,0.8847196601,-0.8095489932,0.7315388778
 \N,0,2.1875122327,-1.0714717255,1.3258498302\C,0,3.3908166876,-0.81879
 37212,0.6816379734\C,0,3.4877720848,-0.0276350884,-0.4783724896\C,0,4.
 7301912916,0.2119463776,-1.071500054\C,0,5.917674494,-0.3106843156,-0.
 5509828288\C,0,7.2580644647,-0.036674137,-1.1928086077\C,0,5.812097664
 4,-1.0998553842,0.6069113634\C,0,4.5871431506,-1.350728451,1.211965154
 4\C,0,-3.7440782931,1.3102387931,-0.5024988609\C,0,-5.0589508938,1.377
 0148064,-0.9726126788\H,0,-8.1709692106,0.6846792673,-0.286136445\H,0,
 -7.7500820549,-0.3915691565,-1.6142048269\H,0,-7.5738932388,1.35699014
 38,-1.807584911\H,0,-6.3637710205,-1.3046033632,0.622863223\H,0,-4.064
 6973532,-1.4369233319,1.4741646735\H,0,-1.8414864915,-0.7012429285,1.2
 785371597\H,0,-0.8751798677,0.7569935928,-0.7418744364\H,0,-1.14744822
 14,2.0231868087,0.4530800173\H,0,1.1155822402,1.3351714792,0.694271399
 8\H,0,0.2645202712,0.7384735894,2.1124162738\H,0,0.1939777405,-1.55835
 34793,1.1314022448\H,0,0.9165771217,-0.9686688875,-0.3563648562\H,0,2.
 2159104326,-1.8275795607,1.9932504032\H,0,2.5996697739,0.4061240118,-0
 .9243244711\H,0,4.7674742494,0.8265561377,-1.9682271391\H,0,7.14191575
 63,0.501619794,-2.1379063339\H,0,7.902579777,0.5705268422,-0.545048095
 \H,0,7.8037851178,-0.9640419298,-1.4023678843\H,0,6.7102754188,-1.5313
 83899,1.0435706175\H,0,4.5418395117,-1.9681865056,2.1061843308\H,0,-3.
 0248216237,2.0492515002,-0.8372905065\H,0,-5.3243164978,2.1733178327,-
 1.664489043\\Version=ES64L-G16RevA.03\State=1-A\HF=-770.611995\RMSD=4.
 927e-09\Dipole=-1.2245162,-0.7372535,0.6448411\Quadrupole=-14.2829784,
 7.9331863,6.3497921,3.0482825,1.6761474,-7.3573969\PG=C01 [X(C17H22N2)
 ]\\@


 SCIENCE IS LONG AND LIFE IS SHORT.

                     DON MOSER IN THE FEBRUARY 1979 SMITHSONIAN
 Job cpu time:       0 days  1 hours 19 minutes 22.3 seconds.
 Elapsed time:       0 days  0 hours 26 minutes 32.3 seconds.
 File lengths (MBytes):  RWF=   1253 Int=      0 D2E=      0 Chk=     79 Scr=      1
 Normal termination of Gaussian 16 at Thu Jul 18 05:36:08 2024.
