 Entering Gaussian System, Link 0=g16
 Initial command:
 /opt/sw/arch/manual/gaussian/G16_A03/g16/l1.exe "/scratch/1030837.jesse.materianova.be/Gau-51342.inp" -scrdir="/scratch/1030837.jesse.materianova.be/"
 Entering Link 1 = /opt/sw/arch/manual/gaussian/G16_A03/g16/l1.exe PID=     51343.
  
 Copyright (c) 1988,1990,1992,1993,1995,1998,2003,2009,2016,
            Gaussian, Inc.  All Rights Reserved.
  
 This is part of the Gaussian(R) 16 program.  It is based on
 the Gaussian(R) 09 system (copyright 2009, Gaussian, Inc.),
 the Gaussian(R) 03 system (copyright 2003, Gaussian, Inc.),
 the Gaussian(R) 98 system (copyright 1998, Gaussian, Inc.),
 the Gaussian(R) 94 system (copyright 1995, Gaussian, Inc.),
 the Gaussian 92(TM) system (copyright 1992, Gaussian, Inc.),
 the Gaussian 90(TM) system (copyright 1990, Gaussian, Inc.),
 the Gaussian 88(TM) system (copyright 1988, Gaussian, Inc.),
 the Gaussian 86(TM) system (copyright 1986, Carnegie Mellon
 University), and the Gaussian 82(TM) system (copyright 1983,
 Carnegie Mellon University). Gaussian is a federally registered
 trademark of Gaussian, Inc.
  
 This software contains proprietary and confidential information,
 including trade secrets, belonging to Gaussian, Inc.
  
 This software is provided under written license and may be
 used, copied, transmitted, or stored only in accord with that
 written license.
  
 The following legend is applicable only to US Government
 contracts under FAR:
  
                    RESTRICTED RIGHTS LEGEND
  
 Use, reproduction and disclosure by the US Government is
 subject to restrictions as set forth in subparagraphs (a)
 and (c) of the Commercial Computer Software - Restricted
 Rights clause in FAR 52.227-19.
  
 Gaussian, Inc.
 340 Quinnipiac St., Bldg. 40, Wallingford CT 06492
  
  
 ---------------------------------------------------------------
 Warning -- This program may not be used in any manner that
 competes with the business of Gaussian, Inc. or will provide
 assistance to any competitor of Gaussian, Inc.  The licensee
 of this program is prohibited from giving any competitor of
 Gaussian, Inc. access to this program.  By using this program,
 the user acknowledges that Gaussian, Inc. is engaged in the
 business of creating and licensing software in the field of
 computational chemistry and represents and warrants to the
 licensee that it is not a competitor of Gaussian, Inc. and that
 it will not use this program in any manner prohibited above.
 ---------------------------------------------------------------
  

 Cite this work as:
 Gaussian 16, Revision A.03,
 M. J. Frisch, G. W. Trucks, H. B. Schlegel, G. E. Scuseria, 
 M. A. Robb, J. R. Cheeseman, G. Scalmani, V. Barone, 
 G. A. Petersson, H. Nakatsuji, X. Li, M. Caricato, A. V. Marenich, 
 J. Bloino, B. G. Janesko, R. Gomperts, B. Mennucci, H. P. Hratchian, 
 J. V. Ortiz, A. F. Izmaylov, J. L. Sonnenberg, D. Williams-Young, 
 F. Ding, F. Lipparini, F. Egidi, J. Goings, B. Peng, A. Petrone, 
 T. Henderson, D. Ranasinghe, V. G. Zakrzewski, J. Gao, N. Rega, 
 G. Zheng, W. Liang, M. Hada, M. Ehara, K. Toyota, R. Fukuda, 
 J. Hasegawa, M. Ishida, T. Nakajima, Y. Honda, O. Kitao, H. Nakai, 
 T. Vreven, K. Throssell, J. A. Montgomery, Jr., J. E. Peralta, 
 F. Ogliaro, M. J. Bearpark, J. J. Heyd, E. N. Brothers, K. N. Kudin, 
 V. N. Staroverov, T. A. Keith, R. Kobayashi, J. Normand, 
 K. Raghavachari, A. P. Rendell, J. C. Burant, S. S. Iyengar, 
 J. Tomasi, M. Cossi, J. M. Millam, M. Klene, C. Adamo, R. Cammi, 
 J. W. Ochterski, R. L. Martin, K. Morokuma, O. Farkas, 
 J. B. Foresman, and D. J. Fox, Gaussian, Inc., Wallingford CT, 2016.
 
 ******************************************
 Gaussian 16:  EM64L-G16RevA.03 25-Dec-2016
                 9-Jul-2024 
 ******************************************
 %nprocshared=4
 Will use up to    4 processors via shared memory.
 %mem=8GB
 %Chk=VXPJBVRYAHYMNY-UHFFFAOYSA-N_conf_2_0.chk
 -------------------------------------------------------
 # opt=CalcFc B3LYP/6-31G** SCRF=(Solvent=water) scf=xqc
 -------------------------------------------------------
 1/10=4,18=20,19=15,26=3,38=1/1,3;
 2/9=110,12=2,17=6,18=5,40=1/2;
 3/5=1,6=6,7=101,11=2,25=1,30=1,70=2201,71=2,72=1,74=-5,140=1/1,2,3;
 4//1;
 5/5=2,8=3,13=1,38=5,53=1/2,8;
 8/6=4,10=90,11=11/1;
 11/6=1,8=1,9=11,15=111,16=1/1,2,10;
 10/6=1,13=1/2;
 6/7=2,8=2,9=2,10=2,28=1/1;
 7/10=1,18=20,25=1/1,2,3,16;
 1/10=4,18=20,19=15,26=3/3(2);
 2/9=110/2;
 99//99;
 2/9=110/2;
 3/5=1,6=6,7=101,11=2,25=1,30=1,70=2205,71=1,72=1,74=-5/1,2,3;
 4/5=5,16=3,69=1/1;
 5/5=2,8=3,13=1,38=5,53=1/2,8;
 7//1,2,3,16;
 1/18=20,19=15,26=3/3(-5);
 2/9=110/2;
 6/7=2,8=2,9=2,10=2,19=2,28=1/1;
 99/9=1/99;
 ----------------------------------
 VXPJBVRYAHYMNY-UHFFFAOYSA-N_conf_2
 ----------------------------------
 Symbolic Z-matrix:
 Charge =  0 Multiplicity = 1
 C                    -3.61067  -0.83026  -0.67439 
 N                    -3.21294  -0.32449   0.63075 
 C                    -2.42768   0.9156    0.53913 
 C                    -0.99417   0.71342   0.0211 
 O                    -0.33939  -0.27479   0.82409 
 C                     0.97275  -0.60104   0.35983 
 C                     2.00353   0.48224   0.7214 
 N                     3.40466   0.09986   0.51831 
 C                     3.74815  -0.06496  -0.88591 
 H                    -4.23362  -1.72041  -0.5418 
 H                    -2.74956  -1.11863  -1.28451 
 H                    -4.20663  -0.09228  -1.22084 
 H                    -2.61806  -1.0205    1.08971 
 H                    -2.36603   1.31911   1.55683 
 H                    -2.95107   1.66446  -0.06615 
 H                    -1.00446   0.39436  -1.02676 
 H                    -0.45608   1.66402   0.0926 
 H                     0.94854  -0.79885  -0.71772 
 H                     1.24876  -1.53869   0.85516 
 H                     1.8754    0.7399    1.77992 
 H                     1.79131   1.4094    0.17654 
 H                     3.60274  -0.76296   1.02502 
 H                     4.82108  -0.26239  -0.97458 
 H                     3.21885  -0.90767  -1.3405 
 H                     3.5346    0.84414  -1.45721 
 

 GradGradGradGradGradGradGradGradGradGradGradGradGradGradGradGradGradGrad
 Berny optimization.
 Initialization pass.
                           ----------------------------
                           !    Initial Parameters    !
                           ! (Angstroms and Degrees)  !
 --------------------------                            --------------------------
 ! Name  Definition              Value          Derivative Info.                !
 --------------------------------------------------------------------------------
 ! R1    R(1,2)                  1.4551         calculate D2E/DX2 analytically  !
 ! R2    R(1,10)                 1.0945         calculate D2E/DX2 analytically  !
 ! R3    R(1,11)                 1.094          calculate D2E/DX2 analytically  !
 ! R4    R(1,12)                 1.0947         calculate D2E/DX2 analytically  !
 ! R5    R(2,3)                  1.4707         calculate D2E/DX2 analytically  !
 ! R6    R(2,13)                 1.0242         calculate D2E/DX2 analytically  !
 ! R7    R(3,4)                  1.5376         calculate D2E/DX2 analytically  !
 ! R8    R(3,14)                 1.0965         calculate D2E/DX2 analytically  !
 ! R9    R(3,15)                 1.0959         calculate D2E/DX2 analytically  !
 ! R10   R(4,5)                  1.4318         calculate D2E/DX2 analytically  !
 ! R11   R(4,16)                 1.0954         calculate D2E/DX2 analytically  !
 ! R12   R(4,17)                 1.0947         calculate D2E/DX2 analytically  !
 ! R13   R(5,6)                  1.4296         calculate D2E/DX2 analytically  !
 ! R14   R(6,7)                  1.5384         calculate D2E/DX2 analytically  !
 ! R15   R(6,18)                 1.0958         calculate D2E/DX2 analytically  !
 ! R16   R(6,19)                 1.0958         calculate D2E/DX2 analytically  !
 ! R17   R(7,8)                  1.4665         calculate D2E/DX2 analytically  !
 ! R18   R(7,20)                 1.0969         calculate D2E/DX2 analytically  !
 ! R19   R(7,21)                 1.0961         calculate D2E/DX2 analytically  !
 ! R20   R(8,9)                  1.455          calculate D2E/DX2 analytically  !
 ! R21   R(8,22)                 1.02           calculate D2E/DX2 analytically  !
 ! R22   R(9,23)                 1.0945         calculate D2E/DX2 analytically  !
 ! R23   R(9,24)                 1.0941         calculate D2E/DX2 analytically  !
 ! R24   R(9,25)                 1.0947         calculate D2E/DX2 analytically  !
 ! A1    A(2,1,10)             109.2434         calculate D2E/DX2 analytically  !
 ! A2    A(2,1,11)             112.1285         calculate D2E/DX2 analytically  !
 ! A3    A(2,1,12)             111.2353         calculate D2E/DX2 analytically  !
 ! A4    A(10,1,11)            107.5278         calculate D2E/DX2 analytically  !
 ! A5    A(10,1,12)            107.39           calculate D2E/DX2 analytically  !
 ! A6    A(11,1,12)            109.1357         calculate D2E/DX2 analytically  !
 ! A7    A(1,2,3)              112.5291         calculate D2E/DX2 analytically  !
 ! A8    A(1,2,13)             108.9343         calculate D2E/DX2 analytically  !
 ! A9    A(3,2,13)             106.9063         calculate D2E/DX2 analytically  !
 ! A10   A(2,3,4)              114.0742         calculate D2E/DX2 analytically  !
 ! A11   A(2,3,14)             106.4096         calculate D2E/DX2 analytically  !
 ! A12   A(2,3,15)             110.8286         calculate D2E/DX2 analytically  !
 ! A13   A(4,3,14)             107.9788         calculate D2E/DX2 analytically  !
 ! A14   A(4,3,15)             110.4274         calculate D2E/DX2 analytically  !
 ! A15   A(14,3,15)            106.7382         calculate D2E/DX2 analytically  !
 ! A16   A(3,4,5)              109.1571         calculate D2E/DX2 analytically  !
 ! A17   A(3,4,16)             110.5994         calculate D2E/DX2 analytically  !
 ! A18   A(3,4,17)             108.7897         calculate D2E/DX2 analytically  !
 ! A19   A(5,4,16)             109.8608         calculate D2E/DX2 analytically  !
 ! A20   A(5,4,17)             109.7502         calculate D2E/DX2 analytically  !
 ! A21   A(16,4,17)            108.6653         calculate D2E/DX2 analytically  !
 ! A22   A(4,5,6)              113.2737         calculate D2E/DX2 analytically  !
 ! A23   A(5,6,7)              112.2075         calculate D2E/DX2 analytically  !
 ! A24   A(5,6,18)             109.8928         calculate D2E/DX2 analytically  !
 ! A25   A(5,6,19)             106.2406         calculate D2E/DX2 analytically  !
 ! A26   A(7,6,18)             111.9019         calculate D2E/DX2 analytically  !
 ! A27   A(7,6,19)             109.1189         calculate D2E/DX2 analytically  !
 ! A28   A(18,6,19)            107.1933         calculate D2E/DX2 analytically  !
 ! A29   A(6,7,8)              115.0875         calculate D2E/DX2 analytically  !
 ! A30   A(6,7,20)             108.2965         calculate D2E/DX2 analytically  !
 ! A31   A(6,7,21)             110.4296         calculate D2E/DX2 analytically  !
 ! A32   A(8,7,20)             107.8469         calculate D2E/DX2 analytically  !
 ! A33   A(8,7,21)             109.6753         calculate D2E/DX2 analytically  !
 ! A34   A(20,7,21)            104.9732         calculate D2E/DX2 analytically  !
 ! A35   A(7,8,9)              112.8762         calculate D2E/DX2 analytically  !
 ! A36   A(7,8,22)             109.713          calculate D2E/DX2 analytically  !
 ! A37   A(9,8,22)             109.7407         calculate D2E/DX2 analytically  !
 ! A38   A(8,9,23)             109.2706         calculate D2E/DX2 analytically  !
 ! A39   A(8,9,24)             111.9657         calculate D2E/DX2 analytically  !
 ! A40   A(8,9,25)             111.3171         calculate D2E/DX2 analytically  !
 ! A41   A(23,9,24)            107.5563         calculate D2E/DX2 analytically  !
 ! A42   A(23,9,25)            107.3813         calculate D2E/DX2 analytically  !
 ! A43   A(24,9,25)            109.1741         calculate D2E/DX2 analytically  !
 ! D1    D(10,1,2,3)          -177.0502         calculate D2E/DX2 analytically  !
 ! D2    D(10,1,2,13)           64.5811         calculate D2E/DX2 analytically  !
 ! D3    D(11,1,2,3)            63.8515         calculate D2E/DX2 analytically  !
 ! D4    D(11,1,2,13)          -54.5172         calculate D2E/DX2 analytically  !
 ! D5    D(12,1,2,3)           -58.6732         calculate D2E/DX2 analytically  !
 ! D6    D(12,1,2,13)         -177.0419         calculate D2E/DX2 analytically  !
 ! D7    D(1,2,3,4)            -72.8014         calculate D2E/DX2 analytically  !
 ! D8    D(1,2,3,14)           168.2514         calculate D2E/DX2 analytically  !
 ! D9    D(1,2,3,15)            52.5768         calculate D2E/DX2 analytically  !
 ! D10   D(13,2,3,4)            46.7524         calculate D2E/DX2 analytically  !
 ! D11   D(13,2,3,14)          -72.1948         calculate D2E/DX2 analytically  !
 ! D12   D(13,2,3,15)          172.1306         calculate D2E/DX2 analytically  !
 ! D13   D(2,3,4,5)            -54.0285         calculate D2E/DX2 analytically  !
 ! D14   D(2,3,4,16)            66.9551         calculate D2E/DX2 analytically  !
 ! D15   D(2,3,4,17)          -173.7683         calculate D2E/DX2 analytically  !
 ! D16   D(14,3,4,5)            64.0244         calculate D2E/DX2 analytically  !
 ! D17   D(14,3,4,16)         -174.992          calculate D2E/DX2 analytically  !
 ! D18   D(14,3,4,17)          -55.7155         calculate D2E/DX2 analytically  !
 ! D19   D(15,3,4,5)          -179.6186         calculate D2E/DX2 analytically  !
 ! D20   D(15,3,4,16)          -58.635          calculate D2E/DX2 analytically  !
 ! D21   D(15,3,4,17)           60.6416         calculate D2E/DX2 analytically  !
 ! D22   D(3,4,5,6)            175.8493         calculate D2E/DX2 analytically  !
 ! D23   D(16,4,5,6)            54.4163         calculate D2E/DX2 analytically  !
 ! D24   D(17,4,5,6)           -65.0058         calculate D2E/DX2 analytically  !
 ! D25   D(4,5,6,7)             76.5986         calculate D2E/DX2 analytically  !
 ! D26   D(4,5,6,18)           -48.5849         calculate D2E/DX2 analytically  !
 ! D27   D(4,5,6,19)          -164.2319         calculate D2E/DX2 analytically  !
 ! D28   D(5,6,7,8)            168.334          calculate D2E/DX2 analytically  !
 ! D29   D(5,6,7,20)            47.589          calculate D2E/DX2 analytically  !
 ! D30   D(5,6,7,21)           -66.8391         calculate D2E/DX2 analytically  !
 ! D31   D(18,6,7,8)           -67.5934         calculate D2E/DX2 analytically  !
 ! D32   D(18,6,7,20)          171.6616         calculate D2E/DX2 analytically  !
 ! D33   D(18,6,7,21)           57.2335         calculate D2E/DX2 analytically  !
 ! D34   D(19,6,7,8)            50.8673         calculate D2E/DX2 analytically  !
 ! D35   D(19,6,7,20)          -69.8777         calculate D2E/DX2 analytically  !
 ! D36   D(19,6,7,21)          175.6942         calculate D2E/DX2 analytically  !
 ! D37   D(6,7,8,9)             67.9512         calculate D2E/DX2 analytically  !
 ! D38   D(6,7,8,22)           -54.7733         calculate D2E/DX2 analytically  !
 ! D39   D(20,7,8,9)          -171.0584         calculate D2E/DX2 analytically  !
 ! D40   D(20,7,8,22)           66.2171         calculate D2E/DX2 analytically  !
 ! D41   D(21,7,8,9)           -57.2685         calculate D2E/DX2 analytically  !
 ! D42   D(21,7,8,22)         -179.993          calculate D2E/DX2 analytically  !
 ! D43   D(7,8,9,23)           175.0755         calculate D2E/DX2 analytically  !
 ! D44   D(7,8,9,24)           -65.8746         calculate D2E/DX2 analytically  !
 ! D45   D(7,8,9,25)            56.6422         calculate D2E/DX2 analytically  !
 ! D46   D(22,8,9,23)          -62.2155         calculate D2E/DX2 analytically  !
 ! D47   D(22,8,9,24)           56.8344         calculate D2E/DX2 analytically  !
 ! D48   D(22,8,9,25)          179.3513         calculate D2E/DX2 analytically  !
 --------------------------------------------------------------------------------
 Trust Radius=3.00D-01 FncErr=1.00D-07 GrdErr=1.00D-06 EigMax=2.50D+02 EigMin=1.00D-04
 Number of steps in this run=    125 maximum allowed number of steps=    150.
 GradGradGradGradGradGradGradGradGradGradGradGradGradGradGradGradGradGrad

                          Input orientation:                          
 ---------------------------------------------------------------------
 Center     Atomic      Atomic             Coordinates (Angstroms)
 Number     Number       Type             X           Y           Z
 ---------------------------------------------------------------------
      1          6           0       -3.610666   -0.830261   -0.674395
      2          7           0       -3.212945   -0.324487    0.630747
      3          6           0       -2.427683    0.915603    0.539130
      4          6           0       -0.994174    0.713423    0.021097
      5          8           0       -0.339391   -0.274791    0.824086
      6          6           0        0.972749   -0.601039    0.359827
      7          6           0        2.003529    0.482244    0.721397
      8          7           0        3.404655    0.099856    0.518314
      9          6           0        3.748147   -0.064963   -0.885913
     10          1           0       -4.233620   -1.720411   -0.541802
     11          1           0       -2.749565   -1.118625   -1.284515
     12          1           0       -4.206627   -0.092279   -1.220837
     13          1           0       -2.618059   -1.020503    1.089714
     14          1           0       -2.366031    1.319113    1.556831
     15          1           0       -2.951074    1.664455   -0.066149
     16          1           0       -1.004461    0.394358   -1.026755
     17          1           0       -0.456077    1.664021    0.092598
     18          1           0        0.948545   -0.798854   -0.717721
     19          1           0        1.248758   -1.538693    0.855162
     20          1           0        1.875405    0.739904    1.779918
     21          1           0        1.791313    1.409404    0.176541
     22          1           0        3.602737   -0.762957    1.025017
     23          1           0        4.821080   -0.262393   -0.974580
     24          1           0        3.218853   -0.907670   -1.340503
     25          1           0        3.534601    0.844141   -1.457211
 ---------------------------------------------------------------------
                    Distance matrix (angstroms):
                    1          2          3          4          5
     1  C    0.000000
     2  N    1.455123   0.000000
     3  C    2.433132   1.470664   0.000000
     4  C    3.116520   2.524257   1.537590   0.000000
     5  O    3.640773   2.880480   2.420579   1.431817   0.000000
     6  C    4.704237   4.203559   3.727638   2.389839   1.429575
     7  C    5.932124   5.279265   4.456082   3.087084   2.464330
     8  N    7.176517   6.632144   5.889146   4.469159   3.775147
     9  C    7.401523   7.129124   6.413512   4.890619   4.435774
    10  H    1.094541   2.089318   3.373187   4.090772   4.372698
    11  H    1.094027   2.124525   2.750886   2.853493   3.311675
    12  H    1.094708   2.114164   2.697768   3.537147   4.378417
    13  H    2.033111   1.024196   2.021853   2.604888   2.412254
    14  H    3.338756   2.067925   1.096511   2.146469   2.680432
    15  H    2.651157   2.123707   1.095938   2.177506   3.372549
    16  H    2.901060   2.853323   2.179278   1.095401   2.077425
    17  H    4.094038   3.441524   2.155632   1.094668   2.075496
    18  H    4.559525   4.400158   3.989731   2.570407   2.076196
    19  H    5.143484   4.629412   4.431666   3.286097   2.029934
    20  H    6.211766   5.323986   4.481851   3.365803   2.616971
    21  H    5.909447   5.315569   4.263242   2.875324   2.792083
    22  H    7.411188   6.841142   6.278504   4.931444   3.977317
    23  H    8.456177   8.193076   7.498237   5.980031   5.464963
    24  H    6.862362   6.752329   6.224203   4.715028   4.212728
    25  H    7.380465   7.159235   6.288030   4.765741   4.632941
                    6          7          8          9         10
     6  C    0.000000
     7  C    1.538423   0.000000
     8  N    2.535851   1.466498   0.000000
     9  C    3.089026   2.434456   1.454994   0.000000
    10  H    5.401130   6.734196   7.923412   8.158892   0.000000
    11  H    4.102118   5.401701   6.527581   6.594645   1.765273
    12  H    5.439050   6.532105   7.809813   7.961868   1.764265
    13  H    3.688168   4.873703   6.152624   6.733850   2.400365
    14  H    4.033268   4.526738   5.988817   6.727989   4.138943
    15  H    4.550857   5.154216   6.571519   6.967242   3.650820
    16  H    2.612046   3.480197   4.681268   4.776829   3.890359
    17  H    2.691366   2.800295   4.187255   4.649986   5.111425
    18  H    1.095822   2.196649   2.892739   2.899079   5.266408
    19  H    1.095780   2.161425   2.728772   3.383809   5.660478
    20  H    2.151645   1.096937   2.083246   3.355836   6.983102
    21  H    2.178421   1.096143   2.105849   2.670537   6.827267
    22  H    2.717634   2.049433   1.020015   2.039607   8.048610
    23  H    4.087172   3.371857   2.089549   1.094544   9.181542
    24  H    2.833748   2.767725   2.122458   1.094056   7.539086
    25  H    3.457349   2.687282   2.115076   1.094739   8.231656
                   11         12         13         14         15
    11  H    0.000000
    12  H    1.783388   0.000000
    13  H    2.379892   2.953607   0.000000
    14  H    3.763364   3.618737   2.399066   0.000000
    15  H    3.044759   2.448639   2.942094   1.759432   0.000000
    16  H    2.323993   3.244742   3.014129   3.063326   2.514998
    17  H    3.860006   4.344689   3.588185   2.431227   2.500042
    18  H    3.754933   5.227635   4.004574   4.543764   4.658269
    19  H    4.554258   6.013578   3.908428   4.661126   5.361675
    20  H    5.851087   6.832874   4.875103   4.286610   5.249538
    21  H    5.398628   6.339006   5.116726   4.381422   4.755437
    22  H    6.768469   8.153516   6.226461   6.343818   7.073571
    23  H    7.625212   9.032668   7.757373   7.782273   8.058807
    24  H    5.972407   7.471073   6.323624   6.674131   6.804983
    25  H    6.585820   7.801242   6.915125   6.642854   6.683708
                   16         17         18         19         20
    16  H    0.000000
    17  H    1.779247   0.000000
    18  H    2.309435   2.948785   0.000000
    19  H    3.515010   3.707471   1.763931   0.000000
    20  H    4.036142   3.022723   3.076532   2.537688   0.000000
    21  H    3.208518   2.263325   2.527126   3.073461   1.739575
    22  H    5.174497   4.820124   3.175399   2.484317   2.410838
    23  H    5.862677   5.718246   3.917946   4.211696   4.155583
    24  H    4.430586   4.708766   2.356691   3.016688   3.775762
    25  H    4.581559   4.358856   3.151820   4.031134   3.639067
                   21         22         23         24         25
    21  H    0.000000
    22  H    2.953019   0.000000
    23  H    3.646845   2.394434   0.000000
    24  H    3.115786   2.400832   1.765620   0.000000
    25  H    2.455143   2.957848   1.764194   1.783861   0.000000
 Stoichiometry    C6H16N2O
 Framework group  C1[X(C6H16N2O)]
 Deg. of freedom    69
 Full point group                 C1      NOp   1
 Largest Abelian subgroup         C1      NOp   1
 Largest concise Abelian subgroup C1      NOp   1
                         Standard orientation:                         
 ---------------------------------------------------------------------
 Center     Atomic      Atomic             Coordinates (Angstroms)
 Number     Number       Type             X           Y           Z
 ---------------------------------------------------------------------
      1          6           0       -3.582070    1.158458    0.051666
      2          7           0       -3.189049   -0.150428   -0.448068
      3          6           0       -2.369516   -0.899122    0.516647
      4          6           0       -0.934909   -0.366762    0.667246
      5          8           0       -0.318160   -0.306545   -0.623526
      6          6           0        0.991048    0.267036   -0.597790
      7          6           0        2.045477   -0.714700   -0.058236
      8          7           0        3.438494   -0.298534   -0.250399
      9          6           0        3.796893    0.863698    0.548207
     10          1           0       -4.230526    1.645451   -0.683427
     11          1           0       -2.720650    1.812619    0.215748
     12          1           0       -4.150319    1.072887    0.983416
     13          1           0       -2.619532   -0.027294   -1.290367
     14          1           0       -2.311169   -1.927657    0.141084
     15          1           0       -2.864118   -0.947360    1.493439
     16          1           0       -0.939225    0.628660    1.124434
     17          1           0       -0.372481   -1.047159    1.314572
     18          1           0        0.976497    1.204087   -0.029856
     19          1           0        1.234830    0.520969   -1.635491
     20          1           0        1.909644   -1.678379   -0.564343
     21          1           0        1.865864   -0.924153    1.002611
     22          1           0        3.606239   -0.103361   -1.237415
     23          1           0        4.865255    1.069073    0.427995
     24          1           0        3.251485    1.759076    0.235498
     25          1           0        3.615834    0.685997    1.613144
 ---------------------------------------------------------------------
 Rotational constants (GHZ):           4.4684111           0.5294341           0.5150496
 Standard basis: 6-31G(d,p) (6D, 7F)
 There are   215 symmetry adapted cartesian basis functions of A   symmetry.
 There are   215 symmetry adapted basis functions of A   symmetry.
   215 basis functions,   364 primitive gaussians,   215 cartesian basis functions
    37 alpha electrons       37 beta electrons
       nuclear repulsion energy       480.5284025098 Hartrees.
 NAtoms=   25 NActive=   25 NUniq=   25 SFac= 1.00D+00 NAtFMM=   60 NAOKFM=F Big=F
 Integral buffers will be    131072 words long.
 Raffenetti 2 integral format.
 Two-electron integral symmetry is turned on.
 Force inversion solution in PCM.
 ------------------------------------------------------------------------------
 Polarizable Continuum Model (PCM)
 =================================
 Model                : PCM.
 Atomic radii         : UFF (Universal Force Field).
 Polarization charges : Total charges.
 Charge compensation  : None.
 Solution method      : Matrix inversion.
 Cavity type          : Scaled VdW (van der Waals Surface) (Alpha=1.100).
 Cavity algorithm     : GePol (No added spheres)
                        Default sphere list used, NSphG=   25.
                        Lebedev-Laikov grids with approx.  5.0 points / Ang**2.
                        Smoothing algorithm: York/Karplus (Gamma=1.0000).
                        Polarization charges: spherical gaussians, with
                                              point-specific exponents (IZeta= 3).
                        Self-potential: point-specific (ISelfS= 7).
                        Self-field    : sphere-specific E.n sum rule (ISelfD= 2).
 1st derivatives      : Analytical E(r).r(x)/FMM algorithm (CHGder, D1EAlg=3).
                        Cavity 1st derivative terms included.
 2nd derivatives      : Analytical E(r).r(xy)/FMM algorithm (CHGder, D2EAlg=3).
                        Cavity 2nd derivative terms included.
 Solvent              : Water, Eps=  78.355300 Eps(inf)=   1.777849
 ------------------------------------------------------------------------------
 One-electron integrals computed using PRISM.
 NBasis=   215 RedAO= T EigKep=  3.59D-03  NBF=   215
 NBsUse=   215 1.00D-06 EigRej= -1.00D+00 NBFU=   215
 ExpMin= 1.61D-01 ExpMax= 5.48D+03 ExpMxC= 8.25D+02 IAcc=3 IRadAn=         5 AccDes= 0.00D+00
 Harris functional with IExCor=  402 and IRadAn=       5 diagonalized for initial guess.
 HarFok:  IExCor=  402 AccDes= 0.00D+00 IRadAn=         5 IDoV= 1 UseB2=F ITyADJ=14
 ICtDFT=  3500011 ScaDFX=  1.000000  1.000000  1.000000  1.000000
 FoFCou: FMM=F IPFlag=           0 FMFlag=      100000 FMFlg1=           0
         NFxFlg=           0 DoJE=T BraDBF=F KetDBF=T FulRan=T
         wScrn=  0.000000 ICntrl=       500 IOpCl=  0 I1Cent=   200000004 NGrid=           0
         NMat0=    1 NMatS0=      1 NMatT0=    0 NMatD0=    1 NMtDS0=    0 NMtDT0=    0
 Petite list used in FoFCou.
 Keep R1 ints in memory in canonical form, NReq=274636103.
 Requested convergence on RMS density matrix=1.00D-08 within  32 cycles.
 Requested convergence on MAX density matrix=1.00D-06.
 Requested convergence on             energy=1.00D-06.
 No special actions if energy rises.
 Inv3:  Mode=1 IEnd=     9526572.
 Iteration    1 A*A^-1 deviation from unit magnitude is 7.44D-15 for   1538.
 Iteration    1 A*A^-1 deviation from orthogonality  is 4.36D-15 for   1441     38.
 Iteration    1 A^-1*A deviation from unit magnitude is 6.99D-15 for   1538.
 Iteration    1 A^-1*A deviation from orthogonality  is 5.47D-15 for   1697   1224.
 Error on total polarization charges =  0.00972
 SCF Done:  E(RB3LYP) =  -422.984826019     A.U. after   11 cycles
            NFock= 11  Conv=0.35D-08     -V/T= 2.0095
 QCSCF skips out because SCF is already converged.
 DoSCS=F DFT=T ScalE2(SS,OS)=  1.000000  1.000000
 Range of M.O.s used for correlation:     1   215
 NBasis=   215 NAE=    37 NBE=    37 NFC=     0 NFV=     0
 NROrb=    215 NOA=    37 NOB=    37 NVA=   178 NVB=   178
 Symmetrizing basis deriv contribution to polar:
 IMax=3 JMax=2 DiffMx= 0.00D+00
 G2DrvN: will do    26 centers at a time, making    1 passes.
 Calling FoFCou, ICntrl=  3107 FMM=F I1Cent=   0 AccDes= 0.00D+00.
 NEqPCM:  Using equilibrium solvation (IEInf=0, Eps=  78.3553, EpsInf=   1.7778)
 G2PCM: DoFxE=T DoFxN=T DoGrad=T DoDP/DQ/DG/TGxP=FFFF NFrqRd=   0 IEInf=0 SqF1=F DoCFld=F IF1Alg=4.
 End of G2Drv F.D. properties file   721 does not exist.
 End of G2Drv F.D. properties file   722 does not exist.
 End of G2Drv F.D. properties file   788 does not exist.
          IDoAtm=1111111111111111111111111
 NEqPCM:  Using equilibrium solvation (IEInf=0, Eps=  78.3553, EpsInf=   1.7778)
          Differentiating once with respect to nuclear coordinates.
 Keep R1 ints in memory in canonical form, NReq=278099214.
          There are    78 degrees of freedom in the 1st order CPHF.  IDoFFX=6 NUNeed=     0.
     72 vectors produced by pass  0 Test12= 8.44D-15 1.28D-09 XBig12= 9.50D-02 7.55D-02.
 AX will form    72 AO Fock derivatives at one time.
     72 vectors produced by pass  1 Test12= 8.44D-15 1.28D-09 XBig12= 4.47D-03 1.07D-02.
     72 vectors produced by pass  2 Test12= 8.44D-15 1.28D-09 XBig12= 4.66D-05 1.33D-03.
     72 vectors produced by pass  3 Test12= 8.44D-15 1.28D-09 XBig12= 1.01D-07 3.88D-05.
     72 vectors produced by pass  4 Test12= 8.44D-15 1.28D-09 XBig12= 9.81D-11 1.15D-06.
     29 vectors produced by pass  5 Test12= 8.44D-15 1.28D-09 XBig12= 6.31D-14 2.66D-08.
 InvSVY:  IOpt=1 It=  1 EMax= 6.11D-16
 Solved reduced A of dimension   389 with    78 vectors.
 End of Minotr F.D. properties file   721 does not exist.
 End of Minotr F.D. properties file   722 does not exist.
 End of Minotr F.D. properties file   788 does not exist.

 **********************************************************************

            Population analysis using the SCF density.

 **********************************************************************

 Orbital symmetries:
       Occupied  (A) (A) (A) (A) (A) (A) (A) (A) (A) (A) (A) (A)
                 (A) (A) (A) (A) (A) (A) (A) (A) (A) (A) (A) (A)
                 (A) (A) (A) (A) (A) (A) (A) (A) (A) (A) (A) (A)
                 (A)
       Virtual   (A) (A) (A) (A) (A) (A) (A) (A) (A) (A) (A) (A)
                 (A) (A) (A) (A) (A) (A) (A) (A) (A) (A) (A) (A)
                 (A) (A) (A) (A) (A) (A) (A) (A) (A) (A) (A) (A)
                 (A) (A) (A) (A) (A) (A) (A) (A) (A) (A) (A) (A)
                 (A) (A) (A) (A) (A) (A) (A) (A) (A) (A) (A) (A)
                 (A) (A) (A) (A) (A) (A) (A) (A) (A) (A) (A) (A)
                 (A) (A) (A) (A) (A) (A) (A) (A) (A) (A) (A) (A)
                 (A) (A) (A) (A) (A) (A) (A) (A) (A) (A) (A) (A)
                 (A) (A) (A) (A) (A) (A) (A) (A) (A) (A) (A) (A)
                 (A) (A) (A) (A) (A) (A) (A) (A) (A) (A) (A) (A)
                 (A) (A) (A) (A) (A) (A) (A) (A) (A) (A) (A) (A)
                 (A) (A) (A) (A) (A) (A) (A) (A) (A) (A) (A) (A)
                 (A) (A) (A) (A) (A) (A) (A) (A) (A) (A) (A) (A)
                 (A) (A) (A) (A) (A) (A) (A) (A) (A) (A) (A) (A)
                 (A) (A) (A) (A) (A) (A) (A) (A) (A) (A)
 The electronic state is 1-A.
 Alpha  occ. eigenvalues --  -19.14967 -14.31715 -14.31232 -10.22585 -10.22498
 Alpha  occ. eigenvalues --  -10.20451 -10.20275 -10.19689 -10.19461  -1.02613
 Alpha  occ. eigenvalues --   -0.89771  -0.89268  -0.75129  -0.71414  -0.66700
 Alpha  occ. eigenvalues --   -0.64901  -0.60882  -0.58199  -0.49618  -0.49484
 Alpha  occ. eigenvalues --   -0.47501  -0.47069  -0.44795  -0.43074  -0.42097
 Alpha  occ. eigenvalues --   -0.41678  -0.39888  -0.39108  -0.37243  -0.36299
 Alpha  occ. eigenvalues --   -0.35609  -0.35238  -0.34317  -0.31219  -0.26682
 Alpha  occ. eigenvalues --   -0.21752  -0.21306
 Alpha virt. eigenvalues --    0.07884   0.08835   0.11495   0.11955   0.13026
 Alpha virt. eigenvalues --    0.13481   0.14243   0.15016   0.15735   0.16490
 Alpha virt. eigenvalues --    0.16907   0.18039   0.18228   0.18796   0.19651
 Alpha virt. eigenvalues --    0.21689   0.21859   0.23418   0.24550   0.25652
 Alpha virt. eigenvalues --    0.26490   0.27407   0.27982   0.29162   0.49933
 Alpha virt. eigenvalues --    0.51399   0.52575   0.53028   0.53460   0.55331
 Alpha virt. eigenvalues --    0.56446   0.56861   0.57277   0.60945   0.61466
 Alpha virt. eigenvalues --    0.63848   0.65516   0.66018   0.69701   0.71981
 Alpha virt. eigenvalues --    0.72928   0.75301   0.76421   0.79597   0.80353
 Alpha virt. eigenvalues --    0.82124   0.82740   0.83006   0.84156   0.84793
 Alpha virt. eigenvalues --    0.87467   0.88462   0.88865   0.89336   0.91096
 Alpha virt. eigenvalues --    0.91639   0.92501   0.93847   0.94280   0.94740
 Alpha virt. eigenvalues --    0.97037   0.97453   0.98801   0.99992   1.04576
 Alpha virt. eigenvalues --    1.10415   1.15258   1.17175   1.24334   1.25451
 Alpha virt. eigenvalues --    1.29157   1.31266   1.31879   1.34965   1.37013
 Alpha virt. eigenvalues --    1.42361   1.44947   1.51713   1.52073   1.55206
 Alpha virt. eigenvalues --    1.58252   1.59160   1.63157   1.68781   1.73646
 Alpha virt. eigenvalues --    1.76382   1.77760   1.78655   1.83788   1.85539
 Alpha virt. eigenvalues --    1.85979   1.88345   1.92029   1.93787   1.94472
 Alpha virt. eigenvalues --    1.96519   1.97420   1.98773   1.99692   2.01739
 Alpha virt. eigenvalues --    2.02777   2.05264   2.06028   2.06144   2.07912
 Alpha virt. eigenvalues --    2.08472   2.10337   2.10758   2.12460   2.13577
 Alpha virt. eigenvalues --    2.14309   2.16295   2.19004   2.21299   2.25598
 Alpha virt. eigenvalues --    2.27137   2.29494   2.32710   2.32843   2.36300
 Alpha virt. eigenvalues --    2.37554   2.38652   2.41299   2.43867   2.45943
 Alpha virt. eigenvalues --    2.48588   2.50828   2.53935   2.57898   2.60357
 Alpha virt. eigenvalues --    2.62996   2.64417   2.66198   2.68271   2.68540
 Alpha virt. eigenvalues --    2.70692   2.71412   2.74032   2.75449   2.76598
 Alpha virt. eigenvalues --    2.80487   2.81597   2.85890   2.86502   2.90573
 Alpha virt. eigenvalues --    2.91237   2.93390   2.93516   2.94196   2.94650
 Alpha virt. eigenvalues --    2.97084   2.99849   3.04693   3.19379   3.19759
 Alpha virt. eigenvalues --    3.25590   3.28963   3.30036   3.31014   3.35726
 Alpha virt. eigenvalues --    3.38225   3.42961   3.43559   3.45742   3.47591
 Alpha virt. eigenvalues --    3.50717   3.51860   3.56070   3.57348   3.94729
 Alpha virt. eigenvalues --    4.04273   4.11356   4.40164   4.41763   4.47200
 Alpha virt. eigenvalues --    4.48268   4.62093   4.67394
          Condensed to atoms (all electrons):
               1          2          3          4          5          6
     1  C    4.811887   0.311900  -0.061340  -0.002146  -0.000415  -0.000025
     2  N    0.311900   6.804230   0.333907  -0.057310  -0.006632   0.000054
     3  C   -0.061340   0.333907   4.850686   0.352340  -0.043393   0.003707
     4  C   -0.002146  -0.057310   0.352340   4.825927   0.235515  -0.032433
     5  O   -0.000415  -0.006632  -0.043393   0.235515   8.267818   0.222830
     6  C   -0.000025   0.000054   0.003707  -0.032433   0.222830   4.829620
     7  C    0.000000  -0.000000  -0.000009  -0.006647  -0.037158   0.335705
     8  N    0.000000   0.000000   0.000001   0.000161   0.002491  -0.052385
     9  C   -0.000000  -0.000000  -0.000000  -0.000013   0.000000  -0.003431
    10  H    0.389091  -0.036489   0.005431  -0.000163  -0.000012  -0.000002
    11  H    0.376715  -0.053523  -0.004078   0.005572   0.001076   0.000130
    12  H    0.391566  -0.037884  -0.005801  -0.001358   0.000011   0.000001
    13  H   -0.039688   0.343884  -0.047449  -0.012876   0.018899  -0.000311
    14  H    0.006246  -0.046392   0.382232  -0.047774   0.000681  -0.000106
    15  H   -0.007209  -0.033961   0.378534  -0.038548   0.002501  -0.000151
    16  H    0.002803  -0.006099  -0.033513   0.365477  -0.041539  -0.010474
    17  H   -0.000025   0.004982  -0.030702   0.358804  -0.044079  -0.001376
    18  H   -0.000011  -0.000060   0.000264  -0.011605  -0.032225   0.368057
    19  H    0.000004   0.000029  -0.000228   0.005616  -0.032257   0.384231
    20  H   -0.000000   0.000001  -0.000051  -0.000241   0.005707  -0.050144
    21  H    0.000000   0.000000  -0.000053   0.001798   0.000764  -0.046058
    22  H    0.000000  -0.000000   0.000000   0.000009   0.000042  -0.005200
    23  H    0.000000   0.000000   0.000000   0.000000   0.000000   0.000004
    24  H   -0.000000  -0.000000  -0.000000  -0.000001  -0.000115   0.004594
    25  H    0.000000  -0.000000   0.000000  -0.000004   0.000008  -0.001446
               7          8          9         10         11         12
     1  C    0.000000   0.000000  -0.000000   0.389091   0.376715   0.391566
     2  N   -0.000000   0.000000  -0.000000  -0.036489  -0.053523  -0.037884
     3  C   -0.000009   0.000001  -0.000000   0.005431  -0.004078  -0.005801
     4  C   -0.006647   0.000161  -0.000013  -0.000163   0.005572  -0.001358
     5  O   -0.037158   0.002491   0.000000  -0.000012   0.001076   0.000011
     6  C    0.335705  -0.052385  -0.003431  -0.000002   0.000130   0.000001
     7  C    4.915148   0.306967  -0.059398  -0.000000   0.000004  -0.000000
     8  N    0.306967   6.799197   0.312555   0.000000  -0.000000   0.000000
     9  C   -0.059398   0.312555   4.809430  -0.000000   0.000000   0.000000
    10  H   -0.000000   0.000000  -0.000000   0.607837  -0.040992  -0.028546
    11  H    0.000004  -0.000000   0.000000  -0.040992   0.671478  -0.043098
    12  H   -0.000000   0.000000   0.000000  -0.028546  -0.043098   0.599082
    13  H    0.000032  -0.000000   0.000000  -0.002642  -0.005471   0.005710
    14  H   -0.000046   0.000000  -0.000000  -0.000247  -0.000373   0.000224
    15  H    0.000004  -0.000000   0.000000   0.000137  -0.000923   0.006424
    16  H   -0.001433   0.000047  -0.000010  -0.000129   0.000156   0.000237
    17  H    0.003271  -0.000249   0.000019   0.000003  -0.000234   0.000008
    18  H   -0.048951   0.002441   0.002307   0.000001  -0.000009  -0.000001
    19  H   -0.047034   0.001368  -0.000493   0.000000  -0.000015   0.000000
    20  H    0.376613  -0.034611   0.005982   0.000000  -0.000000  -0.000000
    21  H    0.384536  -0.033232  -0.007389   0.000000  -0.000001   0.000000
    22  H   -0.044995   0.348832  -0.040535  -0.000000   0.000000   0.000000
    23  H    0.004613  -0.036552   0.388297   0.000000  -0.000000  -0.000000
    24  H   -0.001756  -0.055002   0.380983  -0.000000   0.000000  -0.000000
    25  H   -0.006147  -0.037587   0.390779  -0.000000   0.000000  -0.000000
              13         14         15         16         17         18
     1  C   -0.039688   0.006246  -0.007209   0.002803  -0.000025  -0.000011
     2  N    0.343884  -0.046392  -0.033961  -0.006099   0.004982  -0.000060
     3  C   -0.047449   0.382232   0.378534  -0.033513  -0.030702   0.000264
     4  C   -0.012876  -0.047774  -0.038548   0.365477   0.358804  -0.011605
     5  O    0.018899   0.000681   0.002501  -0.041539  -0.044079  -0.032225
     6  C   -0.000311  -0.000106  -0.000151  -0.010474  -0.001376   0.368057
     7  C    0.000032  -0.000046   0.000004  -0.001433   0.003271  -0.048951
     8  N   -0.000000   0.000000  -0.000000   0.000047  -0.000249   0.002441
     9  C    0.000000  -0.000000   0.000000  -0.000010   0.000019   0.002307
    10  H   -0.002642  -0.000247   0.000137  -0.000129   0.000003   0.000001
    11  H   -0.005471  -0.000373  -0.000923   0.000156  -0.000234  -0.000009
    12  H    0.005710   0.000224   0.006424   0.000237   0.000008  -0.000001
    13  H    0.481421  -0.001412   0.006371   0.000030   0.000740   0.000056
    14  H   -0.001412   0.633793  -0.030929   0.006289  -0.005233   0.000040
    15  H    0.006371  -0.030929   0.604595  -0.001434   0.001482   0.000012
    16  H    0.000030   0.006289  -0.001434   0.663188  -0.054568   0.014663
    17  H    0.000740  -0.005233   0.001482  -0.054568   0.673359  -0.001763
    18  H    0.000056   0.000040   0.000012   0.014663  -0.001763   0.649964
    19  H   -0.000073   0.000010   0.000003   0.000188  -0.000265  -0.040831
    20  H    0.000003   0.000042   0.000001   0.000225   0.000046   0.006405
    21  H   -0.000002   0.000016   0.000003   0.000350   0.000248  -0.006365
    22  H   -0.000000   0.000000   0.000000   0.000002  -0.000007  -0.000248
    23  H   -0.000000   0.000000  -0.000000   0.000000  -0.000000  -0.000027
    24  H    0.000000  -0.000000   0.000000  -0.000013   0.000006  -0.000390
    25  H   -0.000000   0.000000  -0.000000   0.000011  -0.000017   0.000512
              19         20         21         22         23         24
     1  C    0.000004  -0.000000   0.000000   0.000000   0.000000  -0.000000
     2  N    0.000029   0.000001   0.000000  -0.000000   0.000000  -0.000000
     3  C   -0.000228  -0.000051  -0.000053   0.000000   0.000000  -0.000000
     4  C    0.005616  -0.000241   0.001798   0.000009   0.000000  -0.000001
     5  O   -0.032257   0.005707   0.000764   0.000042   0.000000  -0.000115
     6  C    0.384231  -0.050144  -0.046058  -0.005200   0.000004   0.004594
     7  C   -0.047034   0.376613   0.384536  -0.044995   0.004613  -0.001756
     8  N    0.001368  -0.034611  -0.033232   0.348832  -0.036552  -0.055002
     9  C   -0.000493   0.005982  -0.007389  -0.040535   0.388297   0.380983
    10  H    0.000000   0.000000   0.000000  -0.000000   0.000000  -0.000000
    11  H   -0.000015  -0.000000  -0.000001   0.000000  -0.000000   0.000000
    12  H    0.000000  -0.000000   0.000000   0.000000  -0.000000  -0.000000
    13  H   -0.000073   0.000003  -0.000002  -0.000000  -0.000000   0.000000
    14  H    0.000010   0.000042   0.000016   0.000000   0.000000  -0.000000
    15  H    0.000003   0.000001   0.000003   0.000000  -0.000000   0.000000
    16  H    0.000188   0.000225   0.000350   0.000002   0.000000  -0.000013
    17  H   -0.000265   0.000046   0.000248  -0.000007  -0.000000   0.000006
    18  H   -0.040831   0.006405  -0.006365  -0.000248  -0.000027  -0.000390
    19  H    0.620755  -0.005501   0.005596   0.006087  -0.000018  -0.000072
    20  H   -0.005501   0.632621  -0.036837  -0.003014  -0.000217  -0.000322
    21  H    0.005596  -0.036837   0.612904   0.006264   0.000126  -0.000955
    22  H    0.006087  -0.003014   0.006264   0.481847  -0.002454  -0.005607
    23  H   -0.000018  -0.000217   0.000126  -0.002454   0.606299  -0.040854
    24  H   -0.000072  -0.000322  -0.000955  -0.005607  -0.040854   0.665951
    25  H    0.000115   0.000208   0.007063   0.005871  -0.027529  -0.043256
              25
     1  C    0.000000
     2  N   -0.000000
     3  C    0.000000
     4  C   -0.000004
     5  O    0.000008
     6  C   -0.001446
     7  C   -0.006147
     8  N   -0.037587
     9  C    0.390779
    10  H   -0.000000
    11  H    0.000000
    12  H   -0.000000
    13  H   -0.000000
    14  H    0.000000
    15  H   -0.000000
    16  H    0.000011
    17  H   -0.000017
    18  H    0.000512
    19  H    0.000115
    20  H    0.000208
    21  H    0.007063
    22  H    0.005871
    23  H   -0.027529
    24  H   -0.043256
    25  H    0.594790
 Mulliken charges:
               1
     1  C   -0.179354
     2  N   -0.520637
     3  C   -0.080486
     4  C    0.059898
     5  O   -0.520519
     6  C    0.054608
     7  C   -0.073322
     8  N   -0.524443
     9  C   -0.179085
    10  H    0.106722
    11  H    0.093586
    12  H    0.113426
    13  H    0.252778
    14  H    0.102937
    15  H    0.113088
    16  H    0.095545
    17  H    0.095549
    18  H    0.097764
    19  H    0.102783
    20  H    0.103085
    21  H    0.111222
    22  H    0.253106
    23  H    0.108313
    24  H    0.096809
    25  H    0.116628
 Sum of Mulliken charges =  -0.00000
 Mulliken charges with hydrogens summed into heavy atoms:
               1
     1  C    0.134380
     2  N   -0.267859
     3  C    0.135538
     4  C    0.250992
     5  O   -0.520519
     6  C    0.255155
     7  C    0.140985
     8  N   -0.271337
     9  C    0.142665
 APT charges:
               1
     1  C   -1.146708
     2  N   -0.319483
     3  C   -0.820520
     4  C   -0.370268
     5  O   -0.452716
     6  C   -0.473020
     7  C   -0.547783
     8  N   -0.694400
     9  C   -1.154812
    10  H    0.657277
    11  H   -0.004352
    12  H    0.572688
    13  H    0.194874
    14  H    0.377746
    15  H    0.517089
    16  H    0.272655
    17  H    0.302847
    18  H    0.267991
    19  H    0.409880
    20  H    0.360756
    21  H    0.258877
    22  H    0.562752
    23  H    0.825270
    24  H    0.102424
    25  H    0.300934
 Sum of APT charges =  -0.00000
 APT charges with hydrogens summed into heavy atoms:
               1
     1  C    0.078905
     2  N   -0.124608
     3  C    0.074316
     4  C    0.205235
     5  O   -0.452716
     6  C    0.204851
     7  C    0.071850
     8  N   -0.131648
     9  C    0.073816
 Electronic spatial extent (au):  <R**2>=           2271.2573
 Charge=             -0.0000 electrons
 Dipole moment (field-independent basis, Debye):
    X=              1.3326    Y=              2.1439    Z=              0.9674  Tot=              2.7033
 Quadrupole moment (field-independent basis, Debye-Ang):
   XX=            -67.1269   YY=            -58.1527   ZZ=            -54.4310
   XY=              1.7073   XZ=             -5.5822   YZ=             -1.6106
 Traceless Quadrupole moment (field-independent basis, Debye-Ang):
   XX=             -7.2234   YY=              1.7509   ZZ=              5.4725
   XY=              1.7073   XZ=             -5.5822   YZ=             -1.6106
 Octapole moment (field-independent basis, Debye-Ang**2):
  XXX=             18.1960  YYY=             -2.1654  ZZZ=             -6.6876  XYY=             -4.0324
  XXY=             33.8252  XXZ=              0.9887  XZZ=              4.4387  YZZ=             -0.1917
  YYZ=             -1.0282  XYZ=              3.6539
 Hexadecapole moment (field-independent basis, Debye-Ang**3):
 XXXX=          -2752.6710 YYYY=           -281.4386 ZZZZ=           -178.8359 XXXY=             26.9637
 XXXZ=            -74.3514 YYYX=              2.8722 YYYZ=              0.3415 ZZZX=             -7.3283
 ZZZY=             -2.0846 XXYY=           -483.2211 XXZZ=           -418.9046 YYZZ=            -78.6110
 XXYZ=            -10.5813 YYXZ=             -0.4909 ZZXY=             -2.0931
 N-N= 4.805284025098D+02 E-N=-1.944449162635D+03  KE= 4.190049160838D+02
  Exact polarizability:   0.000   0.000   0.000   0.000   0.000   0.000
 Approx polarizability: 112.425   1.634 105.338  -2.864  -0.188 110.404
 D2PCM: PCM CHGder 2nd derivatives, FixD1E=F FixD2E=F DoIter=F DoCFld=F I1PDM=0
 Calling FoFJK, ICntrl=    100147 FMM=F ISym2X=0 I1Cent= 0 IOpClX= 0 NMat=1 NMatS=1 NMatT=0.
 ***** Axes restored to original set *****
 -------------------------------------------------------------------
 Center     Atomic                   Forces (Hartrees/Bohr)
 Number     Number              X              Y              Z
 -------------------------------------------------------------------
      1        6           0.000355319   -0.008755109    0.001161995
      2        7          -0.002696662    0.008227661    0.002161742
      3        6           0.006890653   -0.009940680    0.012161438
      4        6          -0.002172213    0.003297618    0.003453344
      5        8          -0.003662136    0.001220983   -0.002587870
      6        6          -0.003200929    0.001114987    0.004178802
      7        6           0.002349692   -0.001946379    0.007496589
      8        7          -0.004004238    0.011161543    0.001869431
      9        6           0.006276760   -0.007934913   -0.000028901
     10        1          -0.000380265   -0.000750061   -0.000594099
     11        1           0.000416966   -0.001128787   -0.008304564
     12        1           0.001205571    0.001651780    0.001234321
     13        1          -0.003312832    0.003534185   -0.002436901
     14        1           0.001557905    0.002368691    0.000204477
     15        1           0.000363326   -0.002582612   -0.001896830
     16        1           0.001504352   -0.000463256   -0.003101343
     17        1           0.000257202    0.003120676   -0.003204478
     18        1           0.000239934    0.000675504   -0.002483939
     19        1          -0.000505139   -0.000125454    0.001243877
     20        1          -0.001914607   -0.002575144    0.001104371
     21        1           0.003539317   -0.001201610   -0.003052823
     22        1          -0.001196920    0.001870026   -0.001454150
     23        1           0.000663512   -0.000142652   -0.000688479
     24        1          -0.000669899   -0.001141794   -0.008446460
     25        1          -0.001904668    0.000444796    0.002010453
 -------------------------------------------------------------------
 Cartesian Forces:  Max     0.012161438 RMS     0.003884150
 FormGI is forming the generalized inverse of G from B-inverse, IUseBI=4.

 GradGradGradGradGradGradGradGradGradGradGradGradGradGradGradGradGradGrad
 Berny optimization.
 Internal  Forces:  Max     0.010878845 RMS     0.003205435
 Search for a local minimum.
 Step number   1 out of a maximum of  125
 All quantities printed in internal units (Hartrees-Bohrs-Radians)
 Mixed Optimization -- RFO/linear search
 Second derivative matrix not updated -- analytic derivatives used.
 ITU=  0
     Eigenvalues ---    0.00058   0.00161   0.00205   0.00243   0.00332
     Eigenvalues ---    0.00391   0.00412   0.00677   0.02156   0.02517
     Eigenvalues ---    0.04262   0.04310   0.04578   0.04629   0.04807
     Eigenvalues ---    0.05037   0.06120   0.06245   0.06296   0.06352
     Eigenvalues ---    0.06450   0.06453   0.08314   0.08438   0.09874
     Eigenvalues ---    0.10124   0.10155   0.10303   0.11857   0.12053
     Eigenvalues ---    0.13090   0.13199   0.13212   0.14738   0.16445
     Eigenvalues ---    0.16743   0.17874   0.17936   0.18379   0.21130
     Eigenvalues ---    0.23191   0.24251   0.24558   0.25162   0.25241
     Eigenvalues ---    0.26162   0.28033   0.30918   0.32268   0.32578
     Eigenvalues ---    0.32862   0.32931   0.32978   0.33058   0.33365
     Eigenvalues ---    0.33595   0.33610   0.33615   0.33813   0.34018
     Eigenvalues ---    0.34201   0.35436   0.36076   0.36318   0.39106
     Eigenvalues ---    0.39141   0.41159   0.42417   0.43467
 RFO step:  Lambda=-5.77491076D-03 EMin= 5.81603837D-04
 Linear search not attempted -- first point.
 Iteration  1 RMS(Cart)=  0.04408191 RMS(Int)=  0.00086609
 Iteration  2 RMS(Cart)=  0.00205216 RMS(Int)=  0.00020531
 Iteration  3 RMS(Cart)=  0.00000262 RMS(Int)=  0.00020530
 Iteration  4 RMS(Cart)=  0.00000000 RMS(Int)=  0.00020530
 Variable       Old X    -DE/DX   Delta X   Delta X   Delta X     New X
                                 (Linear)    (Quad)   (Total)
    R1        2.74978   0.00852   0.00000   0.01575   0.01575   2.76554
    R2        2.06838   0.00075   0.00000   0.00012   0.00012   2.06851
    R3        2.06741   0.00526   0.00000   0.01533   0.01533   2.08274
    R4        2.06870  -0.00016   0.00000   0.00181   0.00181   2.07051
    R5        2.77915  -0.00041   0.00000  -0.01203  -0.01203   2.76712
    R6        1.93545  -0.00542   0.00000  -0.01140  -0.01140   1.92405
    R7        2.90562  -0.00383   0.00000  -0.01393  -0.01393   2.89170
    R8        2.07211   0.00115   0.00000   0.00160   0.00160   2.07370
    R9        2.07102  -0.00089   0.00000   0.00109   0.00109   2.07212
   R10        2.70574  -0.00327   0.00000  -0.01263  -0.01263   2.69311
   R11        2.07001   0.00309   0.00000   0.01051   0.01051   2.08051
   R12        2.06862   0.00263   0.00000   0.00970   0.00970   2.07832
   R13        2.70151  -0.00091   0.00000  -0.00879  -0.00879   2.69272
   R14        2.90720   0.00079   0.00000   0.00231   0.00231   2.90950
   R15        2.07080   0.00232   0.00000   0.00767   0.00767   2.07847
   R16        2.07072   0.00054   0.00000   0.00175   0.00175   2.07247
   R17        2.77128  -0.00098   0.00000  -0.00691  -0.00691   2.76437
   R18        2.07291   0.00068   0.00000   0.00050   0.00050   2.07341
   R19        2.07141  -0.00019   0.00000   0.00116   0.00116   2.07257
   R20        2.74954   0.00893   0.00000   0.01622   0.01622   2.76576
   R21        1.92755  -0.00254   0.00000  -0.00385  -0.00385   1.92370
   R22        2.06839   0.00073   0.00000   0.00012   0.00012   2.06851
   R23        2.06747   0.00471   0.00000   0.01388   0.01388   2.08135
   R24        2.06876  -0.00031   0.00000   0.00172   0.00172   2.07047
    A1        1.90666   0.00054   0.00000   0.00004  -0.00037   1.90629
    A2        1.95701   0.00973   0.00000   0.05176   0.05168   2.00869
    A3        1.94142  -0.00565   0.00000  -0.03313  -0.03296   1.90846
    A4        1.87671  -0.00264   0.00000   0.00100   0.00042   1.87714
    A5        1.87431   0.00099   0.00000   0.00613   0.00598   1.88029
    A6        1.90478  -0.00320   0.00000  -0.02639  -0.02596   1.87881
    A7        1.96400   0.00733   0.00000   0.02635   0.02627   1.99028
    A8        1.90126  -0.00223   0.00000  -0.00502  -0.00518   1.89608
    A9        1.86587  -0.00215   0.00000   0.00274   0.00268   1.86855
   A10        1.99097   0.00607   0.00000   0.02709   0.02670   2.01767
   A11        1.85720   0.00121   0.00000   0.02868   0.02827   1.88546
   A12        1.93432  -0.00378   0.00000  -0.03327  -0.03306   1.90126
   A13        1.88459  -0.00211   0.00000   0.00073  -0.00011   1.88448
   A14        1.92732  -0.00285   0.00000  -0.02758  -0.02756   1.89977
   A15        1.86293   0.00140   0.00000   0.00666   0.00689   1.86983
   A16        1.90515  -0.00936   0.00000  -0.03246  -0.03237   1.87279
   A17        1.93032   0.00313   0.00000   0.01147   0.01141   1.94173
   A18        1.89874   0.00210   0.00000   0.01182   0.01197   1.91071
   A19        1.91743   0.00200   0.00000   0.00134   0.00133   1.91876
   A20        1.91550   0.00465   0.00000   0.02863   0.02876   1.94427
   A21        1.89657  -0.00241   0.00000  -0.02016  -0.02021   1.87636
   A22        1.97700   0.00552   0.00000   0.02546   0.02546   2.00246
   A23        1.95839   0.00423   0.00000   0.01041   0.01043   1.96881
   A24        1.91799  -0.00116   0.00000   0.00094   0.00097   1.91896
   A25        1.85425  -0.00174   0.00000  -0.00434  -0.00433   1.84992
   A26        1.95306  -0.00157   0.00000  -0.01241  -0.01241   1.94064
   A27        1.90448  -0.00108   0.00000  -0.00234  -0.00234   1.90214
   A28        1.87088   0.00118   0.00000   0.00809   0.00807   1.87895
   A29        2.00866   0.00394   0.00000   0.00990   0.00982   2.01848
   A30        1.89013  -0.00355   0.00000  -0.01246  -0.01252   1.87760
   A31        1.92736   0.00060   0.00000  -0.00506  -0.00518   1.92218
   A32        1.88228   0.00127   0.00000   0.01312   0.01320   1.89548
   A33        1.91420  -0.00464   0.00000  -0.03236  -0.03236   1.88184
   A34        1.83213   0.00232   0.00000   0.02990   0.03005   1.86218
   A35        1.97006   0.00958   0.00000   0.03396   0.03396   2.00402
   A36        1.91485  -0.00349   0.00000  -0.00983  -0.00984   1.90501
   A37        1.91534  -0.00284   0.00000  -0.00816  -0.00816   1.90718
   A38        1.90713   0.00038   0.00000  -0.00126  -0.00177   1.90536
   A39        1.95417   0.01088   0.00000   0.05791   0.05783   2.01200
   A40        1.94285  -0.00646   0.00000  -0.03772  -0.03753   1.90532
   A41        1.87721  -0.00290   0.00000   0.00137   0.00069   1.87790
   A42        1.87416   0.00118   0.00000   0.00586   0.00561   1.87977
   A43        1.90545  -0.00333   0.00000  -0.02679  -0.02626   1.87918
    D1       -3.09011   0.00151   0.00000  -0.01178  -0.01163  -3.10174
    D2        1.12715   0.00115   0.00000  -0.02807  -0.02791   1.09924
    D3        1.11442  -0.00163   0.00000  -0.04545  -0.04584   1.06858
    D4       -0.95150  -0.00199   0.00000  -0.06174  -0.06212  -1.01362
    D5       -1.02404  -0.00036   0.00000  -0.02429  -0.02408  -1.04812
    D6       -3.08996  -0.00072   0.00000  -0.04059  -0.04035  -3.13032
    D7       -1.27062   0.00149   0.00000   0.04365   0.04389  -1.22673
    D8        2.93654  -0.00026   0.00000   0.00762   0.00717   2.94371
    D9        0.91764  -0.00068   0.00000   0.00051   0.00058   0.91822
   D10        0.81598   0.00163   0.00000   0.05466   0.05500   0.87098
   D11       -1.26004  -0.00011   0.00000   0.01863   0.01828  -1.24176
   D12        3.00425  -0.00053   0.00000   0.01153   0.01169   3.01594
   D13       -0.94297  -0.00139   0.00000  -0.05092  -0.05098  -0.99396
   D14        1.16859  -0.00298   0.00000  -0.06303  -0.06309   1.10550
   D15       -3.03283  -0.00274   0.00000  -0.07349  -0.07351  -3.10634
   D16        1.11744   0.00238   0.00000   0.00188   0.00188   1.11932
   D17       -3.05419   0.00078   0.00000  -0.01022  -0.01023  -3.06442
   D18       -0.97242   0.00102   0.00000  -0.02069  -0.02064  -0.99306
   D19       -3.13494   0.00129   0.00000  -0.00479  -0.00477  -3.13970
   D20       -1.02337  -0.00031   0.00000  -0.01690  -0.01688  -1.04025
   D21        1.05840  -0.00007   0.00000  -0.02736  -0.02730   1.03110
   D22        3.06915  -0.00066   0.00000  -0.04263  -0.04247   3.02668
   D23        0.94974   0.00017   0.00000  -0.03701  -0.03705   0.91269
   D24       -1.13457  -0.00098   0.00000  -0.03074  -0.03086  -1.16542
   D25        1.33690   0.00083   0.00000   0.03135   0.03136   1.36826
   D26       -0.84797   0.00065   0.00000   0.03923   0.03921  -0.80875
   D27       -2.86639   0.00079   0.00000   0.03161   0.03161  -2.83478
   D28        2.93798   0.00130   0.00000   0.04084   0.04083   2.97882
   D29        0.83058  -0.00031   0.00000   0.02662   0.02665   0.85724
   D30       -1.16656  -0.00141   0.00000   0.00063   0.00063  -1.16593
   D31       -1.17973   0.00180   0.00000   0.04051   0.04048  -1.13925
   D32        2.99606   0.00018   0.00000   0.02629   0.02630   3.02236
   D33        0.99891  -0.00092   0.00000   0.00030   0.00028   0.99919
   D34        0.88780   0.00159   0.00000   0.04143   0.04142   0.92922
   D35       -1.21960  -0.00002   0.00000   0.02721   0.02724  -1.19236
   D36        3.06644  -0.00112   0.00000   0.00121   0.00122   3.06766
   D37        1.18597   0.00051   0.00000  -0.01002  -0.01002   1.17595
   D38       -0.95597   0.00006   0.00000  -0.01597  -0.01596  -0.97193
   D39       -2.98553  -0.00053   0.00000  -0.00983  -0.00974  -2.99527
   D40        1.15571  -0.00098   0.00000  -0.01578  -0.01567   1.14003
   D41       -0.99952   0.00051   0.00000   0.01589   0.01578  -0.98375
   D42       -3.14147   0.00006   0.00000   0.00994   0.00984  -3.13163
   D43        3.05564  -0.00171   0.00000   0.00363   0.00346   3.05911
   D44       -1.14973   0.00172   0.00000   0.04064   0.04109  -1.10864
   D45        0.98859   0.00053   0.00000   0.02016   0.01985   1.00845
   D46       -1.08587  -0.00162   0.00000   0.00866   0.00851  -1.07736
   D47        0.99195   0.00181   0.00000   0.04567   0.04614   1.03808
   D48        3.13027   0.00062   0.00000   0.02519   0.02490  -3.12802
         Item               Value     Threshold  Converged?
 Maximum Force            0.010879     0.000450     NO 
 RMS     Force            0.003205     0.000300     NO 
 Maximum Displacement     0.164348     0.001800     NO 
 RMS     Displacement     0.043694     0.001200     NO 
 Predicted change in Energy=-3.096064D-03
 GradGradGradGradGradGradGradGradGradGradGradGradGradGradGradGradGradGrad

                          Input orientation:                          
 ---------------------------------------------------------------------
 Center     Atomic      Atomic             Coordinates (Angstroms)
 Number     Number       Type             X           Y           Z
 ---------------------------------------------------------------------
      1          6           0       -3.602049   -0.859906   -0.691660
      2          7           0       -3.217130   -0.337142    0.619930
      3          6           0       -2.435458    0.899754    0.562983
      4          6           0       -1.009113    0.756565    0.027628
      5          8           0       -0.343483   -0.201795    0.845852
      6          6           0        0.958192   -0.567950    0.396421
      7          6           0        2.027136    0.484594    0.742844
      8          7           0        3.412996    0.082317    0.503126
      9          6           0        3.765775   -0.096931   -0.905943
     10          1           0       -4.214105   -1.757280   -0.556482
     11          1           0       -2.761972   -1.127102   -1.353166
     12          1           0       -4.212547   -0.115192   -1.214328
     13          1           0       -2.641951   -1.032542    1.091359
     14          1           0       -2.376237    1.311161    1.578575
     15          1           0       -2.972585    1.632128   -0.051407
     16          1           0       -1.008207    0.420376   -1.020747
     17          1           0       -0.504668    1.733239    0.062316
     18          1           0        0.938130   -0.773586   -0.683880
     19          1           0        1.202049   -1.506246    0.909153
     20          1           0        1.913996    0.734580    1.805182
     21          1           0        1.843661    1.408196    0.180555
     22          1           0        3.602647   -0.780269    1.009346
     23          1           0        4.836040   -0.312881   -0.983844
     24          1           0        3.224806   -0.902191   -1.427472
     25          1           0        3.574075    0.836697   -1.446343
 ---------------------------------------------------------------------
                    Distance matrix (angstroms):
                    1          2          3          4          5
     1  C    0.000000
     2  N    1.463460   0.000000
     3  C    2.455905   1.464298   0.000000
     4  C    3.139056   2.534237   1.530219   0.000000
     5  O    3.662692   2.885690   2.381132   1.425135   0.000000
     6  C    4.697335   4.187665   3.701184   2.400132   1.424926
     7  C    5.962651   5.309679   4.485472   3.131183   2.470137
     8  N    7.178173   6.644409   5.905608   4.498417   3.782766
     9  C    7.410323   7.151710   6.450304   4.939591   4.468309
    10  H    1.094607   2.096352   3.387715   4.114921   4.400885
    11  H    1.102140   2.173549   2.808270   2.920155   3.397199
    12  H    1.095668   2.098719   2.710534   3.544631   4.384233
    13  H    2.032424   1.018163   2.013850   2.645485   2.456292
    14  H    3.371961   2.083988   1.097357   2.140571   2.637804
    15  H    2.648846   2.094880   1.096517   2.151297   3.328742
    16  H    2.911261   2.853945   2.185189   1.100960   2.076812
    17  H    4.109338   3.457581   2.161786   1.099800   2.093865
    18  H    4.541006   4.376824   3.966842   2.576695   2.075947
    19  H    5.104872   4.580349   4.374944   3.284301   2.023429
    20  H    6.261259   5.374185   4.526378   3.421220   2.625514
    21  H    5.963288   5.371300   4.326156   2.930244   2.796121
    22  H    7.403203   6.845244   6.283346   4.959229   3.991654
    23  H    8.460848   8.211347   7.532453   6.027652   5.494323
    24  H    6.866524   6.783043   6.264783   4.774396   4.288501
    25  H    7.412473   7.194988   6.336865   4.815041   4.656166
                    6          7          8          9         10
     6  C    0.000000
     7  C    1.539643   0.000000
     8  N    2.541712   1.462840   0.000000
     9  C    3.130581   2.465671   1.463577   0.000000
    10  H    5.392140   6.757761   7.917042   8.158270   0.000000
    11  H    4.148894   5.470501   6.560392   6.623650   1.772151
    12  H    5.434707   6.566880   7.819052   7.984301   1.768959
    13  H    3.695918   4.921742   6.184765   6.776691   2.390040
    14  H    4.005866   4.557561   6.015137   6.773468   4.165520
    15  H    4.526797   5.190846   6.594321   7.008949   3.644798
    16  H    2.617609   3.511080   4.688657   4.803300   3.903269
    17  H    2.747191   2.903836   4.274102   4.745917   5.130941
    18  H    1.099881   2.191915   2.875155   2.915948   5.246847
    19  H    1.096704   2.161451   2.752577   3.442882   5.616567
    20  H    2.143537   1.097203   2.089928   3.386841   7.024275
    21  H    2.176191   1.096756   2.079620   2.672154   6.874590
    22  H    2.722848   2.037924   1.017979   2.040071   8.031686
    23  H    4.124063   3.392250   2.095785   1.094609   9.174641
    24  H    2.928454   2.840398   2.175289   1.101401   7.538381
    25  H    3.494518   2.703615   2.096536   1.095647   8.256895
                   11         12         13         14         15
    11  H    0.000000
    12  H    1.774092   0.000000
    13  H    2.449295   2.936749   0.000000
    14  H    3.832626   3.634120   2.408512   0.000000
    15  H    3.058150   2.437831   2.918167   1.765076   0.000000
    16  H    2.362390   3.254551   3.039915   3.069443   2.503346
    17  H    3.909036   4.335307   3.643687   2.445397   2.472604
    18  H    3.776728   5.219610   4.004437   4.522157   4.634778
    19  H    4.579880   5.980138   3.877361   4.603264   5.310333
    20  H    5.941860   6.882883   4.938514   4.334732   5.303884
    21  H    5.476485   6.398755   5.187242   4.446506   4.827025
    22  H    6.797803   8.152565   6.250230   6.359651   7.083680
    23  H    7.650434   9.053680   7.793890   7.824350   8.101056
    24  H    5.991462   7.481912   6.385949   6.731043   6.835494
    25  H    6.634054   7.848019   6.969431   6.691895   6.740720
                   16         17         18         19         20
    16  H    0.000000
    17  H    1.774876   0.000000
    18  H    2.308084   2.987080   0.000000
    19  H    3.510216   3.758228   1.773189   0.000000
    20  H    4.077237   3.144016   3.069577   2.516155   0.000000
    21  H    3.248394   2.373664   2.515434   3.071888   1.760147
    22  H    5.179073   4.907609   3.157009   2.509971   2.404094
    23  H    5.890182   5.814139   3.936487   4.267722   4.173030
    24  H    4.453426   4.803534   2.407977   3.149007   3.853219
    25  H    4.620796   4.440268   3.181598   4.082187   3.652219
                   21         22         23         24         25
    21  H    0.000000
    22  H    2.927509   0.000000
    23  H    3.643112   2.390086   0.000000
    24  H    3.135475   2.468949   1.772052   0.000000
    25  H    2.442896   2.940374   1.768612   1.773718   0.000000
 Stoichiometry    C6H16N2O
 Framework group  C1[X(C6H16N2O)]
 Deg. of freedom    69
 Full point group                 C1      NOp   1
 Largest Abelian subgroup         C1      NOp   1
 Largest concise Abelian subgroup C1      NOp   1
                         Standard orientation:                         
 ---------------------------------------------------------------------
 Center     Atomic      Atomic             Coordinates (Angstroms)
 Number     Number       Type             X           Y           Z
 ---------------------------------------------------------------------
      1          6           0       -3.573998    1.199924    0.011380
      2          7           0       -3.194513   -0.136996   -0.447262
      3          6           0       -2.379449   -0.887041    0.510481
      4          6           0       -0.949747   -0.377120    0.704139
      5          8           0       -0.321891   -0.379631   -0.575235
      6          6           0        0.976007    0.207800   -0.603521
      7          6           0        2.067409   -0.729659   -0.055331
      8          7           0        3.445427   -0.278600   -0.249010
      9          6           0        3.813868    0.915524    0.512815
     10          1           0       -4.211631    1.672116   -0.742690
     11          1           0       -2.731751    1.882707    0.209215
     12          1           0       -4.156753    1.114883    0.935313
     13          1           0       -2.644999   -0.044855   -1.299435
     14          1           0       -2.324150   -1.927955    0.167506
     15          1           0       -2.887855   -0.893613    1.481990
     16          1           0       -0.942466    0.640653    1.123898
     17          1           0       -0.420047   -1.030891    1.412350
     18          1           0        0.966272    1.165580   -0.062873
     19          1           0        1.187284    0.423155   -1.657914
     20          1           0        1.945447   -1.703141   -0.546567
     21          1           0        1.916820   -0.897314    1.018023
     22          1           0        3.604633   -0.107456   -1.239789
     23          1           0        4.879030    1.120832    0.366365
     24          1           0        3.259339    1.830326    0.250673
     25          1           0        3.655004    0.724629    1.579944
 ---------------------------------------------------------------------
 Rotational constants (GHZ):           4.3678735           0.5271895           0.5109449
 Standard basis: 6-31G(d,p) (6D, 7F)
 There are   215 symmetry adapted cartesian basis functions of A   symmetry.
 There are   215 symmetry adapted basis functions of A   symmetry.
   215 basis functions,   364 primitive gaussians,   215 cartesian basis functions
    37 alpha electrons       37 beta electrons
       nuclear repulsion energy       479.3603779442 Hartrees.
 NAtoms=   25 NActive=   25 NUniq=   25 SFac= 1.00D+00 NAtFMM=   60 NAOKFM=F Big=F
 Integral buffers will be    131072 words long.
 Raffenetti 2 integral format.
 Two-electron integral symmetry is turned on.
 ------------------------------------------------------------------------------
 Polarizable Continuum Model (PCM)
 =================================
 Model                : PCM.
 Atomic radii         : UFF (Universal Force Field).
 Polarization charges : Total charges.
 Charge compensation  : None.
 Solution method      : Matrix inversion.
 Cavity type          : Scaled VdW (van der Waals Surface) (Alpha=1.100).
 Cavity algorithm     : GePol (No added spheres)
                        Default sphere list used, NSphG=   25.
                        Lebedev-Laikov grids with approx.  5.0 points / Ang**2.
                        Smoothing algorithm: York/Karplus (Gamma=1.0000).
                        Polarization charges: spherical gaussians, with
                                              point-specific exponents (IZeta= 3).
                        Self-potential: point-specific (ISelfS= 7).
                        Self-field    : sphere-specific E.n sum rule (ISelfD= 2).
 1st derivatives      : Analytical E(r).r(x)/FMM algorithm (CHGder, D1EAlg=3).
                        Cavity 1st derivative terms included.
 Solvent              : Water, Eps=  78.355300 Eps(inf)=   1.777849
 ------------------------------------------------------------------------------
 One-electron integrals computed using PRISM.
 NBasis=   215 RedAO= T EigKep=  3.59D-03  NBF=   215
 NBsUse=   215 1.00D-06 EigRej= -1.00D+00 NBFU=   215
 Initial guess from the checkpoint file:  "VXPJBVRYAHYMNY-UHFFFAOYSA-N_conf_2_0.chk"
 B after Tr=    -0.000000   -0.000000    0.000000
         Rot=    0.999891    0.014774   -0.000219    0.000234 Ang=   1.69 deg.
 ExpMin= 1.61D-01 ExpMax= 5.48D+03 ExpMxC= 8.25D+02 IAcc=2 IRadAn=         4 AccDes= 0.00D+00
 Harris functional with IExCor=  402 and IRadAn=       4 diagonalized for initial guess.
 HarFok:  IExCor=  402 AccDes= 0.00D+00 IRadAn=         4 IDoV= 1 UseB2=F ITyADJ=14
 ICtDFT=  3500011 ScaDFX=  1.000000  1.000000  1.000000  1.000000
 FoFCou: FMM=F IPFlag=           0 FMFlag=      100000 FMFlg1=           0
         NFxFlg=           0 DoJE=T BraDBF=F KetDBF=T FulRan=T
         wScrn=  0.000000 ICntrl=       500 IOpCl=  0 I1Cent=   200000004 NGrid=           0
         NMat0=    1 NMatS0=      1 NMatT0=    0 NMatD0=    1 NMtDS0=    0 NMtDT0=    0
 Petite list used in FoFCou.
 Keep R1 ints in memory in canonical form, NReq=274636103.
 Requested convergence on RMS density matrix=1.00D-08 within  32 cycles.
 Requested convergence on MAX density matrix=1.00D-06.
 Requested convergence on             energy=1.00D-06.
 No special actions if energy rises.
 Inv3:  Mode=1 IEnd=     9623043.
 Iteration    1 A*A^-1 deviation from unit magnitude is 7.55D-15 for   1536.
 Iteration    1 A*A^-1 deviation from orthogonality  is 4.39D-15 for   1442     20.
 Iteration    1 A^-1*A deviation from unit magnitude is 7.55D-15 for   1536.
 Iteration    1 A^-1*A deviation from orthogonality  is 3.83D-15 for   1705   1234.
 Error on total polarization charges =  0.00980
 SCF Done:  E(RB3LYP) =  -422.987953838     A.U. after    9 cycles
            NFock=  9  Conv=0.90D-08     -V/T= 2.0096
 QCSCF skips out because SCF is already converged.
 D1PCM: PCM CHGder 1st derivatives, ID1Alg=3 FixD1E=F DoIter=F DoCFld=F I1PDM=0.
 Calling FoFJK, ICntrl=      2127 FMM=F ISym2X=0 I1Cent= 0 IOpClX= 0 NMat=1 NMatS=1 NMatT=0.
 ***** Axes restored to original set *****
 -------------------------------------------------------------------
 Center     Atomic                   Forces (Hartrees/Bohr)
 Number     Number              X              Y              Z
 -------------------------------------------------------------------
      1        6           0.000272563   -0.000788397    0.000135464
      2        7          -0.000329193    0.000866667   -0.000705052
      3        6           0.000550309   -0.000531976    0.001058646
      4        6          -0.000367874    0.000156138   -0.000226255
      5        8           0.000423900    0.000524661    0.000297319
      6        6          -0.000185641   -0.000301654   -0.000193899
      7        6          -0.000041606    0.000092325    0.000743462
      8        7          -0.000442966    0.000663640   -0.000079853
      9        6           0.000345808   -0.000753660    0.000080715
     10        1           0.000038581   -0.000081521   -0.000081988
     11        1          -0.000066627    0.000235767   -0.000545086
     12        1          -0.000120872   -0.000032575    0.000056013
     13        1          -0.000440082   -0.000146114    0.000415739
     14        1           0.000033594    0.000044946   -0.000016314
     15        1          -0.000028022    0.000152370    0.000059588
     16        1           0.000193790   -0.000177051   -0.000080140
     17        1          -0.000235550    0.000155127   -0.000376436
     18        1           0.000157459    0.000006732   -0.000081543
     19        1          -0.000151293    0.000005843    0.000128491
     20        1           0.000092314   -0.000346469    0.000121712
     21        1           0.000088222   -0.000077471   -0.000173621
     22        1           0.000254686    0.000114380    0.000098156
     23        1           0.000028211   -0.000005028   -0.000101525
     24        1          -0.000137469    0.000177566   -0.000554336
     25        1           0.000067757    0.000045754    0.000020743
 -------------------------------------------------------------------
 Cartesian Forces:  Max     0.001058646 RMS     0.000335117

 GradGradGradGradGradGradGradGradGradGradGradGradGradGradGradGradGradGrad
 Berny optimization.
 Using GEDIIS/GDIIS optimizer.
 FormGI is forming the generalized inverse of G from B-inverse, IUseBI=4.
 Internal  Forces:  Max     0.000672763 RMS     0.000216614
 Search for a local minimum.
 Step number   2 out of a maximum of  125
 All quantities printed in internal units (Hartrees-Bohrs-Radians)
 Mixed Optimization -- En-DIIS/RFO-DIIS
 Update second derivatives using D2CorX and points    1    2
 DE= -3.13D-03 DEPred=-3.10D-03 R= 1.01D+00
 TightC=F SS=  1.41D+00  RLast= 2.69D-01 DXNew= 5.0454D-01 8.0639D-01
 Trust test= 1.01D+00 RLast= 2.69D-01 DXMaxT set to 5.05D-01
 ITU=  1  0
 Use linear search instead of GDIIS.
     Eigenvalues ---    0.00058   0.00161   0.00205   0.00243   0.00332
     Eigenvalues ---    0.00391   0.00412   0.00675   0.02156   0.02516
     Eigenvalues ---    0.04266   0.04314   0.04575   0.04618   0.04801
     Eigenvalues ---    0.05037   0.06118   0.06244   0.06298   0.06352
     Eigenvalues ---    0.06436   0.06448   0.08317   0.08437   0.09877
     Eigenvalues ---    0.10121   0.10152   0.10303   0.11854   0.12067
     Eigenvalues ---    0.13089   0.13186   0.13203   0.14746   0.16428
     Eigenvalues ---    0.16731   0.17739   0.17928   0.18389   0.21141
     Eigenvalues ---    0.23178   0.24275   0.24561   0.25151   0.25235
     Eigenvalues ---    0.26148   0.28080   0.30943   0.32267   0.32584
     Eigenvalues ---    0.32863   0.32933   0.32978   0.33063   0.33373
     Eigenvalues ---    0.33594   0.33603   0.33613   0.33807   0.34014
     Eigenvalues ---    0.34199   0.35440   0.36072   0.36306   0.38605
     Eigenvalues ---    0.39131   0.41150   0.42450   0.43470
 RFO step:  Lambda=-3.39931861D-04 EMin= 5.81595697D-04
 Quartic linear search produced a step of  0.09725.
 Iteration  1 RMS(Cart)=  0.06739538 RMS(Int)=  0.00157673
 Iteration  2 RMS(Cart)=  0.00281029 RMS(Int)=  0.00002356
 Iteration  3 RMS(Cart)=  0.00000520 RMS(Int)=  0.00002338
 Iteration  4 RMS(Cart)=  0.00000000 RMS(Int)=  0.00002338
 Variable       Old X    -DE/DX   Delta X   Delta X   Delta X     New X
                                 (Linear)    (Quad)   (Total)
    R1        2.76554   0.00060   0.00153  -0.00228  -0.00074   2.76480
    R2        2.06851   0.00004   0.00001  -0.00050  -0.00049   2.06802
    R3        2.08274   0.00022   0.00149  -0.00060   0.00089   2.08363
    R4        2.07051   0.00002   0.00018   0.00058   0.00076   2.07127
    R5        2.76712   0.00027  -0.00117   0.00029  -0.00088   2.76624
    R6        1.92405   0.00004  -0.00111   0.00099  -0.00012   1.92393
    R7        2.89170   0.00019  -0.00135  -0.00010  -0.00145   2.89024
    R8        2.07370   0.00000   0.00016  -0.00023  -0.00008   2.07363
    R9        2.07212   0.00008   0.00011   0.00062   0.00073   2.07284
[...]
    10  H    0.107899
    11  H    0.086787
    12  H    0.109135
    13  H    0.240092
    14  H    0.103897
    15  H    0.101974
    16  H    0.096532
    17  H    0.101679
    18  H    0.098357
    19  H    0.085908
    20  H    0.091606
    21  H    0.121289
    22  H   -0.056017
    23  H    0.064518
    24  H    0.089716
    25  H    0.110593
 Sum of Mulliken charges =  -0.00000
 Mulliken charges with hydrogens summed into heavy atoms:
               1
     1  C    0.125846
     2  N   -0.273076
     3  C    0.134859
     4  C    0.237335
     5  O   -0.456499
     6  C    0.213995
     7  C    0.097275
     8  N   -0.161927
     9  C    0.082191
 Electronic spatial extent (au):  <R**2>=           2288.8810
 Charge=              0.0000 electrons
 Dipole moment (field-independent basis, Debye):
    X=              1.5341    Y=              1.1461    Z=              2.5416  Tot=              3.1823
 Quadrupole moment (field-independent basis, Debye-Ang):
   XX=            -68.5875   YY=            -58.6639   ZZ=            -59.1833
   XY=             -2.5910   XZ=              2.1880   YZ=             -1.0723
 Traceless Quadrupole moment (field-independent basis, Debye-Ang):
   XX=             -6.4426   YY=              3.4810   ZZ=              2.9616
   XY=             -2.5910   XZ=              2.1880   YZ=             -1.0723
 Octapole moment (field-independent basis, Debye-Ang**2):
  XXX=             11.8754  YYY=             -3.2473  ZZZ=              2.4213  XYY=             -3.3347
  XXY=             16.1279  XXZ=             22.4753  XZZ=            -13.1043  YZZ=             -0.7342
  YYZ=              1.6343  XYZ=              4.6879
 Hexadecapole moment (field-independent basis, Debye-Ang**3):
 XXXX=          -2873.5693 YYYY=           -301.3549 ZZZZ=           -208.0913 XXXY=            -48.9388
 XXXZ=             40.0471 YYYX=              1.0415 YYYZ=              1.3939 ZZZX=             26.8873
 ZZZY=             -1.0467 XXYY=           -482.1950 XXZZ=           -481.4825 YYZZ=            -86.5437
 XXYZ=             -1.5131 YYXZ=              8.0931 ZZXY=             -2.1203
 N-N= 4.789659853230D+02 E-N=-1.939916954732D+03  KE= 4.191282618626D+02
 Evaluate density.
 Using the total density.
 Monte-Carlo method of calculating molar volume:
 based on  0.001 e/bohr**3 density envelope.
 Number of points per bohr**3 =   20 CutOff= 1.00D-04
 Using the CI density.
 There are       384 points.  Will hold       384 in memory.
 LenV=  1073611288 MDV=  1073741824.
 Box volume = 7103.062 fraction occupied=0.180
 Integrated density= 9.8118539898539723D+01 error= 2.4118539898539723D+01
 Molar volume = 1276.331 bohr**3/mol (113.898 cm**3/mol)
 Recommended a0 for SCRF calculation =  4.42 angstrom (  8.35 bohr)
 ******************************Gaussian NBO Version 3.1******************************
             N A T U R A L   A T O M I C   O R B I T A L   A N D
          N A T U R A L   B O N D   O R B I T A L   A N A L Y S I S
 ******************************Gaussian NBO Version 3.1******************************
       /RESON  / : Allow strongly delocalized NBO set

 Analyzing the CI density

 Job title: VXPJBVRYAHYMNY-UHFFFAOYSA-N_conf_2                              

 Storage needed:    140790 in NPA (1073738449 available)
 GSVD:  LWork=       24601 too small for GESVD, short by       17729 words or       17729 for optimal perf.


 NATURAL POPULATIONS:  Natural atomic orbital occupancies 
                                                          
   NAO  Atom  No  lang   Type(AO)    Occupancy
 --------------------------------------------
     1    C    1  S      Cor( 1S)     1.99950
     2    C    1  S      Val( 2S)     1.09084
     3    C    1  S      Ryd( 3S)     0.00114
     4    C    1  S      Ryd( 4S)     0.00003
     5    C    1  px     Val( 2p)     1.20867
     6    C    1  px     Ryd( 3p)     0.00142
     7    C    1  py     Val( 2p)     0.95401
     8    C    1  py     Ryd( 3p)     0.00250
     9    C    1  pz     Val( 2p)     1.22617
    10    C    1  pz     Ryd( 3p)     0.00220
    11    C    1  dxy    Ryd( 3d)     0.00135
    12    C    1  dxz    Ryd( 3d)     0.00088
    13    C    1  dyz    Ryd( 3d)     0.00067
    14    C    1  dx2y2  Ryd( 3d)     0.00095
    15    C    1  dz2    Ryd( 3d)     0.00067

    16    N    2  S      Cor( 1S)     1.99961
    17    N    2  S      Val( 2S)     1.35963
    18    N    2  S      Ryd( 3S)     0.00080
    19    N    2  S      Ryd( 4S)     0.00002
    20    N    2  px     Val( 2p)     1.65033
    21    N    2  px     Ryd( 3p)     0.00592
    22    N    2  py     Val( 2p)     1.35789
    23    N    2  py     Ryd( 3p)     0.00260
    24    N    2  pz     Val( 2p)     1.33044
    25    N    2  pz     Ryd( 3p)     0.00179
    26    N    2  dxy    Ryd( 3d)     0.00095
    27    N    2  dxz    Ryd( 3d)     0.00131
    28    N    2  dyz    Ryd( 3d)     0.00039
    29    N    2  dx2y2  Ryd( 3d)     0.00116
    30    N    2  dz2    Ryd( 3d)     0.00056

    31    C    3  S      Cor( 1S)     1.99934
    32    C    3  S      Val( 2S)     1.02331
    33    C    3  S      Ryd( 3S)     0.00139
    34    C    3  S      Ryd( 4S)     0.00004
    35    C    3  px     Val( 2p)     1.01134
    36    C    3  px     Ryd( 3p)     0.00448
    37    C    3  py     Val( 2p)     1.14622
    38    C    3  py     Ryd( 3p)     0.00339
    39    C    3  pz     Val( 2p)     1.09475
    40    C    3  pz     Ryd( 3p)     0.00446
    41    C    3  dxy    Ryd( 3d)     0.00060
    42    C    3  dxz    Ryd( 3d)     0.00121
    43    C    3  dyz    Ryd( 3d)     0.00067
    44    C    3  dx2y2  Ryd( 3d)     0.00136
    45    C    3  dz2    Ryd( 3d)     0.00100

    46    C    4  S      Cor( 1S)     1.99926
    47    C    4  S      Val( 2S)     1.03332
    48    C    4  S      Ryd( 3S)     0.00243
    49    C    4  S      Ryd( 4S)     0.00004
    50    C    4  px     Val( 2p)     1.02001
    51    C    4  px     Ryd( 3p)     0.00198
    52    C    4  py     Val( 2p)     1.21299
    53    C    4  py     Ryd( 3p)     0.00197
    54    C    4  pz     Val( 2p)     0.86162
    55    C    4  pz     Ryd( 3p)     0.00397
    56    C    4  dxy    Ryd( 3d)     0.00068
    57    C    4  dxz    Ryd( 3d)     0.00161
    58    C    4  dyz    Ryd( 3d)     0.00132
    59    C    4  dx2y2  Ryd( 3d)     0.00098
    60    C    4  dz2    Ryd( 3d)     0.00159

    61    O    5  S      Cor( 1S)     1.99980
    62    O    5  S      Val( 2S)     1.63909
    63    O    5  S      Ryd( 3S)     0.00414
    64    O    5  S      Ryd( 4S)     0.00009
    65    O    5  px     Val( 2p)     1.49223
    66    O    5  px     Ryd( 3p)     0.00184
    67    O    5  py     Val( 2p)     1.82088
    68    O    5  py     Ryd( 3p)     0.00273
    69    O    5  pz     Val( 2p)     1.59813
    70    O    5  pz     Ryd( 3p)     0.00152
    71    O    5  dxy    Ryd( 3d)     0.00065
    72    O    5  dxz    Ryd( 3d)     0.00106
    73    O    5  dyz    Ryd( 3d)     0.00104
    74    O    5  dx2y2  Ryd( 3d)     0.00080
    75    O    5  dz2    Ryd( 3d)     0.00120

    76    C    6  S      Cor( 1S)     1.99920
    77    C    6  S      Val( 2S)     1.04561
    78    C    6  S      Ryd( 3S)     0.00202
    79    C    6  S      Ryd( 4S)     0.00006
    80    C    6  px     Val( 2p)     0.81353
    81    C    6  px     Ryd( 3p)     0.01901
    82    C    6  py     Val( 2p)     1.06398
    83    C    6  py     Ryd( 3p)     0.00215
    84    C    6  pz     Val( 2p)     1.21557
    85    C    6  pz     Ryd( 3p)     0.00377
    86    C    6  dxy    Ryd( 3d)     0.00162
    87    C    6  dxz    Ryd( 3d)     0.00101
    88    C    6  dyz    Ryd( 3d)     0.00065
    89    C    6  dx2y2  Ryd( 3d)     0.00174
    90    C    6  dz2    Ryd( 3d)     0.00128

    91    C    7  S      Cor( 1S)     1.99935
    92    C    7  S      Val( 2S)     1.05128
    93    C    7  S      Ryd( 3S)     0.00168
    94    C    7  S      Ryd( 4S)     0.00004
    95    C    7  px     Val( 2p)     0.89281
    96    C    7  px     Ryd( 3p)     0.01234
    97    C    7  py     Val( 2p)     1.17414
    98    C    7  py     Ryd( 3p)     0.00459
    99    C    7  pz     Val( 2p)     1.24193
   100    C    7  pz     Ryd( 3p)     0.00376
   101    C    7  dxy    Ryd( 3d)     0.00082
   102    C    7  dxz    Ryd( 3d)     0.00057
   103    C    7  dyz    Ryd( 3d)     0.00060
   104    C    7  dx2y2  Ryd( 3d)     0.00128
   105    C    7  dz2    Ryd( 3d)     0.00121

   106    N    8  S      Cor( 1S)     1.99940
   107    N    8  S      Val( 2S)     1.42075
   108    N    8  S      Ryd( 3S)     0.00955
   109    N    8  S      Ryd( 4S)     0.00008
   110    N    8  px     Val( 2p)     1.21562
   111    N    8  px     Ryd( 3p)     0.00059
   112    N    8  py     Val( 2p)     1.22485
   113    N    8  py     Ryd( 3p)     0.00142
   114    N    8  pz     Val( 2p)     1.39825
   115    N    8  pz     Ryd( 3p)     0.00348
   116    N    8  dxy    Ryd( 3d)     0.00052
   117    N    8  dxz    Ryd( 3d)     0.00021
   118    N    8  dyz    Ryd( 3d)     0.00038
   119    N    8  dx2y2  Ryd( 3d)     0.00092
   120    N    8  dz2    Ryd( 3d)     0.00088

   121    C    9  S      Cor( 1S)     1.99945
   122    C    9  S      Val( 2S)     1.12536
   123    C    9  S      Ryd( 3S)     0.00162
   124    C    9  S      Ryd( 4S)     0.00002
   125    C    9  px     Val( 2p)     1.24150
   126    C    9  px     Ryd( 3p)     0.00379
   127    C    9  py     Val( 2p)     1.02065
   128    C    9  py     Ryd( 3p)     0.00973
   129    C    9  pz     Val( 2p)     1.17174
   130    C    9  pz     Ryd( 3p)     0.00565
   131    C    9  dxy    Ryd( 3d)     0.00068
   132    C    9  dxz    Ryd( 3d)     0.00035
   133    C    9  dyz    Ryd( 3d)     0.00102
   134    C    9  dx2y2  Ryd( 3d)     0.00094
   135    C    9  dz2    Ryd( 3d)     0.00093

   136    H   10  S      Val( 1S)     0.76811
   137    H   10  S      Ryd( 2S)     0.00119
   138    H   10  px     Ryd( 2p)     0.00018
   139    H   10  py     Ryd( 2p)     0.00010
   140    H   10  pz     Ryd( 2p)     0.00024

   141    H   11  S      Val( 1S)     0.80226
   142    H   11  S      Ryd( 2S)     0.00361
   143    H   11  px     Ryd( 2p)     0.00029
   144    H   11  py     Ryd( 2p)     0.00017
   145    H   11  pz     Ryd( 2p)     0.00009

   146    H   12  S      Val( 1S)     0.77787
   147    H   12  S      Ryd( 2S)     0.00182
   148    H   12  px     Ryd( 2p)     0.00019
   149    H   12  py     Ryd( 2p)     0.00005
   150    H   12  pz     Ryd( 2p)     0.00028

   151    H   13  S      Val( 1S)     0.60716
   152    H   13  S      Ryd( 2S)     0.00573
   153    H   13  px     Ryd( 2p)     0.00057
   154    H   13  py     Ryd( 2p)     0.00035
   155    H   13  pz     Ryd( 2p)     0.00051

   156    H   14  S      Val( 1S)     0.76195
   157    H   14  S      Ryd( 2S)     0.00236
   158    H   14  px     Ryd( 2p)     0.00009
   159    H   14  py     Ryd( 2p)     0.00037
   160    H   14  pz     Ryd( 2p)     0.00008

   161    H   15  S      Val( 1S)     0.76535
   162    H   15  S      Ryd( 2S)     0.00283
   163    H   15  px     Ryd( 2p)     0.00016
   164    H   15  py     Ryd( 2p)     0.00008
   165    H   15  pz     Ryd( 2p)     0.00032

   166    H   16  S      Val( 1S)     0.79133
   167    H   16  S      Ryd( 2S)     0.00303
   168    H   16  px     Ryd( 2p)     0.00010
   169    H   16  py     Ryd( 2p)     0.00040
   170    H   16  pz     Ryd( 2p)     0.00009

   171    H   17  S      Val( 1S)     0.77978
   172    H   17  S      Ryd( 2S)     0.00233
   173    H   17  px     Ryd( 2p)     0.00018
   174    H   17  py     Ryd( 2p)     0.00019
   175    H   17  pz     Ryd( 2p)     0.00023

   176    H   18  S      Val( 1S)     0.77744
   177    H   18  S      Ryd( 2S)     0.00933
   178    H   18  px     Ryd( 2p)     0.00012
   179    H   18  py     Ryd( 2p)     0.00036
   180    H   18  pz     Ryd( 2p)     0.00013

   181    H   19  S      Val( 1S)     0.76451
   182    H   19  S      Ryd( 2S)     0.01663
   183    H   19  px     Ryd( 2p)     0.00012
   184    H   19  py     Ryd( 2p)     0.00008
   185    H   19  pz     Ryd( 2p)     0.00039

   186    H   20  S      Val( 1S)     0.75423
   187    H   20  S      Ryd( 2S)     0.01948
   188    H   20  px     Ryd( 2p)     0.00007
   189    H   20  py     Ryd( 2p)     0.00035
   190    H   20  pz     Ryd( 2p)     0.00012

   191    H   21  S      Val( 1S)     0.74922
   192    H   21  S      Ryd( 2S)     0.01024
   193    H   21  px     Ryd( 2p)     0.00013
   194    H   21  py     Ryd( 2p)     0.00010
   195    H   21  pz     Ryd( 2p)     0.00036

   196    H   22  S      Val( 1S)     0.73690
   197    H   22  S      Ryd( 2S)     0.09904
   198    H   22  px     Ryd( 2p)     0.00019
   199    H   22  py     Ryd( 2p)     0.00022
   200    H   22  pz     Ryd( 2p)     0.00067

   201    H   23  S      Val( 1S)     0.77419
   202    H   23  S      Ryd( 2S)     0.02355
   203    H   23  px     Ryd( 2p)     0.00033
   204    H   23  py     Ryd( 2p)     0.00009
   205    H   23  pz     Ryd( 2p)     0.00007

   206    H   24  S      Val( 1S)     0.75380
   207    H   24  S      Ryd( 2S)     0.02881
   208    H   24  px     Ryd( 2p)     0.00016
   209    H   24  py     Ryd( 2p)     0.00027
   210    H   24  pz     Ryd( 2p)     0.00009

   211    H   25  S      Val( 1S)     0.75673
   212    H   25  S      Ryd( 2S)     0.01416
   213    H   25  px     Ryd( 2p)     0.00007
   214    H   25  py     Ryd( 2p)     0.00011
   215    H   25  pz     Ryd( 2p)     0.00034


 Summary of Natural Population Analysis:                  
                                                          
                                       Natural Population 
                Natural  -----------------------------------------------
    Atom  No    Charge         Core      Valence    Rydberg      Total
 -----------------------------------------------------------------------
      C    1   -0.49100      1.99950     4.47969    0.01180     6.49100
      N    2   -0.71339      1.99961     5.69829    0.01549     7.71339
      C    3   -0.29356      1.99934     4.27562    0.01860     6.29356
      C    4   -0.14376      1.99926     4.12794    0.01656     6.14376
      O    5   -0.56519      1.99980     6.55033    0.01507     8.56519
      C    6   -0.17118      1.99920     4.13868    0.03330     6.17118
      C    7   -0.38638      1.99935     4.36015    0.02688     6.38638
      N    8   -0.27690      1.99940     5.25947    0.01803     7.27690
      C    9   -0.58342      1.99945     4.55925    0.02472     6.58342
      H   10    0.23018      0.00000     0.76811    0.00171     0.76982
      H   11    0.19359      0.00000     0.80226    0.00415     0.80641
      H   12    0.21978      0.00000     0.77787    0.00235     0.78022
      H   13    0.38569      0.00000     0.60716    0.00715     0.61431
      H   14    0.23515      0.00000     0.76195    0.00290     0.76485
      H   15    0.23126      0.00000     0.76535    0.00339     0.76874
      H   16    0.20506      0.00000     0.79133    0.00361     0.79494
      H   17    0.21729      0.00000     0.77978    0.00293     0.78271
      H   18    0.21262      0.00000     0.77744    0.00994     0.78738
      H   19    0.21826      0.00000     0.76451    0.01723     0.78174
      H   20    0.22575      0.00000     0.75423    0.02002     0.77425
      H   21    0.23995      0.00000     0.74922    0.01082     0.76005
      H   22    0.16298      0.00000     0.73690    0.10012     0.83702
      H   23    0.20178      0.00000     0.77419    0.02404     0.79822
      H   24    0.21687      0.00000     0.75380    0.02934     0.78313
      H   25    0.22859      0.00000     0.75673    0.01468     0.77141
 =======================================================================
   * Total *   -0.00000     17.99491    55.57026    0.43483    74.00000

                                 Natural Population      
 --------------------------------------------------------
   Core                      17.99491 ( 99.9717% of  18)
   Valence                   55.57026 ( 99.2326% of  56)
   Natural Minimal Basis     73.56517 ( 99.4124% of  74)
   Natural Rydberg Basis      0.43483 (  0.5876% of  74)
 --------------------------------------------------------

    Atom  No          Natural Electron Configuration
 ----------------------------------------------------------------------------
      C    1      [core]2S( 1.09)2p( 3.39)3p( 0.01)
      N    2      [core]2S( 1.36)2p( 4.34)3p( 0.01)
      C    3      [core]2S( 1.02)2p( 3.25)3p( 0.01)
      C    4      [core]2S( 1.03)2p( 3.09)3p( 0.01)3d( 0.01)
      O    5      [core]2S( 1.64)2p( 4.91)3p( 0.01)
      C    6      [core]2S( 1.05)2p( 3.09)3p( 0.02)3d( 0.01)
      C    7      [core]2S( 1.05)2p( 3.31)3p( 0.02)
      N    8      [core]2S( 1.42)2p( 3.84)3S( 0.01)3p( 0.01)
      C    9      [core]2S( 1.13)2p( 3.43)3p( 0.02)
      H   10            1S( 0.77)
      H   11            1S( 0.80)
      H   12            1S( 0.78)
      H   13            1S( 0.61)2S( 0.01)
      H   14            1S( 0.76)
      H   15            1S( 0.77)
      H   16            1S( 0.79)
      H   17            1S( 0.78)
      H   18            1S( 0.78)2S( 0.01)
      H   19            1S( 0.76)2S( 0.02)
      H   20            1S( 0.75)2S( 0.02)
      H   21            1S( 0.75)2S( 0.01)
      H   22            1S( 0.74)2S( 0.10)
      H   23            1S( 0.77)2S( 0.02)
      H   24            1S( 0.75)2S( 0.03)
      H   25            1S( 0.76)2S( 0.01)


 NBO analysis skipped by request.
 1\1\GINC-CN33\SP\RB3LYP TD-FC\6-31G(d,p)\C6H16N2O1\QDUEZ\09-Jul-2024\0
 \\# TD(NStates=10, Root=1) B3LYP/6-31G** SCRF=(Solvent=water) volume p
 op=NPA density=current Geom=AllCheck Guess=Read\\VXPJBVRYAHYMNY-UHFFFA
 OYSA-N_conf_2\\0,1\C,0,-3.5752619493,-0.8680442303,-0.7238591228\N,0,-
 3.226841677,-0.3252989841,0.5896490501\C,0,-2.4370652224,0.9063673165,
 0.5433658065\C,0,-1.000576103,0.7589291573,0.0385265647\O,0,-0.3320723
 065,-0.1444860841,0.9155982091\C,0,0.9576012662,-0.56282946,0.47660380
 49\C,0,2.053980474,0.4721087911,0.78806493\N,0,3.4222482383,0.05901137
 9,0.4763047616\C,0,3.7174174502,-0.0823695014,-0.9504002446\H,0,-4.148
 0101317,-1.7910305008,-0.5907960994\H,0,-2.7204270887,-1.0983440647,-1
 .3810240796\H,0,-4.2144809264,-0.1526685741,-1.2539120644\H,0,-2.68068
 80151,-1.0182223223,1.0975655578\H,0,-2.3977137073,1.3249938582,1.5568
 809332\H,0,-2.9585756427,1.6375336315,-0.0864966095\H,0,-0.977610823,0
 .3677889684,-0.9902403933\H,0,-0.5125446865,1.7449157252,0.0263273618\
 H,0,0.9313894447,-0.8008482803,-0.5966811918\H,0,1.1763378997,-1.49115
 6717,1.0181178233\H,0,1.9953481804,0.7086612562,1.8577202538\H,0,1.852
 884693,1.4037787262,0.2450892987\H,0,3.6259310022,-0.8175474504,0.9519
 406948\H,0,4.7698426498,-0.3563567962,-1.0732126789\H,0,3.1131404647,-
 0.8296389462,-1.4892301696\H,0,3.5657465165,0.8833482872,-1.4459023962
 \\Version=EM64L-G16RevA.03\State=1-A\HF=-422.9881474\RMSD=5.740e-10\Di
 pole=0.5780598,0.553791,-0.9626277\Quadrupole=-4.8971719,3.2203352,1.6
 768367,2.2490786,0.6546679,0.4103035\PG=C01 [X(C6H16N2O1)]\\@


 FROM WHENCE IT HAPPENS, THAT THEY WHICH TRUST TO BOOKS, DO AS THEY THAT CAST UP MANY LITTLE SUMMS INTO GREATER,
 WITHOUT CONSIDERING WETHER THOSE LITTLE SUMMES WERE RIGHTLY CAST UP OR NOT...
 AND AT LAST FINDING THE ERROUR VISIBLE, AND NOT MISTRUSTING THEIR FIRST GROUNDS,
 KNOW NOT WHICH WAY TO CLEERE THEMSELVES...
 BUT SPEND TIME IN FLUTTERING OVER THEIR BOOKES....
 AS BIRDS THAT ENTERING BY THE CHIMNEY, AND FINDING THEMSELVES INCLOSED IN A CHAMBER,
 FLUTTER AT THE FALSE LIGHT OF A GLASSE WINDOW,
 FOR WANT OF WIT TO CONSIDER WHICH WAY THEY CAME IN....
           LEVIATHAN
 Job cpu time:       0 days  1 hours  0 minutes 11.3 seconds.
 Elapsed time:       0 days  0 hours 18 minutes 27.9 seconds.
 File lengths (MBytes):  RWF=    435 Int=      0 D2E=      0 Chk=     27 Scr=      1
 Normal termination of Gaussian 16 at Tue Jul  9 19:46:40 2024.
