 Entering Gaussian System, Link 0=g16
 Initial command:
 /opt/sw/arch/manual/gaussian/G16_A03/g16/l1.exe "/scratch/1030838.jesse.materianova.be/Gau-51984.inp" -scrdir="/scratch/1030838.jesse.materianova.be/"
 Entering Link 1 = /opt/sw/arch/manual/gaussian/G16_A03/g16/l1.exe PID=     51985.
  
 Copyright (c) 1988,1990,1992,1993,1995,1998,2003,2009,2016,
            Gaussian, Inc.  All Rights Reserved.
  
 This is part of the Gaussian(R) 16 program.  It is based on
 the Gaussian(R) 09 system (copyright 2009, Gaussian, Inc.),
 the Gaussian(R) 03 system (copyright 2003, Gaussian, Inc.),
 the Gaussian(R) 98 system (copyright 1998, Gaussian, Inc.),
 the Gaussian(R) 94 system (copyright 1995, Gaussian, Inc.),
 the Gaussian 92(TM) system (copyright 1992, Gaussian, Inc.),
 the Gaussian 90(TM) system (copyright 1990, Gaussian, Inc.),
 the Gaussian 88(TM) system (copyright 1988, Gaussian, Inc.),
 the Gaussian 86(TM) system (copyright 1986, Carnegie Mellon
 University), and the Gaussian 82(TM) system (copyright 1983,
 Carnegie Mellon University). Gaussian is a federally registered
 trademark of Gaussian, Inc.
  
 This software contains proprietary and confidential information,
 including trade secrets, belonging to Gaussian, Inc.
  
 This software is provided under written license and may be
 used, copied, transmitted, or stored only in accord with that
 written license.
  
 The following legend is applicable only to US Government
 contracts under FAR:
  
                    RESTRICTED RIGHTS LEGEND
  
 Use, reproduction and disclosure by the US Government is
 subject to restrictions as set forth in subparagraphs (a)
 and (c) of the Commercial Computer Software - Restricted
 Rights clause in FAR 52.227-19.
  
 Gaussian, Inc.
 340 Quinnipiac St., Bldg. 40, Wallingford CT 06492
  
  
 ---------------------------------------------------------------
 Warning -- This program may not be used in any manner that
 competes with the business of Gaussian, Inc. or will provide
 assistance to any competitor of Gaussian, Inc.  The licensee
 of this program is prohibited from giving any competitor of
 Gaussian, Inc. access to this program.  By using this program,
 the user acknowledges that Gaussian, Inc. is engaged in the
 business of creating and licensing software in the field of
 computational chemistry and represents and warrants to the
 licensee that it is not a competitor of Gaussian, Inc. and that
 it will not use this program in any manner prohibited above.
 ---------------------------------------------------------------
  

 Cite this work as:
 Gaussian 16, Revision A.03,
 M. J. Frisch, G. W. Trucks, H. B. Schlegel, G. E. Scuseria, 
 M. A. Robb, J. R. Cheeseman, G. Scalmani, V. Barone, 
 G. A. Petersson, H. Nakatsuji, X. Li, M. Caricato, A. V. Marenich, 
 J. Bloino, B. G. Janesko, R. Gomperts, B. Mennucci, H. P. Hratchian, 
 J. V. Ortiz, A. F. Izmaylov, J. L. Sonnenberg, D. Williams-Young, 
 F. Ding, F. Lipparini, F. Egidi, J. Goings, B. Peng, A. Petrone, 
 T. Henderson, D. Ranasinghe, V. G. Zakrzewski, J. Gao, N. Rega, 
 G. Zheng, W. Liang, M. Hada, M. Ehara, K. Toyota, R. Fukuda, 
 J. Hasegawa, M. Ishida, T. Nakajima, Y. Honda, O. Kitao, H. Nakai, 
 T. Vreven, K. Throssell, J. A. Montgomery, Jr., J. E. Peralta, 
 F. Ogliaro, M. J. Bearpark, J. J. Heyd, E. N. Brothers, K. N. Kudin, 
 V. N. Staroverov, T. A. Keith, R. Kobayashi, J. Normand, 
 K. Raghavachari, A. P. Rendell, J. C. Burant, S. S. Iyengar, 
 J. Tomasi, M. Cossi, J. M. Millam, M. Klene, C. Adamo, R. Cammi, 
 J. W. Ochterski, R. L. Martin, K. Morokuma, O. Farkas, 
 J. B. Foresman, and D. J. Fox, Gaussian, Inc., Wallingford CT, 2016.
 
 ******************************************
 Gaussian 16:  EM64L-G16RevA.03 25-Dec-2016
                 9-Jul-2024 
 ******************************************
 %nprocshared=4
 Will use up to    4 processors via shared memory.
 %mem=8GB
 %Chk=VXPJBVRYAHYMNY-UHFFFAOYSA-N_conf_3_0.chk
 -------------------------------------------------------
 # opt=CalcFc B3LYP/6-31G** SCRF=(Solvent=water) scf=xqc
 -------------------------------------------------------
 1/10=4,18=20,19=15,26=3,38=1/1,3;
 2/9=110,12=2,17=6,18=5,40=1/2;
 3/5=1,6=6,7=101,11=2,25=1,30=1,70=2201,71=2,72=1,74=-5,140=1/1,2,3;
 4//1;
 5/5=2,8=3,13=1,38=5,53=1/2,8;
 8/6=4,10=90,11=11/1;
 11/6=1,8=1,9=11,15=111,16=1/1,2,10;
 10/6=1,13=1/2;
 6/7=2,8=2,9=2,10=2,28=1/1;
 7/10=1,18=20,25=1/1,2,3,16;
 1/10=4,18=20,19=15,26=3/3(2);
 2/9=110/2;
 99//99;
 2/9=110/2;
 3/5=1,6=6,7=101,11=2,25=1,30=1,70=2205,71=1,72=1,74=-5/1,2,3;
 4/5=5,16=3,69=1/1;
 5/5=2,8=3,13=1,38=5,53=1/2,8;
 7//1,2,3,16;
 1/18=20,19=15,26=3/3(-5);
 2/9=110/2;
 6/7=2,8=2,9=2,10=2,19=2,28=1/1;
 99/9=1/99;
 ----------------------------------
 VXPJBVRYAHYMNY-UHFFFAOYSA-N_conf_3
 ----------------------------------
 Symbolic Z-matrix:
 Charge =  0 Multiplicity = 1
 C                     3.99805   0.83846  -0.18554 
 N                     2.78782   0.05874  -0.39423 
 C                     2.03183  -0.09804   0.85616 
 C                     0.7773   -0.96777   0.67056 
 O                    -0.20591  -0.26262  -0.08848 
 C                    -1.37212  -1.05813  -0.31708 
 C                    -2.38649  -0.24861  -1.14017 
 N                    -2.7092    1.0691   -0.57145 
 C                    -3.51969   0.97397   0.6329 
 H                     3.76436   1.84221   0.18382 
 H                     4.67617   0.34632   0.51913 
 H                     4.52682   0.95328  -1.1368 
 H                     3.02326  -0.85454  -0.77763 
 H                     1.72907   0.89026   1.22143 
 H                     2.67008  -0.57045   1.61203 
 H                     1.03431  -1.90963   0.1711 
 H                     0.35833  -1.20042   1.65655 
 H                    -1.80524  -1.36147   0.64242 
 H                    -1.09368  -1.95968  -0.87479 
 H                    -1.94807  -0.06038  -2.12744 
 H                    -3.2978   -0.83419  -1.30644 
 H                    -1.81558   1.51257  -0.336 
 H                    -4.46004   0.44864   0.43759 
 H                    -2.99038   0.47095   1.4476 
 H                    -3.77318   1.98143   0.97756 
 

 GradGradGradGradGradGradGradGradGradGradGradGradGradGradGradGradGradGrad
 Berny optimization.
 Initialization pass.
                           ----------------------------
                           !    Initial Parameters    !
                           ! (Angstroms and Degrees)  !
 --------------------------                            --------------------------
 ! Name  Definition              Value          Derivative Info.                !
 --------------------------------------------------------------------------------
 ! R1    R(1,2)                  1.4547         calculate D2E/DX2 analytically  !
 ! R2    R(1,10)                 1.0948         calculate D2E/DX2 analytically  !
 ! R3    R(1,11)                 1.0948         calculate D2E/DX2 analytically  !
 ! R4    R(1,12)                 1.0944         calculate D2E/DX2 analytically  !
 ! R5    R(2,3)                  1.4696         calculate D2E/DX2 analytically  !
 ! R6    R(2,13)                 1.0181         calculate D2E/DX2 analytically  !
 ! R7    R(3,4)                  1.5378         calculate D2E/DX2 analytically  !
 ! R8    R(3,14)                 1.0963         calculate D2E/DX2 analytically  !
 ! R9    R(3,15)                 1.0963         calculate D2E/DX2 analytically  !
 ! R10   R(4,5)                  1.4283         calculate D2E/DX2 analytically  !
 ! R11   R(4,16)                 1.0966         calculate D2E/DX2 analytically  !
 ! R12   R(4,17)                 1.0963         calculate D2E/DX2 analytically  !
 ! R13   R(5,6)                  1.4301         calculate D2E/DX2 analytically  !
 ! R14   R(6,7)                  1.5368         calculate D2E/DX2 analytically  !
 ! R15   R(6,18)                 1.0956         calculate D2E/DX2 analytically  !
 ! R16   R(6,19)                 1.0961         calculate D2E/DX2 analytically  !
 ! R17   R(7,8)                  1.471          calculate D2E/DX2 analytically  !
 ! R18   R(7,20)                 1.0965         calculate D2E/DX2 analytically  !
 ! R19   R(7,21)                 1.0959         calculate D2E/DX2 analytically  !
 ! R20   R(8,9)                  1.4548         calculate D2E/DX2 analytically  !
 ! R21   R(8,22)                 1.025          calculate D2E/DX2 analytically  !
 ! R22   R(9,23)                 1.0947         calculate D2E/DX2 analytically  !
 ! R23   R(9,24)                 1.094          calculate D2E/DX2 analytically  !
 ! R24   R(9,25)                 1.0945         calculate D2E/DX2 analytically  !
 ! A1    A(2,1,10)             111.238          calculate D2E/DX2 analytically  !
 ! A2    A(2,1,11)             111.5121         calculate D2E/DX2 analytically  !
 ! A3    A(2,1,12)             109.4816         calculate D2E/DX2 analytically  !
 ! A4    A(10,1,11)            109.0991         calculate D2E/DX2 analytically  !
 ! A5    A(10,1,12)            107.4697         calculate D2E/DX2 analytically  !
 ! A6    A(11,1,12)            107.9003         calculate D2E/DX2 analytically  !
 ! A7    A(1,2,3)              111.291          calculate D2E/DX2 analytically  !
 ! A8    A(1,2,13)             110.0265         calculate D2E/DX2 analytically  !
 ! A9    A(3,2,13)             110.1013         calculate D2E/DX2 analytically  !
 ! A10   A(2,3,4)              112.1686         calculate D2E/DX2 analytically  !
 ! A11   A(2,3,14)             109.2321         calculate D2E/DX2 analytically  !
 ! A12   A(2,3,15)             109.4581         calculate D2E/DX2 analytically  !
 ! A13   A(4,3,14)             108.9525         calculate D2E/DX2 analytically  !
 ! A14   A(4,3,15)             108.3282         calculate D2E/DX2 analytically  !
 ! A15   A(14,3,15)            108.6342         calculate D2E/DX2 analytically  !
 ! A16   A(3,4,5)              110.2731         calculate D2E/DX2 analytically  !
 ! A17   A(3,4,16)             110.4585         calculate D2E/DX2 analytically  !
 ! A18   A(3,4,17)             108.8597         calculate D2E/DX2 analytically  !
 ! A19   A(5,4,16)             110.0786         calculate D2E/DX2 analytically  !
 ! A20   A(5,4,17)             108.6422         calculate D2E/DX2 analytically  !
 ! A21   A(16,4,17)            108.4773         calculate D2E/DX2 analytically  !
 ! A22   A(4,5,6)              111.8186         calculate D2E/DX2 analytically  !
 ! A23   A(5,6,7)              109.3206         calculate D2E/DX2 analytically  !
 ! A24   A(5,6,18)             109.6589         calculate D2E/DX2 analytically  !
 ! A25   A(5,6,19)             109.3734         calculate D2E/DX2 analytically  !
 ! A26   A(7,6,18)             110.7301         calculate D2E/DX2 analytically  !
 ! A27   A(7,6,19)             109.1734         calculate D2E/DX2 analytically  !
 ! A28   A(18,6,19)            108.5624         calculate D2E/DX2 analytically  !
 ! A29   A(6,7,8)              114.1795         calculate D2E/DX2 analytically  !
 ! A30   A(6,7,20)             107.9834         calculate D2E/DX2 analytically  !
 ! A31   A(6,7,21)             110.406          calculate D2E/DX2 analytically  !
 ! A32   A(8,7,20)             106.3813         calculate D2E/DX2 analytically  !
 ! A33   A(8,7,21)             110.7853         calculate D2E/DX2 analytically  !
 ! A34   A(20,7,21)            106.7142         calculate D2E/DX2 analytically  !
 ! A35   A(7,8,9)              112.563          calculate D2E/DX2 analytically  !
 ! A36   A(7,8,22)             106.5646         calculate D2E/DX2 analytically  !
 ! A37   A(9,8,22)             108.8944         calculate D2E/DX2 analytically  !
 ! A38   A(8,9,23)             111.2379         calculate D2E/DX2 analytically  !
 ! A39   A(8,9,24)             112.1485         calculate D2E/DX2 analytically  !
 ! A40   A(8,9,25)             109.24           calculate D2E/DX2 analytically  !
 ! A41   A(23,9,24)            109.1359         calculate D2E/DX2 analytically  !
 ! A42   A(23,9,25)            107.3937         calculate D2E/DX2 analytically  !
 ! A43   A(24,9,25)            107.5031         calculate D2E/DX2 analytically  !
 ! D1    D(10,1,2,3)           -60.2773         calculate D2E/DX2 analytically  !
 ! D2    D(10,1,2,13)          177.4033         calculate D2E/DX2 analytically  !
 ! D3    D(11,1,2,3)            61.7628         calculate D2E/DX2 analytically  !
 ! D4    D(11,1,2,13)          -60.5566         calculate D2E/DX2 analytically  !
 ! D5    D(12,1,2,3)          -178.905          calculate D2E/DX2 analytically  !
 ! D6    D(12,1,2,13)           58.7756         calculate D2E/DX2 analytically  !
 ! D7    D(1,2,3,4)           -177.6764         calculate D2E/DX2 analytically  !
 ! D8    D(1,2,3,14)            61.4207         calculate D2E/DX2 analytically  !
 ! D9    D(1,2,3,15)           -57.406          calculate D2E/DX2 analytically  !
 ! D10   D(13,2,3,4)           -55.4002         calculate D2E/DX2 analytically  !
 ! D11   D(13,2,3,14)         -176.3031         calculate D2E/DX2 analytically  !
 ! D12   D(13,2,3,15)           64.8702         calculate D2E/DX2 analytically  !
 ! D13   D(2,3,4,5)            -71.0948         calculate D2E/DX2 analytically  !
 ! D14   D(2,3,4,16)            50.8039         calculate D2E/DX2 analytically  !
 ! D15   D(2,3,4,17)           169.8091         calculate D2E/DX2 analytically  !
 ! D16   D(14,3,4,5)            49.9692         calculate D2E/DX2 analytically  !
 ! D17   D(14,3,4,16)          171.868          calculate D2E/DX2 analytically  !
 ! D18   D(14,3,4,17)          -69.1268         calculate D2E/DX2 analytically  !
 ! D19   D(15,3,4,5)           167.9808         calculate D2E/DX2 analytically  !
 ! D20   D(15,3,4,16)          -70.1204         calculate D2E/DX2 analytically  !
 ! D21   D(15,3,4,17)           48.8848         calculate D2E/DX2 analytically  !
 ! D22   D(3,4,5,6)            178.1661         calculate D2E/DX2 analytically  !
 ! D23   D(16,4,5,6)            56.0429         calculate D2E/DX2 analytically  !
 ! D24   D(17,4,5,6)           -62.6056         calculate D2E/DX2 analytically  !
 ! D25   D(4,5,6,7)           -179.7919         calculate D2E/DX2 analytically  !
 ! D26   D(4,5,6,18)            58.6369         calculate D2E/DX2 analytically  !
 ! D27   D(4,5,6,19)           -60.3067         calculate D2E/DX2 analytically  !
 ! D28   D(5,6,7,8)            -53.1155         calculate D2E/DX2 analytically  !
 ! D29   D(5,6,7,20)            64.9689         calculate D2E/DX2 analytically  !
 ! D30   D(5,6,7,21)          -178.7119         calculate D2E/DX2 analytically  !
 ! D31   D(18,6,7,8)            67.8061         calculate D2E/DX2 analytically  !
 ! D32   D(18,6,7,20)         -174.1094         calculate D2E/DX2 analytically  !
 ! D33   D(18,6,7,21)          -57.7902         calculate D2E/DX2 analytically  !
 ! D34   D(19,6,7,8)          -172.7241         calculate D2E/DX2 analytically  !
 ! D35   D(19,6,7,20)          -54.6397         calculate D2E/DX2 analytically  !
 ! D36   D(19,6,7,21)           61.6795         calculate D2E/DX2 analytically  !
 ! D37   D(6,7,8,9)            -71.503          calculate D2E/DX2 analytically  !
 ! D38   D(6,7,8,22)            47.8004         calculate D2E/DX2 analytically  !
 ! D39   D(20,7,8,9)           169.5016         calculate D2E/DX2 analytically  !
 ! D40   D(20,7,8,22)          -71.1949         calculate D2E/DX2 analytically  !
 ! D41   D(21,7,8,9)            53.8935         calculate D2E/DX2 analytically  !
 ! D42   D(21,7,8,22)          173.197          calculate D2E/DX2 analytically  !
 ! D43   D(7,8,9,23)           -58.5274         calculate D2E/DX2 analytically  !
 ! D44   D(7,8,9,24)            64.0139         calculate D2E/DX2 analytically  !
 ! D45   D(7,8,9,25)          -176.9084         calculate D2E/DX2 analytically  !
 ! D46   D(22,8,9,23)         -176.4657         calculate D2E/DX2 analytically  !
 ! D47   D(22,8,9,24)          -53.9244         calculate D2E/DX2 analytically  !
 ! D48   D(22,8,9,25)           65.1533         calculate D2E/DX2 analytically  !
 --------------------------------------------------------------------------------
 Trust Radius=3.00D-01 FncErr=1.00D-07 GrdErr=1.00D-06 EigMax=2.50D+02 EigMin=1.00D-04
 Number of steps in this run=    125 maximum allowed number of steps=    150.
 GradGradGradGradGradGradGradGradGradGradGradGradGradGradGradGradGradGrad

                          Input orientation:                          
 ---------------------------------------------------------------------
 Center     Atomic      Atomic             Coordinates (Angstroms)
 Number     Number       Type             X           Y           Z
 ---------------------------------------------------------------------
      1          6           0        3.998048    0.838457   -0.185536
      2          7           0        2.787822    0.058744   -0.394226
      3          6           0        2.031826   -0.098042    0.856161
      4          6           0        0.777295   -0.967772    0.670560
      5          8           0       -0.205911   -0.262619   -0.088485
      6          6           0       -1.372117   -1.058134   -0.317080
      7          6           0       -2.386488   -0.248613   -1.140167
      8          7           0       -2.709203    1.069102   -0.571455
      9          6           0       -3.519686    0.973972    0.632899
     10          1           0        3.764356    1.842213    0.183824
     11          1           0        4.676168    0.346318    0.519135
     12          1           0        4.526822    0.953276   -1.136804
     13          1           0        3.023257   -0.854542   -0.777625
     14          1           0        1.729066    0.890258    1.221434
     15          1           0        2.670081   -0.570450    1.612027
     16          1           0        1.034305   -1.909631    0.171103
     17          1           0        0.358328   -1.200418    1.656550
     18          1           0       -1.805240   -1.361465    0.642417
     19          1           0       -1.093676   -1.959676   -0.874794
     20          1           0       -1.948066   -0.060378   -2.127440
     21          1           0       -3.297802   -0.834191   -1.306445
     22          1           0       -1.815577    1.512566   -0.335998
     23          1           0       -4.460040    0.448642    0.437588
     24          1           0       -2.990382    0.470954    1.447598
     25          1           0       -3.773185    1.981430    0.977562
 ---------------------------------------------------------------------
                    Distance matrix (angstroms):
                    1          2          3          4          5
     1  C    0.000000
     2  N    1.454700   0.000000
     3  C    2.414164   1.469550   0.000000
     4  C    3.790595   2.495941   1.537767   0.000000
     5  O    4.346845   3.026415   2.434524   1.428315   0.000000
     6  C    5.696756   4.307953   3.726271   2.367186   1.430083
     7  C    6.546399   5.236829   4.850721   3.715568   2.420981
     8  N    6.722302   5.591915   5.087010   4.224586   2.876319
     9  C    7.563367   6.455794   5.658476   4.715489   3.609800
    10  H    1.094790   2.113888   2.686687   4.129826   4.501943
    11  H    1.094810   2.117257   2.702515   4.117156   4.957288
    12  H    1.094393   2.091825   3.361872   4.584314   4.997613
    13  H    2.041331   1.018094   2.055355   2.674772   3.354522
    14  H    2.670305   2.103030   1.096278   2.159075   2.605599
    15  H    2.641921   2.105896   1.096299   2.151015   3.355269
    16  H    4.057456   2.696093   2.178579   1.096635   2.078021
    17  H    4.560466   3.419592   2.157882   1.096282   2.059849
    18  H    6.261255   4.918114   4.045368   2.612523   2.073532
    19  H    5.850665   4.401249   4.028728   2.621550   2.070366
    20  H    6.319428   5.044487   4.974217   4.009958   2.689488
    21  H    7.568594   6.218062   5.798596   4.531314   3.371930
    22  H    5.854511   4.827864   4.337950   3.726691   2.409060
    23  H    8.489964   7.305849   6.528277   5.430487   4.345142
    24  H    7.186121   6.078640   5.088824   4.107203   3.263580
    25  H    7.940481   6.973186   6.167422   5.431290   4.347143
                    6          7          8          9         10
     6  C    0.000000
     7  C    1.536797   0.000000
     8  N    2.525398   1.471037   0.000000
     9  C    3.105474   2.433642   1.454785   0.000000
    10  H    5.919989   6.630037   6.563164   7.349339   0.000000
    11  H    6.265261   7.279309   7.500367   8.220640   1.783686
    12  H    6.286111   7.017008   7.259001   8.238845   1.765112
    13  H    4.424123   5.455633   6.050125   6.938526   2.957380
    14  H    3.972479   4.879751   4.790059   5.282308   2.474927
    15  H    4.505403   5.766025   6.032613   6.454235   3.009675
    16  H    2.598892   4.022466   4.841291   5.409922   4.640008
    17  H    2.628669   4.032564   4.418651   4.562327   4.798704
    18  H    1.095555   2.180343   2.863266   2.897185   6.441605
    19  H    1.096063   2.160908   3.446076   4.094503   6.259034
    20  H    2.145843   1.096520   2.067884   3.340560   6.449307
    21  H    2.176524   1.095921   2.123484   2.660778   7.697930
    22  H    2.608738   2.018509   1.025021   2.032937   5.613782
    23  H    3.517836   2.697238   2.113899   1.094707   8.345486
    24  H    2.840947   2.752997   2.124480   1.094041   7.007422
    25  H    4.084137   3.373544   2.088984   1.094544   7.580496
                   11         12         13         14         15
    11  H    0.000000
    12  H    1.769982   0.000000
    13  H    2.419869   2.378638   0.000000
    14  H    3.078069   3.659603   2.952202   0.000000
    15  H    2.461556   3.650383   2.432258   1.780938   0.000000
    16  H    4.298092   4.701545   2.443200   3.070060   2.558404
    17  H    4.725447   5.460546   3.625836   2.537553   2.396465
    18  H    6.703758   6.972709   5.058446   4.230466   4.646973
    19  H    6.368025   6.335924   4.263789   4.525944   4.720180
    20  H    7.144945   6.628199   5.212173   5.063592   5.964149
    21  H    8.265019   8.027986   6.343174   5.885006   6.648509
    22  H    6.650876   6.417174   5.404864   3.921397   5.315533
    23  H    9.137145   9.137672   7.692514   6.254156   7.297704
    24  H    7.723572   7.963675   6.547703   4.743432   5.757812
    25  H    8.618312   8.626572   7.570669   5.614703   6.959189
                   16         17         18         19         20
    16  H    0.000000
    17  H    1.779461   0.000000
    18  H    2.930126   2.394876   0.000000
    19  H    2.371647   3.015376   1.779357   0.000000
    20  H    4.194947   4.575776   3.063550   2.430317   0.000000
    21  H    4.701795   4.720249   2.510741   2.512212   1.759150
    22  H    4.482233   4.007043   3.036027   3.587187   2.387671
    23  H    5.985006   5.236596   3.219690   4.342206   3.626084
    24  H    4.847136   3.748467   2.326078   3.859918   3.761600
    25  H    6.237202   5.258762   3.893594   5.113053   4.140178
                   21         22         23         24         25
    21  H    0.000000
    22  H    2.940413   0.000000
    23  H    2.457256   2.953566   0.000000
    24  H    3.063113   2.376202   1.783400   0.000000
    25  H    3.656556   2.403643   1.764307   1.765007   0.000000
 Stoichiometry    C6H16N2O
 Framework group  C1[X(C6H16N2O)]
 Deg. of freedom    69
 Full point group                 C1      NOp   1
 Largest Abelian subgroup         C1      NOp   1
 Largest concise Abelian subgroup C1      NOp   1
                         Standard orientation:                         
 ---------------------------------------------------------------------
 Center     Atomic      Atomic             Coordinates (Angstroms)
 Number     Number       Type             X           Y           Z
 ---------------------------------------------------------------------
      1          6           0       -4.011327   -0.892409   -0.372928
      2          7           0       -2.812684   -0.076873   -0.492535
      3          6           0       -2.115514    0.039220    0.795896
      4          6           0       -0.875825    0.944591    0.705342
      5          8           0        0.156259    0.297410   -0.040341
      6          6           0        1.311409    1.128652   -0.181053
      7          6           0        2.379946    0.380888   -0.993964
      8          7           0        2.709972   -0.953989   -0.471339
      9          6           0        3.465063   -0.896127    0.770792
     10          1           0       -3.769291   -1.906575   -0.039085
     11          1           0       -4.731131   -0.448593    0.322427
     12          1           0       -4.495515   -0.975232   -1.350884
     13          1           0       -3.053638    0.847547   -0.844535
     14          1           0       -1.804697   -0.957767    1.129416
     15          1           0       -2.797232    0.461873    1.543223
     16          1           0       -1.134010    1.902399    0.237845
     17          1           0       -0.505698    1.141017    1.718386
     18          1           0        1.695088    1.397208    0.809355
     19          1           0        1.035326    2.048394   -0.709454
     20          1           0        1.989354    0.228436   -2.007153
     21          1           0        3.282970    0.993864   -1.093213
     22          1           0        1.818141   -1.427820   -0.295875
     23          1           0        4.399824   -0.341332    0.641146
     24          1           0        2.888869   -0.443157    1.583038
     25          1           0        3.728040   -1.912408    1.080700
 ---------------------------------------------------------------------
 Rotational constants (GHZ):           3.4331205           0.5571099           0.5420133
 Standard basis: 6-31G(d,p) (6D, 7F)
 There are   215 symmetry adapted cartesian basis functions of A   symmetry.
 There are   215 symmetry adapted basis functions of A   symmetry.
   215 basis functions,   364 primitive gaussians,   215 cartesian basis functions
    37 alpha electrons       37 beta electrons
       nuclear repulsion energy       479.5022223546 Hartrees.
 NAtoms=   25 NActive=   25 NUniq=   25 SFac= 1.00D+00 NAtFMM=   60 NAOKFM=F Big=F
 Integral buffers will be    131072 words long.
 Raffenetti 2 integral format.
 Two-electron integral symmetry is turned on.
 Force inversion solution in PCM.
 ------------------------------------------------------------------------------
 Polarizable Continuum Model (PCM)
 =================================
 Model                : PCM.
 Atomic radii         : UFF (Universal Force Field).
 Polarization charges : Total charges.
 Charge compensation  : None.
 Solution method      : Matrix inversion.
 Cavity type          : Scaled VdW (van der Waals Surface) (Alpha=1.100).
 Cavity algorithm     : GePol (No added spheres)
                        Default sphere list used, NSphG=   25.
                        Lebedev-Laikov grids with approx.  5.0 points / Ang**2.
                        Smoothing algorithm: York/Karplus (Gamma=1.0000).
                        Polarization charges: spherical gaussians, with
                                              point-specific exponents (IZeta= 3).
                        Self-potential: point-specific (ISelfS= 7).
                        Self-field    : sphere-specific E.n sum rule (ISelfD= 2).
 1st derivatives      : Analytical E(r).r(x)/FMM algorithm (CHGder, D1EAlg=3).
                        Cavity 1st derivative terms included.
 2nd derivatives      : Analytical E(r).r(xy)/FMM algorithm (CHGder, D2EAlg=3).
                        Cavity 2nd derivative terms included.
 Solvent              : Water, Eps=  78.355300 Eps(inf)=   1.777849
 ------------------------------------------------------------------------------
 One-electron integrals computed using PRISM.
 NBasis=   215 RedAO= T EigKep=  3.78D-03  NBF=   215
 NBsUse=   215 1.00D-06 EigRej= -1.00D+00 NBFU=   215
 ExpMin= 1.61D-01 ExpMax= 5.48D+03 ExpMxC= 8.25D+02 IAcc=3 IRadAn=         5 AccDes= 0.00D+00
 Harris functional with IExCor=  402 and IRadAn=       5 diagonalized for initial guess.
 HarFok:  IExCor=  402 AccDes= 0.00D+00 IRadAn=         5 IDoV= 1 UseB2=F ITyADJ=14
 ICtDFT=  3500011 ScaDFX=  1.000000  1.000000  1.000000  1.000000
 FoFCou: FMM=F IPFlag=           0 FMFlag=      100000 FMFlg1=           0
         NFxFlg=           0 DoJE=T BraDBF=F KetDBF=T FulRan=T
         wScrn=  0.000000 ICntrl=       500 IOpCl=  0 I1Cent=   200000004 NGrid=           0
         NMat0=    1 NMatS0=      1 NMatT0=    0 NMatD0=    1 NMtDS0=    0 NMtDT0=    0
 Petite list used in FoFCou.
 Keep R1 ints in memory in canonical form, NReq=274636103.
 Requested convergence on RMS density matrix=1.00D-08 within  32 cycles.
 Requested convergence on MAX density matrix=1.00D-06.
 Requested convergence on             energy=1.00D-06.
 No special actions if energy rises.
 Inv3:  Mode=1 IEnd=     9709203.
 Iteration    1 A*A^-1 deviation from unit magnitude is 7.77D-15 for    614.
 Iteration    1 A*A^-1 deviation from orthogonality  is 4.34D-15 for   1508    996.
 Iteration    1 A^-1*A deviation from unit magnitude is 7.11D-15 for    614.
 Iteration    1 A^-1*A deviation from orthogonality  is 2.70D-15 for   1698    697.
 Error on total polarization charges =  0.01014
 SCF Done:  E(RB3LYP) =  -422.987556882     A.U. after   11 cycles
            NFock= 11  Conv=0.65D-08     -V/T= 2.0096
 QCSCF skips out because SCF is already converged.
 DoSCS=F DFT=T ScalE2(SS,OS)=  1.000000  1.000000
 Range of M.O.s used for correlation:     1   215
 NBasis=   215 NAE=    37 NBE=    37 NFC=     0 NFV=     0
 NROrb=    215 NOA=    37 NOB=    37 NVA=   178 NVB=   178
 Symmetrizing basis deriv contribution to polar:
 IMax=3 JMax=2 DiffMx= 0.00D+00
 G2DrvN: will do    26 centers at a time, making    1 passes.
 Calling FoFCou, ICntrl=  3107 FMM=F I1Cent=   0 AccDes= 0.00D+00.
 NEqPCM:  Using equilibrium solvation (IEInf=0, Eps=  78.3553, EpsInf=   1.7778)
 G2PCM: DoFxE=T DoFxN=T DoGrad=T DoDP/DQ/DG/TGxP=FFFF NFrqRd=   0 IEInf=0 SqF1=F DoCFld=F IF1Alg=4.
 End of G2Drv F.D. properties file   721 does not exist.
 End of G2Drv F.D. properties file   722 does not exist.
 End of G2Drv F.D. properties file   788 does not exist.
          IDoAtm=1111111111111111111111111
 NEqPCM:  Using equilibrium solvation (IEInf=0, Eps=  78.3553, EpsInf=   1.7778)
          Differentiating once with respect to nuclear coordinates.
 Keep R1 ints in memory in canonical form, NReq=278225875.
          There are    78 degrees of freedom in the 1st order CPHF.  IDoFFX=6 NUNeed=     0.
     72 vectors produced by pass  0 Test12= 8.44D-15 1.28D-09 XBig12= 8.01D-02 5.77D-02.
 AX will form    72 AO Fock derivatives at one time.
     72 vectors produced by pass  1 Test12= 8.44D-15 1.28D-09 XBig12= 6.56D-03 1.26D-02.
     72 vectors produced by pass  2 Test12= 8.44D-15 1.28D-09 XBig12= 8.34D-05 1.44D-03.
     72 vectors produced by pass  3 Test12= 8.44D-15 1.28D-09 XBig12= 1.58D-07 5.03D-05.
     72 vectors produced by pass  4 Test12= 8.44D-15 1.28D-09 XBig12= 1.72D-10 1.42D-06.
     32 vectors produced by pass  5 Test12= 8.44D-15 1.28D-09 XBig12= 1.34D-13 4.67D-08.
      1 vectors produced by pass  6 Test12= 8.44D-15 1.28D-09 XBig12= 1.16D-16 2.06D-09.
 InvSVY:  IOpt=1 It=  1 EMax= 4.72D-16
 Solved reduced A of dimension   393 with    78 vectors.
 End of Minotr F.D. properties file   721 does not exist.
 End of Minotr F.D. properties file   722 does not exist.
 End of Minotr F.D. properties file   788 does not exist.

 **********************************************************************

            Population analysis using the SCF density.

 **********************************************************************

 Orbital symmetries:
       Occupied  (A) (A) (A) (A) (A) (A) (A) (A) (A) (A) (A) (A)
                 (A) (A) (A) (A) (A) (A) (A) (A) (A) (A) (A) (A)
                 (A) (A) (A) (A) (A) (A) (A) (A) (A) (A) (A) (A)
                 (A)
       Virtual   (A) (A) (A) (A) (A) (A) (A) (A) (A) (A) (A) (A)
                 (A) (A) (A) (A) (A) (A) (A) (A) (A) (A) (A) (A)
                 (A) (A) (A) (A) (A) (A) (A) (A) (A) (A) (A) (A)
                 (A) (A) (A) (A) (A) (A) (A) (A) (A) (A) (A) (A)
                 (A) (A) (A) (A) (A) (A) (A) (A) (A) (A) (A) (A)
                 (A) (A) (A) (A) (A) (A) (A) (A) (A) (A) (A) (A)
                 (A) (A) (A) (A) (A) (A) (A) (A) (A) (A) (A) (A)
                 (A) (A) (A) (A) (A) (A) (A) (A) (A) (A) (A) (A)
                 (A) (A) (A) (A) (A) (A) (A) (A) (A) (A) (A) (A)
                 (A) (A) (A) (A) (A) (A) (A) (A) (A) (A) (A) (A)
                 (A) (A) (A) (A) (A) (A) (A) (A) (A) (A) (A) (A)
                 (A) (A) (A) (A) (A) (A) (A) (A) (A) (A) (A) (A)
                 (A) (A) (A) (A) (A) (A) (A) (A) (A) (A) (A) (A)
                 (A) (A) (A) (A) (A) (A) (A) (A) (A) (A) (A) (A)
                 (A) (A) (A) (A) (A) (A) (A) (A) (A) (A)
 The electronic state is 1-A.
 Alpha  occ. eigenvalues --  -19.14821 -14.31317 -14.31256 -10.23032 -10.22471
 Alpha  occ. eigenvalues --  -10.20653 -10.20437 -10.19636 -10.19452  -1.02662
 Alpha  occ. eigenvalues --   -0.89641  -0.89196  -0.75568  -0.71489  -0.66047
 Alpha  occ. eigenvalues --   -0.64599  -0.60389  -0.58911  -0.50044  -0.48771
 Alpha  occ. eigenvalues --   -0.47582  -0.46815  -0.45094  -0.43617  -0.42157
 Alpha  occ. eigenvalues --   -0.41346  -0.39766  -0.38856  -0.37871  -0.36087
 Alpha  occ. eigenvalues --   -0.35904  -0.34915  -0.34171  -0.31657  -0.25764
 Alpha  occ. eigenvalues --   -0.21869  -0.21548
 Alpha virt. eigenvalues --    0.07848   0.09539   0.11545   0.12572   0.12979
 Alpha virt. eigenvalues --    0.13628   0.14491   0.14997   0.16252   0.16823
 Alpha virt. eigenvalues --    0.17280   0.17729   0.18453   0.19413   0.20059
 Alpha virt. eigenvalues --    0.20168   0.21384   0.21698   0.22973   0.23946
 Alpha virt. eigenvalues --    0.24977   0.27077   0.27497   0.29429   0.49838
 Alpha virt. eigenvalues --    0.51115   0.52202   0.53185   0.53908   0.55560
 Alpha virt. eigenvalues --    0.56512   0.58014   0.58724   0.58827   0.63019
 Alpha virt. eigenvalues --    0.64001   0.64592   0.67024   0.68414   0.71798
 Alpha virt. eigenvalues --    0.72701   0.75253   0.76248   0.78513   0.80137
 Alpha virt. eigenvalues --    0.80943   0.81382   0.82915   0.86112   0.87688
 Alpha virt. eigenvalues --    0.87868   0.88554   0.89675   0.89841   0.90559
 Alpha virt. eigenvalues --    0.92132   0.92162   0.92978   0.94586   0.95461
 Alpha virt. eigenvalues --    0.96113   0.97280   0.98551   0.99047   1.03700
 Alpha virt. eigenvalues --    1.09086   1.14077   1.15103   1.20944   1.26179
 Alpha virt. eigenvalues --    1.29296   1.30769   1.32146   1.35720   1.39754
 Alpha virt. eigenvalues --    1.39996   1.45883   1.47483   1.51115   1.54990
 Alpha virt. eigenvalues --    1.57504   1.60257   1.61178   1.70246   1.76065
 Alpha virt. eigenvalues --    1.77033   1.80600   1.82256   1.83083   1.84893
 Alpha virt. eigenvalues --    1.86585   1.89884   1.92125   1.93475   1.94160
 Alpha virt. eigenvalues --    1.96341   1.98173   1.98842   1.98995   2.00291
 Alpha virt. eigenvalues --    2.03097   2.03594   2.04477   2.06385   2.06729
 Alpha virt. eigenvalues --    2.08010   2.08425   2.10500   2.10820   2.13117
 Alpha virt. eigenvalues --    2.14271   2.15913   2.16754   2.18554   2.22111
 Alpha virt. eigenvalues --    2.27796   2.29095   2.32767   2.33855   2.36893
 Alpha virt. eigenvalues --    2.38472   2.41464   2.43273   2.47295   2.48588
 Alpha virt. eigenvalues --    2.49870   2.54000   2.56840   2.59053   2.59885
 Alpha virt. eigenvalues --    2.63101   2.65334   2.65898   2.67115   2.69273
 Alpha virt. eigenvalues --    2.71074   2.72048   2.73401   2.75081   2.77351
 Alpha virt. eigenvalues --    2.78789   2.80605   2.83978   2.84869   2.88024
 Alpha virt. eigenvalues --    2.91605   2.92625   2.93402   2.94017   2.94847
 Alpha virt. eigenvalues --    2.96373   3.00498   3.08257   3.19333   3.19545
 Alpha virt. eigenvalues --    3.25747   3.28162   3.29746   3.31186   3.35156
 Alpha virt. eigenvalues --    3.36261   3.41879   3.44109   3.44934   3.47719
 Alpha virt. eigenvalues --    3.49866   3.51687   3.54885   3.56163   3.96732
 Alpha virt. eigenvalues --    4.01884   4.04357   4.38917   4.42618   4.47899
 Alpha virt. eigenvalues --    4.48296   4.61947   4.63862
          Condensed to atoms (all electrons):
               1          2          3          4          5          6
     1  C    4.794691   0.317612  -0.052589   0.004981   0.000030   0.000002
     2  N    0.317612   6.831598   0.305463  -0.039213   0.003633   0.000027
     3  C   -0.052589   0.305463   4.836790   0.371608  -0.042876   0.004657
     4  C    0.004981  -0.039213   0.371608   4.744852   0.231822  -0.026163
     5  O    0.000030   0.003633  -0.042876   0.231822   8.280270   0.234425
     6  C    0.000002   0.000027   0.004657  -0.026163   0.234425   4.816948
     7  C   -0.000000   0.000003  -0.000249   0.004318  -0.043304   0.350268
     8  N    0.000000   0.000000   0.000007   0.000231  -0.006843  -0.057306
     9  C    0.000000   0.000000   0.000000  -0.000018  -0.000517  -0.002090
    10  H    0.392299  -0.039019  -0.004436   0.000192  -0.000005  -0.000000
    11  H    0.374428  -0.053544  -0.007470  -0.000087  -0.000000   0.000000
    12  H    0.387511  -0.034504   0.005413  -0.000250   0.000003  -0.000000
    13  H   -0.038447   0.344513  -0.039407  -0.003879  -0.000191  -0.000031
    14  H   -0.003864  -0.046369   0.379635  -0.028919   0.000973  -0.000110
    15  H   -0.004628  -0.057160   0.360839  -0.038670   0.002927  -0.000145
    16  H    0.000017  -0.009012  -0.033988   0.364248  -0.040528  -0.007858
    17  H   -0.000164   0.004140  -0.034286   0.365996  -0.040061  -0.007876
    18  H    0.000000   0.000009  -0.000043  -0.006647  -0.043281   0.364443
    19  H   -0.000001  -0.000033   0.000209  -0.008360  -0.040262   0.357529
    20  H    0.000000   0.000002   0.000001  -0.000085   0.000818  -0.047463
    21  H    0.000000  -0.000000   0.000003  -0.000141   0.002517  -0.038823
    22  H   -0.000000  -0.000003  -0.000007  -0.000614   0.018650  -0.012890
    23  H    0.000000  -0.000000   0.000000   0.000001   0.000016  -0.001414
    24  H   -0.000000  -0.000000  -0.000008   0.000050   0.001318   0.005763
    25  H    0.000000  -0.000000   0.000000  -0.000001  -0.000014  -0.000169
               7          8          9         10         11         12
     1  C   -0.000000   0.000000   0.000000   0.392299   0.374428   0.387511
     2  N    0.000003   0.000000   0.000000  -0.039019  -0.053544  -0.034504
     3  C   -0.000249   0.000007   0.000000  -0.004436  -0.007470   0.005413
     4  C    0.004318   0.000231  -0.000018   0.000192  -0.000087  -0.000250
     5  O   -0.043304  -0.006843  -0.000517  -0.000005  -0.000000   0.000003
     6  C    0.350268  -0.057306  -0.002090  -0.000000   0.000000  -0.000000
     7  C    4.853662   0.334699  -0.061525   0.000000  -0.000000   0.000000
     8  N    0.334699   6.803505   0.311605   0.000000   0.000000  -0.000000
     9  C   -0.061525   0.311605   4.812174   0.000000   0.000000  -0.000000
    10  H    0.000000   0.000000   0.000000   0.598757  -0.044499  -0.028441
    11  H   -0.000000   0.000000   0.000000  -0.044499   0.675720  -0.039936
    12  H    0.000000  -0.000000  -0.000000  -0.028441  -0.039936   0.605894
    13  H    0.000000  -0.000000  -0.000000   0.005765  -0.005161  -0.003150
    14  H   -0.000012  -0.000014  -0.000000   0.006478  -0.001959   0.000106
    15  H    0.000003  -0.000000  -0.000000  -0.002053   0.014343  -0.000247
    16  H   -0.000090  -0.000004  -0.000002   0.000006  -0.000018   0.000002
    17  H    0.000268  -0.000051   0.000006   0.000000   0.000014   0.000003
    18  H   -0.035180  -0.006133   0.002919   0.000000  -0.000000   0.000000
    19  H   -0.029242   0.004951  -0.000034  -0.000000   0.000000  -0.000000
    20  H    0.382247  -0.046017   0.006263   0.000000  -0.000000  -0.000000
    21  H    0.377806  -0.034459  -0.007089   0.000000  -0.000000  -0.000000
    22  H   -0.046879   0.343490  -0.039803  -0.000000  -0.000000   0.000000
    23  H   -0.005728  -0.037840   0.391379   0.000000   0.000000  -0.000000
    24  H   -0.004419  -0.053082   0.376902  -0.000000   0.000000   0.000000
    25  H    0.005468  -0.036605   0.389143   0.000000  -0.000000  -0.000000
              13         14         15         16         17         18
     1  C   -0.038447  -0.003864  -0.004628   0.000017  -0.000164   0.000000
     2  N    0.344513  -0.046369  -0.057160  -0.009012   0.004140   0.000009
     3  C   -0.039407   0.379635   0.360839  -0.033988  -0.034286  -0.000043
     4  C   -0.003879  -0.028919  -0.038670   0.364248   0.365996  -0.006647
     5  O   -0.000191   0.000973   0.002927  -0.040528  -0.040061  -0.043281
     6  C   -0.000031  -0.000110  -0.000145  -0.007858  -0.007876   0.364443
     7  C    0.000000  -0.000012   0.000003  -0.000090   0.000268  -0.035180
     8  N   -0.000000  -0.000014  -0.000000  -0.000004  -0.000051  -0.006133
     9  C   -0.000000  -0.000000  -0.000000  -0.000002   0.000006   0.002919
    10  H    0.005765   0.006478  -0.002053   0.000006   0.000000   0.000000
    11  H   -0.005161  -0.001959   0.014343  -0.000018   0.000014  -0.000000
    12  H   -0.003150   0.000106  -0.000247   0.000002   0.000003   0.000000
    13  H    0.482021   0.006260  -0.004754   0.005637  -0.000139   0.000001
    14  H    0.006260   0.618143  -0.045361   0.006038  -0.004380  -0.000034
    15  H   -0.004754  -0.045361   0.687871  -0.000881   0.001433   0.000006
    16  H    0.005637   0.006038  -0.000881   0.665032  -0.052883  -0.003023
    17  H   -0.000139  -0.004380   0.001433  -0.052883   0.662692   0.013008
    18  H    0.000001  -0.000034   0.000006  -0.003023   0.013008   0.669625
    19  H   -0.000001   0.000044   0.000015   0.013271  -0.002550  -0.054223
    20  H    0.000000  -0.000001   0.000000  -0.000053   0.000034   0.006312
    21  H   -0.000000   0.000000  -0.000000   0.000001   0.000017  -0.001165
    22  H    0.000000   0.000157   0.000000   0.000070   0.000015   0.000171
    23  H   -0.000000  -0.000000  -0.000000  -0.000000  -0.000001   0.000229
    24  H    0.000000   0.000007  -0.000000   0.000011  -0.000038  -0.000199
    25  H   -0.000000  -0.000000   0.000000  -0.000000   0.000001  -0.000122
              19         20         21         22         23         24
     1  C   -0.000001   0.000000   0.000000  -0.000000   0.000000  -0.000000
     2  N   -0.000033   0.000002  -0.000000  -0.000003  -0.000000  -0.000000
     3  C    0.000209   0.000001   0.000003  -0.000007   0.000000  -0.000008
     4  C   -0.008360  -0.000085  -0.000141  -0.000614   0.000001   0.000050
     5  O   -0.040262   0.000818   0.002517   0.018650   0.000016   0.001318
     6  C    0.357529  -0.047463  -0.038823  -0.012890  -0.001414   0.005763
     7  C   -0.029242   0.382247   0.377806  -0.046879  -0.005728  -0.004419
     8  N    0.004951  -0.046017  -0.034459   0.343490  -0.037840  -0.053082
     9  C   -0.000034   0.006263  -0.007089  -0.039803   0.391379   0.376902
    10  H   -0.000000   0.000000   0.000000  -0.000000   0.000000  -0.000000
    11  H    0.000000  -0.000000  -0.000000  -0.000000   0.000000   0.000000
    12  H   -0.000000  -0.000000  -0.000000   0.000000  -0.000000   0.000000
    13  H   -0.000001   0.000000  -0.000000   0.000000  -0.000000   0.000000
    14  H    0.000044  -0.000001   0.000000   0.000157  -0.000000   0.000007
    15  H    0.000015   0.000000  -0.000000   0.000000  -0.000000  -0.000000
    16  H    0.013271  -0.000053   0.000001   0.000070  -0.000000   0.000011
    17  H   -0.002550   0.000034   0.000017   0.000015  -0.000001  -0.000038
    18  H   -0.054223   0.006312  -0.001165   0.000171   0.000229  -0.000199
    19  H    0.670938  -0.005372   0.001330   0.000686   0.000010  -0.000220
    20  H   -0.005372   0.632942  -0.030759  -0.001583   0.000204  -0.000368
    21  H    0.001330  -0.030759   0.606238   0.006389   0.006462  -0.000982
    22  H    0.000686  -0.001583   0.006389   0.481691   0.005748  -0.005566
    23  H    0.000010   0.000204   0.006462   0.005748   0.599038  -0.042883
    24  H   -0.000220  -0.000368  -0.000982  -0.005566  -0.042883   0.670804
    25  H    0.000003  -0.000246   0.000133  -0.002613  -0.028578  -0.041071
              25
     1  C    0.000000
     2  N   -0.000000
     3  C    0.000000
     4  C   -0.000001
     5  O   -0.000014
     6  C   -0.000169
     7  C    0.005468
     8  N   -0.036605
     9  C    0.389143
    10  H    0.000000
    11  H   -0.000000
    12  H   -0.000000
    13  H   -0.000000
    14  H   -0.000000
    15  H    0.000000
    16  H   -0.000000
    17  H    0.000001
    18  H   -0.000122
    19  H    0.000003
    20  H   -0.000246
    21  H    0.000133
    22  H   -0.002613
    23  H   -0.028578
    24  H   -0.041071
    25  H    0.607961
 Mulliken charges:
               1
     1  C   -0.171879
     2  N   -0.528145
     3  C   -0.049265
     4  C    0.064747
     5  O   -0.519521
     6  C    0.068274
     7  C   -0.082114
     8  N   -0.520136
     9  C   -0.179315
    10  H    0.114956
    11  H    0.088167
    12  H    0.107595
    13  H    0.250961
    14  H    0.113182
    15  H    0.086461
    16  H    0.094006
    17  H    0.094801
    18  H    0.093329
    19  H    0.091312
    20  H    0.103125
    21  H    0.112523
    22  H    0.252890
    23  H    0.113357
    24  H    0.093980
    25  H    0.106709
 Sum of Mulliken charges =  -0.00000
 Mulliken charges with hydrogens summed into heavy atoms:
               1
     1  C    0.138840
     2  N   -0.277185
     3  C    0.150377
     4  C    0.253554
     5  O   -0.519521
     6  C    0.252915
     7  C    0.133534
     8  N   -0.267246
     9  C    0.134731
 APT charges:
               1
     1  C   -1.313193
     2  N   -0.713045
     3  C   -0.569638
     4  C   -0.546857
     5  O   -0.440898
     6  C   -0.528400
     7  C   -0.823556
     8  N   -0.227498
     9  C   -1.185274
    10  H    0.306413
    11  H    0.479672
    12  H    0.599735
    13  H    0.550499
    14  H    0.244556
    15  H    0.475994
    16  H    0.364453
    17  H    0.341329
    18  H    0.346998
    19  H    0.362298
    20  H    0.306331
    21  H    0.610618
    22  H    0.100861
    23  H    0.653538
    24  H    0.046976
    25  H    0.558086
 Sum of APT charges =  -0.00000
 APT charges with hydrogens summed into heavy atoms:
               1
     1  C    0.072626
     2  N   -0.162545
     3  C    0.150912
     4  C    0.158925
     5  O   -0.440898
     6  C    0.180896
     7  C    0.093394
     8  N   -0.126637
     9  C    0.073326
 Electronic spatial extent (au):  <R**2>=           2229.3725
 Charge=             -0.0000 electrons
 Dipole moment (field-independent basis, Debye):
    X=             -1.6179    Y=              2.6634    Z=              2.1578  Tot=              3.7904
 Quadrupole moment (field-independent basis, Debye-Ang):
   XX=            -53.5971   YY=            -55.1545   ZZ=            -58.5874
   XY=              2.1502   XZ=              2.1929   YZ=             -2.9972
 Traceless Quadrupole moment (field-independent basis, Debye-Ang):
   XX=              2.1826   YY=              0.6252   ZZ=             -2.8077
   XY=              2.1502   XZ=              2.1929   YZ=             -2.9972
 Octapole moment (field-independent basis, Debye-Ang**2):
  XXX=            -29.2133  YYY=              1.3813  ZZZ=             -0.7392  XYY=             -7.1203
  XXY=             18.0344  XXZ=              7.7349  XZZ=             -3.0572  YZZ=              3.6733
  YYZ=              1.5388  XYZ=             -5.1892
 Hexadecapole moment (field-independent basis, Debye-Ang**3):
 XXXX=          -2340.7201 YYYY=           -309.6544 ZZZZ=           -249.9516 XXXY=             32.4231
 XXXZ=             63.1485 YYYX=             -0.8415 YYYZ=             -9.0379 ZZZX=              4.4001
 ZZZY=             -1.1731 XXYY=           -451.0933 XXZZ=           -451.2898 YYZZ=            -95.9277
 XXYZ=            -28.5502 YYXZ=             11.0803 ZZXY=              1.7722
 N-N= 4.795022223546D+02 E-N=-1.942737905644D+03  KE= 4.189817854615D+02
  Exact polarizability:   0.000   0.000   0.000   0.000   0.000   0.000
 Approx polarizability: 112.671   1.438 109.482   2.264  -2.723 106.609
 D2PCM: PCM CHGder 2nd derivatives, FixD1E=F FixD2E=F DoIter=F DoCFld=F I1PDM=0
 Calling FoFJK, ICntrl=    100147 FMM=F ISym2X=0 I1Cent= 0 IOpClX= 0 NMat=1 NMatS=1 NMatT=0.
 ***** Axes restored to original set *****
 -------------------------------------------------------------------
 Center     Atomic                   Forces (Hartrees/Bohr)
 Number     Number              X              Y              Z
 -------------------------------------------------------------------
      1        6           0.002464208   -0.005426009   -0.007186934
      2        7          -0.013095323    0.010494186   -0.000770070
      3        6          -0.002726371   -0.010807940   -0.013937079
      4        6           0.001215658    0.012950981    0.001107522
      5        8          -0.001033715   -0.001891007   -0.002920017
      6        6           0.000122518    0.002334105   -0.003153601
      7        6           0.013201340    0.009421821   -0.001275120
      8        7          -0.001815075   -0.003611183   -0.007651812
      9        6           0.002770642    0.006688060    0.005124580
     10        1          -0.001806895   -0.000997529    0.001088650
     11        1           0.006456187    0.002466620    0.005619079
     12        1           0.000841554    0.000298717   -0.000102240
     13        1           0.000659211    0.000425123    0.002904915
     14        1           0.001148055   -0.000189253    0.000115385
     15        1          -0.001327024   -0.001219255    0.009028779
     16        1           0.001176400   -0.002960156   -0.000396268
     17        1           0.000748047   -0.003360993    0.002949167
     18        1          -0.000827991   -0.002530964    0.002683251
     19        1          -0.000860010   -0.004408870    0.000122611
     20        1           0.000788660   -0.002169155   -0.001242560
     21        1          -0.000079802    0.000647751    0.003105812
     22        1          -0.005622253   -0.001949747   -0.001109014
     23        1           0.001173020   -0.001154386   -0.001726254
     24        1          -0.003129847   -0.003497805    0.006816881
     25        1          -0.000441194    0.000446888    0.000804336
 -------------------------------------------------------------------
 Cartesian Forces:  Max     0.013937079 RMS     0.004732913
 FormGI is forming the generalized inverse of G from B-inverse, IUseBI=4.

 GradGradGradGradGradGradGradGradGradGradGradGradGradGradGradGradGradGrad
 Berny optimization.
 Internal  Forces:  Max     0.009606389 RMS     0.003173919
 Search for a local minimum.
 Step number   1 out of a maximum of  125
 All quantities printed in internal units (Hartrees-Bohrs-Radians)
 Mixed Optimization -- RFO/linear search
 Second derivative matrix not updated -- analytic derivatives used.
 ITU=  0
     Eigenvalues ---    0.00134   0.00186   0.00278   0.00358   0.00362
     Eigenvalues ---    0.00377   0.00397   0.00468   0.02023   0.02563
     Eigenvalues ---    0.04240   0.04334   0.04620   0.04694   0.04845
     Eigenvalues ---    0.05073   0.05977   0.06228   0.06257   0.06337
     Eigenvalues ---    0.06417   0.06453   0.08273   0.08380   0.09716
     Eigenvalues ---    0.09982   0.10193   0.10463   0.11909   0.12267
     Eigenvalues ---    0.12969   0.13157   0.13242   0.13273   0.16420
     Eigenvalues ---    0.16739   0.17913   0.17923   0.19648   0.20264
     Eigenvalues ---    0.21539   0.22951   0.24287   0.24590   0.25254
     Eigenvalues ---    0.27508   0.28023   0.30707   0.31477   0.32280
     Eigenvalues ---    0.32462   0.32630   0.32758   0.32976   0.33133
     Eigenvalues ---    0.33515   0.33595   0.33605   0.33699   0.33883
     Eigenvalues ---    0.34023   0.35247   0.35896   0.36138   0.38173
     Eigenvalues ---    0.39026   0.39133   0.42204   0.43943
 RFO step:  Lambda=-6.33354187D-03 EMin= 1.34273229D-03
 Linear search not attempted -- first point.
 Iteration  1 RMS(Cart)=  0.05008451 RMS(Int)=  0.00112551
 Iteration  2 RMS(Cart)=  0.00232625 RMS(Int)=  0.00020573
 Iteration  3 RMS(Cart)=  0.00000390 RMS(Int)=  0.00020572
 Iteration  4 RMS(Cart)=  0.00000000 RMS(Int)=  0.00020572
 Variable       Old X    -DE/DX   Delta X   Delta X   Delta X     New X
                                 (Linear)    (Quad)   (Total)
    R1        2.74898   0.00458   0.00000   0.01058   0.01058   2.75956
    R2        2.06885  -0.00016   0.00000   0.00190   0.00190   2.07075
    R3        2.06889   0.00650   0.00000   0.01815   0.01815   2.08704
    R4        2.06810   0.00053   0.00000  -0.00047  -0.00047   2.06764
    R5        2.77705  -0.00284   0.00000  -0.01550  -0.01550   2.76155
    R6        1.92392  -0.00132   0.00000   0.00067   0.00067   1.92459
    R7        2.90596  -0.00921   0.00000  -0.03314  -0.03314   2.87282
    R8        2.07167  -0.00045   0.00000   0.00217   0.00217   2.07383
    R9        2.07171   0.00598   0.00000   0.01907   0.01907   2.09078
   R10        2.69912  -0.00355   0.00000  -0.01729  -0.01729   2.68183
   R11        2.07234   0.00300   0.00000   0.01237   0.01237   2.08471
   R12        2.07167   0.00308   0.00000   0.01029   0.01029   2.08197
   R13        2.70246  -0.00481   0.00000  -0.01682  -0.01682   2.68565
   R14        2.90413  -0.00352   0.00000  -0.01313  -0.01313   2.89099
   R15        2.07030   0.00338   0.00000   0.01141   0.01141   2.08171
   R16        2.07126   0.00335   0.00000   0.01127   0.01127   2.08253
   R17        2.77986  -0.00034   0.00000  -0.01181  -0.01181   2.76805
   R18        2.07212   0.00106   0.00000   0.00138   0.00138   2.07350
   R19        2.07099  -0.00075   0.00000   0.00121   0.00121   2.07221
   R20        2.74915   0.00876   0.00000   0.01662   0.01662   2.76576
   R21        1.93701  -0.00600   0.00000  -0.01305  -0.01305   1.92396
   R22        2.06870  -0.00014   0.00000   0.00177   0.00177   2.07046
   R23        2.06744   0.00517   0.00000   0.01505   0.01505   2.08249
   R24        2.06839   0.00077   0.00000   0.00018   0.00018   2.06857
    A1        1.94147  -0.00529   0.00000  -0.02996  -0.02980   1.91167
    A2        1.94625   0.00857   0.00000   0.04431   0.04417   1.99043
    A3        1.91081   0.00085   0.00000   0.00408   0.00372   1.91454
    A4        1.90414  -0.00314   0.00000  -0.02815  -0.02782   1.87632
    A5        1.87570   0.00098   0.00000   0.00616   0.00611   1.88181
    A6        1.88321  -0.00215   0.00000   0.00315   0.00257   1.88579
    A7        1.94240   0.00607   0.00000   0.01875   0.01873   1.96113
    A8        1.92032  -0.00214   0.00000  -0.02291  -0.02295   1.89738
    A9        1.92163  -0.00345   0.00000  -0.03028  -0.03031   1.89132
   A10        1.95771  -0.00049   0.00000   0.00314   0.00288   1.96059
   A11        1.90646  -0.00189   0.00000  -0.01481  -0.01466   1.89180
   A12        1.91040   0.00564   0.00000   0.05618   0.05618   1.96658
   A13        1.90158   0.00100   0.00000  -0.00327  -0.00339   1.89819
   A14        1.89068  -0.00289   0.00000  -0.01029  -0.01095   1.87973
   A15        1.89602  -0.00143   0.00000  -0.03247  -0.03245   1.86357
   A16        1.92463  -0.00395   0.00000  -0.00825  -0.00829   1.91633
   A17        1.92787   0.00032   0.00000  -0.00418  -0.00420   1.92367
   A18        1.89996   0.00066   0.00000   0.00613   0.00608   1.90604
   A19        1.92123   0.00123   0.00000   0.00215   0.00212   1.92335
   A20        1.89616   0.00322   0.00000   0.02790   0.02787   1.92403
   A21        1.89329  -0.00139   0.00000  -0.02338  -0.02340   1.86989
   A22        1.95160   0.00299   0.00000   0.02343   0.02343   1.97503
   A23        1.90800  -0.00866   0.00000  -0.02902  -0.02892   1.87909
   A24        1.91391   0.00270   0.00000   0.01033   0.01035   1.92425
   A25        1.90893   0.00343   0.00000   0.01989   0.01998   1.92890
   A26        1.93261   0.00256   0.00000   0.00932   0.00936   1.94196
   A27        1.90543   0.00253   0.00000   0.01164   0.01175   1.91718
   A28        1.89477  -0.00245   0.00000  -0.02171  -0.02177   1.87301
   A29        1.99281   0.00589   0.00000   0.02563   0.02524   2.01805
   A30        1.88467  -0.00199   0.00000   0.00116   0.00039   1.88506
   A31        1.92695  -0.00277   0.00000  -0.02653  -0.02652   1.90043
   A32        1.85670   0.00114   0.00000   0.02790   0.02751   1.88421
   A33        1.93357  -0.00371   0.00000  -0.03325  -0.03307   1.90050
   A34        1.86251   0.00140   0.00000   0.00748   0.00772   1.87023
   A35        1.96459   0.00700   0.00000   0.02584   0.02572   1.99032
   A36        1.85990  -0.00159   0.00000   0.00887   0.00878   1.86868
   A37        1.90057  -0.00237   0.00000  -0.00510  -0.00537   1.89519
   A38        1.94147  -0.00562   0.00000  -0.03308  -0.03292   1.90855
   A39        1.95736   0.00961   0.00000   0.05107   0.05099   2.00835
   A40        1.90660   0.00053   0.00000   0.00005  -0.00036   1.90624
   A41        1.90478  -0.00316   0.00000  -0.02607  -0.02566   1.87912
   A42        1.87437   0.00098   0.00000   0.00603   0.00587   1.88025
   A43        1.87628  -0.00257   0.00000   0.00147   0.00090   1.87719
    D1       -1.05204  -0.00128   0.00000  -0.04915  -0.04899  -1.10103
    D2        3.09627   0.00047   0.00000  -0.00758  -0.00743   3.08884
    D3        1.07796  -0.00302   0.00000  -0.07531  -0.07566   1.00231
    D4       -1.05691  -0.00127   0.00000  -0.03374  -0.03409  -1.09100
    D5       -3.12248   0.00023   0.00000  -0.04094  -0.04073   3.11997
    D6        1.02583   0.00198   0.00000   0.00063   0.00083   1.02666
    D7       -3.10104   0.00044   0.00000  -0.00031  -0.00057  -3.10161
    D8        1.07199   0.00079   0.00000   0.01189   0.01176   1.08376
    D9       -1.00192   0.00031   0.00000   0.02686   0.02723  -0.97470
   D10       -0.96692  -0.00054   0.00000  -0.03763  -0.03787  -1.00479
   D11       -3.07707  -0.00019   0.00000  -0.02542  -0.02553  -3.10260
   D12        1.13220  -0.00068   0.00000  -0.01045  -0.01007   1.12213
   D13       -1.24084   0.00336   0.00000   0.05688   0.05681  -1.18403
   D14        0.88670   0.00247   0.00000   0.05127   0.05122   0.93791
   D15        2.96373   0.00138   0.00000   0.02396   0.02390   2.98763
   D16        0.87213   0.00134   0.00000   0.03804   0.03795   0.91008
   D17        2.99966   0.00046   0.00000   0.03244   0.03236   3.03202
   D18       -1.20649  -0.00064   0.00000   0.00512   0.00505  -1.20144
   D19        2.93182  -0.00144   0.00000  -0.00842  -0.00829   2.92353
   D20       -1.22383  -0.00233   0.00000  -0.01402  -0.01388  -1.23771
   D21        0.85320  -0.00342   0.00000  -0.04134  -0.04120   0.81200
   D22        3.10958  -0.00031   0.00000   0.01818   0.01815   3.12773
   D23        0.97813   0.00109   0.00000   0.02747   0.02747   1.00560
   D24       -1.09267   0.00013   0.00000   0.03784   0.03787  -1.05481
   D25       -3.13796  -0.00049   0.00000  -0.02427  -0.02423   3.12100
   D26        1.02341   0.00014   0.00000  -0.02389  -0.02383   0.99957
   D27       -1.05255  -0.00056   0.00000  -0.01559  -0.01569  -1.06824
   D28       -0.92704  -0.00198   0.00000  -0.05990  -0.05996  -0.98700
   D29        1.13392   0.00167   0.00000  -0.00858  -0.00857   1.12535
   D30       -3.11911   0.00069   0.00000  -0.01343  -0.01342  -3.13253
   D31        1.18344  -0.00264   0.00000  -0.06003  -0.06008   1.12336
   D32       -3.03878   0.00102   0.00000  -0.00871  -0.00870  -3.04748
   D33       -1.00863   0.00003   0.00000  -0.01356  -0.01355  -1.02218
   D34       -3.01460  -0.00249   0.00000  -0.07372  -0.07374  -3.08835
   D35       -0.95364   0.00117   0.00000  -0.02240  -0.02236  -0.97600
   D36        1.07651   0.00018   0.00000  -0.02726  -0.02721   1.04930
   D37       -1.24796   0.00148   0.00000   0.03452   0.03470  -1.21327
   D38        0.83428   0.00157   0.00000   0.04882   0.04917   0.88345
   D39        2.95836  -0.00027   0.00000  -0.00078  -0.00125   2.95711
   D40       -1.24259  -0.00018   0.00000   0.01352   0.01323  -1.22936
   D41        0.94062  -0.00069   0.00000  -0.00842  -0.00839   0.93223
   D42        3.02286  -0.00059   0.00000   0.00588   0.00609   3.02895
   D43       -1.02150  -0.00015   0.00000  -0.01965  -0.01945  -1.04094
   D44        1.11725  -0.00144   0.00000  -0.04086  -0.04126   1.07599
   D45       -3.08763   0.00171   0.00000  -0.00704  -0.00691  -3.09454
   D46       -3.07991  -0.00090   0.00000  -0.04305  -0.04281  -3.12271
   D47       -0.94116  -0.00218   0.00000  -0.06427  -0.06462  -1.00578
   D48        1.13714   0.00097   0.00000  -0.03044  -0.03027   1.10687
         Item               Value     Threshold  Converged?
 Maximum Force            0.009606     0.000450     NO 
 RMS     Force            0.003174     0.000300     NO 
 Maximum Displacement     0.167453     0.001800     NO 
 RMS     Displacement     0.051496     0.001200     NO 
 Predicted change in Energy=-3.429436D-03
 GradGradGradGradGradGradGradGradGradGradGradGradGradGradGradGradGradGrad

                          Input orientation:                          
 ---------------------------------------------------------------------
 Center     Atomic      Atomic             Coordinates (Angstroms)
 Number     Number       Type             X           Y           Z
 ---------------------------------------------------------------------
      1          6           0        3.955488    0.857646   -0.220989
      2          7           0        2.742120    0.064291   -0.396484
      3          6           0        2.018671   -0.130282    0.858230
      4          6           0        0.785768   -1.002641    0.684894
      5          8           0       -0.181295   -0.318300   -0.096450
      6          6           0       -1.360708   -1.079467   -0.318643
      7          6           0       -2.320806   -0.218334   -1.141499
      8          7           0       -2.664779    1.080681   -0.558533
      9          6           0       -3.505398    0.994050    0.636423
     10          1           0        3.689018    1.863501    0.122540
     11          1           0        4.667750    0.434930    0.509573
     12          1           0        4.472731    0.957428   -1.179977
     13          1           0        2.999866   -0.850136   -0.763396
     14          1           0        1.705763    0.852378    1.233479
     15          1           0        2.646450   -0.587831    1.646042
     16          1           0        1.058588   -1.956921    0.203305
     17          1           0        0.371695   -1.246110    1.676393
     18          1           0       -1.811520   -1.373465    0.642525
     19          1           0       -1.125028   -2.005678   -0.867326
     20          1           0       -1.860267   -0.038272   -2.121007
     21          1           0       -3.243526   -0.784225   -1.317018
     22          1           0       -1.789787    1.536624   -0.307403
     23          1           0       -4.443614    0.487442    0.384365
     24          1           0       -3.054027    0.458175    1.487024
     25          1           0       -3.753153    2.004516    0.976737
 ---------------------------------------------------------------------
                    Distance matrix (angstroms):
                    1          2          3          4          5
     1  C    0.000000
     2  N    1.460299   0.000000
     3  C    2.427339   1.461350   0.000000
     4  C    3.785289   2.476900   1.520231   0.000000
     5  O    4.302480   2.963571   2.405538   1.419166   0.000000
     6  C    5.658965   4.259981   3.702186   2.370727   1.421182
     7  C    6.434045   5.125246   4.778883   3.688041   2.383197
     8  N    6.632618   5.503987   5.040669   4.218130   2.887623
     9  C    7.511231   6.400222   5.641689   4.733205   3.648154
    10  H    1.095793   2.098371   2.703048   4.118236   4.448319
    11  H    1.104413   2.160177   2.731053   4.143323   4.944477
    12  H    1.094146   2.099183   3.370432   4.573107   4.945854
    13  H    2.030749   1.018447   2.027463   2.650100   3.293547
    14  H    2.678949   2.086120   1.097426   2.142062   2.588472
    15  H    2.699776   2.146236   1.106393   2.134949   3.332426
    16  H    4.061261   2.698022   2.165016   1.103181   2.076593
    17  H    4.568306   3.410702   2.151045   1.101729   2.075958
    18  H    6.243548   4.886954   4.032666   2.623969   2.077761
    19  H    5.867540   4.411496   4.046912   2.658310   2.081376
    20  H    6.183506   4.915940   4.891878   3.975498   2.645031
    21  H    7.464772   6.115172   5.731497   4.504505   3.329284
    22  H    5.785903   4.765909   4.317595   3.750467   2.464243
    23  H    8.429023   7.240412   6.509013   5.445834   4.364375
    24  H    7.225662   6.107214   5.145282   4.185860   3.370889
    25  H    7.884986   6.916559   6.155108   5.452520   4.393789
                    6          7          8          9         10
     6  C    0.000000
     7  C    1.529846   0.000000
     8  N    2.534638   1.464789   0.000000
     9  C    3.132302   2.456449   1.463580   0.000000
    10  H    5.861351   6.484583   6.437966   7.264961   0.000000
    11  H    6.270697   7.210597   7.437999   8.193233   1.774408
    12  H    6.238577   6.894638   7.165573   8.182371   1.769668
    13  H    4.389192   5.371377   5.988174   6.904997   2.936604
    14  H    3.942633   4.795853   4.729172   5.247166   2.487942
    15  H    4.489878   5.707937   5.987757   6.431711   3.068719
    16  H    2.625899   4.031313   4.865273   5.452136   4.639107
    17  H    2.647482   4.030682   4.430466   4.596923   4.805078
    18  H    1.101595   2.185507   2.862417   2.911080   6.403457
    19  H    1.102028   2.167868   3.462917   4.114096   6.255032
    20  H    2.140598   1.097248   2.083416   3.372768   6.280511
    21  H    2.151494   1.096564   2.094785   2.654575   7.559296
    22  H    2.651068   2.014342   1.018116   2.031875   5.505362
    23  H    3.528985   2.707895   2.098867   1.095643   8.252381
    24  H    2.914121   2.811478   2.173323   1.102007   7.021781
    25  H    4.112512   3.388156   2.096445   1.094641   7.492360
                   11         12         13         14         15
    11  H    0.000000
    12  H    1.779218   0.000000
    13  H    2.460424   2.368578   0.000000
    14  H    3.077607   3.673134   2.925879   0.000000
    15  H    2.534414   3.702636   2.449306   1.768983   0.000000
    16  H    4.340599   4.697156   2.434757   3.061413   2.545035
    17  H    4.758514   5.461953   3.607860   2.525780   2.368283
    18  H    6.728217   6.945962   5.039834   4.204151   4.636568
    19  H    6.434959   6.341345   4.284954   4.538199   4.748827
    20  H    7.053997   6.479492   5.111078   4.976184   5.899421
    21  H    8.210424   7.911558   6.268236   5.803359   6.596219
    22  H    6.601588   6.349487   5.370785   3.880900   5.292396
    23  H    9.112376   9.064726   7.649305   6.218442   7.281280
    24  H    7.783430   8.000889   6.589817   4.782811   5.797831
    25  H    8.578663   8.568137   7.535275   5.585079   6.937085
                   16         17         18         19         20
    16  H    0.000000
    17  H    1.773997   0.000000
    18  H    2.961563   2.418993   0.000000
    19  H    2.432449   3.047562   1.774997   0.000000
    20  H    4.195635   4.567359   3.069564   2.446012   0.000000
    21  H    4.711134   4.716320   2.497530   2.486404   1.765290
    22  H    4.536399   4.043644   3.061283   3.647371   2.403003
    23  H    6.023448   5.278422   3.233813   4.335365   3.636887
    24  H    4.939050   3.830929   2.368946   3.915938   3.832676
    25  H    6.280448   5.298156   3.910549   5.137048   4.165575
                   21         22         23         24         25
    21  H    0.000000
    22  H    2.918735   0.000000
    23  H    2.439683   2.936345   0.000000
    24  H    3.072803   2.445674   1.774166   0.000000
    25  H    3.646657   2.392226   1.768941   1.772101   0.000000
 Stoichiometry    C6H16N2O
 Framework group  C1[X(C6H16N2O)]
 Deg. of freedom    69
 Full point group                 C1      NOp   1
 Largest Abelian subgroup         C1      NOp   1
 Largest concise Abelian subgroup C1      NOp   1
                         Standard orientation:                         
 ---------------------------------------------------------------------
 Center     Atomic      Atomic             Coordinates (Angstroms)
 Number     Number       Type             X           Y           Z
 ---------------------------------------------------------------------
      1          6           0       -3.959508   -0.951723   -0.332859
      2          7           0       -2.762774   -0.127176   -0.475760
      3          6           0       -2.095601    0.110783    0.802442
      4          6           0       -0.881651    1.014889    0.660946
      5          8           0        0.134527    0.344546   -0.068476
      6          6           0        1.300107    1.135103   -0.258745
      7          6           0        2.315925    0.287118   -1.026511
      8          7           0        2.672596   -0.990714   -0.405592
      9          6           0        3.462198   -0.858353    0.819591
     10          1           0       -3.678909   -1.943126    0.040166
     11          1           0       -4.711847   -0.536460    0.360877
     12          1           0       -4.435148   -1.083669   -1.309338
     13          1           0       -3.031171    0.772679   -0.870044
     14          1           0       -1.770532   -0.855530    1.208536
     15          1           0       -2.766812    0.564321    1.556023
     16          1           0       -1.161651    1.952063    0.150736
     17          1           0       -0.514371    1.288066    1.663086
     18          1           0        1.703877    1.459286    0.713565
     19          1           0        1.060660    2.044074   -0.833985
     20          1           0        1.899983    0.076195   -2.019716
     21          1           0        3.228718    0.875989   -1.176483
     22          1           0        1.801389   -1.466960   -0.180321
     23          1           0        4.395175   -0.329673    0.594903
     24          1           0        2.962494   -0.320333    1.641327
     25          1           0        3.724362   -1.854960    1.188757
 ---------------------------------------------------------------------
 Rotational constants (GHZ):           3.3287691           0.5684678           0.5509495
 Standard basis: 6-31G(d,p) (6D, 7F)
 There are   215 symmetry adapted cartesian basis functions of A   symmetry.
 There are   215 symmetry adapted basis functions of A   symmetry.
   215 basis functions,   364 primitive gaussians,   215 cartesian basis functions
    37 alpha electrons       37 beta electrons
       nuclear repulsion energy       480.6446204167 Hartrees.
 NAtoms=   25 NActive=   25 NUniq=   25 SFac= 1.00D+00 NAtFMM=   60 NAOKFM=F Big=F
 Integral buffers will be    131072 words long.
 Raffenetti 2 integral format.
 Two-electron integral symmetry is turned on.
 ------------------------------------------------------------------------------
 Polarizable Continuum Model (PCM)
 =================================
 Model                : PCM.
 Atomic radii         : UFF (Universal Force Field).
 Polarization charges : Total charges.
 Charge compensation  : None.
 Solution method      : Matrix inversion.
 Cavity type          : Scaled VdW (van der Waals Surface) (Alpha=1.100).
 Cavity algorithm     : GePol (No added spheres)
                        Default sphere list used, NSphG=   25.
                        Lebedev-Laikov grids with approx.  5.0 points / Ang**2.
                        Smoothing algorithm: York/Karplus (Gamma=1.0000).
                        Polarization charges: spherical gaussians, with
                                              point-specific exponents (IZeta= 3).
                        Self-potential: point-specific (ISelfS= 7).
                        Self-field    : sphere-specific E.n sum rule (ISelfD= 2).
 1st derivatives      : Analytical E(r).r(x)/FMM algorithm (CHGder, D1EAlg=3).
                        Cavity 1st derivative terms included.
 Solvent              : Water, Eps=  78.355300 Eps(inf)=   1.777849
 ------------------------------------------------------------------------------
 One-electron integrals computed using PRISM.
 NBasis=   215 RedAO= T EigKep=  3.71D-03  NBF=   215
 NBsUse=   215 1.00D-06 EigRej= -1.00D+00 NBFU=   215
 Initial guess from the checkpoint file:  "VXPJBVRYAHYMNY-UHFFFAOYSA-N_conf_3_0.chk"
 B after Tr=    -0.000000   -0.000000   -0.000000
         Rot=    0.999440    0.033420   -0.001181   -0.001177 Ang=   3.84 deg.
 ExpMin= 1.61D-01 ExpMax= 5.48D+03 ExpMxC= 8.25D+02 IAcc=2 IRadAn=         4 AccDes= 0.00D+00
 Harris functional with IExCor=  402 and IRadAn=       4 diagonalized for initial guess.
 HarFok:  IExCor=  402 AccDes= 0.00D+00 IRadAn=         4 IDoV= 1 UseB2=F ITyADJ=14
 ICtDFT=  3500011 ScaDFX=  1.000000  1.000000  1.000000  1.000000
 FoFCou: FMM=F IPFlag=           0 FMFlag=      100000 FMFlg1=           0
         NFxFlg=           0 DoJE=T BraDBF=F KetDBF=T FulRan=T
         wScrn=  0.000000 ICntrl=       500 IOpCl=  0 I1Cent=   200000004 NGrid=           0
         NMat0=    1 NMatS0=      1 NMatT0=    0 NMatD0=    1 NMtDS0=    0 NMtDT0=    0
 Petite list used in FoFCou.
 Keep R1 ints in memory in canonical form, NReq=274636103.
 Requested convergence on RMS density matrix=1.00D-08 within  32 cycles.
 Requested convergence on MAX density matrix=1.00D-06.
 Requested convergence on             energy=1.00D-06.
 No special actions if energy rises.
 Inv3:  Mode=1 IEnd=     9817443.
 Iteration    1 A*A^-1 deviation from unit magnitude is 7.33D-15 for    796.
 Iteration    1 A*A^-1 deviation from orthogonality  is 3.61D-15 for   1685   1040.
 Iteration    1 A^-1*A deviation from unit magnitude is 7.55D-15 for    111.
 Iteration    1 A^-1*A deviation from orthogonality  is 3.05D-15 for   1507    989.
 Error on total polarization charges =  0.01018
 SCF Done:  E(RB3LYP) =  -422.990999721     A.U. after    9 cycles
            NFock=  9  Conv=0.10D-07     -V/T= 2.0096
 QCSCF skips out because SCF is already converged.
 D1PCM: PCM CHGder 1st derivatives, ID1Alg=3 FixD1E=F DoIter=F DoCFld=F I1PDM=0.
 Calling FoFJK, ICntrl=      2127 FMM=F ISym2X=0 I1Cent= 0 IOpClX= 0 NMat=1 NMatS=1 NMatT=0.
 ***** Axes restored to original set *****
 -------------------------------------------------------------------
 Center     Atomic                   Forces (Hartrees/Bohr)
 Number     Number              X              Y              Z
 -------------------------------------------------------------------
      1        6           0.000428475   -0.000597770   -0.000469530
      2        7          -0.001066369    0.001123979   -0.000268848
      3        6           0.000808569   -0.001170814   -0.000457598
      4        6          -0.000596114    0.000836378    0.000373155
      5        8           0.000250465   -0.000389752   -0.000856968
      6        6          -0.000386006   -0.000001204    0.000007187
      7        6           0.001127526    0.000666527   -0.000362100
      8        7          -0.000739102   -0.000963744   -0.000096763
      9        6           0.000418587    0.000564401    0.000484316
     10        1          -0.000020841    0.000050383   -0.000116871
     11        1           0.000173476    0.000395710    0.000468933
     12        1           0.000115457   -0.000029160    0.000033290
     13        1           0.000213756    0.000062219   -0.000072381
     14        1           0.000098081   -0.000032297    0.000324737
     15        1          -0.000079451    0.000153226    0.000590932
     16        1           0.000112879   -0.000237356    0.000150180
     17        1           0.000012862   -0.000286787    0.000049957
     18        1           0.000105774    0.000011800    0.000209292
     19        1          -0.000363411   -0.000323749    0.000141705
     20        1           0.000017170   -0.000016447   -0.000003882
     21        1          -0.000014618   -0.000083433   -0.000118781
     22        1          -0.000165205    0.000605256   -0.000314125
     23        1          -0.000071534    0.000112037   -0.000055894
     24        1          -0.000392204   -0.000446248    0.000234344
     25        1           0.000011779   -0.000003154    0.000125715
 -------------------------------------------------------------------
 Cartesian Forces:  Max     0.001170814 RMS     0.000435976

 GradGradGradGradGradGradGradGradGradGradGradGradGradGradGradGradGradGrad
 Berny optimization.
 Using GEDIIS/GDIIS optimizer.
 FormGI is forming the generalized inverse of G from B-inverse, IUseBI=4.
 Internal  Forces:  Max     0.000644109 RMS     0.000233319
 Search for a local minimum.
 Step number   2 out of a maximum of  125
 All quantities printed in internal units (Hartrees-Bohrs-Radians)
 Mixed Optimization -- En-DIIS/RFO-DIIS
 Update second derivatives using D2CorX and points    1    2
 DE= -3.44D-03 DEPred=-3.43D-03 R= 1.00D+00
 TightC=F SS=  1.41D+00  RLast= 2.88D-01 DXNew= 5.0454D-01 8.6402D-01
 Trust test= 1.00D+00 RLast= 2.88D-01 DXMaxT set to 5.05D-01
 ITU=  1  0
 Use linear search instead of GDIIS.
     Eigenvalues ---    0.00134   0.00187   0.00278   0.00358   0.00362
     Eigenvalues ---    0.00376   0.00397   0.00467   0.02030   0.02561
     Eigenvalues ---    0.04241   0.04333   0.04606   0.04694   0.04832
     Eigenvalues ---    0.05072   0.05986   0.06227   0.06258   0.06339
     Eigenvalues ---    0.06410   0.06445   0.08267   0.08379   0.09712
     Eigenvalues ---    0.09984   0.10190   0.10461   0.11913   0.12267
     Eigenvalues ---    0.12958   0.13152   0.13234   0.13261   0.16405
     Eigenvalues ---    0.16727   0.17781   0.17911   0.19675   0.20299
     Eigenvalues ---    0.21530   0.22962   0.24247   0.24627   0.25255
     Eigenvalues ---    0.27665   0.28019   0.30705   0.31522   0.32277
     Eigenvalues ---    0.32466   0.32621   0.32757   0.32976   0.33131
     Eigenvalues ---    0.33531   0.33595   0.33613   0.33699   0.33875
     Eigenvalues ---    0.34013   0.35259   0.35904   0.36133   0.37958
     Eigenvalues ---    0.38885   0.39237   0.42236   0.43945
 RFO step:  Lambda=-3.39865263D-04 EMin= 1.34368735D-03
 Quartic linear search produced a step of  0.09245.
 Iteration  1 RMS(Cart)=  0.04958773 RMS(Int)=  0.00138144
 Iteration  2 RMS(Cart)=  0.00234533 RMS(Int)=  0.00002398
 Iteration  3 RMS(Cart)=  0.00000365 RMS(Int)=  0.00002391
 Iteration  4 RMS(Cart)=  0.00000000 RMS(Int)=  0.00002391
 Variable       Old X    -DE/DX   Delta X   Delta X   Delta X     New X
                                 (Linear)    (Quad)   (Total)
    R1        2.75956   0.00046   0.00098  -0.00006   0.00092   2.76049
    R2        2.07075   0.00001   0.00018   0.00048   0.00066   2.07141
    R3        2.08704   0.00027   0.00168  -0.00064   0.00103   2.08807
    R4        2.06764   0.00002  -0.00004  -0.00035  -0.00039   2.06724
    R5        2.76155   0.00043  -0.00143   0.00107  -0.00036   2.76119
    R6        1.92459   0.00003   0.00006   0.00031   0.00037   1.92496
    R7        2.87282   0.00051  -0.00306   0.00433   0.00126   2.87408
    R8        2.07383   0.00005   0.00020   0.00037   0.00057   2.07440
[...]
    20  H    0.000551
    21  H    0.003551
    22  H    0.049989
    23  H    0.044979
    24  H    0.083005
    25  H    0.751539
 Mulliken charges:
               1
     1  C   -0.181523
     2  N   -0.458036
     3  C   -0.036321
     4  C    0.064632
     5  O   -0.475412
     6  C    0.105140
     7  C   -0.078857
     8  N   -0.226404
     9  C   -0.141011
    10  H    0.115144
    11  H    0.092834
    12  H    0.107398
    13  H    0.206871
    14  H    0.097810
    15  H    0.064595
    16  H    0.038000
    17  H    0.028806
    18  H   -0.007688
    19  H    0.035455
    20  H    0.127423
    21  H    0.098632
    22  H    0.182587
    23  H    0.100836
    24  H    0.057299
    25  H    0.081790
 Sum of Mulliken charges =  -0.00000
 Mulliken charges with hydrogens summed into heavy atoms:
               1
     1  C    0.133852
     2  N   -0.251165
     3  C    0.126084
     4  C    0.131438
     5  O   -0.475412
     6  C    0.132908
     7  C    0.147198
     8  N   -0.043817
     9  C    0.098915
 Electronic spatial extent (au):  <R**2>=           2218.0685
 Charge=              0.0000 electrons
 Dipole moment (field-independent basis, Debye):
    X=              1.3182    Y=             -0.5056    Z=             -0.1594  Tot=              1.4208
 Quadrupole moment (field-independent basis, Debye-Ang):
   XX=            -47.5605   YY=            -58.5341   ZZ=            -60.1309
   XY=             -2.0187   XZ=             -1.8690   YZ=             -1.5189
 Traceless Quadrupole moment (field-independent basis, Debye-Ang):
   XX=              7.8480   YY=             -3.1256   ZZ=             -4.7224
   XY=             -2.0187   XZ=             -1.8690   YZ=             -1.5189
 Octapole moment (field-independent basis, Debye-Ang**2):
  XXX=             -8.1251  YYY=             -6.1636  ZZZ=             -8.5864  XYY=             -3.2275
  XXY=             -4.3520  XXZ=             -4.5396  XZZ=              0.9754  YZZ=             -1.6457
  YYZ=             -1.7170  XYZ=             -1.2530
 Hexadecapole moment (field-independent basis, Debye-Ang**3):
 XXXX=          -2297.2409 YYYY=           -346.9148 ZZZZ=           -264.5742 XXXY=             -2.0333
 XXXZ=             35.0230 YYYX=             -0.8308 YYYZ=             -1.3998 ZZZX=             -4.7238
 ZZZY=             -1.8478 XXYY=           -456.4726 XXZZ=           -441.9968 YYZZ=           -104.1302
 XXYZ=            -12.5777 YYXZ=             -0.4553 ZZXY=             -4.0663
 N-N= 4.798388798703D+02 E-N=-1.942257520810D+03  KE= 4.190995561007D+02
 Evaluate density.
 Using the total density.
 Monte-Carlo method of calculating molar volume:
 based on  0.001 e/bohr**3 density envelope.
 Number of points per bohr**3 =   20 CutOff= 1.00D-04
 Using the CI density.
 There are       393 points.  Will hold       393 in memory.
 LenV=  1073609317 MDV=  1073741824.
 Box volume = 7596.890 fraction occupied=0.196
 Integrated density= 3.0926996472032943D+01 error=-4.3073003527967060D+01
 Molar volume = 1488.449 bohr**3/mol (132.828 cm**3/mol)
 Recommended a0 for SCRF calculation =  4.63 angstrom (  8.74 bohr)
 ******************************Gaussian NBO Version 3.1******************************
             N A T U R A L   A T O M I C   O R B I T A L   A N D
          N A T U R A L   B O N D   O R B I T A L   A N A L Y S I S
 ******************************Gaussian NBO Version 3.1******************************
       /RESON  / : Allow strongly delocalized NBO set

 Analyzing the CI density

 Job title: VXPJBVRYAHYMNY-UHFFFAOYSA-N_conf_3                              

 Storage needed:    140790 in NPA (1073738449 available)
 GSVD:  LWork=       24601 too small for GESVD, short by       17729 words or       17729 for optimal perf.


 NATURAL POPULATIONS:  Natural atomic orbital occupancies 
                                                          
   NAO  Atom  No  lang   Type(AO)    Occupancy
 --------------------------------------------
     1    C    1  S      Cor( 1S)     1.99951
     2    C    1  S      Val( 2S)     1.09461
     3    C    1  S      Ryd( 3S)     0.00119
     4    C    1  S      Ryd( 4S)     0.00003
     5    C    1  px     Val( 2p)     1.02273
     6    C    1  px     Ryd( 3p)     0.00302
     7    C    1  py     Val( 2p)     1.13022
     8    C    1  py     Ryd( 3p)     0.00231
     9    C    1  pz     Val( 2p)     1.24156
    10    C    1  pz     Ryd( 3p)     0.00255
    11    C    1  dxy    Ryd( 3d)     0.00099
    12    C    1  dxz    Ryd( 3d)     0.00119
    13    C    1  dyz    Ryd( 3d)     0.00045
    14    C    1  dx2y2  Ryd( 3d)     0.00112
    15    C    1  dz2    Ryd( 3d)     0.00068

    16    N    2  S      Cor( 1S)     1.99954
    17    N    2  S      Val( 2S)     1.37134
    18    N    2  S      Ryd( 3S)     0.00150
    19    N    2  S      Ryd( 4S)     0.00006
    20    N    2  px     Val( 2p)     1.40586
    21    N    2  px     Ryd( 3p)     0.00391
    22    N    2  py     Val( 2p)     1.40506
    23    N    2  py     Ryd( 3p)     0.00259
    24    N    2  pz     Val( 2p)     1.43563
    25    N    2  pz     Ryd( 3p)     0.00295
    26    N    2  dxy    Ryd( 3d)     0.00089
    27    N    2  dxz    Ryd( 3d)     0.00094
    28    N    2  dyz    Ryd( 3d)     0.00064
    29    N    2  dx2y2  Ryd( 3d)     0.00082
    30    N    2  dz2    Ryd( 3d)     0.00100

    31    C    3  S      Cor( 1S)     1.99933
    32    C    3  S      Val( 2S)     1.02776
    33    C    3  S      Ryd( 3S)     0.00222
    34    C    3  S      Ryd( 4S)     0.00004
    35    C    3  px     Val( 2p)     1.07311
    36    C    3  px     Ryd( 3p)     0.00301
    37    C    3  py     Val( 2p)     1.18888
    38    C    3  py     Ryd( 3p)     0.00291
    39    C    3  pz     Val( 2p)     0.98761
    40    C    3  pz     Ryd( 3p)     0.00308
    41    C    3  dxy    Ryd( 3d)     0.00076
    42    C    3  dxz    Ryd( 3d)     0.00126
    43    C    3  dyz    Ryd( 3d)     0.00100
    44    C    3  dx2y2  Ryd( 3d)     0.00065
    45    C    3  dz2    Ryd( 3d)     0.00112

    46    C    4  S      Cor( 1S)     1.99929
    47    C    4  S      Val( 2S)     1.01804
    48    C    4  S      Ryd( 3S)     0.00311
    49    C    4  S      Ryd( 4S)     0.00005
    50    C    4  px     Val( 2p)     0.91035
    51    C    4  px     Ryd( 3p)     0.00422
    52    C    4  py     Val( 2p)     1.09723
    53    C    4  py     Ryd( 3p)     0.00455
    54    C    4  pz     Val( 2p)     1.10021
    55    C    4  pz     Ryd( 3p)     0.00438
    56    C    4  dxy    Ryd( 3d)     0.00143
    57    C    4  dxz    Ryd( 3d)     0.00136
    58    C    4  dyz    Ryd( 3d)     0.00098
    59    C    4  dx2y2  Ryd( 3d)     0.00104
    60    C    4  dz2    Ryd( 3d)     0.00136

    61    O    5  S      Cor( 1S)     1.99978
    62    O    5  S      Val( 2S)     1.64389
    63    O    5  S      Ryd( 3S)     0.00364
    64    O    5  S      Ryd( 4S)     0.00031
    65    O    5  px     Val( 2p)     1.43322
    66    O    5  px     Ryd( 3p)     0.00151
    67    O    5  py     Val( 2p)     1.73251
    68    O    5  py     Ryd( 3p)     0.00224
    69    O    5  pz     Val( 2p)     1.78852
    70    O    5  pz     Ryd( 3p)     0.00267
    71    O    5  dxy    Ryd( 3d)     0.00112
    72    O    5  dxz    Ryd( 3d)     0.00052
    73    O    5  dyz    Ryd( 3d)     0.00128
    74    O    5  dx2y2  Ryd( 3d)     0.00110
    75    O    5  dz2    Ryd( 3d)     0.00079

    76    C    6  S      Cor( 1S)     1.99928
    77    C    6  S      Val( 2S)     1.03177
    78    C    6  S      Ryd( 3S)     0.00299
    79    C    6  S      Ryd( 4S)     0.00004
    80    C    6  px     Val( 2p)     0.82800
    81    C    6  px     Ryd( 3p)     0.00506
    82    C    6  py     Val( 2p)     1.07842
    83    C    6  py     Ryd( 3p)     0.00726
    84    C    6  pz     Val( 2p)     1.18050
    85    C    6  pz     Ryd( 3p)     0.00170
    86    C    6  dxy    Ryd( 3d)     0.00170
    87    C    6  dxz    Ryd( 3d)     0.00122
    88    C    6  dyz    Ryd( 3d)     0.00106
    89    C    6  dx2y2  Ryd( 3d)     0.00135
    90    C    6  dz2    Ryd( 3d)     0.00089

    91    C    7  S      Cor( 1S)     1.99930
    92    C    7  S      Val( 2S)     1.04345
    93    C    7  S      Ryd( 3S)     0.00153
    94    C    7  S      Ryd( 4S)     0.00004
    95    C    7  px     Val( 2p)     1.18198
    96    C    7  px     Ryd( 3p)     0.00430
    97    C    7  py     Val( 2p)     0.94672
    98    C    7  py     Ryd( 3p)     0.00490
    99    C    7  pz     Val( 2p)     1.15044
   100    C    7  pz     Ryd( 3p)     0.00351
   101    C    7  dxy    Ryd( 3d)     0.00105
   102    C    7  dxz    Ryd( 3d)     0.00063
   103    C    7  dyz    Ryd( 3d)     0.00092
   104    C    7  dx2y2  Ryd( 3d)     0.00095
   105    C    7  dz2    Ryd( 3d)     0.00086

   106    N    8  S      Cor( 1S)     1.99940
   107    N    8  S      Val( 2S)     1.37555
   108    N    8  S      Ryd( 3S)     0.00282
   109    N    8  S      Ryd( 4S)     0.00010
   110    N    8  px     Val( 2p)     1.34286
   111    N    8  px     Ryd( 3p)     0.00278
   112    N    8  py     Val( 2p)     1.29904
   113    N    8  py     Ryd( 3p)     0.00060
   114    N    8  pz     Val( 2p)     1.24563
   115    N    8  pz     Ryd( 3p)     0.00105
   116    N    8  dxy    Ryd( 3d)     0.00065
   117    N    8  dxz    Ryd( 3d)     0.00053
   118    N    8  dyz    Ryd( 3d)     0.00054
   119    N    8  dx2y2  Ryd( 3d)     0.00066
   120    N    8  dz2    Ryd( 3d)     0.00087

   121    C    9  S      Cor( 1S)     1.99944
   122    C    9  S      Val( 2S)     1.13520
   123    C    9  S      Ryd( 3S)     0.00181
   124    C    9  S      Ryd( 4S)     0.00003
   125    C    9  px     Val( 2p)     1.13143
   126    C    9  px     Ryd( 3p)     0.00465
   127    C    9  py     Val( 2p)     1.26016
   128    C    9  py     Ryd( 3p)     0.00278
   129    C    9  pz     Val( 2p)     1.01505
   130    C    9  pz     Ryd( 3p)     0.00861
   131    C    9  dxy    Ryd( 3d)     0.00060
   132    C    9  dxz    Ryd( 3d)     0.00116
   133    C    9  dyz    Ryd( 3d)     0.00068
   134    C    9  dx2y2  Ryd( 3d)     0.00067
   135    C    9  dz2    Ryd( 3d)     0.00075

   136    H   10  S      Val( 1S)     0.77324
   137    H   10  S      Ryd( 2S)     0.00256
   138    H   10  px     Ryd( 2p)     0.00008
   139    H   10  py     Ryd( 2p)     0.00033
   140    H   10  pz     Ryd( 2p)     0.00011

   141    H   11  S      Val( 1S)     0.79054
   142    H   11  S      Ryd( 2S)     0.00555
   143    H   11  px     Ryd( 2p)     0.00019
   144    H   11  py     Ryd( 2p)     0.00012
   145    H   11  pz     Ryd( 2p)     0.00022

   146    H   12  S      Val( 1S)     0.76694
   147    H   12  S      Ryd( 2S)     0.00300
   148    H   12  px     Ryd( 2p)     0.00013
   149    H   12  py     Ryd( 2p)     0.00008
   150    H   12  pz     Ryd( 2p)     0.00031

   151    H   13  S      Val( 1S)     0.62239
   152    H   13  S      Ryd( 2S)     0.02140
   153    H   13  px     Ryd( 2p)     0.00040
   154    H   13  py     Ryd( 2p)     0.00058
   155    H   13  pz     Ryd( 2p)     0.00040

   156    H   14  S      Val( 1S)     0.76578
   157    H   14  S      Ryd( 2S)     0.00690
   158    H   14  px     Ryd( 2p)     0.00013
   159    H   14  py     Ryd( 2p)     0.00031
   160    H   14  pz     Ryd( 2p)     0.00010

   161    H   15  S      Val( 1S)     0.79207
   162    H   15  S      Ryd( 2S)     0.01087
   163    H   15  px     Ryd( 2p)     0.00021
   164    H   15  py     Ryd( 2p)     0.00014
   165    H   15  pz     Ryd( 2p)     0.00022

   166    H   16  S      Val( 1S)     0.81086
   167    H   16  S      Ryd( 2S)     0.01744
   168    H   16  px     Ryd( 2p)     0.00011
   169    H   16  py     Ryd( 2p)     0.00033
   170    H   16  pz     Ryd( 2p)     0.00017

   171    H   17  S      Val( 1S)     0.81314
   172    H   17  S      Ryd( 2S)     0.01901
   173    H   17  px     Ryd( 2p)     0.00014
   174    H   17  py     Ryd( 2p)     0.00012
   175    H   17  pz     Ryd( 2p)     0.00033

   176    H   18  S      Val( 1S)     0.82529
   177    H   18  S      Ryd( 2S)     0.03933
   178    H   18  px     Ryd( 2p)     0.00010
   179    H   18  py     Ryd( 2p)     0.00013
   180    H   18  pz     Ryd( 2p)     0.00037

   181    H   19  S      Val( 1S)     0.81059
   182    H   19  S      Ryd( 2S)     0.02001
   183    H   19  px     Ryd( 2p)     0.00012
   184    H   19  py     Ryd( 2p)     0.00032
   185    H   19  pz     Ryd( 2p)     0.00015

   186    H   20  S      Val( 1S)     0.73291
   187    H   20  S      Ryd( 2S)     0.00989
   188    H   20  px     Ryd( 2p)     0.00014
   189    H   20  py     Ryd( 2p)     0.00006
   190    H   20  pz     Ryd( 2p)     0.00034

   191    H   21  S      Val( 1S)     0.76034
   192    H   21  S      Ryd( 2S)     0.01845
   193    H   21  px     Ryd( 2p)     0.00029
   194    H   21  py     Ryd( 2p)     0.00019
   195    H   21  pz     Ryd( 2p)     0.00009

   196    H   22  S      Val( 1S)     0.61580
   197    H   22  S      Ryd( 2S)     0.04989
   198    H   22  px     Ryd( 2p)     0.00059
   199    H   22  py     Ryd( 2p)     0.00032
   200    H   22  pz     Ryd( 2p)     0.00030

   201    H   23  S      Val( 1S)     0.76080
   202    H   23  S      Ryd( 2S)     0.01849
   203    H   23  px     Ryd( 2p)     0.00030
   204    H   23  py     Ryd( 2p)     0.00011
   205    H   23  pz     Ryd( 2p)     0.00009

   206    H   24  S      Val( 1S)     0.76996
   207    H   24  S      Ryd( 2S)     0.04083
   208    H   24  px     Ryd( 2p)     0.00012
   209    H   24  py     Ryd( 2p)     0.00017
   210    H   24  pz     Ryd( 2p)     0.00024

   211    H   25  S      Val( 1S)     0.76955
   212    H   25  S      Ryd( 2S)     0.01973
   213    H   25  px     Ryd( 2p)     0.00008
   214    H   25  py     Ryd( 2p)     0.00029
   215    H   25  pz     Ryd( 2p)     0.00011


 Summary of Natural Population Analysis:                  
                                                          
                                       Natural Population 
                Natural  -----------------------------------------------
    Atom  No    Charge         Core      Valence    Rydberg      Total
 -----------------------------------------------------------------------
      C    1   -0.50214      1.99951     4.48912    0.01352     6.50214
      N    2   -0.63272      1.99954     5.61789    0.01529     7.63272
      C    3   -0.29273      1.99933     4.27736    0.01604     6.29273
      C    4   -0.14758      1.99929     4.12583    0.02246     6.14758
      O    5   -0.61309      1.99978     6.59814    0.01518     8.61309
      C    6   -0.14122      1.99928     4.11868    0.02327     6.14122
      C    7   -0.34058      1.99930     4.32259    0.01869     6.34058
      N    8   -0.27307      1.99940     5.26308    0.01060     7.27307
      C    9   -0.56304      1.99944     4.54185    0.02175     6.56304
      H   10    0.22368      0.00000     0.77324    0.00308     0.77632
      H   11    0.20338      0.00000     0.79054    0.00609     0.79662
      H   12    0.22954      0.00000     0.76694    0.00352     0.77046
      H   13    0.35484      0.00000     0.62239    0.02277     0.64516
      H   14    0.22677      0.00000     0.76578    0.00745     0.77323
      H   15    0.19649      0.00000     0.79207    0.01144     0.80351
      H   16    0.17110      0.00000     0.81086    0.01805     0.82890
      H   17    0.16726      0.00000     0.81314    0.01961     0.83274
      H   18    0.13478      0.00000     0.82529    0.03993     0.86522
      H   19    0.16881      0.00000     0.81059    0.02059     0.83119
      H   20    0.25666      0.00000     0.73291    0.01043     0.74334
      H   21    0.22065      0.00000     0.76034    0.01901     0.77935
      H   22    0.33310      0.00000     0.61580    0.05110     0.66690
      H   23    0.22021      0.00000     0.76080    0.01899     0.77979
      H   24    0.18868      0.00000     0.76996    0.04135     0.81132
      H   25    0.21024      0.00000     0.76955    0.02021     0.78976
 =======================================================================
   * Total *    0.00000     17.99486    55.53472    0.47042    74.00000

                                 Natural Population      
 --------------------------------------------------------
   Core                      17.99486 ( 99.9715% of  18)
   Valence                   55.53472 ( 99.1691% of  56)
   Natural Minimal Basis     73.52958 ( 99.3643% of  74)
   Natural Rydberg Basis      0.47042 (  0.6357% of  74)
 --------------------------------------------------------

    Atom  No          Natural Electron Configuration
 ----------------------------------------------------------------------------
      C    1      [core]2S( 1.09)2p( 3.39)3p( 0.01)
      N    2      [core]2S( 1.37)2p( 4.25)3p( 0.01)
      C    3      [core]2S( 1.03)2p( 3.25)3p( 0.01)
      C    4      [core]2S( 1.02)2p( 3.11)3p( 0.01)3d( 0.01)
      O    5      [core]2S( 1.64)2p( 4.95)3p( 0.01)
      C    6      [core]2S( 1.03)2p( 3.09)3p( 0.01)3d( 0.01)
      C    7      [core]2S( 1.04)2p( 3.28)3p( 0.01)
      N    8      [core]2S( 1.38)2p( 3.89)
      C    9      [core]2S( 1.14)2p( 3.41)3p( 0.02)
      H   10            1S( 0.77)
      H   11            1S( 0.79)2S( 0.01)
      H   12            1S( 0.77)
      H   13            1S( 0.62)2S( 0.02)
      H   14            1S( 0.77)2S( 0.01)
      H   15            1S( 0.79)2S( 0.01)
      H   16            1S( 0.81)2S( 0.02)
      H   17            1S( 0.81)2S( 0.02)
      H   18            1S( 0.83)2S( 0.04)
      H   19            1S( 0.81)2S( 0.02)
      H   20            1S( 0.73)2S( 0.01)
      H   21            1S( 0.76)2S( 0.02)
      H   22            1S( 0.62)2S( 0.05)
      H   23            1S( 0.76)2S( 0.02)
      H   24            1S( 0.77)2S( 0.04)
      H   25            1S( 0.77)2S( 0.02)


 NBO analysis skipped by request.
 1\1\GINC-CN33\SP\RB3LYP TD-FC\6-31G(d,p)\C6H16N2O1\QDUEZ\09-Jul-2024\0
 \\# TD(NStates=10, Root=1) B3LYP/6-31G** SCRF=(Solvent=water) volume p
 op=NPA density=current Geom=AllCheck Guess=Read\\VXPJBVRYAHYMNY-UHFFFA
 OYSA-N_conf_3\\0,1\C,0,3.9743634632,0.8528623027,-0.2253771028\N,0,2.7
 61244976,0.0581188823,-0.4032357663\C,0,2.0310221413,-0.131041935,0.84
 8454713\C,0,0.7941816095,-0.999058364,0.6756441161\O,0,-0.1550934464,-
 0.3331445107,-0.1424371662\C,0,-1.3580068563,-1.0703001406,-0.31849500
 34\C,0,-2.3164593089,-0.2054265619,-1.1379685017\N,0,-2.6838424264,1.0
 802830928,-0.5412932986\C,0,-3.540140638,0.9747034456,0.6406545189\H,0
 ,3.7041386251,1.8769892944,0.0567041516\H,0,4.6582974275,0.4663532678,
 0.5515177546\H,0,4.5248141701,0.9004137042,-1.1695532562\H,0,3.0246295
 518,-0.8583675973,-0.7614136658\H,0,1.7207567209,0.8543396478,1.219711
 0627\H,0,2.6516552987,-0.5855050633,1.6444124671\H,0,1.0696974935,-1.9
 697038732,0.2281987467\H,0,0.3625127134,-1.2129628337,1.6666354166\H,0
 ,-1.7919717642,-1.3289232117,0.6605149799\H,0,-1.1603959939,-2.0170301
 884,-0.8475540275\H,0,-1.8470617118,-0.0087949399,-2.1100204584\H,0,-3
 .2314641462,-0.7784334572,-1.33195389\H,0,-1.8213285226,1.5547128851,-
 0.281941426\H,0,-4.4970817153,0.5225999029,0.3556855909\H,0,-3.1268438
 668,0.3790377946,1.4712845346\H,0,-3.7476237943,1.9782784567,1.0246301
 41\\Version=EM64L-G16RevA.03\State=1-A\HF=-422.9911959\RMSD=3.637e-09\
 Dipole=-0.5099443,0.2127563,-0.0846427\Quadrupole=5.6244368,-2.196571,
 -3.4278658,-1.7479516,1.7815781,1.0052874\PG=C01 [X(C6H16N2O1)]\\@


 CHINESE FORTUNE COOKIE OF JAN 1 1967 SAY....
 ALL THINGS ARE DIFFICULT BEFORE THEY ARE EASY.
 WE LEARN SO LITTLE AND FORGET SO MUCH.
 YOU WILL OVERCOME OBSTACLES TO ACHIEVE SUCCESS.
 AH SO.
 Job cpu time:       0 days  0 hours 59 minutes  2.3 seconds.
 Elapsed time:       0 days  0 hours 17 minutes 47.3 seconds.
 File lengths (MBytes):  RWF=    438 Int=      0 D2E=      0 Chk=     27 Scr=      1
 Normal termination of Gaussian 16 at Tue Jul  9 19:46:25 2024.
