 Entering Gaussian System, Link 0=g16
 Initial command:
 /opt/sw/arch/manual/gaussian/G16_A03/g16/l1.exe "/scratch/1380912/Gau-89665.inp" -scrdir="/scratch/1380912/"
 Entering Link 1 = /opt/sw/arch/manual/gaussian/G16_A03/g16/l1.exe PID=     89666.
  
 Copyright (c) 1988,1990,1992,1993,1995,1998,2003,2009,2016,
            Gaussian, Inc.  All Rights Reserved.
  
 This is part of the Gaussian(R) 16 program.  It is based on
 the Gaussian(R) 09 system (copyright 2009, Gaussian, Inc.),
 the Gaussian(R) 03 system (copyright 2003, Gaussian, Inc.),
 the Gaussian(R) 98 system (copyright 1998, Gaussian, Inc.),
 the Gaussian(R) 94 system (copyright 1995, Gaussian, Inc.),
 the Gaussian 92(TM) system (copyright 1992, Gaussian, Inc.),
 the Gaussian 90(TM) system (copyright 1990, Gaussian, Inc.),
 the Gaussian 88(TM) system (copyright 1988, Gaussian, Inc.),
 the Gaussian 86(TM) system (copyright 1986, Carnegie Mellon
 University), and the Gaussian 82(TM) system (copyright 1983,
 Carnegie Mellon University). Gaussian is a federally registered
 trademark of Gaussian, Inc.
  
 This software contains proprietary and confidential information,
 including trade secrets, belonging to Gaussian, Inc.
  
 This software is provided under written license and may be
 used, copied, transmitted, or stored only in accord with that
 written license.
  
 The following legend is applicable only to US Government
 contracts under FAR:
  
                    RESTRICTED RIGHTS LEGEND
  
 Use, reproduction and disclosure by the US Government is
 subject to restrictions as set forth in subparagraphs (a)
 and (c) of the Commercial Computer Software - Restricted
 Rights clause in FAR 52.227-19.
  
 Gaussian, Inc.
 340 Quinnipiac St., Bldg. 40, Wallingford CT 06492
  
  
 ---------------------------------------------------------------
 Warning -- This program may not be used in any manner that
 competes with the business of Gaussian, Inc. or will provide
 assistance to any competitor of Gaussian, Inc.  The licensee
 of this program is prohibited from giving any competitor of
 Gaussian, Inc. access to this program.  By using this program,
 the user acknowledges that Gaussian, Inc. is engaged in the
 business of creating and licensing software in the field of
 computational chemistry and represents and warrants to the
 licensee that it is not a competitor of Gaussian, Inc. and that
 it will not use this program in any manner prohibited above.
 ---------------------------------------------------------------
  

 Cite this work as:
 Gaussian 16, Revision A.03,
 M. J. Frisch, G. W. Trucks, H. B. Schlegel, G. E. Scuseria, 
 M. A. Robb, J. R. Cheeseman, G. Scalmani, V. Barone, 
 G. A. Petersson, H. Nakatsuji, X. Li, M. Caricato, A. V. Marenich, 
 J. Bloino, B. G. Janesko, R. Gomperts, B. Mennucci, H. P. Hratchian, 
 J. V. Ortiz, A. F. Izmaylov, J. L. Sonnenberg, D. Williams-Young, 
 F. Ding, F. Lipparini, F. Egidi, J. Goings, B. Peng, A. Petrone, 
 T. Henderson, D. Ranasinghe, V. G. Zakrzewski, J. Gao, N. Rega, 
 G. Zheng, W. Liang, M. Hada, M. Ehara, K. Toyota, R. Fukuda, 
 J. Hasegawa, M. Ishida, T. Nakajima, Y. Honda, O. Kitao, H. Nakai, 
 T. Vreven, K. Throssell, J. A. Montgomery, Jr., J. E. Peralta, 
 F. Ogliaro, M. J. Bearpark, J. J. Heyd, E. N. Brothers, K. N. Kudin, 
 V. N. Staroverov, T. A. Keith, R. Kobayashi, J. Normand, 
 K. Raghavachari, A. P. Rendell, J. C. Burant, S. S. Iyengar, 
 J. Tomasi, M. Cossi, J. M. Millam, M. Klene, C. Adamo, R. Cammi, 
 J. W. Ochterski, R. L. Martin, K. Morokuma, O. Farkas, 
 J. B. Foresman, and D. J. Fox, Gaussian, Inc., Wallingford CT, 2016.
 
 ******************************************
 Gaussian 16:  ES64L-G16RevA.03 25-Dec-2016
                18-Jul-2024 
 ******************************************
 %nprocshared=9
 Will use up to    9 processors via shared memory.
 %mem=18GB
 %Chk=KMKWGXGSGPYISJ-UHFFFAOYSA-N_conf_4_0.chk
 -------------------------------------------------------
 # opt=CalcFc B3LYP/6-31G** SCRF=(Solvent=water) scf=xqc
 -------------------------------------------------------
 1/10=4,18=20,19=15,26=3,38=1/1,3;
 2/9=110,12=2,17=6,18=5,40=1/2;
 3/5=1,6=6,7=101,11=2,25=1,30=1,70=2201,71=2,72=1,74=-5,140=1/1,2,3;
 4//1;
 5/5=2,8=3,13=1,38=5,53=1/2,8;
 8/6=4,10=90,11=11/1;
 11/6=1,8=1,9=11,15=111,16=1/1,2,10;
 10/6=1,13=1/2;
 6/7=2,8=2,9=2,10=2,28=1/1;
 7/10=1,18=20,25=1/1,2,3,16;
 1/10=4,18=20,19=15,26=3/3(2);
 2/9=110/2;
 99//99;
 2/9=110/2;
 3/5=1,6=6,7=101,11=2,25=1,30=1,70=2205,71=1,72=1,74=-5/1,2,3;
 4/5=5,16=3,69=1/1;
 5/5=2,8=3,13=1,38=5,53=1/2,8;
 7//1,2,3,16;
 1/18=20,19=15,26=3/3(-5);
 2/9=110/2;
 6/7=2,8=2,9=2,10=2,19=2,28=1/1;
 99/9=1/99;
 ----------------------------------
 KMKWGXGSGPYISJ-UHFFFAOYSA-N_conf_4
 ----------------------------------
 Symbolic Z-matrix:
 Charge =  0 Multiplicity = 1
 C                     0.10215   1.11612  -2.61588 
 C                    -0.07868  -0.28108  -1.96508 
 C                     1.28379  -0.64563  -1.32636 
 C                     2.11511  -1.66133  -1.82988 
 C                     3.34289  -1.9532   -1.22694 
 C                     3.7702   -1.22228  -0.12247 
 O                     4.97062  -1.57569   0.44602 
 C                     5.88868  -0.57298   0.66326 
 C                     6.64545  -0.66038   1.8301 
 C                     7.62632   0.29779   2.1006 
 C                     7.83933   1.36681   1.22622 
 N                     8.90019   2.2539    1.44104 
 C                     7.12906   1.40021   0.02283 
 C                     6.14761   0.44419  -0.2563 
 C                     2.95805  -0.22566   0.4118 
 C                     1.73155   0.06391  -0.191 
 C                    -1.21334  -0.33599  -0.91296 
 C                    -1.42497  -1.5229   -0.17971 
 C                    -2.44206  -1.6181    0.77317 
 C                    -3.28069  -0.53314   1.00064 
 O                    -4.24653  -0.67571   1.97089 
 C                    -5.51666  -0.24878   1.65824 
 C                    -6.16269  -0.60761   0.47523 
 C                    -7.46489  -0.16061   0.23326 
 C                    -8.15078   0.59431   1.18902 
 N                    -9.40425   1.14003   0.88894 
 C                    -7.47921   0.97391   2.3544 
 C                    -6.17753   0.53056   2.60463 
 C                    -3.07988   0.65929   0.30708 
 C                    -2.05964   0.75305  -0.6464 
 C                    -0.50168  -1.23131  -3.11759 
 H                     0.3273    1.89466  -1.87742 
 H                     0.92801   1.11067  -3.33815 
 H                    -0.79767   1.42745  -3.15943 
 H                     1.83081  -2.25026  -2.69708 
 H                     3.96825  -2.74723  -1.62543 
 H                     6.48148  -1.47942   2.5249 
 H                     8.22509   0.19859   3.00123 
 H                     9.15401   2.36504   2.41777 
 H                     8.78898   3.14527   0.96858 
 H                     7.33943   2.16926  -0.71518 
 H                     5.61146   0.49179  -1.19941 
 H                     3.26682   0.32432   1.29599 
 H                     1.11419   0.84787   0.24454 
 H                    -0.78562  -2.38867  -0.34131 
 H                    -2.57951  -2.5397    1.33114 
 H                    -5.66103  -1.22369  -0.2653 
 H                    -7.94166  -0.41437  -0.70936 
 H                    -9.95041   1.38551   1.70791 
 H                    -9.93772   0.59452   0.22105 
 H                    -7.96661   1.61756   3.08196 
 H                    -5.6756    0.81053   3.52615 
 H                    -3.7102    1.52335   0.50103 
 H                    -1.94803   1.69893  -1.16781 
 H                     0.20487  -1.19096  -3.95561 
 H                    -1.48694  -0.95599  -3.51403 
 H                    -0.56727  -2.27673  -2.7935 
 

 GradGradGradGradGradGradGradGradGradGradGradGradGradGradGradGradGradGrad
 Berny optimization.
 Initialization pass.
                           ----------------------------
                           !    Initial Parameters    !
                           ! (Angstroms and Degrees)  !
 --------------------------                            --------------------------
 ! Name  Definition              Value          Derivative Info.                !
 --------------------------------------------------------------------------------
 ! R1    R(1,2)                  1.5519         calculate D2E/DX2 analytically  !
 ! R2    R(1,32)                 1.0964         calculate D2E/DX2 analytically  !
 ! R3    R(1,33)                 1.0972         calculate D2E/DX2 analytically  !
 ! R4    R(1,34)                 1.0964         calculate D2E/DX2 analytically  !
 ! R5    R(2,3)                  1.5483         calculate D2E/DX2 analytically  !
 ! R6    R(2,17)                 1.5484         calculate D2E/DX2 analytically  !
 ! R7    R(2,31)                 1.5525         calculate D2E/DX2 analytically  !
 ! R8    R(3,4)                  1.4058         calculate D2E/DX2 analytically  !
 ! R9    R(3,16)                 1.4117         calculate D2E/DX2 analytically  !
 ! R10   R(4,5)                  1.3986         calculate D2E/DX2 analytically  !
 ! R11   R(4,35)                 1.0861         calculate D2E/DX2 analytically  !
 ! R12   R(5,6)                  1.3917         calculate D2E/DX2 analytically  !
 ! R13   R(5,36)                 1.0864         calculate D2E/DX2 analytically  !
 ! R14   R(6,7)                  1.3744         calculate D2E/DX2 analytically  !
 ! R15   R(6,15)                 1.3922         calculate D2E/DX2 analytically  !
 ! R16   R(7,8)                  1.3768         calculate D2E/DX2 analytically  !
 ! R17   R(8,9)                  1.3935         calculate D2E/DX2 analytically  !
 ! R18   R(8,14)                 1.3954         calculate D2E/DX2 analytically  !
 ! R19   R(9,10)                 1.3976         calculate D2E/DX2 analytically  !
 ! R20   R(9,37)                 1.0865         calculate D2E/DX2 analytically  !
 ! R21   R(10,11)                1.3974         calculate D2E/DX2 analytically  !
 ! R22   R(10,38)                1.086          calculate D2E/DX2 analytically  !
 ! R23   R(11,12)                1.3995         calculate D2E/DX2 analytically  !
 ! R24   R(11,13)                1.3978         calculate D2E/DX2 analytically  !
 ! R25   R(12,39)                1.0153         calculate D2E/DX2 analytically  !
 ! R26   R(12,40)                1.015          calculate D2E/DX2 analytically  !
 ! R27   R(13,14)                1.3983         calculate D2E/DX2 analytically  !
 ! R28   R(13,41)                1.0864         calculate D2E/DX2 analytically  !
 ! R29   R(14,42)                1.0859         calculate D2E/DX2 analytically  !
 ! R30   R(15,16)                1.397          calculate D2E/DX2 analytically  !
 ! R31   R(15,43)                1.0861         calculate D2E/DX2 analytically  !
 ! R32   R(16,44)                1.0888         calculate D2E/DX2 analytically  !
 ! R33   R(17,18)                1.4111         calculate D2E/DX2 analytically  !
 ! R34   R(17,30)                1.4047         calculate D2E/DX2 analytically  !
 ! R35   R(18,19)                1.397          calculate D2E/DX2 analytically  !
 ! R36   R(18,45)                1.0883         calculate D2E/DX2 analytically  !
 ! R37   R(19,20)                1.39           calculate D2E/DX2 analytically  !
 ! R38   R(19,46)                1.0861         calculate D2E/DX2 analytically  !
 ! R39   R(20,21)                1.3764         calculate D2E/DX2 analytically  !
 ! R40   R(20,29)                1.394          calculate D2E/DX2 analytically  !
 ! R41   R(21,22)                1.376          calculate D2E/DX2 analytically  !
 ! R42   R(22,23)                1.3949         calculate D2E/DX2 analytically  !
 ! R43   R(22,28)                1.3928         calculate D2E/DX2 analytically  !
 ! R44   R(23,24)                1.3979         calculate D2E/DX2 analytically  !
 ! R45   R(23,47)                1.0861         calculate D2E/DX2 analytically  !
 ! R46   R(24,25)                1.3978         calculate D2E/DX2 analytically  !
 ! R47   R(24,48)                1.0864         calculate D2E/DX2 analytically  !
 ! R48   R(25,26)                1.3997         calculate D2E/DX2 analytically  !
 ! R49   R(25,27)                1.3976         calculate D2E/DX2 analytically  !
 ! R50   R(26,49)                1.0145         calculate D2E/DX2 analytically  !
 ! R51   R(26,50)                1.014          calculate D2E/DX2 analytically  !
 ! R52   R(27,28)                1.3977         calculate D2E/DX2 analytically  !
 ! R53   R(27,51)                1.0868         calculate D2E/DX2 analytically  !
 ! R54   R(28,52)                1.0861         calculate D2E/DX2 analytically  !
 ! R55   R(29,30)                1.3996         calculate D2E/DX2 analytically  !
 ! R56   R(29,53)                1.087          calculate D2E/DX2 analytically  !
 ! R57   R(30,54)                1.0858         calculate D2E/DX2 analytically  !
 ! R58   R(31,55)                1.0969         calculate D2E/DX2 analytically  !
 ! R59   R(31,56)                1.0971         calculate D2E/DX2 analytically  !
 ! R60   R(31,57)                1.0965         calculate D2E/DX2 analytically  !
 ! A1    A(2,1,32)             112.3812         calculate D2E/DX2 analytically  !
 ! A2    A(2,1,33)             111.0571         calculate D2E/DX2 analytically  !
 ! A3    A(2,1,34)             111.588          calculate D2E/DX2 analytically  !
 ! A4    A(32,1,33)            106.9982         calculate D2E/DX2 analytically  !
 ! A5    A(32,1,34)            107.5064         calculate D2E/DX2 analytically  !
 ! A6    A(33,1,34)            107.027          calculate D2E/DX2 analytically  !
 ! A7    A(1,2,3)              106.4063         calculate D2E/DX2 analytically  !
 ! A8    A(1,2,17)             113.72           calculate D2E/DX2 analytically  !
 ! A9    A(1,2,31)             105.753          calculate D2E/DX2 analytically  !
 ! A10   A(3,2,17)             110.8666         calculate D2E/DX2 analytically  !
 ! A11   A(3,2,31)             113.6978         calculate D2E/DX2 analytically  !
 ! A12   A(17,2,31)            106.4436         calculate D2E/DX2 analytically  !
 ! A13   A(2,3,4)              122.87           calculate D2E/DX2 analytically  !
 ! A14   A(2,3,16)             119.5078         calculate D2E/DX2 analytically  !
 ! A15   A(4,3,16)             117.6218         calculate D2E/DX2 analytically  !
 ! A16   A(3,4,5)              121.0293         calculate D2E/DX2 analytically  !
 ! A17   A(3,4,35)             121.5301         calculate D2E/DX2 analytically  !
 ! A18   A(5,4,35)             117.4405         calculate D2E/DX2 analytically  !
 ! A19   A(4,5,6)              120.1373         calculate D2E/DX2 analytically  !
 ! A20   A(4,5,36)             119.979          calculate D2E/DX2 analytically  !
 ! A21   A(6,5,36)             119.8822         calculate D2E/DX2 analytically  !
 ! A22   A(5,6,7)              117.4763         calculate D2E/DX2 analytically  !
 ! A23   A(5,6,15)             120.0943         calculate D2E/DX2 analytically  !
 ! A24   A(7,6,15)             122.3325         calculate D2E/DX2 analytically  !
 ! A25   A(6,7,8)              117.413          calculate D2E/DX2 analytically  !
 ! A26   A(7,8,9)              116.6533         calculate D2E/DX2 analytically  !
 ! A27   A(7,8,14)             123.4102         calculate D2E/DX2 analytically  !
 ! A28   A(9,8,14)             119.784          calculate D2E/DX2 analytically  !
 ! A29   A(8,9,10)             120.0133         calculate D2E/DX2 analytically  !
 ! A30   A(8,9,37)             120.0527         calculate D2E/DX2 analytically  !
 ! A31   A(10,9,37)            119.9303         calculate D2E/DX2 analytically  !
 ! A32   A(9,10,11)            120.6861         calculate D2E/DX2 analytically  !
 ! A33   A(9,10,38)            119.0            calculate D2E/DX2 analytically  !
 ! A34   A(11,10,38)           120.3137         calculate D2E/DX2 analytically  !
 ! A35   A(10,11,12)           120.2926         calculate D2E/DX2 analytically  !
 ! A36   A(10,11,13)           118.6546         calculate D2E/DX2 analytically  !
 ! A37   A(12,11,13)           120.1467         calculate D2E/DX2 analytically  !
 ! A38   A(11,12,39)           113.9901         calculate D2E/DX2 analytically  !
 ! A39   A(11,12,40)           113.7144         calculate D2E/DX2 analytically  !
 ! A40   A(39,12,40)           112.2768         calculate D2E/DX2 analytically  !
 ! A41   A(11,13,14)           120.8106         calculate D2E/DX2 analytically  !
 ! A42   A(11,13,41)           120.2216         calculate D2E/DX2 analytically  !
 ! A43   A(14,13,41)           118.966          calculate D2E/DX2 analytically  !
 ! A44   A(8,14,13)            119.8066         calculate D2E/DX2 analytically  !
 ! A45   A(8,14,42)            120.8414         calculate D2E/DX2 analytically  !
 ! A46   A(13,14,42)           119.3379         calculate D2E/DX2 analytically  !
 ! A47   A(6,15,16)            119.6666         calculate D2E/DX2 analytically  !
 ! A48   A(6,15,43)            120.6015         calculate D2E/DX2 analytically  !
 ! A49   A(16,15,43)           119.7309         calculate D2E/DX2 analytically  !
 ! A50   A(3,16,15)            121.4208         calculate D2E/DX2 analytically  !
 ! A51   A(3,16,44)            120.2495         calculate D2E/DX2 analytically  !
 ! A52   A(15,16,44)           118.3248         calculate D2E/DX2 analytically  !
 ! A53   A(2,17,18)            119.5264         calculate D2E/DX2 analytically  !
 ! A54   A(2,17,30)            122.8839         calculate D2E/DX2 analytically  !
 ! A55   A(18,17,30)           117.5897         calculate D2E/DX2 analytically  !
 ! A56   A(17,18,19)           121.3965         calculate D2E/DX2 analytically  !
 ! A57   A(17,18,45)           120.2556         calculate D2E/DX2 analytically  !
 ! A58   A(19,18,45)           118.3456         calculate D2E/DX2 analytically  !
 ! A59   A(18,19,20)           119.8471         calculate D2E/DX2 analytically  !
 ! A60   A(18,19,46)           120.0261         calculate D2E/DX2 analytically  !
 ! A61   A(20,19,46)           120.1261         calculate D2E/DX2 analytically  !
 ! A62   A(19,20,21)           117.2484         calculate D2E/DX2 analytically  !
 ! A63   A(19,20,29)           119.9563         calculate D2E/DX2 analytically  !
 ! A64   A(21,20,29)           122.7108         calculate D2E/DX2 analytically  !
 ! A65   A(20,21,22)           117.092          calculate D2E/DX2 analytically  !
 ! A66   A(21,22,23)           122.7122         calculate D2E/DX2 analytically  !
 ! A67   A(21,22,28)           117.2087         calculate D2E/DX2 analytically  !
 ! A68   A(23,22,28)           120.0326         calculate D2E/DX2 analytically  !
 ! A69   A(22,23,24)           119.735          calculate D2E/DX2 analytically  !
 ! A70   A(22,23,47)           120.6823         calculate D2E/DX2 analytically  !
 ! A71   A(24,23,47)           119.5802         calculate D2E/DX2 analytically  !
 ! A72   A(23,24,25)           120.7607         calculate D2E/DX2 analytically  !
 ! A73   A(23,24,48)           118.9676         calculate D2E/DX2 analytically  !
 ! A74   A(25,24,48)           120.2705         calculate D2E/DX2 analytically  !
 ! A75   A(24,25,26)           120.2266         calculate D2E/DX2 analytically  !
 ! A76   A(24,25,27)           118.755          calculate D2E/DX2 analytically  !
 ! A77   A(26,25,27)           120.2128         calculate D2E/DX2 analytically  !
 ! A78   A(25,26,49)           113.7895         calculate D2E/DX2 analytically  !
 ! A79   A(25,26,50)           113.7416         calculate D2E/DX2 analytically  !
 ! A80   A(49,26,50)           112.2496         calculate D2E/DX2 analytically  !
 ! A81   A(25,27,28)           120.7068         calculate D2E/DX2 analytically  !
 ! A82   A(25,27,51)           120.237          calculate D2E/DX2 analytically  !
 ! A83   A(28,27,51)           119.0558         calculate D2E/DX2 analytically  !
 ! A84   A(22,28,27)           119.8513         calculate D2E/DX2 analytically  !
 ! A85   A(22,28,52)           120.1004         calculate D2E/DX2 analytically  !
 ! A86   A(27,28,52)           120.0363         calculate D2E/DX2 analytically  !
 ! A87   A(20,29,30)           120.0836         calculate D2E/DX2 analytically  !
 ! A88   A(20,29,53)           120.5087         calculate D2E/DX2 analytically  !
 ! A89   A(30,29,53)           119.4076         calculate D2E/DX2 analytically  !
 ! A90   A(17,30,29)           121.0986         calculate D2E/DX2 analytically  !
 ! A91   A(17,30,54)           121.4868         calculate D2E/DX2 analytically  !
 ! A92   A(29,30,54)           117.4144         calculate D2E/DX2 analytically  !
 ! A93   A(2,31,55)            111.6634         calculate D2E/DX2 analytically  !
 ! A94   A(2,31,56)            111.0598         calculate D2E/DX2 analytically  !
 ! A95   A(2,31,57)            112.3616         calculate D2E/DX2 analytically  !
 ! A96   A(55,31,56)           107.0477         calculate D2E/DX2 analytically  !
 ! A97   A(55,31,57)           107.4232         calculate D2E/DX2 analytically  !
 ! A98   A(56,31,57)           106.9987         calculate D2E/DX2 analytically  !
 ! D1    D(32,1,2,3)           -63.2739         calculate D2E/DX2 analytically  !
 ! D2    D(32,1,2,17)           59.0663         calculate D2E/DX2 analytically  !
 ! D3    D(32,1,2,31)          175.5026         calculate D2E/DX2 analytically  !
 ! D4    D(33,1,2,3)            56.5491         calculate D2E/DX2 analytically  !
 ! D5    D(33,1,2,17)          178.8893         calculate D2E/DX2 analytically  !
 ! D6    D(33,1,2,31)          -64.6744         calculate D2E/DX2 analytically  !
 ! D7    D(34,1,2,3)           175.8757         calculate D2E/DX2 analytically  !
 ! D8    D(34,1,2,17)          -61.7841         calculate D2E/DX2 analytically  !
 ! D9    D(34,1,2,31)           54.6522         calculate D2E/DX2 analytically  !
 ! D10   D(1,2,3,4)           -110.1905         calculate D2E/DX2 analytically  !
 ! D11   D(1,2,3,16)            69.5775         calculate D2E/DX2 analytically  !
 ! D12   D(17,2,3,4)           125.6835         calculate D2E/DX2 analytically  !
 ! D13   D(17,2,3,16)          -54.5485         calculate D2E/DX2 analytically  !
 ! D14   D(31,2,3,4)             5.8057         calculate D2E/DX2 analytically  !
 ! D15   D(31,2,3,16)         -174.4263         calculate D2E/DX2 analytically  !
 ! D16   D(1,2,17,18)         -175.7329         calculate D2E/DX2 analytically  !
 ! D17   D(1,2,17,30)            4.3513         calculate D2E/DX2 analytically  !
 ! D18   D(3,2,17,18)          -55.8878         calculate D2E/DX2 analytically  !
 ! D19   D(3,2,17,30)          124.1964         calculate D2E/DX2 analytically  !
 ! D20   D(31,2,17,18)          68.2353         calculate D2E/DX2 analytically  !
 ! D21   D(31,2,17,30)        -111.6805         calculate D2E/DX2 analytically  !
 ! D22   D(1,2,31,55)           53.7594         calculate D2E/DX2 analytically  !
 ! D23   D(1,2,31,56)          -65.6454         calculate D2E/DX2 analytically  !
 ! D24   D(1,2,31,57)          174.5424         calculate D2E/DX2 analytically  !
 ! D25   D(3,2,31,55)          -62.6197         calculate D2E/DX2 analytically  !
 ! D26   D(3,2,31,56)          177.9755         calculate D2E/DX2 analytically  !
 ! D27   D(3,2,31,57)           58.1633         calculate D2E/DX2 analytically  !
 ! D28   D(17,2,31,55)         175.0277         calculate D2E/DX2 analytically  !
 ! D29   D(17,2,31,56)          55.6229         calculate D2E/DX2 analytically  !
 ! D30   D(17,2,31,57)         -64.1893         calculate D2E/DX2 analytically  !
 ! D31   D(2,3,4,5)            179.6071         calculate D2E/DX2 analytically  !
 ! D32   D(2,3,4,35)            -0.5449         calculate D2E/DX2 analytically  !
 ! D33   D(16,3,4,5)            -0.165          calculate D2E/DX2 analytically  !
 ! D34   D(16,3,4,35)          179.683          calculate D2E/DX2 analytically  !
 ! D35   D(2,3,16,15)         -179.5642         calculate D2E/DX2 analytically  !
 ! D36   D(2,3,16,44)            1.2475         calculate D2E/DX2 analytically  !
 ! D37   D(4,3,16,15)            0.2159         calculate D2E/DX2 analytically  !
 ! D38   D(4,3,16,44)         -178.9724         calculate D2E/DX2 analytically  !
 ! D39   D(3,4,5,6)             -0.9427         calculate D2E/DX2 analytically  !
 ! D40   D(3,4,5,36)           179.5037         calculate D2E/DX2 analytically  !
 ! D41   D(35,4,5,6)           179.2033         calculate D2E/DX2 analytically  !
 ! D42   D(35,4,5,36)           -0.3503         calculate D2E/DX2 analytically  !
 ! D43   D(4,5,6,7)            178.5134         calculate D2E/DX2 analytically  !
 ! D44   D(4,5,6,15)             2.0098         calculate D2E/DX2 analytically  !
 ! D45   D(36,5,6,7)            -1.9325         calculate D2E/DX2 analytically  !
 ! D46   D(36,5,6,15)         -178.4362         calculate D2E/DX2 analytically  !
 ! D47   D(5,6,7,8)            129.4175         calculate D2E/DX2 analytically  !
 ! D48   D(15,6,7,8)           -54.1627         calculate D2E/DX2 analytically  !
 ! D49   D(5,6,15,16)           -1.951          calculate D2E/DX2 analytically  !
 ! D50   D(5,6,15,43)          177.6873         calculate D2E/DX2 analytically  !
 ! D51   D(7,6,15,16)         -178.2797         calculate D2E/DX2 analytically  !
 ! D52   D(7,6,15,43)            1.3587         calculate D2E/DX2 analytically  !
 ! D53   D(6,7,8,9)            142.5959         calculate D2E/DX2 analytically  !
 ! D54   D(6,7,8,14)           -41.9132         calculate D2E/DX2 analytically  !
 ! D55   D(7,8,9,10)           178.0563         calculate D2E/DX2 analytically  !
 ! D56   D(7,8,9,37)            -1.2505         calculate D2E/DX2 analytically  !
 ! D57   D(14,8,9,10)            2.3928         calculate D2E/DX2 analytically  !
 ! D58   D(14,8,9,37)         -176.914          calculate D2E/DX2 analytically  !
 ! D59   D(7,8,14,13)         -177.8568         calculate D2E/DX2 analytically  !
 ! D60   D(7,8,14,42)            0.7613         calculate D2E/DX2 analytically  !
 ! D61   D(9,8,14,13)           -2.5004         calculate D2E/DX2 analytically  !
 ! D62   D(9,8,14,42)          176.1177         calculate D2E/DX2 analytically  !
 ! D63   D(8,9,10,11)            1.485          calculate D2E/DX2 analytically  !
 ! D64   D(8,9,10,38)         -178.3342         calculate D2E/DX2 analytically  !
 ! D65   D(37,9,10,11)        -179.2073         calculate D2E/DX2 analytically  !
 ! D66   D(37,9,10,38)           0.9735         calculate D2E/DX2 analytically  !
 ! D67   D(9,10,11,12)        -174.2816         calculate D2E/DX2 analytically  !
 ! D68   D(9,10,11,13)          -5.1583         calculate D2E/DX2 analytically  !
 ! D69   D(38,10,11,12)          5.5353         calculate D2E/DX2 analytically  !
 ! D70   D(38,10,11,13)        174.6586         calculate D2E/DX2 analytically  !
 ! D71   D(10,11,12,39)        -29.7053         calculate D2E/DX2 analytically  !
 ! D72   D(10,11,12,40)       -160.1472         calculate D2E/DX2 analytically  !
 ! D73   D(13,11,12,39)        161.3342         calculate D2E/DX2 analytically  !
 ! D74   D(13,11,12,40)         30.8923         calculate D2E/DX2 analytically  !
 ! D75   D(10,11,13,14)          5.0507         calculate D2E/DX2 analytically  !
 ! D76   D(10,11,13,41)       -174.4596         calculate D2E/DX2 analytically  !
 ! D77   D(12,11,13,14)        174.1903         calculate D2E/DX2 analytically  !
 ! D78   D(12,11,13,41)         -5.32           calculate D2E/DX2 analytically  !
 ! D79   D(11,13,14,8)          -1.2638         calculate D2E/DX2 analytically  !
 ! D80   D(11,13,14,42)       -179.9028         calculate D2E/DX2 analytically  !
 ! D81   D(41,13,14,8)         178.2525         calculate D2E/DX2 analytically  !
 ! D82   D(41,13,14,42)         -0.3865         calculate D2E/DX2 analytically  !
 ! D83   D(6,15,16,3)            0.8374         calculate D2E/DX2 analytically  !
 ! D84   D(6,15,16,44)        -179.9591         calculate D2E/DX2 analytically  !
 ! D85   D(43,15,16,3)        -178.8041         calculate D2E/DX2 analytically  !
 ! D86   D(43,15,16,44)          0.3993         calculate D2E/DX2 analytically  !
 ! D87   D(2,17,18,19)        -179.622          calculate D2E/DX2 analytically  !
 ! D88   D(2,17,18,45)           0.942          calculate D2E/DX2 analytically  !
 ! D89   D(30,17,18,19)          0.2982         calculate D2E/DX2 analytically  !
 ! D90   D(30,17,18,45)       -179.1378         calculate D2E/DX2 analytically  !
 ! D91   D(2,17,30,29)         179.567          calculate D2E/DX2 analytically  !
 ! D92   D(2,17,30,54)          -0.5799         calculate D2E/DX2 analytically  !
 ! D93   D(18,17,30,29)         -0.3503         calculate D2E/DX2 analytically  !
 ! D94   D(18,17,30,54)        179.5028         calculate D2E/DX2 analytically  !
 ! D95   D(17,18,19,20)          0.8358         calculate D2E/DX2 analytically  !
 ! D96   D(17,18,19,46)       -179.4566         calculate D2E/DX2 analytically  !
 ! D97   D(45,18,19,20)       -179.7177         calculate D2E/DX2 analytically  !
 ! D98   D(45,18,19,46)         -0.0101         calculate D2E/DX2 analytically  !
 ! D99   D(18,19,20,21)       -178.6724         calculate D2E/DX2 analytically  !
 ! D100  D(18,19,20,29)         -1.9235         calculate D2E/DX2 analytically  !
 ! D101  D(46,19,20,21)          1.6202         calculate D2E/DX2 analytically  !
 ! D102  D(46,19,20,29)        178.3692         calculate D2E/DX2 analytically  !
 ! D103  D(19,20,21,22)       -134.3631         calculate D2E/DX2 analytically  !
 ! D104  D(29,20,21,22)         48.9846         calculate D2E/DX2 analytically  !
 ! D105  D(19,20,29,30)          1.8756         calculate D2E/DX2 analytically  !
 ! D106  D(19,20,29,53)       -178.0301         calculate D2E/DX2 analytically  !
 ! D107  D(21,20,29,30)        178.4404         calculate D2E/DX2 analytically  !
 ! D108  D(21,20,29,53)         -1.4653         calculate D2E/DX2 analytically  !
 ! D109  D(20,21,22,23)         48.9099         calculate D2E/DX2 analytically  !
 ! D110  D(20,21,22,28)       -133.5736         calculate D2E/DX2 analytically  !
 ! D111  D(21,22,23,24)        178.673          calculate D2E/DX2 analytically  !
 ! D112  D(21,22,23,47)         -1.905          calculate D2E/DX2 analytically  !
 ! D113  D(28,22,23,24)          1.2242         calculate D2E/DX2 analytically  !
 ! D114  D(28,22,23,47)       -179.3537         calculate D2E/DX2 analytically  !
 ! D115  D(21,22,28,27)       -178.8493         calculate D2E/DX2 analytically  !
 ! D116  D(21,22,28,52)          2.4083         calculate D2E/DX2 analytically  !
 ! D117  D(23,22,28,27)         -1.2629         calculate D2E/DX2 analytically  !
 ! D118  D(23,22,28,52)        179.9947         calculate D2E/DX2 analytically  !
 ! D119  D(22,23,24,25)         -2.8158         calculate D2E/DX2 analytically  !
 ! D120  D(22,23,24,48)        177.5814         calculate D2E/DX2 analytically  !
 ! D121  D(47,23,24,25)        177.7558         calculate D2E/DX2 analytically  !
 ! D122  D(47,23,24,48)         -1.847          calculate D2E/DX2 analytically  !
 ! D123  D(23,24,25,26)        174.113          calculate D2E/DX2 analytically  !
 ! D124  D(23,24,25,27)          4.3679         calculate D2E/DX2 analytically  !
 ! D125  D(48,24,25,26)         -6.2894         calculate D2E/DX2 analytically  !
 ! D126  D(48,24,25,27)       -176.0344         calculate D2E/DX2 analytically  !
 ! D127  D(24,25,26,49)        160.1678         calculate D2E/DX2 analytically  !
 ! D128  D(24,25,26,50)         29.9307         calculate D2E/DX2 analytically  !
 ! D129  D(27,25,26,49)        -30.2375         calculate D2E/DX2 analytically  !
 ! D130  D(27,25,26,50)       -160.4746         calculate D2E/DX2 analytically  !
 ! D131  D(24,25,27,28)         -4.4032         calculate D2E/DX2 analytically  !
 ! D132  D(24,25,27,51)        175.8148         calculate D2E/DX2 analytically  !
 ! D133  D(26,25,27,28)       -174.1497         calculate D2E/DX2 analytically  !
 ! D134  D(26,25,27,51)          6.0683         calculate D2E/DX2 analytically  !
 ! D135  D(25,27,28,22)          2.8918         calculate D2E/DX2 analytically  !
 ! D136  D(25,27,28,52)       -178.3649         calculate D2E/DX2 analytically  !
 ! D137  D(51,27,28,22)       -177.3237         calculate D2E/DX2 analytically  !
 ! D138  D(51,27,28,52)          1.4195         calculate D2E/DX2 analytically  !
 ! D139  D(20,29,30,17)         -0.7287         calculate D2E/DX2 analytically  !
 ! D140  D(20,29,30,54)        179.4124         calculate D2E/DX2 analytically  !
 ! D141  D(53,29,30,17)        179.178          calculate D2E/DX2 analytically  !
 ! D142  D(53,29,30,54)         -0.6808         calculate D2E/DX2 analytically  !
 --------------------------------------------------------------------------------
 Trust Radius=3.00D-01 FncErr=1.00D-07 GrdErr=1.00D-06 EigMax=2.50D+02 EigMin=1.00D-04
 Number of steps in this run=    310 maximum allowed number of steps=    342.
 GradGradGradGradGradGradGradGradGradGradGradGradGradGradGradGradGradGrad

 Stoichiometry    C27H26N2O2
 Framework group  C1[X(C27H26N2O2)]
 Deg. of freedom   165
 Full point group                 C1      NOp   1
 Largest Abelian subgroup         C1      NOp   1
 Largest concise Abelian subgroup C1      NOp   1
                         Standard orientation:                         
 ---------------------------------------------------------------------
 Center     Atomic      Atomic             Coordinates (Angstroms)
 Number     Number       Type             X           Y           Z
 ---------------------------------------------------------------------
      1          6           0        0.158039    2.135292    2.198614
      2          6           0       -0.052582    2.073533    0.662306
      3          6           0        1.285734    1.584243    0.056748
      4          6           0        2.127289    2.413976   -0.704568
      5          6           0        3.332608    1.933775   -1.226852
      6          6           0        3.727307    0.622098   -0.981069
      7          8           0        4.906067    0.198033   -1.546562
      8          6           0        5.822331   -0.412072   -0.719711
      9          6           0        6.539382   -1.477860   -1.259867
     10          6           0        7.516391   -2.121914   -0.495648
     11          6           0        7.764657   -1.729101    0.822225
     12          7           0        8.823031   -2.296824    1.540572
     13          6           0        7.094971   -0.610226    1.325601
     14          6           0        6.117692    0.040985    0.566671
     15          6           0        2.903784   -0.229277   -0.249473
     16          6           0        1.699722    0.251635    0.270604
     17          6           0       -1.221876    1.155055    0.230352
     18          6           0       -1.464780    0.937626   -1.142569
     19          6           0       -2.513508    0.122866   -1.575986
     20          6           0       -3.352794   -0.478170   -0.645103
     21          8           0       -4.351157   -1.292315   -1.129859
     22          6           0       -5.607651   -1.130663   -0.592875
     23          6           0       -6.216134    0.117515   -0.460875
     24          6           0       -7.506905    0.207125    0.068243
     25          6           0       -8.219683   -0.944720    0.413232
     26          7           0       -9.459236   -0.840560    1.054872
     27          6           0       -7.584969   -2.185282    0.306682
     28          6           0       -6.294965   -2.283905   -0.222201
     29          6           0       -3.121989   -0.299203    0.717955
     30          6           0       -2.070093    0.516571    1.150210
     31          6           0       -0.442685    3.513300    0.232151
     32          1           0        0.363142    1.149197    2.631858
     33          1           0        1.007396    2.780977    2.454424
     34          1           0       -0.721360    2.543868    2.710236
     35          1           0        1.868468    3.448154   -0.912369
     36          1           0        3.966149    2.587613   -1.819710
     37          1           0        6.347576   -1.801779   -2.279059
     38          1           0        8.084306   -2.932826   -0.942172
     39          1           0        9.044912   -3.248630    1.265612
     40          1           0        8.732864   -2.198085    2.546684
     41          1           0        7.334295   -0.228612    2.314257
     42          1           0        5.613460    0.909077    0.980608
     43          1           0        3.186259   -1.264955   -0.084601
     44          1           0        1.072890   -0.432792    0.839867
     45          1           0       -0.825550    1.399695   -1.892449
     46          1           0       -2.674876   -0.036210   -2.638166
     47          1           0       -5.693810    1.022738   -0.756422
     48          1           0       -7.953594    1.188303    0.202453
     49          1           0      -10.030837   -1.675283    0.978831
     50          1           0       -9.973449    0.000019    0.815597
     51          1           0       -8.092449   -3.089474    0.632405
     52          1           0       -5.822281   -3.256325   -0.324592
     53          1           0       -3.753270   -0.790751    1.453736
     54          1           0       -1.935624    0.633342    2.221330
     55          1           0        0.291549    4.251776    0.576658
     56          1           0       -1.412577    3.802206    0.655869
     57          1           0       -0.525197    3.615517   -0.856419
 ---------------------------------------------------------------------
 Rotational constants (GHZ):           0.3662806           0.0418815           0.0400970
 Standard basis: 6-31G(d,p) (6D, 7F)
 There are   595 symmetry adapted cartesian basis functions of A   symmetry.
 There are   595 symmetry adapted basis functions of A   symmetry.
   595 basis functions,  1050 primitive gaussians,   595 cartesian basis functions
   109 alpha electrons      109 beta electrons
       nuclear repulsion energy      2666.1794486221 Hartrees.
 NAtoms=   57 NActive=   57 NUniq=   57 SFac= 1.00D+00 NAtFMM=   60 NAOKFM=F Big=F
 Integral buffers will be    131072 words long.
 Raffenetti 2 integral format.
 Two-electron integral symmetry is turned on.
 Force inversion solution in PCM.
 ------------------------------------------------------------------------------
 Polarizable Continuum Model (PCM)
 =================================
 Model                : PCM.
 Atomic radii         : UFF (Universal Force Field).
 Polarization charges : Total charges.
 Charge compensation  : None.
 Solution method      : Matrix inversion.
 Cavity type          : Scaled VdW (van der Waals Surface) (Alpha=1.100).
 Cavity algorithm     : GePol (No added spheres)
                        Default sphere list used, NSphG=   57.
                        Lebedev-Laikov grids with approx.  5.0 points / Ang**2.
                        Smoothing algorithm: York/Karplus (Gamma=1.0000).
                        Polarization charges: spherical gaussians, with
                                              point-specific exponents (IZeta= 3).
                        Self-potential: point-specific (ISelfS= 7).
                        Self-field    : sphere-specific E.n sum rule (ISelfD= 2).
 1st derivatives      : Analytical E(r).r(x)/FMM algorithm (CHGder, D1EAlg=3).
                        Cavity 1st derivative terms included.
 2nd derivatives      : Analytical E(r).r(xy)/FMM algorithm (CHGder, D2EAlg=3).
                        Cavity 2nd derivative terms included.
 Solvent              : Water, Eps=  78.355300 Eps(inf)=   1.777849
 ------------------------------------------------------------------------------
 One-electron integrals computed using PRISM.
 NBasis=   595 RedAO= T EigKep=  4.07D-04  NBF=   595
 NBsUse=   595 1.00D-06 EigRej= -1.00D+00 NBFU=   595
 ExpMin= 1.61D-01 ExpMax= 5.48D+03 ExpMxC= 8.25D+02 IAcc=3 IRadAn=         5 AccDes= 0.00D+00
 Harris functional with IExCor=  402 and IRadAn=       5 diagonalized for initial guess.
 HarFok:  IExCor=  402 AccDes= 0.00D+00 IRadAn=         5 IDoV= 1 UseB2=F ITyADJ=14
 ICtDFT=  3500011 ScaDFX=  1.000000  1.000000  1.000000  1.000000
 FoFCou: FMM=F IPFlag=           0 FMFlag=      100000 FMFlg1=           0
         NFxFlg=           0 DoJE=T BraDBF=F KetDBF=T FulRan=T
         wScrn=  0.000000 ICntrl=       500 IOpCl=  0 I1Cent=   200000004 NGrid=           0
         NMat0=    1 NMatS0=      1 NMatT0=    0 NMatD0=    1 NMtDS0=    0 NMtDT0=    0
 Petite list used in FoFCou.
 Requested convergence on RMS density matrix=1.00D-08 within  32 cycles.
 Requested convergence on MAX density matrix=1.00D-06.
 Requested convergence on             energy=1.00D-06.
 No special actions if energy rises.
 Inv3:  Mode=1 IEnd=    49134627.
 Iteration    1 A*A^-1 deviation from unit magnitude is 2.89D-15 for    490.
 Iteration    1 A*A^-1 deviation from orthogonality  is 2.44D-15 for   2031   1390.
 Iteration    1 A^-1*A deviation from unit magnitude is 3.11D-15 for    955.
 Iteration    1 A^-1*A deviation from orthogonality  is 2.66D-15 for   2293   1019.
 Error on total polarization charges =  0.01329
 SCF Done:  E(RB3LYP) =  -1304.52400990     A.U. after   12 cycles
            NFock= 12  Conv=0.68D-08     -V/T= 2.0096
 QCSCF skips out because SCF is already converged.
 DoSCS=F DFT=T ScalE2(SS,OS)=  1.000000  1.000000
 Range of M.O.s used for correlation:     1   595
 NBasis=   595 NAE=   109 NBE=   109 NFC=     0 NFV=     0
 NROrb=    595 NOA=   109 NOB=   109 NVA=   486 NVB=   486
 Symmetrizing basis deriv contribution to polar:
 IMax=3 JMax=2 DiffMx= 0.00D+00
 G2DrvN: will do    58 centers at a time, making    1 passes.
 Calling FoFCou, ICntrl=  3107 FMM=F I1Cent=   0 AccDes= 0.00D+00.
 NEqPCM:  Using equilibrium solvation (IEInf=0, Eps=  78.3553, EpsInf=   1.7778)
 G2PCM: DoFxE=T DoFxN=T DoGrad=T DoDP/DQ/DG/TGxP=FFFF NFrqRd=   0 IEInf=0 SqF1=F DoCFld=F IF1Alg=4.
 End of G2Drv F.D. properties file   721 does not exist.
 End of G2Drv F.D. properties file   722 does not exist.
 End of G2Drv F.D. properties file   788 does not exist.
          IDoAtm=11111111111111111111111111111111111111111111111111
          IDoAtm=1111111
 NEqPCM:  Using equilibrium solvation (IEInf=0, Eps=  78.3553, EpsInf=   1.7778)
          Differentiating once with respect to nuclear coordinates.
 CalDSu exits because no D1Ps are significant.
          There are   174 degrees of freedom in the 1st order CPHF.  IDoFFX=6 NUNeed=     0.
    168 vectors produced by pass  0 Test12= 5.30D-14 1.00D-09 XBig12= 1.69D-01 1.63D-01.
 AX will form   168 AO Fock derivatives at one time.
    168 vectors produced by pass  1 Test12= 5.30D-14 1.00D-09 XBig12= 2.97D-02 2.88D-02.
    168 vectors produced by pass  2 Test12= 5.30D-14 1.00D-09 XBig12= 2.42D-04 1.83D-03.
    168 vectors produced by pass  3 Test12= 5.30D-14 1.00D-09 XBig12= 7.56D-07 7.26D-05.
    168 vectors produced by pass  4 Test12= 5.30D-14 1.00D-09 XBig12= 1.07D-09 2.35D-06.
    115 vectors produced by pass  5 Test12= 5.30D-14 1.00D-09 XBig12= 1.22D-12 7.02D-08.
     21 vectors produced by pass  6 Test12= 5.30D-14 1.00D-09 XBig12= 1.36D-15 3.12D-09.
 InvSVY:  IOpt=1 It=  1 EMax= 5.55D-16
 Solved reduced A of dimension   976 with   174 vectors.
 End of Minotr F.D. properties file   721 does not exist.
 End of Minotr F.D. properties file   722 does not exist.
 End of Minotr F.D. properties file   788 does not exist.

 **********************************************************************

            Population analysis using the SCF density.

 **********************************************************************

 Orbital symmetries:
       Occupied  (A) (A) (A) (A) (A) (A) (A) (A) (A) (A) (A) (A)
                 (A) (A) (A) (A) (A) (A) (A) (A) (A) (A) (A) (A)
                 (A) (A) (A) (A) (A) (A) (A) (A) (A) (A) (A) (A)
                 (A) (A) (A) (A) (A) (A) (A) (A) (A) (A) (A) (A)
                 (A) (A) (A) (A) (A) (A) (A) (A) (A) (A) (A) (A)
                 (A) (A) (A) (A) (A) (A) (A) (A) (A) (A) (A) (A)
                 (A) (A) (A) (A) (A) (A) (A) (A) (A) (A) (A) (A)
                 (A) (A) (A) (A) (A) (A) (A) (A) (A) (A) (A) (A)
                 (A) (A) (A) (A) (A) (A) (A) (A) (A) (A) (A) (A)
                 (A)
       Virtual   (A) (A) (A) (A) (A) (A) (A) (A) (A) (A) (A) (A)
                 (A) (A) (A) (A) (A) (A) (A) (A) (A) (A) (A) (A)
                 (A) (A) (A) (A) (A) (A) (A) (A) (A) (A) (A) (A)
                 (A) (A) (A) (A) (A) (A) (A) (A) (A) (A) (A) (A)
                 (A) (A) (A) (A) (A) (A) (A) (A) (A) (A) (A) (A)
                 (A) (A) (A) (A) (A) (A) (A) (A) (A) (A) (A) (A)
                 (A) (A) (A) (A) (A) (A) (A) (A) (A) (A) (A) (A)
                 (A) (A) (A) (A) (A) (A) (A) (A) (A) (A) (A) (A)
                 (A) (A) (A) (A) (A) (A) (A) (A) (A) (A) (A) (A)
                 (A) (A) (A) (A) (A) (A) (A) (A) (A) (A) (A) (A)
                 (A) (A) (A) (A) (A) (A) (A) (A) (A) (A) (A) (A)
                 (A) (A) (A) (A) (A) (A) (A) (A) (A) (A) (A) (A)
                 (A) (A) (A) (A) (A) (A) (A) (A) (A) (A) (A) (A)
                 (A) (A) (A) (A) (A) (A) (A) (A) (A) (A) (A) (A)
                 (A) (A) (A) (A) (A) (A) (A) (A) (A) (A) (A) (A)
                 (A) (A) (A) (A) (A) (A) (A) (A) (A) (A) (A) (A)
                 (A) (A) (A) (A) (A) (A) (A) (A) (A) (A) (A) (A)
                 (A) (A) (A) (A) (A) (A) (A) (A) (A) (A) (A) (A)
                 (A) (A) (A) (A) (A) (A) (A) (A) (A) (A) (A) (A)
                 (A) (A) (A) (A) (A) (A) (A) (A) (A) (A) (A) (A)
                 (A) (A) (A) (A) (A) (A) (A) (A) (A) (A) (A) (A)
                 (A) (A) (A) (A) (A) (A) (A) (A) (A) (A) (A) (A)
                 (A) (A) (A) (A) (A) (A) (A) (A) (A) (A) (A) (A)
                 (A) (A) (A) (A) (A) (A) (A) (A) (A) (A) (A) (A)
                 (A) (A) (A) (A) (A) (A) (A) (A) (A) (A) (A) (A)
                 (A) (A) (A) (A) (A) (A) (A) (A) (A) (A) (A) (A)
                 (A) (A) (A) (A) (A) (A) (A) (A) (A) (A) (A) (A)
                 (A) (A) (A) (A) (A) (A) (A) (A) (A) (A) (A) (A)
                 (A) (A) (A) (A) (A) (A) (A) (A) (A) (A) (A) (A)
                 (A) (A) (A) (A) (A) (A) (A) (A) (A) (A) (A) (A)
                 (A) (A) (A) (A) (A) (A) (A) (A) (A) (A) (A) (A)
                 (A) (A) (A) (A) (A) (A) (A) (A) (A) (A) (A) (A)
                 (A) (A) (A) (A) (A) (A) (A) (A) (A) (A) (A) (A)
                 (A) (A) (A) (A) (A) (A) (A) (A) (A) (A) (A) (A)
                 (A) (A) (A) (A) (A) (A) (A) (A) (A) (A) (A) (A)
                 (A) (A) (A) (A) (A) (A) (A) (A) (A) (A) (A) (A)
                 (A) (A) (A) (A) (A) (A) (A) (A) (A) (A) (A) (A)
                 (A) (A) (A) (A) (A) (A) (A) (A) (A) (A) (A) (A)
                 (A) (A) (A) (A) (A) (A) (A) (A) (A) (A) (A) (A)
                 (A) (A) (A) (A) (A) (A) (A) (A) (A) (A) (A) (A)
                 (A) (A) (A) (A) (A) (A)
 The electronic state is 1-A.
 Alpha  occ. eigenvalues --  -19.18335 -19.18288 -14.33480 -14.33451 -10.24754
 Alpha  occ. eigenvalues --  -10.24710 -10.24033 -10.23940 -10.22512 -10.22434
 Alpha  occ. eigenvalues --  -10.21307 -10.19824 -10.19757 -10.19329 -10.19258
 Alpha  occ. eigenvalues --  -10.19243 -10.19223 -10.19192 -10.19122 -10.19097
 Alpha  occ. eigenvalues --  -10.19097 -10.18954 -10.18930 -10.18913 -10.18844
 Alpha  occ. eigenvalues --  -10.18671 -10.18638 -10.18596 -10.18555 -10.17645
 Alpha  occ. eigenvalues --  -10.17644  -1.07833  -1.07783  -0.91370  -0.91311
 Alpha  occ. eigenvalues --   -0.86712  -0.85446  -0.83773  -0.83342  -0.80704
 Alpha  occ. eigenvalues --   -0.75433  -0.75011  -0.74831  -0.74790  -0.74456
 Alpha  occ. eigenvalues --   -0.73791  -0.71055  -0.70667  -0.68415  -0.63905
 Alpha  occ. eigenvalues --   -0.62956  -0.61906  -0.61788  -0.61086  -0.60861
 Alpha  occ. eigenvalues --   -0.58911  -0.57810  -0.55546  -0.54445  -0.54423
 Alpha  occ. eigenvalues --   -0.51373  -0.51286  -0.50685  -0.50449  -0.49332
 Alpha  occ. eigenvalues --   -0.48068  -0.47324  -0.45879  -0.45310  -0.44881
 Alpha  occ. eigenvalues --   -0.44604  -0.44586  -0.44117  -0.44074  -0.42451
 Alpha  occ. eigenvalues --   -0.42348  -0.42179  -0.42093  -0.41609  -0.41213
 Alpha  occ. eigenvalues --   -0.40433  -0.39906  -0.39457  -0.39016  -0.38862
 Alpha  occ. eigenvalues --   -0.38464  -0.38045  -0.37503  -0.36941  -0.36790
 Alpha  occ. eigenvalues --   -0.35929  -0.35280  -0.34867  -0.34569  -0.33697
 Alpha  occ. eigenvalues --   -0.33599  -0.32556  -0.32263  -0.31677  -0.29193
 Alpha  occ. eigenvalues --   -0.28911  -0.25690  -0.25588  -0.25181  -0.25106
 Alpha  occ. eigenvalues --   -0.23865  -0.22606  -0.19506  -0.19341
 Alpha virt. eigenvalues --   -0.01433  -0.01184  -0.00505  -0.00227  -0.00010
 Alpha virt. eigenvalues --    0.00659   0.02224   0.02391   0.08818   0.09132
 Alpha virt. eigenvalues --    0.09346   0.10320   0.10776   0.10842   0.12158
 Alpha virt. eigenvalues --    0.12930   0.13155   0.13201   0.13795   0.13998
 Alpha virt. eigenvalues --    0.14824   0.15099   0.15398   0.16209   0.16407
 Alpha virt. eigenvalues --    0.16742   0.17155   0.17229   0.17282   0.17490
 Alpha virt. eigenvalues --    0.17635   0.17917   0.18134   0.18641   0.19205
 Alpha virt. eigenvalues --    0.20041   0.20185   0.20268   0.20684   0.22596
 Alpha virt. eigenvalues --    0.23217   0.23837   0.24726   0.24980   0.25513
 Alpha virt. eigenvalues --    0.25932   0.27737   0.27763   0.30202   0.30863
 Alpha virt. eigenvalues --    0.32767   0.32963   0.33466   0.33549   0.33941
 Alpha virt. eigenvalues --    0.34106   0.34197   0.34629   0.35137   0.35354
 Alpha virt. eigenvalues --    0.36685   0.36994   0.37692   0.37860   0.47643
 Alpha virt. eigenvalues --    0.47855   0.48687   0.48758   0.49072   0.49475
 Alpha virt. eigenvalues --    0.50095   0.50306   0.51066   0.51665   0.51902
 Alpha virt. eigenvalues --    0.52392   0.52804   0.53309   0.53442   0.53652
 Alpha virt. eigenvalues --    0.54389   0.54856   0.55119   0.55430   0.56166
 Alpha virt. eigenvalues --    0.56705   0.56896   0.58030   0.58131   0.58729
 Alpha virt. eigenvalues --    0.58957   0.59064   0.59274   0.59490   0.59712
 Alpha virt. eigenvalues --    0.60030   0.60174   0.60594   0.60669   0.60871
 Alpha virt. eigenvalues --    0.61365   0.61665   0.61717   0.61905   0.62490
 Alpha virt. eigenvalues --    0.63076   0.63348   0.64256   0.64365   0.65471
 Alpha virt. eigenvalues --    0.65762   0.66039   0.66998   0.67273   0.68485
 Alpha virt. eigenvalues --    0.68989   0.69642   0.69960   0.70171   0.70659
 Alpha virt. eigenvalues --    0.71198   0.73604   0.74519   0.75476   0.75891
 Alpha virt. eigenvalues --    0.76449   0.77765   0.77981   0.78327   0.78600
 Alpha virt. eigenvalues --    0.79563   0.80045   0.80987   0.81582   0.81801
 Alpha virt. eigenvalues --    0.81948   0.82170   0.82618   0.82961   0.83265
 Alpha virt. eigenvalues --    0.84173   0.84563   0.84764   0.85166   0.85473
 Alpha virt. eigenvalues --    0.85951   0.86020   0.86245   0.86608   0.86958
 Alpha virt. eigenvalues --    0.87643   0.88316   0.88965   0.89111   0.89585
 Alpha virt. eigenvalues --    0.89880   0.90813   0.90989   0.91382   0.91797
 Alpha virt. eigenvalues --    0.92699   0.92894   0.94056   0.94214   0.94528
 Alpha virt. eigenvalues --    0.95945   0.97191   0.98548   0.99031   0.99316
 Alpha virt. eigenvalues --    0.99699   0.99744   1.00872   1.01635   1.02306
 Alpha virt. eigenvalues --    1.03448   1.04134   1.04785   1.05040   1.05764
 Alpha virt. eigenvalues --    1.06167   1.07791   1.11107   1.11750   1.13085
 Alpha virt. eigenvalues --    1.14097   1.14511   1.15209   1.16134   1.16228
 Alpha virt. eigenvalues --    1.16696   1.17332   1.18179   1.18572   1.19435
 Alpha virt. eigenvalues --    1.20631   1.21538   1.21771   1.22850   1.24573
 Alpha virt. eigenvalues --    1.25088   1.25393   1.26656   1.28867   1.29140
 Alpha virt. eigenvalues --    1.29874   1.30773   1.31403   1.33000   1.34383
 Alpha virt. eigenvalues --    1.35692   1.35984   1.36794   1.37683   1.38623
 Alpha virt. eigenvalues --    1.38683   1.39409   1.39571   1.40219   1.40468
 Alpha virt. eigenvalues --    1.40628   1.40667   1.40799   1.41927   1.42496
 Alpha virt. eigenvalues --    1.43031   1.44177   1.45207   1.46965   1.47584
 Alpha virt. eigenvalues --    1.48285   1.50046   1.51049   1.52190   1.52615
 Alpha virt. eigenvalues --    1.54115   1.54950   1.61196   1.68035   1.68341
 Alpha virt. eigenvalues --    1.68874   1.70141   1.72447   1.73157   1.74771
 Alpha virt. eigenvalues --    1.75390   1.75688   1.76247   1.76377   1.77653
 Alpha virt. eigenvalues --    1.78280   1.78559   1.78874   1.79894   1.80405
 Alpha virt. eigenvalues --    1.80591   1.81743   1.82239   1.84407   1.84795
 Alpha virt. eigenvalues --    1.85017   1.85601   1.86336   1.86782   1.87104
 Alpha virt. eigenvalues --    1.87676   1.88950   1.89471   1.90056   1.90816
 Alpha virt. eigenvalues --    1.91385   1.91447   1.92101   1.92291   1.92377
 Alpha virt. eigenvalues --    1.92736   1.93017   1.94345   1.94641   1.96090
 Alpha virt. eigenvalues --    1.96509   1.96885   1.97416   1.97603   1.98234
 Alpha virt. eigenvalues --    1.98797   1.99027   1.99457   2.00123   2.01108
 Alpha virt. eigenvalues --    2.02198   2.02364   2.02564   2.05685   2.05837
 Alpha virt. eigenvalues --    2.06227   2.06301   2.06963   2.07363   2.09120
 Alpha virt. eigenvalues --    2.09558   2.09842   2.11596   2.12320   2.12961
 Alpha virt. eigenvalues --    2.13959   2.14230   2.14800   2.14890   2.16610
 Alpha virt. eigenvalues --    2.16825   2.16931   2.19969   2.21558   2.22135
 Alpha virt. eigenvalues --    2.24201   2.24357   2.24806   2.25562   2.26077
 Alpha virt. eigenvalues --    2.26541   2.26779   2.27018   2.28938   2.29266
 Alpha virt. eigenvalues --    2.30279   2.30674   2.31256   2.31773   2.33123
 Alpha virt. eigenvalues --    2.33230   2.34723   2.35017   2.35479   2.36193
 Alpha virt. eigenvalues --    2.36312   2.36521   2.37221   2.40296   2.41280
 Alpha virt. eigenvalues --    2.41406   2.41626   2.41724   2.41841   2.42297
 Alpha virt. eigenvalues --    2.44082   2.44762   2.45211   2.45450   2.45739
 Alpha virt. eigenvalues --    2.46327   2.46630   2.47417   2.47583   2.48316
 Alpha virt. eigenvalues --    2.48915   2.49044   2.50340   2.50606   2.51145
 Alpha virt. eigenvalues --    2.51900   2.53695   2.53961   2.54494   2.54961
 Alpha virt. eigenvalues --    2.55625   2.56719   2.57017   2.57129   2.58041
 Alpha virt. eigenvalues --    2.59134   2.59459   2.59688   2.59926   2.60144
 Alpha virt. eigenvalues --    2.60591   2.61272   2.64649   2.64881   2.65636
 Alpha virt. eigenvalues --    2.65853   2.68600   2.69499   2.70405   2.71692
 Alpha virt. eigenvalues --    2.72626   2.73478   2.73788   2.74105   2.74942
 Alpha virt. eigenvalues --    2.75721   2.76850   2.77029   2.78924   2.80130
 Alpha virt. eigenvalues --    2.80613   2.81078   2.82899   2.83735   2.84674
 Alpha virt. eigenvalues --    2.85128   2.85196   2.86067   2.88044   2.89499
 Alpha virt. eigenvalues --    2.91383   2.92467   2.96301   2.97535   2.98269
 Alpha virt. eigenvalues --    2.98689   3.00026   3.01878   3.04394   3.04961
 Alpha virt. eigenvalues --    3.06226   3.06721   3.08806   3.09169   3.12016
 Alpha virt. eigenvalues --    3.12596   3.17988   3.18571   3.19200   3.20458
 Alpha virt. eigenvalues --    3.20833   3.24426   3.25036   3.25115   3.25300
 Alpha virt. eigenvalues --    3.26786   3.28472   3.28501   3.31048   3.31396
 Alpha virt. eigenvalues --    3.35534   3.35858   3.37220   3.37530   3.37800
 Alpha virt. eigenvalues --    3.37913   3.42795   3.44316   3.48725   3.48800
 Alpha virt. eigenvalues --    3.49201   3.50441   3.51247   3.52101   3.54453
 Alpha virt. eigenvalues --    3.54637   3.79959   3.80799   3.83853   3.84003
 Alpha virt. eigenvalues --    4.03780   4.03894   4.13415   4.13537   4.14506
 Alpha virt. eigenvalues --    4.14816   4.15394   4.15498   4.16160   4.16814
 Alpha virt. eigenvalues --    4.17678   4.18526   4.22902   4.24991   4.41117
 Alpha virt. eigenvalues --    4.41940   4.42330   4.44661   4.44948   4.45081
 Alpha virt. eigenvalues --    4.45909   4.47799   4.48848   4.59092   4.60868
 Alpha virt. eigenvalues --    4.65174   4.72944   4.83088   4.84681   4.87084
 Alpha virt. eigenvalues --    4.88339
          Condensed to atoms (all electrons):
 Mulliken charges:
               1
     1  C   -0.315713
     2  C   -0.079419
     3  C    0.129601
     4  C   -0.153013
     5  C   -0.135720
     6  C    0.310911
     7  O   -0.586623
     8  C    0.296087
     9  C   -0.137086
    10  C   -0.140079
    11  C    0.256156
    12  N   -0.673378
    13  C   -0.142296
    14  C   -0.121124
    15  C   -0.114077
    16  C   -0.141065
    17  C    0.128769
    18  C   -0.139928
    19  C   -0.133888
    20  C    0.313081
    21  O   -0.587770
    22  C    0.294366
    23  C   -0.118749
    24  C   -0.141801
    25  C    0.256961
    26  N   -0.672340
    27  C   -0.140899
    28  C   -0.134084
    29  C   -0.119846
    30  C   -0.154171
    31  C   -0.316234
    32  H    0.109359
    33  H    0.109875
    34  H    0.108588
    35  H    0.102138
    36  H    0.103511
    37  H    0.102284
    38  H    0.099091
    39  H    0.276223
    40  H    0.276347
    41  H    0.100451
    42  H    0.107060
    43  H    0.108500
    44  H    0.103156
    45  H    0.101986
    46  H    0.104337
    47  H    0.106879
    48  H    0.100722
    49  H    0.276531
    50  H    0.276480
    51  H    0.099346
    52  H    0.102655
    53  H    0.107086
    54  H    0.102954
    55  H    0.108412
    56  H    0.109944
    57  H    0.109455
 Sum of Mulliken charges =  -0.00000
 Mulliken charges with hydrogens summed into heavy atoms:
               1
     1  C    0.012108
     2  C   -0.079419
     3  C    0.129601
     4  C   -0.050875
     5  C   -0.032209
     6  C    0.310911
     7  O   -0.586623
     8  C    0.296087
     9  C   -0.034803
    10  C   -0.040988
    11  C    0.256156
    12  N   -0.120808
    13  C   -0.041846
    14  C   -0.014064
    15  C   -0.005577
    16  C   -0.037908
    17  C    0.128769
    18  C   -0.037942
    19  C   -0.029551
    20  C    0.313081
    21  O   -0.587770
    22  C    0.294366
    23  C   -0.011871
    24  C   -0.041079
    25  C    0.256961
    26  N   -0.119329
    27  C   -0.041553
    28  C   -0.031428
    29  C   -0.012760
    30  C   -0.051217
    31  C    0.011577
 APT charges:
               1
     1  C   -1.135836
     2  C   -0.262035
     3  C   -0.382364
     4  C   -0.477454
     5  C   -0.511657
     6  C    0.232650
     7  O   -0.253787
     8  C   -0.864223
     9  C   -0.470121
    10  C   -0.320004
    11  C    0.507869
    12  N   -1.185295
    13  C   -0.360881
    14  C   -0.704625
    15  C   -0.455197
    16  C   -0.566288
    17  C   -0.272668
    18  C   -0.515830
    19  C   -0.535584
    20  C    0.224535
    21  O   -0.377823
    22  C   -0.887050
    23  C   -0.757788
    24  C   -0.239926
    25  C    0.814860
    26  N   -2.257726
    27  C   -0.223271
    28  C   -0.571636
    29  C   -0.462127
    30  C   -0.546329
    31  C   -1.312850
    32  H    0.164032
    33  H    0.561217
    34  H    0.513968
    35  H    0.610839
    36  H    0.872925
    37  H    0.406872
    38  H    1.150517
    39  H    1.123933
    40  H    0.547828
    41  H    0.656982
    42  H   -0.071635
    43  H    0.408666
    44  H    0.138269
    45  H    0.346193
    46  H    0.572090
    47  H   -0.102701
    48  H    0.749425
    49  H    1.526232
    50  H    1.146266
    51  H    1.088100
    52  H    0.220930
    53  H    0.649646
    54  H    0.449078
    55  H    0.575639
    56  H    0.506078
    57  H    0.319073
 Sum of APT charges =  -0.00000
 APT charges with hydrogens summed into heavy atoms:
               1
     1  C    0.103380
     2  C   -0.262035
     3  C   -0.382364
     4  C    0.133385
     5  C    0.361269
     6  C    0.232650
     7  O   -0.253787
     8  C   -0.864223
     9  C   -0.063249
    10  C    0.830513
    11  C    0.507869
    12  N    0.486466
    13  C    0.296101
    14  C   -0.776260
    15  C   -0.046531
    16  C   -0.428019
    17  C   -0.272668
    18  C   -0.169637
    19  C    0.036506
    20  C    0.224535
    21  O   -0.377823
    22  C   -0.887050
    23  C   -0.860489
    24  C    0.509499
    25  C    0.814860
    26  N    0.414773
    27  C    0.864829
    28  C   -0.350707
    29  C    0.187519
    30  C   -0.097251
    31  C    0.087940
 Electronic spatial extent (au):  <R**2>=          25390.9430
 Charge=              0.0000 electrons
 Dipole moment (field-independent basis, Debye):
    X=             -2.3567    Y=             -0.4980    Z=              3.3171  Tot=              4.0994
 Quadrupole moment (field-independent basis, Debye-Ang):
   XX=           -128.2474   YY=           -159.4662   ZZ=           -175.6960
   XY=            -17.4588   XZ=             14.1759   YZ=             -5.4055
 Traceless Quadrupole moment (field-independent basis, Debye-Ang):
   XX=             26.2225   YY=             -4.9963   ZZ=            -21.2261
   XY=            -17.4588   XZ=             14.1759   YZ=             -5.4055
 Octapole moment (field-independent basis, Debye-Ang**2):
  XXX=           -553.6865  YYY=            -40.8323  ZZZ=             13.3979  XYY=             49.2823
  XXY=           -216.7633  XXZ=            137.7859  XZZ=             79.4051  YZZ=             -8.0886
  YYZ=             10.0567  XYZ=            -13.4741
 Hexadecapole moment (field-independent basis, Debye-Ang**3):
 XXXX=         -23009.1378 YYYY=          -2585.5158 ZZZZ=          -1264.5295 XXXY=           -996.7758
 XXXZ=            807.0651 YYYX=           -154.1645 YYYZ=            -67.7037 ZZZX=            216.6912
 ZZZY=            -32.1410 XXYY=          -4312.1911 XXZZ=          -5159.4695 YYZZ=           -651.2865
 XXYZ=           -328.9099 YYXZ=             18.1639 ZZXY=           -157.7886
 N-N= 2.666179448622D+03 E-N=-8.362325608123D+03  KE= 1.292136909532D+03
  Exact polarizability:   0.000   0.000   0.000   0.000   0.000   0.000
 Approx polarizability: 527.081 -20.886 461.945 -42.321  -6.988 409.602
 D2PCM: PCM CHGder 2nd derivatives, FixD1E=F FixD2E=F DoIter=F DoCFld=F I1PDM=0
 Calling FoFJK, ICntrl=    100147 FMM=F ISym2X=0 I1Cent= 0 IOpClX= 0 NMat=1 NMatS=1 NMatT=0.
 ***** Axes restored to original set *****
 -------------------------------------------------------------------
 Center     Atomic                   Forces (Hartrees/Bohr)
 Number     Number              X              Y              Z
 -------------------------------------------------------------------
      1        6          -0.003467292    0.006154117    0.002710914
      2        6          -0.001026686    0.001855963   -0.008170109
      3        6          -0.003855237   -0.004498331    0.001198401
      4        6          -0.000969966    0.001572909    0.003609133
      5        6          -0.002308712    0.000097035   -0.004273075
      6        6          -0.004552767   -0.005745006   -0.005944592
      7        8          -0.001088129   -0.005608180   -0.000579880
      8        6           0.007726229    0.002421164    0.005711801
      9        6           0.005305191    0.004855030    0.003638601
     10        6          -0.007745033   -0.007944307    0.004316772
     11        6           0.015762654   -0.001736332   -0.004623219
     12        7          -0.000928789    0.003290920    0.001816891
     13        6          -0.010892439   -0.002512955   -0.004386210
     14        6           0.002758685    0.004030352   -0.001636529
     15        6          -0.006653996    0.006681895    0.000593741
     16        6           0.001936984   -0.003793630   -0.002168675
     17        6           0.005220135    0.002432792    0.002055972
     18        6          -0.000594665    0.004537802    0.000818950
     19        6           0.007538046   -0.005343146   -0.005956621
     20        6           0.004677755    0.000429926   -0.001165173
     21        8           0.005494208   -0.004254758    0.003021907
     22        6          -0.008393964    0.004187740    0.003555462
     23        6          -0.004531625    0.000865462   -0.003184293
     24        6           0.007953713   -0.009579814   -0.001106670
     25        6          -0.003356184    0.014733472   -0.007549674
     26        7          -0.001766891   -0.001966901    0.001337382
     27        6           0.006458237   -0.004711218    0.009746290
     28        6          -0.006728164    0.004619350   -0.000862996
     29        6          -0.000382645    0.003725232   -0.002918470
     30        6          -0.001051128   -0.003753417    0.002523527
     31        6           0.003785523   -0.006484942   -0.001435140
     32        1          -0.000178522   -0.001394120   -0.000155534
     33        1          -0.001272025   -0.003257412    0.002237712
     34        1          -0.000146235   -0.000852332    0.000703298
     35        1          -0.001875601    0.001827250    0.001199751
     36        1           0.000899877    0.001271450    0.001086736
     37        1          -0.001398110    0.000421502   -0.001259882
     38        1           0.000121956    0.001561585    0.000539295
     39        1          -0.000741485    0.002595066   -0.003025673
     40        1           0.001382070   -0.000701277    0.003767293
     41        1           0.000024011    0.000917349    0.000899078
     42        1          -0.000982013   -0.000647148    0.001347022
     43        1           0.001389535   -0.000375539   -0.000998543
     44        1          -0.000119919   -0.002147221   -0.001292995
     45        1           0.000040028    0.002183569   -0.000338516
     46        1          -0.001676742    0.000978233    0.000099924
     47        1           0.000913224    0.001149756    0.000777317
     48        1          -0.001365289   -0.000473280    0.000653982
     49        1          -0.001322548   -0.001712486   -0.003019826
     50        1          -0.001656879    0.001322981    0.002759578
     51        1          -0.001235990   -0.000950677   -0.000209477
     52        1           0.001169534   -0.000375351   -0.001302765
     53        1          -0.000519873   -0.002047251    0.000229795
     54        1           0.001874794   -0.001761187   -0.000111646
     55        1           0.000197743    0.000507337    0.001289522
     56        1           0.002048882    0.002029039    0.002966369
     57        1           0.000106530    0.001371937    0.000463767
 -------------------------------------------------------------------
 Cartesian Forces:  Max     0.015762654 RMS     0.003852974
 FormGI is forming the generalized inverse of G from B-inverse, IUseBI=4.

 GradGradGradGradGradGradGradGradGradGradGradGradGradGradGradGradGradGrad
 Berny optimization.
 Internal  Forces:  Max     0.014643061 RMS     0.002567432
 Search for a local minimum.
 Step number   1 out of a maximum of  310
 All quantities printed in internal units (Hartrees-Bohrs-Radians)
 Mixed Optimization -- RFO/linear search
 Second derivative matrix not updated -- analytic derivatives used.
 ITU=  0
     Eigenvalues ---   -0.00029  -0.00002   0.00234   0.00248   0.00469
     Eigenvalues ---    0.00480   0.00500   0.00565   0.00716   0.00732
     Eigenvalues ---    0.01594   0.01617   0.01619   0.01679   0.01730
     Eigenvalues ---    0.01734   0.01756   0.01758   0.01774   0.01810
     Eigenvalues ---    0.01824   0.01833   0.01846   0.01873   0.02111
     Eigenvalues ---    0.02127   0.02137   0.02185   0.02229   0.02241
     Eigenvalues ---    0.02298   0.02304   0.02446   0.02467   0.02583
     Eigenvalues ---    0.02592   0.02667   0.02688   0.02722   0.02735
     Eigenvalues ---    0.02766   0.02782   0.02790   0.02799   0.02830
     Eigenvalues ---    0.02852   0.02977   0.02988   0.04571   0.04602
     Eigenvalues ---    0.04648   0.04763   0.05395   0.05505   0.06241
     Eigenvalues ---    0.10796   0.10806   0.10831   0.10857   0.11245
     Eigenvalues ---    0.11260   0.11294   0.11346   0.11626   0.11677
     Eigenvalues ---    0.11690   0.11717   0.11934   0.12053   0.12531
     Eigenvalues ---    0.12546   0.12554   0.12715   0.13201   0.13532
     Eigenvalues ---    0.13610   0.14121   0.14194   0.14931   0.15289
     Eigenvalues ---    0.15486   0.16816   0.17706   0.17708   0.17961
     Eigenvalues ---    0.18018   0.18041   0.18151   0.18241   0.18439
     Eigenvalues ---    0.19129   0.19376   0.19411   0.19895   0.19930
     Eigenvalues ---    0.20417   0.20465   0.21834   0.22008   0.22453
     Eigenvalues ---    0.22658   0.23232   0.23465   0.25282   0.25514
     Eigenvalues ---    0.25684   0.26791   0.26954   0.30408   0.30663
     Eigenvalues ---    0.30862   0.32541   0.32603   0.33188   0.33258
     Eigenvalues ---    0.33304   0.33468   0.34060   0.34145   0.34531
     Eigenvalues ---    0.34707   0.35499   0.35578   0.35695   0.35750
     Eigenvalues ---    0.35888   0.36002   0.36008   0.36039   0.36108
     Eigenvalues ---    0.36125   0.36166   0.36169   0.36489   0.36518
     Eigenvalues ---    0.36583   0.36676   0.38878   0.39082   0.40873
     Eigenvalues ---    0.40908   0.41208   0.41223   0.42395   0.42531
     Eigenvalues ---    0.44725   0.44858   0.45522   0.45729   0.45975
     Eigenvalues ---    0.46231   0.46482   0.46655   0.46780   0.46896
     Eigenvalues ---    0.47242   0.47264   0.47782   0.47824   0.48818
     Eigenvalues ---    0.48869   0.51644   0.51719   0.52822   0.52869
 RFO step:  Lambda=-9.64413022D-03 EMin=-2.85485731D-04
 Linear search not attempted -- first point.
 Iteration  1 RMS(Cart)=  0.28225860 RMS(Int)=  0.03652396
 Iteration  2 RMS(Cart)=  0.19500362 RMS(Int)=  0.01669741
 Iteration  3 RMS(Cart)=  0.18595711 RMS(Int)=  0.00599022
 Iteration  4 RMS(Cart)=  0.01526284 RMS(Int)=  0.00023703
 Iteration  5 RMS(Cart)=  0.00008869 RMS(Int)=  0.00023622
 Iteration  6 RMS(Cart)=  0.00000001 RMS(Int)=  0.00023622
 Variable       Old X    -DE/DX   Delta X   Delta X   Delta X     New X
                                 (Linear)    (Quad)   (Total)
    R1        2.93268  -0.00231   0.00000  -0.00822  -0.00822   2.92446
    R2        2.07194  -0.00113   0.00000  -0.00514  -0.00514   2.06681
    R3        2.07333  -0.00241   0.00000  -0.00625  -0.00625   2.06708
    R4        2.07185  -0.00047   0.00000  -0.00266  -0.00266   2.06919
    R5        2.92584  -0.00520   0.00000  -0.01096  -0.01096   2.91488
    R6        2.92599  -0.00520   0.00000  -0.01211  -0.01211   2.91388
    R7        2.93373  -0.00253   0.00000  -0.00943  -0.00943   2.92430
    R8        2.65658  -0.00502   0.00000  -0.01083  -0.01081   2.64576
    R9        2.66777  -0.00578   0.00000  -0.01008  -0.01006   2.65771
   R10        2.64303  -0.00015   0.00000  -0.00069  -0.00070   2.64233
   R11        2.05250  -0.00146   0.00000  -0.00412  -0.00412   2.04838
   R12        2.62984   0.00126   0.00000   0.00153   0.00151   2.63135
   R13        2.05308  -0.00081   0.00000  -0.00216  -0.00216   2.05092
   R14        2.59732   0.01059   0.00000   0.01610   0.01610   2.61342
   R15        2.63091   0.00453   0.00000   0.01340   0.01338   2.64429
   R16        2.60169   0.01282   0.00000   0.02620   0.02620   2.62789
   R17        2.63333   0.00289   0.00000   0.00191   0.00179   2.63512
   R18        2.63702   0.00126   0.00000   0.00245   0.00232   2.63934
   R19        2.64115  -0.00260   0.00000  -0.00750  -0.00749   2.63366
   R20        2.05317  -0.00091   0.00000  -0.00214  -0.00214   2.05103
   R21        2.64070   0.00734   0.00000   0.01539   0.01551   2.65622
   R22        2.05232   0.00037   0.00000   0.00112   0.00112   2.05344
   R23        2.64459   0.00346   0.00000   0.00020   0.00020   2.64480
   R24        2.64139   0.00742   0.00000   0.01640   0.01652   2.65791
   R25        1.91858  -0.00281   0.00000  -0.00501  -0.00501   1.91357
   R26        1.91799  -0.00252   0.00000  -0.00446  -0.00446   1.91354
   R27        2.64232  -0.00276   0.00000  -0.00962  -0.00962   2.63270
   R28        2.05307   0.00004   0.00000   0.00045   0.00045   2.05352
   R29        2.05205  -0.00071   0.00000  -0.00156  -0.00156   2.05049
   R30        2.63989  -0.00342   0.00000  -0.01075  -0.01074   2.62914
   R31        2.05242  -0.00061   0.00000  -0.00227  -0.00227   2.05015
   R32        2.05748  -0.00200   0.00000  -0.00473  -0.00473   2.05274
   R33        2.66658  -0.00615   0.00000  -0.00814  -0.00814   2.65844
   R34        2.65456  -0.00332   0.00000  -0.01068  -0.01065   2.64391
   R35        2.63988  -0.00297   0.00000  -0.01419  -0.01421   2.62567
   R36        2.05663  -0.00166   0.00000  -0.00365  -0.00365   2.05297
   R37        2.62678   0.00572   0.00000   0.01913   0.01911   2.64589
   R38        2.05240  -0.00057   0.00000  -0.00128  -0.00128   2.05111
   R39        2.60107   0.00883   0.00000   0.00292   0.00292   2.60399
   R40        2.63427   0.00014   0.00000   0.00247   0.00247   2.63674
   R41        2.60018   0.01464   0.00000   0.03359   0.03359   2.63378
   R42        2.63590   0.00192   0.00000   0.00339   0.00334   2.63923
   R43        2.63193   0.00305   0.00000  -0.00134  -0.00140   2.63052
   R44        2.64162  -0.00265   0.00000  -0.01261  -0.01259   2.62903
   R45        2.05242  -0.00076   0.00000  -0.00029  -0.00029   2.05213
   R46        2.64144   0.00761   0.00000   0.02093   0.02099   2.66243
   R47        2.05299   0.00014   0.00000   0.00013   0.00013   2.05311
   R48        2.64497   0.00310   0.00000  -0.00717  -0.00717   2.63780
   R49        2.64103   0.00715   0.00000   0.01451   0.01457   2.65560
   R50        1.91719  -0.00214   0.00000  -0.00405  -0.00405   1.91313
   R51        1.91623  -0.00166   0.00000  -0.00350  -0.00350   1.91272
   R52        2.64126  -0.00232   0.00000  -0.00550  -0.00551   2.63575
   R53        2.05381  -0.00015   0.00000  -0.00118  -0.00118   2.05263
   R54        2.05235  -0.00066   0.00000  -0.00133  -0.00133   2.05101
   R55        2.64482  -0.00147   0.00000  -0.00060  -0.00057   2.64425
   R56        2.05408  -0.00128   0.00000  -0.00597  -0.00597   2.04811
   R57        2.05191  -0.00129   0.00000  -0.00320  -0.00320   2.04871
   R58        2.07279  -0.00084   0.00000  -0.00369  -0.00369   2.06910
   R59        2.07328  -0.00240   0.00000  -0.00625  -0.00625   2.06703
   R60        2.07202  -0.00118   0.00000  -0.00523  -0.00523   2.06679
    A1        1.96142  -0.00013   0.00000  -0.00360  -0.00365   1.95778
    A2        1.93831  -0.00454   0.00000  -0.02672  -0.02684   1.91147
    A3        1.94758  -0.00034   0.00000  -0.00520  -0.00526   1.94232
    A4        1.86747   0.00223   0.00000   0.01257   0.01246   1.87993
    A5        1.87634   0.00079   0.00000   0.01218   0.01220   1.88854
    A6        1.86797   0.00235   0.00000   0.01333   0.01320   1.88118
    A7        1.85714   0.00405   0.00000   0.02270   0.02266   1.87980
    A8        1.98479  -0.00471   0.00000  -0.02570  -0.02598   1.95881
    A9        1.84574   0.00218   0.00000   0.02336   0.02360   1.86934
   A10        1.93499  -0.00114   0.00000  -0.02248  -0.02234   1.91265
   A11        1.98440  -0.00468   0.00000  -0.02489  -0.02506   1.95934
   A12        1.85779   0.00404   0.00000   0.02684   0.02685   1.88464
   A13        2.14449   0.00002   0.00000   0.00713   0.00706   2.15155
   A14        2.08580  -0.00066   0.00000  -0.00227  -0.00233   2.08347
   A15        2.05289   0.00064   0.00000  -0.00492  -0.00495   2.04794
   A16        2.11236   0.00141   0.00000   0.00781   0.00779   2.12015
   A17        2.12110  -0.00323   0.00000  -0.01834  -0.01835   2.10275
   A18        2.04972   0.00182   0.00000   0.01055   0.01054   2.06026
   A19        2.09679  -0.00102   0.00000  -0.00397  -0.00403   2.09276
   A20        2.09403   0.00217   0.00000   0.01426   0.01427   2.10830
   A21        2.09234  -0.00115   0.00000  -0.01023  -0.01022   2.08212
   A22        2.05035   0.00384   0.00000   0.00252   0.00254   2.05289
   A23        2.09604  -0.00231   0.00000  -0.00377  -0.00383   2.09221
   A24        2.13510  -0.00155   0.00000   0.00085   0.00087   2.13597
   A25        2.04924   0.00896   0.00000   0.02954   0.02954   2.07878
   A26        2.03598   0.00381   0.00000   0.01611   0.01624   2.05222
   A27        2.15391  -0.00323   0.00000  -0.01659  -0.01647   2.13744
   A28        2.09063  -0.00055   0.00000   0.00106   0.00079   2.09142
   A29        2.09463   0.00151   0.00000   0.00228   0.00215   2.09678
   A30        2.09532  -0.00239   0.00000  -0.01307  -0.01301   2.08230
   A31        2.09318   0.00088   0.00000   0.01085   0.01091   2.10409
   A32        2.10637   0.00043   0.00000   0.00315   0.00325   2.10962
   A33        2.07694   0.00105   0.00000   0.00964   0.00956   2.08650
   A34        2.09987  -0.00148   0.00000  -0.01275  -0.01283   2.08704
   A35        2.09950   0.00199   0.00000   0.01008   0.00862   2.10812
   A36        2.07091  -0.00356   0.00000  -0.00750  -0.00866   2.06225
   A37        2.09695   0.00217   0.00000   0.01344   0.01199   2.10894
   A38        1.98950   0.00143   0.00000   0.00230   0.00229   1.99179
   A39        1.98469   0.00232   0.00000   0.00993   0.00993   1.99462
   A40        1.95960  -0.00345   0.00000  -0.02912  -0.02913   1.93047
   A41        2.10854   0.00138   0.00000   0.00400   0.00410   2.11264
   A42        2.09826  -0.00163   0.00000  -0.01113  -0.01118   2.08708
   A43        2.07635   0.00025   0.00000   0.00715   0.00710   2.08345
   A44        2.09102   0.00097   0.00000   0.00211   0.00192   2.09293
   A45        2.10908  -0.00188   0.00000  -0.01289  -0.01286   2.09622
   A46        2.08284   0.00092   0.00000   0.01114   0.01118   2.09401
   A47        2.08858  -0.00058   0.00000  -0.00404  -0.00407   2.08450
   A48        2.10489  -0.00109   0.00000  -0.00927  -0.00925   2.09564
   A49        2.08970   0.00166   0.00000   0.01331   0.01333   2.10303
   A50        2.11919   0.00187   0.00000   0.00948   0.00949   2.12868
   A51        2.09875  -0.00231   0.00000  -0.01427  -0.01427   2.08448
   A52        2.06516   0.00043   0.00000   0.00475   0.00474   2.06990
   A53        2.08613  -0.00060   0.00000   0.00018   0.00015   2.08628
   A54        2.14473   0.00002   0.00000   0.00886   0.00883   2.15355
   A55        2.05233   0.00058   0.00000  -0.00905  -0.00908   2.04325
   A56        2.11877   0.00092   0.00000   0.00776   0.00770   2.12647
   A57        2.09886  -0.00186   0.00000  -0.01159  -0.01158   2.08728
   A58        2.06552   0.00094   0.00000   0.00390   0.00391   2.06943
   A59        2.09173  -0.00027   0.00000   0.00151   0.00143   2.09316
   A60        2.09485   0.00193   0.00000   0.01740   0.01743   2.11228
   A61        2.09660  -0.00165   0.00000  -0.01888  -0.01885   2.07775
   A62        2.04637   0.00325   0.00000  -0.02834  -0.02832   2.01805
   A63        2.09363  -0.00177   0.00000  -0.00711  -0.00716   2.08647
   A64        2.14171  -0.00151   0.00000   0.03552   0.03554   2.17725
   A65        2.04364   0.01018   0.00000   0.04307   0.04307   2.08671
   A66        2.14173  -0.00211   0.00000  -0.03694  -0.03700   2.10474
   A67        2.04568   0.00341   0.00000   0.03376   0.03360   2.07928
   A68        2.09496  -0.00133   0.00000   0.00192   0.00165   2.09662
   A69        2.08977   0.00139   0.00000   0.00370   0.00365   2.09342
   A70        2.10630  -0.00187   0.00000  -0.01690  -0.01691   2.08940
[...]
   419    C   28  dx2y2  Ryd( 3d)     0.00062
   420    C   28  dz2    Ryd( 3d)     0.00057

   421    C   29  S      Cor( 1S)     1.99901
   422    C   29  S      Val( 2S)     0.95916
   423    C   29  S      Ryd( 3S)     0.00072
   424    C   29  S      Ryd( 4S)     0.00005
   425    C   29  px     Val( 2p)     1.14176
   426    C   29  px     Ryd( 3p)     0.00271
   427    C   29  py     Val( 2p)     1.08303
   428    C   29  py     Ryd( 3p)     0.00162
   429    C   29  pz     Val( 2p)     1.11603
   430    C   29  pz     Ryd( 3p)     0.00414
   431    C   29  dxy    Ryd( 3d)     0.00042
   432    C   29  dxz    Ryd( 3d)     0.00056
   433    C   29  dyz    Ryd( 3d)     0.00050
   434    C   29  dx2y2  Ryd( 3d)     0.00041
   435    C   29  dz2    Ryd( 3d)     0.00060

   436    C   30  S      Cor( 1S)     1.99904
   437    C   30  S      Val( 2S)     0.94486
   438    C   30  S      Ryd( 3S)     0.00067
   439    C   30  S      Ryd( 4S)     0.00005
   440    C   30  px     Val( 2p)     1.04458
   441    C   30  px     Ryd( 3p)     0.00285
   442    C   30  py     Val( 2p)     1.02576
   443    C   30  py     Ryd( 3p)     0.00157
   444    C   30  pz     Val( 2p)     1.20107
   445    C   30  pz     Ryd( 3p)     0.00497
   446    C   30  dxy    Ryd( 3d)     0.00044
   447    C   30  dxz    Ryd( 3d)     0.00049
   448    C   30  dyz    Ryd( 3d)     0.00042
   449    C   30  dx2y2  Ryd( 3d)     0.00058
   450    C   30  dz2    Ryd( 3d)     0.00072

   451    C   31  S      Cor( 1S)     1.99940
   452    C   31  S      Val( 2S)     1.09383
   453    C   31  S      Ryd( 3S)     0.00055
   454    C   31  S      Ryd( 4S)     0.00001
   455    C   31  px     Val( 2p)     1.25091
   456    C   31  px     Ryd( 3p)     0.00206
   457    C   31  py     Val( 2p)     1.09575
   458    C   31  py     Ryd( 3p)     0.00159
   459    C   31  pz     Val( 2p)     1.23155
   460    C   31  pz     Ryd( 3p)     0.00210
   461    C   31  dxy    Ryd( 3d)     0.00077
   462    C   31  dxz    Ryd( 3d)     0.00025
   463    C   31  dyz    Ryd( 3d)     0.00040
   464    C   31  dx2y2  Ryd( 3d)     0.00053
   465    C   31  dz2    Ryd( 3d)     0.00097

   466    H   32  S      Val( 1S)     0.75870
   467    H   32  S      Ryd( 2S)     0.00102
   468    H   32  px     Ryd( 2p)     0.00009
   469    H   32  py     Ryd( 2p)     0.00029
   470    H   32  pz     Ryd( 2p)     0.00013

   471    H   33  S      Val( 1S)     0.75393
   472    H   33  S      Ryd( 2S)     0.00093
   473    H   33  px     Ryd( 2p)     0.00024
   474    H   33  py     Ryd( 2p)     0.00017
   475    H   33  pz     Ryd( 2p)     0.00010

   476    H   34  S      Val( 1S)     0.76250
   477    H   34  S      Ryd( 2S)     0.00105
   478    H   34  px     Ryd( 2p)     0.00027
   479    H   34  py     Ryd( 2p)     0.00014
   480    H   34  pz     Ryd( 2p)     0.00011

   481    H   35  S      Val( 1S)     0.75762
   482    H   35  S      Ryd( 2S)     0.00092
   483    H   35  px     Ryd( 2p)     0.00009
   484    H   35  py     Ryd( 2p)     0.00039
   485    H   35  pz     Ryd( 2p)     0.00014

   486    H   36  S      Val( 1S)     0.75364
   487    H   36  S      Ryd( 2S)     0.00115
   488    H   36  px     Ryd( 2p)     0.00024
   489    H   36  py     Ryd( 2p)     0.00017
   490    H   36  pz     Ryd( 2p)     0.00020

   491    H   37  S      Val( 1S)     0.74340
   492    H   37  S      Ryd( 2S)     0.00102
   493    H   37  px     Ryd( 2p)     0.00020
   494    H   37  py     Ryd( 2p)     0.00008
   495    H   37  pz     Ryd( 2p)     0.00034

   496    H   38  S      Val( 1S)     0.75132
   497    H   38  S      Ryd( 2S)     0.00108
   498    H   38  px     Ryd( 2p)     0.00015
   499    H   38  py     Ryd( 2p)     0.00024
   500    H   38  pz     Ryd( 2p)     0.00024

   501    H   39  S      Val( 1S)     0.55991
   502    H   39  S      Ryd( 2S)     0.00139
   503    H   39  px     Ryd( 2p)     0.00045
   504    H   39  py     Ryd( 2p)     0.00045
   505    H   39  pz     Ryd( 2p)     0.00031

   506    H   40  S      Val( 1S)     0.56005
   507    H   40  S      Ryd( 2S)     0.00142
   508    H   40  px     Ryd( 2p)     0.00037
   509    H   40  py     Ryd( 2p)     0.00022
   510    H   40  pz     Ryd( 2p)     0.00062

   511    H   41  S      Val( 1S)     0.75171
   512    H   41  S      Ryd( 2S)     0.00105
   513    H   41  px     Ryd( 2p)     0.00022
   514    H   41  py     Ryd( 2p)     0.00007
   515    H   41  pz     Ryd( 2p)     0.00035

   516    H   42  S      Val( 1S)     0.74315
   517    H   42  S      Ryd( 2S)     0.00095
   518    H   42  px     Ryd( 2p)     0.00015
   519    H   42  py     Ryd( 2p)     0.00026
   520    H   42  pz     Ryd( 2p)     0.00021

   521    H   43  S      Val( 1S)     0.74843
   522    H   43  S      Ryd( 2S)     0.00089
   523    H   43  px     Ryd( 2p)     0.00009
   524    H   43  py     Ryd( 2p)     0.00038
   525    H   43  pz     Ryd( 2p)     0.00016

   526    H   44  S      Val( 1S)     0.75908
   527    H   44  S      Ryd( 2S)     0.00100
   528    H   44  px     Ryd( 2p)     0.00024
   529    H   44  py     Ryd( 2p)     0.00018
   530    H   44  pz     Ryd( 2p)     0.00020

   531    H   45  S      Val( 1S)     0.75131
   532    H   45  S      Ryd( 2S)     0.00114
   533    H   45  px     Ryd( 2p)     0.00027
   534    H   45  py     Ryd( 2p)     0.00014
   535    H   45  pz     Ryd( 2p)     0.00019

   536    H   46  S      Val( 1S)     0.74632
   537    H   46  S      Ryd( 2S)     0.00124
   538    H   46  px     Ryd( 2p)     0.00008
   539    H   46  py     Ryd( 2p)     0.00011
   540    H   46  pz     Ryd( 2p)     0.00040

   541    H   47  S      Val( 1S)     0.74206
   542    H   47  S      Ryd( 2S)     0.00097
   543    H   47  px     Ryd( 2p)     0.00006
   544    H   47  py     Ryd( 2p)     0.00037
   545    H   47  pz     Ryd( 2p)     0.00016

   546    H   48  S      Val( 1S)     0.75060
   547    H   48  S      Ryd( 2S)     0.00090
   548    H   48  px     Ryd( 2p)     0.00032
   549    H   48  py     Ryd( 2p)     0.00016
   550    H   48  pz     Ryd( 2p)     0.00011

   551    H   49  S      Val( 1S)     0.58192
   552    H   49  S      Ryd( 2S)     0.00107
   553    H   49  px     Ryd( 2p)     0.00021
   554    H   49  py     Ryd( 2p)     0.00061
   555    H   49  pz     Ryd( 2p)     0.00045

   556    H   50  S      Val( 1S)     0.58194
   557    H   50  S      Ryd( 2S)     0.00107
   558    H   50  px     Ryd( 2p)     0.00054
   559    H   50  py     Ryd( 2p)     0.00026
   560    H   50  pz     Ryd( 2p)     0.00046

   561    H   51  S      Val( 1S)     0.75060
   562    H   51  S      Ryd( 2S)     0.00090
   563    H   51  px     Ryd( 2p)     0.00007
   564    H   51  py     Ryd( 2p)     0.00037
   565    H   51  pz     Ryd( 2p)     0.00016

   566    H   52  S      Val( 1S)     0.74209
   567    H   52  S      Ryd( 2S)     0.00097
   568    H   52  px     Ryd( 2p)     0.00033
   569    H   52  py     Ryd( 2p)     0.00015
   570    H   52  pz     Ryd( 2p)     0.00010

   571    H   53  S      Val( 1S)     0.74323
   572    H   53  S      Ryd( 2S)     0.00088
   573    H   53  px     Ryd( 2p)     0.00026
   574    H   53  py     Ryd( 2p)     0.00015
   575    H   53  pz     Ryd( 2p)     0.00018

   576    H   54  S      Val( 1S)     0.75176
   577    H   54  S      Ryd( 2S)     0.00094
   578    H   54  px     Ryd( 2p)     0.00008
   579    H   54  py     Ryd( 2p)     0.00011
   580    H   54  pz     Ryd( 2p)     0.00040

   581    H   55  S      Val( 1S)     0.76120
   582    H   55  S      Ryd( 2S)     0.00109
   583    H   55  px     Ryd( 2p)     0.00020
   584    H   55  py     Ryd( 2p)     0.00020
   585    H   55  pz     Ryd( 2p)     0.00012

   586    H   56  S      Val( 1S)     0.75512
   587    H   56  S      Ryd( 2S)     0.00090
   588    H   56  px     Ryd( 2p)     0.00031
   589    H   56  py     Ryd( 2p)     0.00010
   590    H   56  pz     Ryd( 2p)     0.00010

   591    H   57  S      Val( 1S)     0.75919
   592    H   57  S      Ryd( 2S)     0.00103
   593    H   57  px     Ryd( 2p)     0.00009
   594    H   57  py     Ryd( 2p)     0.00008
   595    H   57  pz     Ryd( 2p)     0.00035

 WARNING:  1 low occupancy (<1.9990e) core orbital  found on  C    6
           1 low occupancy (<1.9990e) core orbital  found on  C    8
           1 low occupancy (<1.9990e) core orbital  found on  C   11
           1 low occupancy (<1.9990e) core orbital  found on  C   20
           1 low occupancy (<1.9990e) core orbital  found on  C   22
           1 low occupancy (<1.9990e) core orbital  found on  C   23
           1 low occupancy (<1.9990e) core orbital  found on  C   25
           1 low occupancy (<1.9990e) core orbital  found on  C   28


 Summary of Natural Population Analysis:                  
                                                          
                                       Natural Population 
                Natural  -----------------------------------------------
    Atom  No    Charge         Core      Valence    Rydberg      Total
 -----------------------------------------------------------------------
      C    1   -0.68132      1.99940     4.67261    0.00931     6.68132
      C    2   -0.06858      1.99905     4.05472    0.01481     6.06858
      C    3   -0.04997      1.99900     4.03244    0.01852     6.04997
      C    4   -0.25527      1.99903     4.24288    0.01335     6.25527
      C    5   -0.32735      1.99903     4.31228    0.01604     6.32735
      C    6    0.30468      1.99871     3.67494    0.02166     5.69532
      O    7   -0.51143      1.99969     6.50032    0.01141     8.51143
      C    8    0.37856      1.99870     3.59947    0.02327     5.62144
      C    9   -0.34429      1.99901     4.32605    0.01924     6.34429
      C   10   -0.30822      1.99906     4.29091    0.01824     6.30822
      C   11    0.18864      1.99897     3.79472    0.01766     5.81136
      N   12   -0.66356      1.99946     5.65471    0.00938     7.66356
      C   13   -0.31552      1.99906     4.29807    0.01838     6.31552
      C   14   -0.34349      1.99901     4.32535    0.01913     6.34349
      C   15   -0.32877      1.99901     4.31590    0.01386     6.32877
      C   16   -0.26921      1.99905     4.25541    0.01476     6.26921
      C   17   -0.05302      1.99900     4.03557    0.01845     6.05302
      C   18   -0.21976      1.99904     4.20817    0.01255     6.21976
      C   19   -0.28500      1.99903     4.27184    0.01413     6.28500
      C   20    0.30888      1.99873     3.67100    0.02139     5.69112
      O   21   -0.52916      1.99971     6.51805    0.01140     8.52916
      C   22    0.24315      1.99870     3.73550    0.02265     5.75685
      C   23   -0.26009      1.99899     4.24767    0.01343     6.26009
      C   24   -0.28434      1.99905     4.27267    0.01262     6.28434
      C   25    0.16255      1.99899     3.82144    0.01702     5.83745
      N   26   -0.85867      1.99952     5.84734    0.01181     7.85867
      C   27   -0.28430      1.99905     4.27263    0.01263     6.28430
      C   28   -0.26011      1.99899     4.24770    0.01342     6.26011
      C   29   -0.31074      1.99901     4.29998    0.01175     6.31074
      C   30   -0.22808      1.99904     4.21628    0.01276     6.22808
      C   31   -0.68067      1.99940     4.67204    0.00923     6.68067
      H   32    0.23975      0.00000     0.75870    0.00155     0.76025
      H   33    0.24462      0.00000     0.75393    0.00145     0.75538
      H   34    0.23593      0.00000     0.76250    0.00157     0.76407
      H   35    0.24084      0.00000     0.75762    0.00154     0.75916
      H   36    0.24460      0.00000     0.75364    0.00176     0.75540
      H   37    0.25495      0.00000     0.74340    0.00164     0.74505
      H   38    0.24696      0.00000     0.75132    0.00172     0.75304
      H   39    0.43750      0.00000     0.55991    0.00259     0.56250
      H   40    0.43732      0.00000     0.56005    0.00263     0.56268
      H   41    0.24660      0.00000     0.75171    0.00169     0.75340
      H   42    0.25528      0.00000     0.74315    0.00157     0.74472
      H   43    0.25004      0.00000     0.74843    0.00152     0.74996
      H   44    0.23929      0.00000     0.75908    0.00162     0.76071
      H   45    0.24695      0.00000     0.75131    0.00174     0.75305
      H   46    0.25185      0.00000     0.74632    0.00183     0.74815
      H   47    0.25639      0.00000     0.74206    0.00156     0.74361
      H   48    0.24791      0.00000     0.75060    0.00149     0.75209
      H   49    0.41575      0.00000     0.58192    0.00233     0.58425
      H   50    0.41574      0.00000     0.58194    0.00233     0.58426
      H   51    0.24791      0.00000     0.75060    0.00149     0.75209
      H   52    0.25636      0.00000     0.74209    0.00155     0.74364
      H   53    0.25529      0.00000     0.74323    0.00148     0.74471
      H   54    0.24669      0.00000     0.75176    0.00155     0.75331
      H   55    0.23719      0.00000     0.76120    0.00161     0.76281
      H   56    0.24347      0.00000     0.75512    0.00141     0.75653
      H   57    0.23926      0.00000     0.75919    0.00155     0.76074
 =======================================================================
   * Total *   -0.00000     61.97151   155.50943    0.51907   218.00000

                                 Natural Population      
 --------------------------------------------------------
   Core                      61.97151 ( 99.9540% of  62)
   Valence                  155.50943 ( 99.6855% of 156)
   Natural Minimal Basis    217.48093 ( 99.7619% of 218)
   Natural Rydberg Basis      0.51907 (  0.2381% of 218)
 --------------------------------------------------------

    Atom  No          Natural Electron Configuration
 ----------------------------------------------------------------------------
      C    1      [core]2S( 1.09)2p( 3.58)3p( 0.01)
      C    2      [core]2S( 0.90)2p( 3.16)3p( 0.01)
      C    3      [core]2S( 0.87)2p( 3.16)3p( 0.01)
      C    4      [core]2S( 0.94)2p( 3.30)3p( 0.01)
      C    5      [core]2S( 0.95)2p( 3.36)3p( 0.01)
      C    6      [core]2S( 0.84)2p( 2.84)3p( 0.01)3d( 0.01)
      O    7      [core]2S( 1.57)2p( 4.93)3p( 0.01)3d( 0.01)
      C    8      [core]2S( 0.85)2p( 2.75)3p( 0.02)3d( 0.01)
      C    9      [core]2S( 0.96)2p( 3.36)3p( 0.02)
      C   10      [core]2S( 0.96)2p( 3.34)3p( 0.01)
      C   11      [core]2S( 0.86)2p( 2.94)3p( 0.01)3d( 0.01)
      N   12      [core]2S( 1.37)2p( 4.28)3p( 0.01)
      C   13      [core]2S( 0.95)2p( 3.34)3p( 0.02)
      C   14      [core]2S( 0.96)2p( 3.36)3p( 0.02)
      C   15      [core]2S( 0.96)2p( 3.36)3p( 0.01)
      C   16      [core]2S( 0.94)2p( 3.32)3p( 0.01)
      C   17      [core]2S( 0.87)2p( 3.16)3p( 0.01)
      C   18      [core]2S( 0.95)2p( 3.26)3p( 0.01)
      C   19      [core]2S( 0.96)2p( 3.31)3p( 0.01)
      C   20      [core]2S( 0.84)2p( 2.83)3p( 0.01)3d( 0.01)
      O   21      [core]2S( 1.57)2p( 4.95)3p( 0.01)3d( 0.01)
      C   22      [core]2S( 0.83)2p( 2.90)3p( 0.02)3d( 0.01)
      C   23      [core]2S( 0.97)2p( 3.28)3p( 0.01)
      C   24      [core]2S( 0.96)2p( 3.32)3p( 0.01)
      C   25      [core]2S( 0.85)2p( 2.98)3p( 0.01)
      N   26      [core]2S( 1.36)2p( 4.48)3p( 0.01)
      C   27      [core]2S( 0.96)2p( 3.32)3p( 0.01)
      C   28      [core]2S( 0.97)2p( 3.28)3p( 0.01)
      C   29      [core]2S( 0.96)2p( 3.34)3p( 0.01)
      C   30      [core]2S( 0.94)2p( 3.27)3p( 0.01)
      C   31      [core]2S( 1.09)2p( 3.58)3p( 0.01)
      H   32            1S( 0.76)
      H   33            1S( 0.75)
      H   34            1S( 0.76)
      H   35            1S( 0.76)
      H   36            1S( 0.75)
      H   37            1S( 0.74)
      H   38            1S( 0.75)
      H   39            1S( 0.56)
      H   40            1S( 0.56)
      H   41            1S( 0.75)
      H   42            1S( 0.74)
      H   43            1S( 0.75)
      H   44            1S( 0.76)
      H   45            1S( 0.75)
      H   46            1S( 0.75)
      H   47            1S( 0.74)
      H   48            1S( 0.75)
      H   49            1S( 0.58)
      H   50            1S( 0.58)
      H   51            1S( 0.75)
      H   52            1S( 0.74)
      H   53            1S( 0.74)
      H   54            1S( 0.75)
      H   55            1S( 0.76)
      H   56            1S( 0.76)
      H   57            1S( 0.76)


 NBO analysis skipped by request.
 1\1\GINC-DRG2-W001\SP\RB3LYP TD-FC\6-31G(d,p)\C27H26N2O2\QDUEZ\18-Jul-
 2024\0\\# TD(NStates=10, Root=1) B3LYP/6-31G** SCRF=(Solvent=water) vo
 lume pop=NPA density=current Geom=AllCheck Guess=Read\\KMKWGXGSGPYISJ-
 UHFFFAOYSA-N_conf_4\\0,1\C,0,-0.1484735145,0.4321453549,-3.5094630117\
 C,0,-0.0805989506,-0.8664191722,-2.670484697\C,0,1.3269457814,-0.94852
 42459,-2.0437413314\C,0,2.3018530546,-1.8672199062,-2.4578030216\C,0,3
 .5799249733,-1.8785765702,-1.8984387645\C,0,3.916106078,-0.9596252073,
 -0.9023367984\O,0,5.1978239855,-1.049595589,-0.3996982188\C,0,5.636284
 3553,-0.1132988153,0.5370320102\C,0,5.608914826,-0.4317722011,1.894113
 328\C,0,6.1235331965,0.463054184,2.8299565484\C,0,6.6726602051,1.69362
 46881,2.423793466\N,0,7.2476502662,2.5615852657,3.3534583487\C,0,6.690
 8965377,1.9967022076,1.0490219411\C,0,6.1788065051,1.1003643925,0.1140
 337285\C,0,2.9637929203,-0.0326650715,-0.4668061604\C,0,1.6920572599,-
 0.0401695163,-1.0377590192\C,0,-1.1462127554,-0.8964519628,-1.55571179
 81\C,0,-1.1398407952,-1.9469345718,-0.6190082824\C,0,-2.1020658755,-2.
 0464638126,0.3779444515\C,0,-3.1125217022,-1.0806068129,0.4704077172\O
 ,0,-4.0232735273,-1.2574974784,1.4912859399\C,0,-5.0534929518,-0.33159
 26418,1.6591257395\C,0,-6.2867902376,-0.5456075068,1.0443132266\C,0,-7
 .3436900575,0.3305275299,1.2810613427\C,0,-7.1847610717,1.4367259643,2
 .1369581969\N,0,-8.2230608272,2.3505716347,2.3234903308\C,0,-5.9334656
 762,1.6329059083,2.7512478447\C,0,-4.8772811304,0.7561875888,2.5139136
 079\C,0,-3.1434897237,-0.025530722,-0.4400353993\C,0,-2.1656439032,0.0
 537530608,-1.4391708634\C,0,-0.364304176,-2.0492578294,-3.62737709\H,0
 ,-0.008761883,1.3255444404,-2.8942133521\H,0,0.6427425622,0.4195643015
 ,-4.2647482365\H,0,-1.1064881604,0.5205087037,-4.03209216\H,0,2.077816
 7536,-2.5948735852,-3.2294985755\H,0,4.3246451658,-2.5968774431,-2.226
 4954032\H,0,5.1885448064,-1.3805888587,2.2122897951\H,0,6.1035382752,0
 .2080258446,3.8859691561\H,0,6.8844580832,2.4749955088,4.2942036974\H,
 0,7.2772970864,3.5310544736,3.064314723\H,0,7.1149048459,2.939654495,0
 .7147281187\H,0,6.2008318981,1.3380874706,-0.9448904951\H,0,3.20944411
 5,0.6820397035,0.309885187\H,0,0.9611309468,0.6790071854,-0.6787466634
 \H,0,-0.3576162183,-2.6993283869,-0.6650552237\H,0,-2.0846288238,-2.86
 12926761,1.0948952896\H,0,-6.417817799,-1.4023335767,0.3907880331\H,0,
 -8.3036262161,0.1577563478,0.8021542719\H,0,-8.1774734373,2.8714009311
 ,3.1900932228\H,0,-9.1504349172,1.9730205121,2.1758909805\H,0,-5.79218
 06147,2.4772689637,3.420390461\H,0,-3.9174377344,0.90694618,2.99788960
 81\H,0,-3.9172687341,0.7305522911,-0.3775293049\H,0,-2.2196415273,0.88
 6301536,-2.1315197553\H,0,0.3218101206,-2.0465366859,-4.4805128287\H,0
 ,-1.3821014682,-1.9645675146,-4.0192036901\H,0,-0.2799701944,-3.015668
 3081,-3.1222624487\\Version=ES64L-G16RevA.03\State=1-A\HF=-1304.531249
 2\RMSD=4.463e-09\Dipole=0.5270608,3.0676463,2.8550293\Quadrupole=24.82
 56657,-15.8440818,-8.9815839,18.5717651,18.3552747,18.7254894\PG=C01 [
 X(C27H26N2O2)]\\@


 THE DIFFICULTY IN SCIENCE IS OFTEN NOT SO MUCH HOW
 TO MAKE A DISCOVERY BUT RATHER TO KNOW ONE HAS MADE IT.

                                                   -- J. D. BERNAL
 Job cpu time:       0 days  3 hours 33 minutes 10.0 seconds.
 Elapsed time:       0 days  1 hours 11 minutes 14.6 seconds.
 File lengths (MBytes):  RWF=   2741 Int=      0 D2E=      0 Chk=    168 Scr=      1
 Normal termination of Gaussian 16 at Thu Jul 18 14:54:43 2024.
