 Entering Gaussian System, Link 0=g16
 Initial command:
 /opt/sw/arch/manual/gaussian/G16_A03/g16/l1.exe "/scratch/1380908/Gau-112774.inp" -scrdir="/scratch/1380908/"
 Entering Link 1 = /opt/sw/arch/manual/gaussian/G16_A03/g16/l1.exe PID=    112775.
  
 Copyright (c) 1988,1990,1992,1993,1995,1998,2003,2009,2016,
            Gaussian, Inc.  All Rights Reserved.
  
 This is part of the Gaussian(R) 16 program.  It is based on
 the Gaussian(R) 09 system (copyright 2009, Gaussian, Inc.),
 the Gaussian(R) 03 system (copyright 2003, Gaussian, Inc.),
 the Gaussian(R) 98 system (copyright 1998, Gaussian, Inc.),
 the Gaussian(R) 94 system (copyright 1995, Gaussian, Inc.),
 the Gaussian 92(TM) system (copyright 1992, Gaussian, Inc.),
 the Gaussian 90(TM) system (copyright 1990, Gaussian, Inc.),
 the Gaussian 88(TM) system (copyright 1988, Gaussian, Inc.),
 the Gaussian 86(TM) system (copyright 1986, Carnegie Mellon
 University), and the Gaussian 82(TM) system (copyright 1983,
 Carnegie Mellon University). Gaussian is a federally registered
 trademark of Gaussian, Inc.
  
 This software contains proprietary and confidential information,
 including trade secrets, belonging to Gaussian, Inc.
  
 This software is provided under written license and may be
 used, copied, transmitted, or stored only in accord with that
 written license.
  
 The following legend is applicable only to US Government
 contracts under FAR:
  
                    RESTRICTED RIGHTS LEGEND
  
 Use, reproduction and disclosure by the US Government is
 subject to restrictions as set forth in subparagraphs (a)
 and (c) of the Commercial Computer Software - Restricted
 Rights clause in FAR 52.227-19.
  
 Gaussian, Inc.
 340 Quinnipiac St., Bldg. 40, Wallingford CT 06492
  
  
 ---------------------------------------------------------------
 Warning -- This program may not be used in any manner that
 competes with the business of Gaussian, Inc. or will provide
 assistance to any competitor of Gaussian, Inc.  The licensee
 of this program is prohibited from giving any competitor of
 Gaussian, Inc. access to this program.  By using this program,
 the user acknowledges that Gaussian, Inc. is engaged in the
 business of creating and licensing software in the field of
 computational chemistry and represents and warrants to the
 licensee that it is not a competitor of Gaussian, Inc. and that
 it will not use this program in any manner prohibited above.
 ---------------------------------------------------------------
  

 Cite this work as:
 Gaussian 16, Revision A.03,
 M. J. Frisch, G. W. Trucks, H. B. Schlegel, G. E. Scuseria, 
 M. A. Robb, J. R. Cheeseman, G. Scalmani, V. Barone, 
 G. A. Petersson, H. Nakatsuji, X. Li, M. Caricato, A. V. Marenich, 
 J. Bloino, B. G. Janesko, R. Gomperts, B. Mennucci, H. P. Hratchian, 
 J. V. Ortiz, A. F. Izmaylov, J. L. Sonnenberg, D. Williams-Young, 
 F. Ding, F. Lipparini, F. Egidi, J. Goings, B. Peng, A. Petrone, 
 T. Henderson, D. Ranasinghe, V. G. Zakrzewski, J. Gao, N. Rega, 
 G. Zheng, W. Liang, M. Hada, M. Ehara, K. Toyota, R. Fukuda, 
 J. Hasegawa, M. Ishida, T. Nakajima, Y. Honda, O. Kitao, H. Nakai, 
 T. Vreven, K. Throssell, J. A. Montgomery, Jr., J. E. Peralta, 
 F. Ogliaro, M. J. Bearpark, J. J. Heyd, E. N. Brothers, K. N. Kudin, 
 V. N. Staroverov, T. A. Keith, R. Kobayashi, J. Normand, 
 K. Raghavachari, A. P. Rendell, J. C. Burant, S. S. Iyengar, 
 J. Tomasi, M. Cossi, J. M. Millam, M. Klene, C. Adamo, R. Cammi, 
 J. W. Ochterski, R. L. Martin, K. Morokuma, O. Farkas, 
 J. B. Foresman, and D. J. Fox, Gaussian, Inc., Wallingford CT, 2016.
 
 ******************************************
 Gaussian 16:  ES64L-G16RevA.03 25-Dec-2016
                18-Jul-2024 
 ******************************************
 %nprocshared=9
 Will use up to    9 processors via shared memory.
 %mem=18GB
 %Chk=KMKWGXGSGPYISJ-UHFFFAOYSA-N_conf_0_0.chk
 -------------------------------------------------------
 # opt=CalcFc B3LYP/6-31G** SCRF=(Solvent=water) scf=xqc
 -------------------------------------------------------
 1/10=4,18=20,19=15,26=3,38=1/1,3;
 2/9=110,12=2,17=6,18=5,40=1/2;
 3/5=1,6=6,7=101,11=2,25=1,30=1,70=2201,71=2,72=1,74=-5,140=1/1,2,3;
 4//1;
 5/5=2,8=3,13=1,38=5,53=1/2,8;
 8/6=4,10=90,11=11/1;
 11/6=1,8=1,9=11,15=111,16=1/1,2,10;
 10/6=1,13=1/2;
 6/7=2,8=2,9=2,10=2,28=1/1;
 7/10=1,18=20,25=1/1,2,3,16;
 1/10=4,18=20,19=15,26=3/3(2);
 2/9=110/2;
 99//99;
 2/9=110/2;
 3/5=1,6=6,7=101,11=2,25=1,30=1,70=2205,71=1,72=1,74=-5/1,2,3;
 4/5=5,16=3,69=1/1;
 5/5=2,8=3,13=1,38=5,53=1/2,8;
 7//1,2,3,16;
 1/18=20,19=15,26=3/3(-5);
 2/9=110/2;
 6/7=2,8=2,9=2,10=2,19=2,28=1/1;
 99/9=1/99;
 ----------------------------------
 KMKWGXGSGPYISJ-UHFFFAOYSA-N_conf_0
 ----------------------------------
 Symbolic Z-matrix:
 Charge =  0 Multiplicity = 1
 C                    -0.3074   -2.39851   1.69195 
 C                     0.02006  -1.94764   0.24309 
 C                     1.15759  -0.8995    0.16053 
 C                     1.92361  -0.51544   1.27662 
 C                     2.94941   0.42784   1.15718 
 C                     3.23374   0.9884   -0.08515 
 O                     4.21161   1.94171  -0.22327 
 C                     5.52294   1.53383  -0.09332 
 C                     5.98345   0.23584  -0.31644 
 C                     7.34776  -0.05328  -0.19893 
 C                     8.26217   0.93453   0.16875 
 N                     9.63422   0.66388   0.15605 
 C                     7.80248   2.24257   0.32035 
 C                     6.43991   2.53811   0.20787 
 C                     2.48229   0.64471  -1.20252 
 C                     1.45976  -0.29855  -1.08153 
 C                    -1.29602  -1.38722  -0.34929 
 C                    -2.00652  -2.03206  -1.37603 
 C                    -3.19464  -1.4922   -1.88028 
 C                    -3.70037  -0.30534  -1.35925 
 O                    -4.85404   0.1895   -1.92392 
 C                    -5.83749   0.61484  -1.0628 
 C                    -6.30553  -0.17397  -0.01316 
 C                    -7.33791   0.29765   0.80067 
 C                    -7.88765   1.56617   0.59475 
 N                    -8.99582   1.98175   1.3389 
 C                    -7.46378   2.30929  -0.50939 
 C                    -6.43679   1.84078  -1.33235 
 C                    -3.00624   0.36606  -0.35607 
 C                    -1.82059  -0.17465   0.14727 
 C                     0.54242  -3.21322  -0.48683 
 H                    -1.14186  -3.11071   1.70335 
 H                     0.54689  -2.89881   2.1631 
 H                    -0.59392  -1.55777   2.33417 
 H                     1.74014  -0.93441   2.26165 
 H                     3.52247   0.72224   2.03183 
 H                     5.30471  -0.5578   -0.6077 
 H                     7.69269  -1.06038  -0.40899 
 H                     9.87028  -0.30554   0.3329 
 H                     10.19433   1.31248   0.69857 
 H                     8.50217   3.04714   0.52178 
 H                     6.09625   3.55863   0.34074 
 H                     2.6906    1.10382  -2.16546 
 H                     0.88625  -0.55593  -1.97068 
 H                    -1.6476   -2.9585   -1.81845 
 H                    -3.72395  -2.0015   -2.68301 
 H                    -5.89056  -1.16192   0.16333 
 H                    -7.71545  -0.3407    1.59371 
 H                    -9.12637   2.9878    1.36473 
 H                    -9.05943   1.55673   2.25848 
 H                    -7.93758   3.25709  -0.74708 
 H                    -6.11365   2.4275   -2.18527 
 H                    -3.37196   1.31217   0.03411 
 H                    -1.29595   0.36941   0.93121 
 H                    -0.16061  -4.05042  -0.39665 
 H                     0.71152  -3.03849  -1.55559 
 H                     1.49792  -3.54803  -0.06246 
 

 GradGradGradGradGradGradGradGradGradGradGradGradGradGradGradGradGradGrad
 Berny optimization.
 Initialization pass.
                           ----------------------------
                           !    Initial Parameters    !
                           ! (Angstroms and Degrees)  !
 --------------------------                            --------------------------
 ! Name  Definition              Value          Derivative Info.                !
 --------------------------------------------------------------------------------
 ! R1    R(1,2)                  1.5523         calculate D2E/DX2 analytically  !
 ! R2    R(1,32)                 1.0971         calculate D2E/DX2 analytically  !
 ! R3    R(1,33)                 1.0964         calculate D2E/DX2 analytically  !
 ! R4    R(1,34)                 1.0961         calculate D2E/DX2 analytically  !
 ! R5    R(2,3)                  1.549          calculate D2E/DX2 analytically  !
 ! R6    R(2,17)                 1.5482         calculate D2E/DX2 analytically  !
 ! R7    R(2,31)                 1.5516         calculate D2E/DX2 analytically  !
 ! R8    R(3,4)                  1.4071         calculate D2E/DX2 analytically  !
 ! R9    R(3,16)                 1.4125         calculate D2E/DX2 analytically  !
 ! R10   R(4,5)                  1.3987         calculate D2E/DX2 analytically  !
 ! R11   R(4,35)                 1.086          calculate D2E/DX2 analytically  !
 ! R12   R(5,6)                  1.3923         calculate D2E/DX2 analytically  !
 ! R13   R(5,36)                 1.0863         calculate D2E/DX2 analytically  !
 ! R14   R(6,7)                  1.3726         calculate D2E/DX2 analytically  !
 ! R15   R(6,15)                 1.3897         calculate D2E/DX2 analytically  !
 ! R16   R(7,8)                  1.3794         calculate D2E/DX2 analytically  !
 ! R17   R(8,9)                  1.3952         calculate D2E/DX2 analytically  !
 ! R18   R(8,14)                 1.3929         calculate D2E/DX2 analytically  !
 ! R19   R(9,10)                 1.3996         calculate D2E/DX2 analytically  !
 ! R20   R(9,37)                 1.0841         calculate D2E/DX2 analytically  !
 ! R21   R(10,11)                1.3954         calculate D2E/DX2 analytically  !
 ! R22   R(10,38)                1.085          calculate D2E/DX2 analytically  !
 ! R23   R(11,12)                1.3985         calculate D2E/DX2 analytically  !
 ! R24   R(11,13)                1.3947         calculate D2E/DX2 analytically  !
 ! R25   R(12,39)                1.0133         calculate D2E/DX2 analytically  !
 ! R26   R(12,40)                1.0143         calculate D2E/DX2 analytically  !
 ! R27   R(13,14)                1.3988         calculate D2E/DX2 analytically  !
 ! R28   R(13,41)                1.0851         calculate D2E/DX2 analytically  !
 ! R29   R(14,42)                1.085          calculate D2E/DX2 analytically  !
 ! R30   R(15,16)                1.3964         calculate D2E/DX2 analytically  !
 ! R31   R(15,43)                1.0869         calculate D2E/DX2 analytically  !
 ! R32   R(16,44)                1.0889         calculate D2E/DX2 analytically  !
 ! R33   R(17,18)                1.4053         calculate D2E/DX2 analytically  !
 ! R34   R(17,30)                1.4114         calculate D2E/DX2 analytically  !
 ! R35   R(18,19)                1.399          calculate D2E/DX2 analytically  !
 ! R36   R(18,45)                1.0876         calculate D2E/DX2 analytically  !
 ! R37   R(19,20)                1.3914         calculate D2E/DX2 analytically  !
 ! R38   R(19,46)                1.0881         calculate D2E/DX2 analytically  !
 ! R39   R(20,21)                1.3765         calculate D2E/DX2 analytically  !
 ! R40   R(20,29)                1.3925         calculate D2E/DX2 analytically  !
 ! R41   R(21,22)                1.3746         calculate D2E/DX2 analytically  !
 ! R42   R(22,23)                1.3939         calculate D2E/DX2 analytically  !
 ! R43   R(22,28)                1.391          calculate D2E/DX2 analytically  !
 ! R44   R(23,24)                1.3966         calculate D2E/DX2 analytically  !
 ! R45   R(23,47)                1.086          calculate D2E/DX2 analytically  !
 ! R46   R(24,25)                1.3978         calculate D2E/DX2 analytically  !
 ! R47   R(24,48)                1.0858         calculate D2E/DX2 analytically  !
 ! R48   R(25,26)                1.398          calculate D2E/DX2 analytically  !
 ! R49   R(25,27)                1.3968         calculate D2E/DX2 analytically  !
 ! R50   R(26,49)                1.0148         calculate D2E/DX2 analytically  !
 ! R51   R(26,50)                1.015          calculate D2E/DX2 analytically  !
 ! R52   R(27,28)                1.397          calculate D2E/DX2 analytically  !
 ! R53   R(27,51)                1.086          calculate D2E/DX2 analytically  !
 ! R54   R(28,52)                1.0845         calculate D2E/DX2 analytically  !
 ! R55   R(29,30)                1.3969         calculate D2E/DX2 analytically  !
 ! R56   R(29,53)                1.0868         calculate D2E/DX2 analytically  !
 ! R57   R(30,54)                1.0889         calculate D2E/DX2 analytically  !
 ! R58   R(31,55)                1.0969         calculate D2E/DX2 analytically  !
 ! R59   R(31,56)                1.0961         calculate D2E/DX2 analytically  !
 ! R60   R(31,57)                1.0978         calculate D2E/DX2 analytically  !
 ! A1    A(2,1,32)             111.0193         calculate D2E/DX2 analytically  !
 ! A2    A(2,1,33)             111.6694         calculate D2E/DX2 analytically  !
 ! A3    A(2,1,34)             112.2859         calculate D2E/DX2 analytically  !
 ! A4    A(32,1,33)            106.9754         calculate D2E/DX2 analytically  !
 ! A5    A(32,1,34)            107.0385         calculate D2E/DX2 analytically  !
 ! A6    A(33,1,34)            107.5723         calculate D2E/DX2 analytically  !
 ! A7    A(1,2,3)              113.6526         calculate D2E/DX2 analytically  !
 ! A8    A(1,2,17)             106.4352         calculate D2E/DX2 analytically  !
 ! A9    A(1,2,31)             105.8543         calculate D2E/DX2 analytically  !
 ! A10   A(3,2,17)             111.0338         calculate D2E/DX2 analytically  !
 ! A11   A(3,2,31)             106.2383         calculate D2E/DX2 analytically  !
 ! A12   A(17,2,31)            113.6684         calculate D2E/DX2 analytically  !
 ! A13   A(2,3,4)              122.8335         calculate D2E/DX2 analytically  !
 ! A14   A(2,3,16)             119.4626         calculate D2E/DX2 analytically  !
 ! A15   A(4,3,16)             117.7026         calculate D2E/DX2 analytically  !
 ! A16   A(3,4,5)              121.0376         calculate D2E/DX2 analytically  !
 ! A17   A(3,4,35)             121.4763         calculate D2E/DX2 analytically  !
 ! A18   A(5,4,35)             117.4855         calculate D2E/DX2 analytically  !
 ! A19   A(4,5,6)              119.835          calculate D2E/DX2 analytically  !
 ! A20   A(4,5,36)             120.0592         calculate D2E/DX2 analytically  !
 ! A21   A(6,5,36)             120.1058         calculate D2E/DX2 analytically  !
 ! A22   A(5,6,7)              120.9907         calculate D2E/DX2 analytically  !
 ! A23   A(5,6,15)             120.4932         calculate D2E/DX2 analytically  !
 ! A24   A(7,6,15)             118.4288         calculate D2E/DX2 analytically  !
 ! A25   A(6,7,8)              117.5416         calculate D2E/DX2 analytically  !
 ! A26   A(7,8,9)              125.015          calculate D2E/DX2 analytically  !
 ! A27   A(7,8,14)             115.6581         calculate D2E/DX2 analytically  !
 ! A28   A(9,8,14)             119.2123         calculate D2E/DX2 analytically  !
 ! A29   A(8,9,10)             120.034          calculate D2E/DX2 analytically  !
 ! A30   A(8,9,37)             121.1541         calculate D2E/DX2 analytically  !
 ! A31   A(10,9,37)            118.7918         calculate D2E/DX2 analytically  !
 ! A32   A(9,10,11)            120.9768         calculate D2E/DX2 analytically  !
 ! A33   A(9,10,38)            119.0368         calculate D2E/DX2 analytically  !
 ! A34   A(11,10,38)           119.9832         calculate D2E/DX2 analytically  !
 ! A35   A(10,11,12)           120.2322         calculate D2E/DX2 analytically  !
 ! A36   A(10,11,13)           118.4619         calculate D2E/DX2 analytically  !
 ! A37   A(12,11,13)           120.3858         calculate D2E/DX2 analytically  !
 ! A38   A(11,12,39)           114.3371         calculate D2E/DX2 analytically  !
 ! A39   A(11,12,40)           114.4036         calculate D2E/DX2 analytically  !
 ! A40   A(39,12,40)           112.9407         calculate D2E/DX2 analytically  !
 ! A41   A(11,13,14)           120.6945         calculate D2E/DX2 analytically  !
 ! A42   A(11,13,41)           120.2005         calculate D2E/DX2 analytically  !
 ! A43   A(14,13,41)           119.1039         calculate D2E/DX2 analytically  !
 ! A44   A(8,14,13)            120.4204         calculate D2E/DX2 analytically  !
 ! A45   A(8,14,42)            119.744          calculate D2E/DX2 analytically  !
 ! A46   A(13,14,42)           119.8287         calculate D2E/DX2 analytically  !
 ! A47   A(6,15,16)            119.5603         calculate D2E/DX2 analytically  !
 ! A48   A(6,15,43)            120.2797         calculate D2E/DX2 analytically  !
 ! A49   A(16,15,43)           120.1596         calculate D2E/DX2 analytically  !
 ! A50   A(3,16,15)            121.3476         calculate D2E/DX2 analytically  !
 ! A51   A(3,16,44)            120.3167         calculate D2E/DX2 analytically  !
 ! A52   A(15,16,44)           118.3319         calculate D2E/DX2 analytically  !
 ! A53   A(2,17,18)            122.9039         calculate D2E/DX2 analytically  !
 ! A54   A(2,17,30)            119.492          calculate D2E/DX2 analytically  !
 ! A55   A(18,17,30)           117.6039         calculate D2E/DX2 analytically  !
 ! A56   A(17,18,19)           121.04           calculate D2E/DX2 analytically  !
 ! A57   A(17,18,45)           121.4146         calculate D2E/DX2 analytically  !
 ! A58   A(19,18,45)           117.5387         calculate D2E/DX2 analytically  !
 ! A59   A(18,19,20)           120.1901         calculate D2E/DX2 analytically  !
 ! A60   A(18,19,46)           119.8942         calculate D2E/DX2 analytically  !
 ! A61   A(20,19,46)           119.9157         calculate D2E/DX2 analytically  !
 ! A62   A(19,20,21)           117.238          calculate D2E/DX2 analytically  !
 ! A63   A(19,20,29)           119.9928         calculate D2E/DX2 analytically  !
 ! A64   A(21,20,29)           122.6841         calculate D2E/DX2 analytically  !
 ! A65   A(20,21,22)           116.9934         calculate D2E/DX2 analytically  !
 ! A66   A(21,22,23)           122.4685         calculate D2E/DX2 analytically  !
 ! A67   A(21,22,28)           117.359          calculate D2E/DX2 analytically  !
 ! A68   A(23,22,28)           120.0009         calculate D2E/DX2 analytically  !
 ! A69   A(22,23,24)           119.7291         calculate D2E/DX2 analytically  !
 ! A70   A(22,23,47)           120.589          calculate D2E/DX2 analytically  !
 ! A71   A(24,23,47)           119.6663         calculate D2E/DX2 analytically  !
 ! A72   A(23,24,25)           120.753          calculate D2E/DX2 analytically  !
 ! A73   A(23,24,48)           118.9536         calculate D2E/DX2 analytically  !
 ! A74   A(25,24,48)           120.2912         calculate D2E/DX2 analytically  !
 ! A75   A(24,25,26)           120.2059         calculate D2E/DX2 analytically  !
 ! A76   A(24,25,27)           118.6806         calculate D2E/DX2 analytically  !
 ! A77   A(26,25,27)           120.2092         calculate D2E/DX2 analytically  !
 ! A78   A(25,26,49)           114.2182         calculate D2E/DX2 analytically  !
 ! A79   A(25,26,50)           114.043          calculate D2E/DX2 analytically  !
 ! A80   A(49,26,50)           112.581          calculate D2E/DX2 analytically  !
 ! A81   A(25,27,28)           120.6873         calculate D2E/DX2 analytically  !
 ! A82   A(25,27,51)           120.3276         calculate D2E/DX2 analytically  !
 ! A83   A(28,27,51)           118.9814         calculate D2E/DX2 analytically  !
 ! A84   A(22,28,27)           119.8797         calculate D2E/DX2 analytically  !
 ! A85   A(22,28,52)           120.0567         calculate D2E/DX2 analytically  !
 ! A86   A(27,28,52)           120.0611         calculate D2E/DX2 analytically  !
 ! A87   A(20,29,30)           119.7384         calculate D2E/DX2 analytically  !
 ! A88   A(20,29,53)           120.7071         calculate D2E/DX2 analytically  !
 ! A89   A(30,29,53)           119.5521         calculate D2E/DX2 analytically  !
 ! A90   A(17,30,29)           121.4139         calculate D2E/DX2 analytically  !
 ! A91   A(17,30,54)           120.228          calculate D2E/DX2 analytically  !
 ! A92   A(29,30,54)           118.3541         calculate D2E/DX2 analytically  !
 ! A93   A(2,31,55)            111.5981         calculate D2E/DX2 analytically  !
 ! A94   A(2,31,56)            112.3722         calculate D2E/DX2 analytically  !
 ! A95   A(2,31,57)            111.0967         calculate D2E/DX2 analytically  !
 ! A96   A(55,31,56)           107.4999         calculate D2E/DX2 analytically  !
 ! A97   A(55,31,57)           107.0543         calculate D2E/DX2 analytically  !
 ! A98   A(56,31,57)           106.9343         calculate D2E/DX2 analytically  !
 ! D1    D(32,1,2,3)           177.8768         calculate D2E/DX2 analytically  !
 ! D2    D(32,1,2,17)           55.3479         calculate D2E/DX2 analytically  !
 ! D3    D(32,1,2,31)          -65.9086         calculate D2E/DX2 analytically  !
 ! D4    D(33,1,2,3)           -62.8331         calculate D2E/DX2 analytically  !
 ! D5    D(33,1,2,17)          174.638          calculate D2E/DX2 analytically  !
 ! D6    D(33,1,2,31)           53.3815         calculate D2E/DX2 analytically  !
 ! D7    D(34,1,2,3)            58.0932         calculate D2E/DX2 analytically  !
 ! D8    D(34,1,2,17)          -64.4357         calculate D2E/DX2 analytically  !
 ! D9    D(34,1,2,31)          174.3079         calculate D2E/DX2 analytically  !
 ! D10   D(1,2,3,4)              7.1217         calculate D2E/DX2 analytically  !
 ! D11   D(1,2,3,16)          -173.3041         calculate D2E/DX2 analytically  !
 ! D12   D(17,2,3,4)           127.0788         calculate D2E/DX2 analytically  !
 ! D13   D(17,2,3,16)          -53.3471         calculate D2E/DX2 analytically  !
 ! D14   D(31,2,3,4)          -108.8675         calculate D2E/DX2 analytically  !
 ! D15   D(31,2,3,16)           70.7067         calculate D2E/DX2 analytically  !
 ! D16   D(1,2,17,18)         -110.9787         calculate D2E/DX2 analytically  !
 ! D17   D(1,2,17,30)           69.1954         calculate D2E/DX2 analytically  !
 ! D18   D(3,2,17,18)          124.8565         calculate D2E/DX2 analytically  !
 ! D19   D(3,2,17,30)          -54.9694         calculate D2E/DX2 analytically  !
 ! D20   D(31,2,17,18)           5.1433         calculate D2E/DX2 analytically  !
 ! D21   D(31,2,17,30)        -174.6826         calculate D2E/DX2 analytically  !
 ! D22   D(1,2,31,55)           53.3296         calculate D2E/DX2 analytically  !
 ! D23   D(1,2,31,56)          174.1724         calculate D2E/DX2 analytically  !
 ! D24   D(1,2,31,57)          -66.0649         calculate D2E/DX2 analytically  !
 ! D25   D(3,2,31,55)          174.4674         calculate D2E/DX2 analytically  !
 ! D26   D(3,2,31,56)          -64.6898         calculate D2E/DX2 analytically  !
 ! D27   D(3,2,31,57)           55.073          calculate D2E/DX2 analytically  !
 ! D28   D(17,2,31,55)         -63.1328         calculate D2E/DX2 analytically  !
 ! D29   D(17,2,31,56)          57.7101         calculate D2E/DX2 analytically  !
 ! D30   D(17,2,31,57)         177.4728         calculate D2E/DX2 analytically  !
 ! D31   D(2,3,4,5)            179.5035         calculate D2E/DX2 analytically  !
 ! D32   D(2,3,4,35)            -0.763          calculate D2E/DX2 analytically  !
 ! D33   D(16,3,4,5)            -0.0777         calculate D2E/DX2 analytically  !
 ! D34   D(16,3,4,35)          179.6558         calculate D2E/DX2 analytically  !
 ! D35   D(2,3,16,15)         -179.6048         calculate D2E/DX2 analytically  !
 ! D36   D(2,3,16,44)            1.1114         calculate D2E/DX2 analytically  !
 ! D37   D(4,3,16,15)           -0.0089         calculate D2E/DX2 analytically  !
 ! D38   D(4,3,16,44)         -179.2928         calculate D2E/DX2 analytically  !
 ! D39   D(3,4,5,6)             -0.7754         calculate D2E/DX2 analytically  !
 ! D40   D(3,4,5,36)           179.212          calculate D2E/DX2 analytically  !
 ! D41   D(35,4,5,6)           179.4808         calculate D2E/DX2 analytically  !
 ! D42   D(35,4,5,36)           -0.5317         calculate D2E/DX2 analytically  !
 ! D43   D(4,5,6,7)            178.28           calculate D2E/DX2 analytically  !
 ! D44   D(4,5,6,15)             1.7319         calculate D2E/DX2 analytically  !
 ! D45   D(36,5,6,7)            -1.7075         calculate D2E/DX2 analytically  !
 ! D46   D(36,5,6,15)         -178.2556         calculate D2E/DX2 analytically  !
 ! D47   D(5,6,7,8)             71.0324         calculate D2E/DX2 analytically  !
 ! D48   D(15,6,7,8)          -112.3499         calculate D2E/DX2 analytically  !
 ! D49   D(5,6,15,16)           -1.8124         calculate D2E/DX2 analytically  !
 ! D50   D(5,6,15,43)          178.407          calculate D2E/DX2 analytically  !
 ! D51   D(7,6,15,16)         -178.4475         calculate D2E/DX2 analytically  !
 ! D52   D(7,6,15,43)            1.7718         calculate D2E/DX2 analytically  !
 ! D53   D(6,7,8,9)             24.6148         calculate D2E/DX2 analytically  !
 ! D54   D(6,7,8,14)          -159.3247         calculate D2E/DX2 analytically  !
 ! D55   D(7,8,9,10)           177.766          calculate D2E/DX2 analytically  !
 ! D56   D(7,8,9,37)            -0.5844         calculate D2E/DX2 analytically  !
 ! D57   D(14,8,9,10)            1.8347         calculate D2E/DX2 analytically  !
 ! D58   D(14,8,9,37)         -176.5157         calculate D2E/DX2 analytically  !
 ! D59   D(7,8,14,13)         -177.9835         calculate D2E/DX2 analytically  !
 ! D60   D(7,8,14,42)            1.063          calculate D2E/DX2 analytically  !
 ! D61   D(9,8,14,13)           -1.6798         calculate D2E/DX2 analytically  !
 ! D62   D(9,8,14,42)          177.3667         calculate D2E/DX2 analytically  !
 ! D63   D(8,9,10,11)            1.404          calculate D2E/DX2 analytically  !
 ! D64   D(8,9,10,38)         -177.9344         calculate D2E/DX2 analytically  !
 ! D65   D(37,9,10,11)         179.7932         calculate D2E/DX2 analytically  !
 ! D66   D(37,9,10,38)           0.4547         calculate D2E/DX2 analytically  !
 ! D67   D(9,10,11,12)        -173.7884         calculate D2E/DX2 analytically  !
 ! D68   D(9,10,11,13)          -4.7217         calculate D2E/DX2 analytically  !
 ! D69   D(38,10,11,12)          5.5439         calculate D2E/DX2 analytically  !
 ! D70   D(38,10,11,13)        174.6106         calculate D2E/DX2 analytically  !
 ! D71   D(10,11,12,39)        -29.3601         calculate D2E/DX2 analytically  !
 ! D72   D(10,11,12,40)       -161.8118         calculate D2E/DX2 analytically  !
 ! D73   D(13,11,12,39)        161.7849         calculate D2E/DX2 analytically  !
 ! D74   D(13,11,12,40)         29.3332         calculate D2E/DX2 analytically  !
 ! D75   D(10,11,13,14)          4.8711         calculate D2E/DX2 analytically  !
 ! D76   D(10,11,13,41)       -174.7489         calculate D2E/DX2 analytically  !
 ! D77   D(12,11,13,14)        173.9204         calculate D2E/DX2 analytically  !
 ! D78   D(12,11,13,41)         -5.6996         calculate D2E/DX2 analytically  !
 ! D79   D(11,13,14,8)          -1.7214         calculate D2E/DX2 analytically  !
 ! D80   D(11,13,14,42)        179.2329         calculate D2E/DX2 analytically  !
 ! D81   D(41,13,14,8)         177.9027         calculate D2E/DX2 analytically  !
 ! D82   D(41,13,14,42)         -1.143          calculate D2E/DX2 analytically  !
 ! D83   D(6,15,16,3)            0.9477         calculate D2E/DX2 analytically  !
 ! D84   D(6,15,16,44)        -179.7546         calculate D2E/DX2 analytically  !
 ! D85   D(43,15,16,3)        -179.2714         calculate D2E/DX2 analytically  !
 ! D86   D(43,15,16,44)          0.0263         calculate D2E/DX2 analytically  !
 ! D87   D(2,17,18,19)         179.83           calculate D2E/DX2 analytically  !
 ! D88   D(2,17,18,45)          -1.1254         calculate D2E/DX2 analytically  !
 ! D89   D(30,17,18,19)         -0.341          calculate D2E/DX2 analytically  !
 ! D90   D(30,17,18,45)        178.7036         calculate D2E/DX2 analytically  !
 ! D91   D(2,17,30,29)        -179.8751         calculate D2E/DX2 analytically  !
 ! D92   D(2,17,30,54)           0.8602         calculate D2E/DX2 analytically  !
 ! D93   D(18,17,30,29)          0.2898         calculate D2E/DX2 analytically  !
 ! D94   D(18,17,30,54)       -178.9748         calculate D2E/DX2 analytically  !
 ! D95   D(17,18,19,20)         -0.5992         calculate D2E/DX2 analytically  !
 ! D96   D(17,18,19,46)        179.3304         calculate D2E/DX2 analytically  !
 ! D97   D(45,18,19,20)       -179.6797         calculate D2E/DX2 analytically  !
 ! D98   D(45,18,19,46)          0.25           calculate D2E/DX2 analytically  !
 ! D99   D(18,19,20,21)        178.3401         calculate D2E/DX2 analytically  !
 ! D100  D(18,19,20,29)          1.6037         calculate D2E/DX2 analytically  !
 ! D101  D(46,19,20,21)         -1.5895         calculate D2E/DX2 analytically  !
 ! D102  D(46,19,20,29)       -178.3258         calculate D2E/DX2 analytically  !
 ! D103  D(19,20,21,22)        134.049          calculate D2E/DX2 analytically  !
 ! D104  D(29,20,21,22)        -49.3095         calculate D2E/DX2 analytically  !
 ! D105  D(19,20,29,30)         -1.648          calculate D2E/DX2 analytically  !
 ! D106  D(19,20,29,53)        177.7795         calculate D2E/DX2 analytically  !
 ! D107  D(21,20,29,30)       -178.2002         calculate D2E/DX2 analytically  !
 ! D108  D(21,20,29,53)          1.2274         calculate D2E/DX2 analytically  !
 ! D109  D(20,21,22,23)        -50.855          calculate D2E/DX2 analytically  !
 ! D110  D(20,21,22,28)        133.9123         calculate D2E/DX2 analytically  !
 ! D111  D(21,22,23,24)       -177.8944         calculate D2E/DX2 analytically  !
 ! D112  D(21,22,23,47)          0.6641         calculate D2E/DX2 analytically  !
 ! D113  D(28,22,23,24)         -2.7838         calculate D2E/DX2 analytically  !
 ! D114  D(28,22,23,47)        175.7747         calculate D2E/DX2 analytically  !
 ! D115  D(21,22,28,27)        178.5096         calculate D2E/DX2 analytically  !
 ! D116  D(21,22,28,52)         -0.9192         calculate D2E/DX2 analytically  !
 ! D117  D(23,22,28,27)          3.1538         calculate D2E/DX2 analytically  !
 ! D118  D(23,22,28,52)       -176.2751         calculate D2E/DX2 analytically  !
 ! D119  D(22,23,24,25)         -1.5014         calculate D2E/DX2 analytically  !
 ! D120  D(22,23,24,48)        177.9667         calculate D2E/DX2 analytically  !
 ! D121  D(47,23,24,25)        179.9267         calculate D2E/DX2 analytically  !
 ! D122  D(47,23,24,48)         -0.6052         calculate D2E/DX2 analytically  !
 ! D123  D(23,24,25,26)        174.4574         calculate D2E/DX2 analytically  !
 ! D124  D(23,24,25,27)          5.3163         calculate D2E/DX2 analytically  !
 ! D125  D(48,24,25,26)         -5.0036         calculate D2E/DX2 analytically  !
 ! D126  D(48,24,25,27)       -174.1447         calculate D2E/DX2 analytically  !
 ! D127  D(24,25,26,49)        159.8996         calculate D2E/DX2 analytically  !
 ! D128  D(24,25,26,50)         28.4688         calculate D2E/DX2 analytically  !
 ! D129  D(27,25,26,49)        -31.1262         calculate D2E/DX2 analytically  !
 ! D130  D(27,25,26,50)       -162.5569         calculate D2E/DX2 analytically  !
 ! D131  D(24,25,27,28)         -4.9425         calculate D2E/DX2 analytically  !
 ! D132  D(24,25,27,51)        174.3534         calculate D2E/DX2 analytically  !
 ! D133  D(26,25,27,28)       -174.0832         calculate D2E/DX2 analytically  !
 ! D134  D(26,25,27,51)          5.2127         calculate D2E/DX2 analytically  !
 ! D135  D(25,27,28,22)          0.7568         calculate D2E/DX2 analytically  !
 ! D136  D(25,27,28,52)       -179.8144         calculate D2E/DX2 analytically  !
 ! D137  D(51,27,28,22)       -178.5484         calculate D2E/DX2 analytically  !
 ! D138  D(51,27,28,52)          0.8804         calculate D2E/DX2 analytically  !
 ! D139  D(20,29,30,17)          0.6999         calculate D2E/DX2 analytically  !
 ! D140  D(20,29,30,54)        179.9779         calculate D2E/DX2 analytically  !
 ! D141  D(53,29,30,17)       -178.7343         calculate D2E/DX2 analytically  !
 ! D142  D(53,29,30,54)          0.5437         calculate D2E/DX2 analytically  !
 --------------------------------------------------------------------------------
 Trust Radius=3.00D-01 FncErr=1.00D-07 GrdErr=1.00D-06 EigMax=2.50D+02 EigMin=1.00D-04
 Number of steps in this run=    310 maximum allowed number of steps=    342.
 GradGradGradGradGradGradGradGradGradGradGradGradGradGradGradGradGradGrad

 Stoichiometry    C27H26N2O2
 Framework group  C1[X(C27H26N2O2)]
 Deg. of freedom   165
 Full point group                 C1      NOp   1
 Largest Abelian subgroup         C1      NOp   1
 Largest concise Abelian subgroup C1      NOp   1
                         Standard orientation:                         
 ---------------------------------------------------------------------
 Center     Atomic      Atomic             Coordinates (Angstroms)
 Number     Number       Type             X           Y           Z
 ---------------------------------------------------------------------
      1          6           0        0.260912    2.419218    2.044642
      2          6           0       -0.039141    2.089564    0.557694
      3          6           0       -1.187531    1.067655    0.367219
      4          6           0       -1.983487    0.607163    1.432282
      5          6           0       -3.018038   -0.308896    1.215826
      6          6           0       -3.281043   -0.764902   -0.073101
      7          8           0       -4.267382   -1.690157   -0.307932
      8          6           0       -5.576115   -1.275177   -0.174329
      9          6           0       -6.015147    0.042886   -0.303197
     10          6           0       -7.378049    0.341232   -0.192604
     11          6           0       -8.312877   -0.659484    0.075267
     12          7           0       -9.680789   -0.369101    0.054452
     13          6           0       -7.873176   -1.981877    0.132040
     14          6           0       -6.512207   -2.286990    0.025912
     15          6           0       -2.500140   -0.344340   -1.142969
     16          6           0       -1.468891    0.571619   -0.925047
     17          6           0        1.282950    1.559199   -0.048818
     18          6           0        2.024635    2.273314   -1.005253
     19          6           0        3.217053    1.758276   -1.525071
     20          6           0        3.695899    0.526681   -1.089472
     21          8           0        4.855819    0.061806   -1.666652
     22          6           0        5.814037   -0.444588   -0.821078
     23          6           0        6.267932    0.251598    0.297997
     24          6           0        7.275548   -0.297871    1.093824
     25          6           0        7.813906   -1.553762    0.799395
     26          7           0        8.899574   -2.042927    1.531889
     27          6           0        7.405969   -2.200710   -0.369390
     28          6           0        6.403905   -1.653691   -1.174443
     29          6           0        2.970782   -0.212274   -0.158277
     30          6           0        1.780866    0.303645    0.360749
     31          6           0       -0.528874    3.416449   -0.080159
     32          1           0        1.103753    3.116259    2.130854
     33          1           0       -0.597534    2.892674    2.535548
     34          1           0        0.522212    1.526113    2.623857
     35          1           0       -1.817228    0.943912    2.451313
     36          1           0       -3.614478   -0.663598    2.051605
     37          1           0       -5.320072    0.847362   -0.515487
     38          1           0       -7.705471    1.366653   -0.329132
     39          1           0       -9.908652    0.586486    0.302858
     40          1           0      -10.261170   -1.050661    0.531283
     41          1           0       -8.587291   -2.789810    0.253489
     42          1           0       -6.184470   -3.319655    0.084418
     43          1           0       -2.692236   -0.722494   -2.143732
     44          1           0       -0.872136    0.890579   -1.778216
     45          1           0        1.687495    3.237000   -1.380082
     46          1           0        3.770817    2.322101   -2.272984
     47          1           0        5.861466    1.228247    0.543649
     48          1           0        7.642928    0.270022    1.943217
     49          1           0        9.016893   -3.049611    1.480261
     50          1           0        8.947572   -1.693228    2.483587
     51          1           0        7.873148   -3.133322   -0.671549
     52          1           0        6.092924   -2.166141   -2.078215
     53          1           0        3.315657   -1.191517    0.163071
     54          1           0        1.231763   -0.293395    1.087275
     55          1           0        0.182358    4.233707    0.091681
     56          1           0       -0.675802    3.329578   -1.162866
     57          1           0       -1.489505    3.730126    0.348745
 ---------------------------------------------------------------------
 Rotational constants (GHZ):           0.3877319           0.0416562           0.0398353
 Standard basis: 6-31G(d,p) (6D, 7F)
 There are   595 symmetry adapted cartesian basis functions of A   symmetry.
 There are   595 symmetry adapted basis functions of A   symmetry.
   595 basis functions,  1050 primitive gaussians,   595 cartesian basis functions
   109 alpha electrons      109 beta electrons
       nuclear repulsion energy      2666.5651086037 Hartrees.
 NAtoms=   57 NActive=   57 NUniq=   57 SFac= 1.00D+00 NAtFMM=   60 NAOKFM=F Big=F
 Integral buffers will be    131072 words long.
 Raffenetti 2 integral format.
 Two-electron integral symmetry is turned on.
 Force inversion solution in PCM.
 ------------------------------------------------------------------------------
 Polarizable Continuum Model (PCM)
 =================================
 Model                : PCM.
 Atomic radii         : UFF (Universal Force Field).
 Polarization charges : Total charges.
 Charge compensation  : None.
 Solution method      : Matrix inversion.
 Cavity type          : Scaled VdW (van der Waals Surface) (Alpha=1.100).
 Cavity algorithm     : GePol (No added spheres)
                        Default sphere list used, NSphG=   57.
                        Lebedev-Laikov grids with approx.  5.0 points / Ang**2.
                        Smoothing algorithm: York/Karplus (Gamma=1.0000).
                        Polarization charges: spherical gaussians, with
                                              point-specific exponents (IZeta= 3).
                        Self-potential: point-specific (ISelfS= 7).
                        Self-field    : sphere-specific E.n sum rule (ISelfD= 2).
 1st derivatives      : Analytical E(r).r(x)/FMM algorithm (CHGder, D1EAlg=3).
                        Cavity 1st derivative terms included.
 2nd derivatives      : Analytical E(r).r(xy)/FMM algorithm (CHGder, D2EAlg=3).
                        Cavity 2nd derivative terms included.
 Solvent              : Water, Eps=  78.355300 Eps(inf)=   1.777849
 ------------------------------------------------------------------------------
 One-electron integrals computed using PRISM.
 NBasis=   595 RedAO= T EigKep=  4.06D-04  NBF=   595
 NBsUse=   595 1.00D-06 EigRej= -1.00D+00 NBFU=   595
 ExpMin= 1.61D-01 ExpMax= 5.48D+03 ExpMxC= 8.25D+02 IAcc=3 IRadAn=         5 AccDes= 0.00D+00
 Harris functional with IExCor=  402 and IRadAn=       5 diagonalized for initial guess.
 HarFok:  IExCor=  402 AccDes= 0.00D+00 IRadAn=         5 IDoV= 1 UseB2=F ITyADJ=14
 ICtDFT=  3500011 ScaDFX=  1.000000  1.000000  1.000000  1.000000
 FoFCou: FMM=F IPFlag=           0 FMFlag=      100000 FMFlg1=           0
         NFxFlg=           0 DoJE=T BraDBF=F KetDBF=T FulRan=T
         wScrn=  0.000000 ICntrl=       500 IOpCl=  0 I1Cent=   200000004 NGrid=           0
         NMat0=    1 NMatS0=      1 NMatT0=    0 NMatD0=    1 NMtDS0=    0 NMtDT0=    0
 Petite list used in FoFCou.
 Requested convergence on RMS density matrix=1.00D-08 within  32 cycles.
 Requested convergence on MAX density matrix=1.00D-06.
 Requested convergence on             energy=1.00D-06.
 No special actions if energy rises.
 Inv3:  Mode=1 IEnd=    48892107.
 Iteration    1 A*A^-1 deviation from unit magnitude is 3.44D-15 for   1461.
 Iteration    1 A*A^-1 deviation from orthogonality  is 2.50D-15 for   3172   2475.
 Iteration    1 A^-1*A deviation from unit magnitude is 3.33D-15 for   1461.
 Iteration    1 A^-1*A deviation from orthogonality  is 5.11D-15 for   2278   2244.
 Error on total polarization charges =  0.01331
 SCF Done:  E(RB3LYP) =  -1304.52292704     A.U. after   12 cycles
            NFock= 12  Conv=0.66D-08     -V/T= 2.0096
 QCSCF skips out because SCF is already converged.
 DoSCS=F DFT=T ScalE2(SS,OS)=  1.000000  1.000000
 Range of M.O.s used for correlation:     1   595
 NBasis=   595 NAE=   109 NBE=   109 NFC=     0 NFV=     0
 NROrb=    595 NOA=   109 NOB=   109 NVA=   486 NVB=   486
 Symmetrizing basis deriv contribution to polar:
 IMax=3 JMax=2 DiffMx= 0.00D+00
 G2DrvN: will do    58 centers at a time, making    1 passes.
 Calling FoFCou, ICntrl=  3107 FMM=F I1Cent=   0 AccDes= 0.00D+00.
 NEqPCM:  Using equilibrium solvation (IEInf=0, Eps=  78.3553, EpsInf=   1.7778)
 G2PCM: DoFxE=T DoFxN=T DoGrad=T DoDP/DQ/DG/TGxP=FFFF NFrqRd=   0 IEInf=0 SqF1=F DoCFld=F IF1Alg=4.
 End of G2Drv F.D. properties file   721 does not exist.
 End of G2Drv F.D. properties file   722 does not exist.
 End of G2Drv F.D. properties file   788 does not exist.
          IDoAtm=11111111111111111111111111111111111111111111111111
          IDoAtm=1111111
 NEqPCM:  Using equilibrium solvation (IEInf=0, Eps=  78.3553, EpsInf=   1.7778)
          Differentiating once with respect to nuclear coordinates.
 CalDSu exits because no D1Ps are significant.
          There are   174 degrees of freedom in the 1st order CPHF.  IDoFFX=6 NUNeed=     0.
    168 vectors produced by pass  0 Test12= 5.30D-14 1.00D-09 XBig12= 1.60D-01 1.67D-01.
 AX will form   168 AO Fock derivatives at one time.
    168 vectors produced by pass  1 Test12= 5.30D-14 1.00D-09 XBig12= 2.27D-02 2.77D-02.
    168 vectors produced by pass  2 Test12= 5.30D-14 1.00D-09 XBig12= 2.01D-04 1.65D-03.
    168 vectors produced by pass  3 Test12= 5.30D-14 1.00D-09 XBig12= 6.58D-07 8.42D-05.
    168 vectors produced by pass  4 Test12= 5.30D-14 1.00D-09 XBig12= 9.48D-10 2.64D-06.
    117 vectors produced by pass  5 Test12= 5.30D-14 1.00D-09 XBig12= 1.17D-12 8.06D-08.
     27 vectors produced by pass  6 Test12= 5.30D-14 1.00D-09 XBig12= 1.12D-15 2.50D-09.
 InvSVY:  IOpt=1 It=  1 EMax= 4.44D-16
 Solved reduced A of dimension   984 with   174 vectors.
 End of Minotr F.D. properties file   721 does not exist.
 End of Minotr F.D. properties file   722 does not exist.
 End of Minotr F.D. properties file   788 does not exist.

 **********************************************************************

            Population analysis using the SCF density.

 **********************************************************************

 Orbital symmetries:
       Occupied  (A) (A) (A) (A) (A) (A) (A) (A) (A) (A) (A) (A)
                 (A) (A) (A) (A) (A) (A) (A) (A) (A) (A) (A) (A)
                 (A) (A) (A) (A) (A) (A) (A) (A) (A) (A) (A) (A)
                 (A) (A) (A) (A) (A) (A) (A) (A) (A) (A) (A) (A)
                 (A) (A) (A) (A) (A) (A) (A) (A) (A) (A) (A) (A)
                 (A) (A) (A) (A) (A) (A) (A) (A) (A) (A) (A) (A)
                 (A) (A) (A) (A) (A) (A) (A) (A) (A) (A) (A) (A)
                 (A) (A) (A) (A) (A) (A) (A) (A) (A) (A) (A) (A)
                 (A) (A) (A) (A) (A) (A) (A) (A) (A) (A) (A) (A)
                 (A)
       Virtual   (A) (A) (A) (A) (A) (A) (A) (A) (A) (A) (A) (A)
                 (A) (A) (A) (A) (A) (A) (A) (A) (A) (A) (A) (A)
                 (A) (A) (A) (A) (A) (A) (A) (A) (A) (A) (A) (A)
                 (A) (A) (A) (A) (A) (A) (A) (A) (A) (A) (A) (A)
                 (A) (A) (A) (A) (A) (A) (A) (A) (A) (A) (A) (A)
                 (A) (A) (A) (A) (A) (A) (A) (A) (A) (A) (A) (A)
                 (A) (A) (A) (A) (A) (A) (A) (A) (A) (A) (A) (A)
                 (A) (A) (A) (A) (A) (A) (A) (A) (A) (A) (A) (A)
                 (A) (A) (A) (A) (A) (A) (A) (A) (A) (A) (A) (A)
                 (A) (A) (A) (A) (A) (A) (A) (A) (A) (A) (A) (A)
                 (A) (A) (A) (A) (A) (A) (A) (A) (A) (A) (A) (A)
                 (A) (A) (A) (A) (A) (A) (A) (A) (A) (A) (A) (A)
                 (A) (A) (A) (A) (A) (A) (A) (A) (A) (A) (A) (A)
                 (A) (A) (A) (A) (A) (A) (A) (A) (A) (A) (A) (A)
                 (A) (A) (A) (A) (A) (A) (A) (A) (A) (A) (A) (A)
                 (A) (A) (A) (A) (A) (A) (A) (A) (A) (A) (A) (A)
                 (A) (A) (A) (A) (A) (A) (A) (A) (A) (A) (A) (A)
                 (A) (A) (A) (A) (A) (A) (A) (A) (A) (A) (A) (A)
                 (A) (A) (A) (A) (A) (A) (A) (A) (A) (A) (A) (A)
                 (A) (A) (A) (A) (A) (A) (A) (A) (A) (A) (A) (A)
                 (A) (A) (A) (A) (A) (A) (A) (A) (A) (A) (A) (A)
                 (A) (A) (A) (A) (A) (A) (A) (A) (A) (A) (A) (A)
                 (A) (A) (A) (A) (A) (A) (A) (A) (A) (A) (A) (A)
                 (A) (A) (A) (A) (A) (A) (A) (A) (A) (A) (A) (A)
                 (A) (A) (A) (A) (A) (A) (A) (A) (A) (A) (A) (A)
                 (A) (A) (A) (A) (A) (A) (A) (A) (A) (A) (A) (A)
                 (A) (A) (A) (A) (A) (A) (A) (A) (A) (A) (A) (A)
                 (A) (A) (A) (A) (A) (A) (A) (A) (A) (A) (A) (A)
                 (A) (A) (A) (A) (A) (A) (A) (A) (A) (A) (A) (A)
                 (A) (A) (A) (A) (A) (A) (A) (A) (A) (A) (A) (A)
                 (A) (A) (A) (A) (A) (A) (A) (A) (A) (A) (A) (A)
                 (A) (A) (A) (A) (A) (A) (A) (A) (A) (A) (A) (A)
                 (A) (A) (A) (A) (A) (A) (A) (A) (A) (A) (A) (A)
                 (A) (A) (A) (A) (A) (A) (A) (A) (A) (A) (A) (A)
                 (A) (A) (A) (A) (A) (A) (A) (A) (A) (A) (A) (A)
                 (A) (A) (A) (A) (A) (A) (A) (A) (A) (A) (A) (A)
                 (A) (A) (A) (A) (A) (A) (A) (A) (A) (A) (A) (A)
                 (A) (A) (A) (A) (A) (A) (A) (A) (A) (A) (A) (A)
                 (A) (A) (A) (A) (A) (A) (A) (A) (A) (A) (A) (A)
                 (A) (A) (A) (A) (A) (A) (A) (A) (A) (A) (A) (A)
                 (A) (A) (A) (A) (A) (A)
 The electronic state is 1-A.
 Alpha  occ. eigenvalues --  -19.18309 -19.18260 -14.33494 -14.33305 -10.24764
 Alpha  occ. eigenvalues --  -10.24599 -10.24147 -10.23862 -10.22515 -10.22204
 Alpha  occ. eigenvalues --  -10.21371 -10.20039 -10.19791 -10.19381 -10.19365
 Alpha  occ. eigenvalues --  -10.19336 -10.19237 -10.19232 -10.19180 -10.19154
 Alpha  occ. eigenvalues --  -10.19092 -10.18939 -10.18915 -10.18842 -10.18680
 Alpha  occ. eigenvalues --  -10.18638 -10.18543 -10.18485 -10.18451 -10.17691
 Alpha  occ. eigenvalues --  -10.17675  -1.07810  -1.07793  -0.91375  -0.91196
 Alpha  occ. eigenvalues --   -0.86768  -0.85489  -0.83769  -0.83328  -0.80748
 Alpha  occ. eigenvalues --   -0.75435  -0.75017  -0.74939  -0.74781  -0.74402
 Alpha  occ. eigenvalues --   -0.73785  -0.71071  -0.70698  -0.68459  -0.63985
 Alpha  occ. eigenvalues --   -0.62972  -0.61939  -0.61526  -0.61164  -0.60911
 Alpha  occ. eigenvalues --   -0.59007  -0.57805  -0.55588  -0.54473  -0.54432
 Alpha  occ. eigenvalues --   -0.51394  -0.51307  -0.50686  -0.50371  -0.49307
 Alpha  occ. eigenvalues --   -0.48136  -0.47430  -0.45975  -0.45280  -0.44948
 Alpha  occ. eigenvalues --   -0.44615  -0.44596  -0.44130  -0.44045  -0.42531
 Alpha  occ. eigenvalues --   -0.42331  -0.42239  -0.42030  -0.41639  -0.41086
 Alpha  occ. eigenvalues --   -0.40501  -0.39964  -0.39367  -0.39118  -0.38827
 Alpha  occ. eigenvalues --   -0.38298  -0.38050  -0.37539  -0.36934  -0.36794
 Alpha  occ. eigenvalues --   -0.35986  -0.35295  -0.34840  -0.34584  -0.33824
 Alpha  occ. eigenvalues --   -0.33572  -0.32804  -0.32289  -0.31757  -0.29127
 Alpha  occ. eigenvalues --   -0.28402  -0.25731  -0.25616  -0.25164  -0.25043
 Alpha  occ. eigenvalues --   -0.24109  -0.22725  -0.19478  -0.19134
 Alpha virt. eigenvalues --   -0.01468  -0.01183  -0.00637  -0.00148   0.00025
 Alpha virt. eigenvalues --    0.00604   0.02230   0.02616   0.08761   0.09094
 Alpha virt. eigenvalues --    0.09414   0.10333   0.10798   0.10912   0.12087
 Alpha virt. eigenvalues --    0.12942   0.13184   0.13278   0.13724   0.13944
 Alpha virt. eigenvalues --    0.14730   0.15073   0.15419   0.16220   0.16634
 Alpha virt. eigenvalues --    0.16769   0.17128   0.17249   0.17314   0.17492
 Alpha virt. eigenvalues --    0.17699   0.17875   0.18204   0.18529   0.19069
 Alpha virt. eigenvalues --    0.20007   0.20255   0.20301   0.20563   0.22620
 Alpha virt. eigenvalues --    0.23145   0.23730   0.24753   0.25083   0.25486
 Alpha virt. eigenvalues --    0.25802   0.27742   0.27780   0.30140   0.30780
 Alpha virt. eigenvalues --    0.32801   0.33279   0.33416   0.33612   0.33665
 Alpha virt. eigenvalues --    0.34167   0.34445   0.34636   0.35151   0.35428
 Alpha virt. eigenvalues --    0.36511   0.37111   0.37447   0.38073   0.47745
 Alpha virt. eigenvalues --    0.47790   0.48513   0.48826   0.49137   0.49760
 Alpha virt. eigenvalues --    0.50040   0.50230   0.50958   0.51733   0.52228
 Alpha virt. eigenvalues --    0.52428   0.52797   0.53155   0.53493   0.53600
 Alpha virt. eigenvalues --    0.54440   0.54641   0.55249   0.55452   0.55897
 Alpha virt. eigenvalues --    0.56496   0.56968   0.58093   0.58166   0.58582
 Alpha virt. eigenvalues --    0.58811   0.59020   0.59387   0.59613   0.59697
 Alpha virt. eigenvalues --    0.59873   0.60065   0.60584   0.60776   0.61093
 Alpha virt. eigenvalues --    0.61383   0.61730   0.61883   0.62044   0.62909
 Alpha virt. eigenvalues --    0.63160   0.63363   0.63659   0.64348   0.65056
 Alpha virt. eigenvalues --    0.65584   0.66326   0.66769   0.67721   0.68259
 Alpha virt. eigenvalues --    0.68568   0.69827   0.70044   0.70124   0.70665
 Alpha virt. eigenvalues --    0.72491   0.73279   0.74582   0.75959   0.76283
 Alpha virt. eigenvalues --    0.76413   0.77791   0.78150   0.78410   0.78625
 Alpha virt. eigenvalues --    0.79420   0.79866   0.80424   0.81381   0.81831
 Alpha virt. eigenvalues --    0.82115   0.82276   0.82697   0.82783   0.83158
 Alpha virt. eigenvalues --    0.83856   0.84472   0.84720   0.85027   0.85268
 Alpha virt. eigenvalues --    0.85966   0.86076   0.86242   0.86499   0.87064
 Alpha virt. eigenvalues --    0.87696   0.88282   0.88978   0.89258   0.89593
 Alpha virt. eigenvalues --    0.89706   0.90739   0.91056   0.91621   0.92257
 Alpha virt. eigenvalues --    0.92762   0.93887   0.94106   0.94308   0.94696
 Alpha virt. eigenvalues --    0.95950   0.96983   0.98317   0.98976   0.99164
 Alpha virt. eigenvalues --    0.99779   1.00119   1.00825   1.01541   1.02765
 Alpha virt. eigenvalues --    1.03272   1.04066   1.04291   1.04727   1.05854
 Alpha virt. eigenvalues --    1.06619   1.08570   1.11307   1.11501   1.13348
 Alpha virt. eigenvalues --    1.14205   1.15238   1.15378   1.15833   1.16115
 Alpha virt. eigenvalues --    1.16306   1.16982   1.17462   1.18008   1.19081
 Alpha virt. eigenvalues --    1.20286   1.21368   1.21580   1.23534   1.23972
 Alpha virt. eigenvalues --    1.24870   1.25516   1.26377   1.29329   1.29758
 Alpha virt. eigenvalues --    1.29990   1.30602   1.31614   1.33299   1.34097
 Alpha virt. eigenvalues --    1.35507   1.35855   1.36804   1.37840   1.37963
 Alpha virt. eigenvalues --    1.38799   1.39442   1.40188   1.40423   1.40517
 Alpha virt. eigenvalues --    1.40673   1.40797   1.41418   1.42049   1.42749
 Alpha virt. eigenvalues --    1.43550   1.44273   1.45036   1.47086   1.47375
 Alpha virt. eigenvalues --    1.48273   1.49475   1.51123   1.51950   1.52555
 Alpha virt. eigenvalues --    1.54371   1.54771   1.60946   1.65987   1.68689
 Alpha virt. eigenvalues --    1.69174   1.70384   1.72404   1.73459   1.74601
 Alpha virt. eigenvalues --    1.75367   1.75806   1.76286   1.76447   1.77081
 Alpha virt. eigenvalues --    1.78139   1.78862   1.79295   1.79748   1.80529
 Alpha virt. eigenvalues --    1.80891   1.81968   1.82373   1.83399   1.84744
 Alpha virt. eigenvalues --    1.85398   1.86214   1.86505   1.86921   1.87650
 Alpha virt. eigenvalues --    1.87790   1.89133   1.89406   1.90299   1.90891
 Alpha virt. eigenvalues --    1.90912   1.91358   1.91815   1.92210   1.92472
 Alpha virt. eigenvalues --    1.92754   1.93254   1.94384   1.94895   1.95989
 Alpha virt. eigenvalues --    1.96462   1.96875   1.97411   1.97685   1.98396
 Alpha virt. eigenvalues --    1.98636   1.98921   1.99586   1.99914   2.00588
 Alpha virt. eigenvalues --    2.01505   2.02311   2.02523   2.05319   2.05708
 Alpha virt. eigenvalues --    2.06208   2.06361   2.07319   2.07514   2.09511
 Alpha virt. eigenvalues --    2.09707   2.10893   2.11643   2.12342   2.12888
 Alpha virt. eigenvalues --    2.14054   2.14106   2.14858   2.15170   2.16387
 Alpha virt. eigenvalues --    2.16576   2.16839   2.19949   2.21371   2.21748
 Alpha virt. eigenvalues --    2.22980   2.23953   2.24860   2.25419   2.25745
 Alpha virt. eigenvalues --    2.26716   2.27079   2.27313   2.29128   2.30270
 Alpha virt. eigenvalues --    2.30684   2.30907   2.31909   2.31935   2.33261
 Alpha virt. eigenvalues --    2.33808   2.34787   2.34860   2.35896   2.36096
 Alpha virt. eigenvalues --    2.36294   2.36634   2.37241   2.40138   2.41444
 Alpha virt. eigenvalues --    2.41482   2.41624   2.41682   2.41873   2.42333
 Alpha virt. eigenvalues --    2.44112   2.44709   2.45107   2.45513   2.45735
 Alpha virt. eigenvalues --    2.46848   2.46963   2.47053   2.47511   2.48293
 Alpha virt. eigenvalues --    2.48794   2.49430   2.49783   2.50815   2.51265
 Alpha virt. eigenvalues --    2.51805   2.53648   2.54439   2.54693   2.54819
 Alpha virt. eigenvalues --    2.56073   2.56631   2.56868   2.57407   2.58056
 Alpha virt. eigenvalues --    2.59115   2.59175   2.59673   2.59989   2.60021
 Alpha virt. eigenvalues --    2.60436   2.60996   2.64631   2.65328   2.65646
 Alpha virt. eigenvalues --    2.66399   2.68478   2.68933   2.70326   2.72481
 Alpha virt. eigenvalues --    2.72831   2.73372   2.74008   2.74359   2.74812
 Alpha virt. eigenvalues --    2.75206   2.76708   2.77329   2.79288   2.79906
 Alpha virt. eigenvalues --    2.80595   2.81081   2.82186   2.83717   2.84705
 Alpha virt. eigenvalues --    2.85000   2.85517   2.85963   2.87897   2.89474
 Alpha virt. eigenvalues --    2.91641   2.93429   2.96069   2.97430   2.98087
 Alpha virt. eigenvalues --    2.98513   3.00326   3.01939   3.03940   3.04986
 Alpha virt. eigenvalues --    3.06385   3.06927   3.08875   3.09081   3.11932
 Alpha virt. eigenvalues --    3.12787   3.17959   3.19047   3.20016   3.20435
 Alpha virt. eigenvalues --    3.20908   3.24284   3.25008   3.25211   3.25695
 Alpha virt. eigenvalues --    3.26638   3.28640   3.29184   3.31044   3.31855
 Alpha virt. eigenvalues --    3.35342   3.35664   3.36609   3.37302   3.37868
 Alpha virt. eigenvalues --    3.38427   3.42735   3.44362   3.48885   3.49099
 Alpha virt. eigenvalues --    3.49335   3.50339   3.51082   3.51950   3.55023
 Alpha virt. eigenvalues --    3.55292   3.79871   3.80804   3.84160   3.84338
 Alpha virt. eigenvalues --    4.03762   4.03973   4.13175   4.13628   4.14488
 Alpha virt. eigenvalues --    4.14988   4.15506   4.15989   4.16456   4.16620
 Alpha virt. eigenvalues --    4.17032   4.18672   4.23291   4.25866   4.41199
 Alpha virt. eigenvalues --    4.42009   4.42653   4.44179   4.44896   4.44932
 Alpha virt. eigenvalues --    4.45605   4.47795   4.49005   4.59381   4.60749
 Alpha virt. eigenvalues --    4.64938   4.72909   4.83301   4.84921   4.87277
 Alpha virt. eigenvalues --    4.88358
          Condensed to atoms (all electrons):
 Mulliken charges:
               1
     1  C   -0.316296
     2  C   -0.078523
     3  C    0.129973
     4  C   -0.153518
     5  C   -0.111236
     6  C    0.303019
     7  O   -0.588450
     8  C    0.303148
     9  C   -0.130621
    10  C   -0.143962
    11  C    0.258099
    12  N   -0.676013
    13  C   -0.138320
    14  C   -0.139664
    15  C   -0.124327
    16  C   -0.140969
    17  C    0.127385
    18  C   -0.152870
    19  C   -0.137211
    20  C    0.313582
    21  O   -0.586900
    22  C    0.292776
    23  C   -0.116889
    24  C   -0.142936
    25  C    0.259767
    26  N   -0.673892
    27  C   -0.141413
    28  C   -0.134266
    29  C   -0.117127
    30  C   -0.140851
    31  C   -0.315694
    32  H    0.110355
    33  H    0.108855
    34  H    0.109859
    35  H    0.103932
    36  H    0.107471
    37  H    0.106151
    38  H    0.098730
    39  H    0.275809
    40  H    0.275726
    41  H    0.097666
    42  H    0.100355
    43  H    0.106603
    44  H    0.103395
    45  H    0.102066
    46  H    0.103361
    47  H    0.106467
    48  H    0.100729
    49  H    0.277187
    50  H    0.276803
    51  H    0.099354
    52  H    0.102453
    53  H    0.108450
    54  H    0.103265
    55  H    0.109061
    56  H    0.109945
    57  H    0.110153
 Sum of Mulliken charges =  -0.00000
 Mulliken charges with hydrogens summed into heavy atoms:
               1
     1  C    0.012773
     2  C   -0.078523
     3  C    0.129973
     4  C   -0.049586
     5  C   -0.003764
     6  C    0.303019
     7  O   -0.588450
     8  C    0.303148
     9  C   -0.024470
    10  C   -0.045232
    11  C    0.258099
    12  N   -0.124478
    13  C   -0.040654
    14  C   -0.039309
    15  C   -0.017725
    16  C   -0.037574
    17  C    0.127385
    18  C   -0.050805
    19  C   -0.033850
    20  C    0.313582
    21  O   -0.586900
    22  C    0.292776
    23  C   -0.010421
    24  C   -0.042207
    25  C    0.259767
    26  N   -0.119903
    27  C   -0.042059
    28  C   -0.031814
    29  C   -0.008677
    30  C   -0.037586
    31  C    0.013465
 APT charges:
               1
     1  C   -1.175398
     2  C   -0.261753
     3  C   -0.262515
     4  C   -0.532191
     5  C   -0.477303
     6  C    0.237061
     7  O   -0.435688
     8  C   -0.957707
     9  C   -0.710682
    10  C   -0.329562
    11  C    0.785948
    12  N   -1.808294
    13  C   -0.198516
    14  C   -0.615230
    15  C   -0.544167
    16  C   -0.518493
    17  C   -0.375972
    18  C   -0.476554
    19  C   -0.515459
    20  C    0.227090
    21  O   -0.248714
    22  C   -0.881962
    23  C   -0.703046
    24  C   -0.333800
    25  C    0.482179
    26  N   -1.162748
    27  C   -0.354594
    28  C   -0.443565
    29  C   -0.448192
    30  C   -0.564621
    31  C   -1.284654
    32  H    0.564454
    33  H    0.524108
    34  H    0.189488
    35  H    0.497633
    36  H    0.705686
    37  H   -0.243497
    38  H    0.647523
    39  H    0.789630
    40  H    1.514701
    41  H    1.284503
    42  H    0.360476
    43  H    0.532695
    44  H    0.308378
    45  H    0.577656
    46  H    0.842839
    47  H    0.013735
    48  H    0.752215
    49  H    1.001928
    50  H    0.669583
    51  H    1.065300
    52  H    0.322107
    53  H    0.428034
    54  H    0.166214
    55  H    0.582134
    56  H    0.286884
    57  H    0.504697
 Sum of APT charges =  -0.00000
 APT charges with hydrogens summed into heavy atoms:
               1
     1  C    0.102652
     2  C   -0.261753
     3  C   -0.262515
     4  C   -0.034558
     5  C    0.228384
     6  C    0.237061
     7  O   -0.435688
     8  C   -0.957707
     9  C   -0.954179
    10  C    0.317961
    11  C    0.785948
    12  N    0.496037
    13  C    1.085987
    14  C   -0.254754
    15  C   -0.011473
    16  C   -0.210115
    17  C   -0.375972
    18  C    0.101102
    19  C    0.327380
    20  C    0.227090
    21  O   -0.248714
    22  C   -0.881962
    23  C   -0.689311
    24  C    0.418414
    25  C    0.482179
    26  N    0.508763
    27  C    0.710705
    28  C   -0.121459
    29  C   -0.020158
    30  C   -0.398407
    31  C    0.089061
 Electronic spatial extent (au):  <R**2>=          25467.5187
 Charge=             -0.0000 electrons
 Dipole moment (field-independent basis, Debye):
    X=             -1.0868    Y=              0.8725    Z=              4.7609  Tot=              4.9607
 Quadrupole moment (field-independent basis, Debye-Ang):
   XX=           -137.8671   YY=           -162.5214   ZZ=           -172.5892
   XY=            -20.7647   XZ=              5.1971   YZ=             -4.9847
 Traceless Quadrupole moment (field-independent basis, Debye-Ang):
   XX=             19.7922   YY=             -4.8622   ZZ=            -14.9300
   XY=            -20.7647   XZ=              5.1971   YZ=             -4.9847
 Octapole moment (field-independent basis, Debye-Ang**2):
  XXX=           -370.8930  YYY=            -30.3985  ZZZ=             22.3960  XYY=             51.4052
  XXY=           -124.6129  XXZ=            323.0070  XZZ=             56.2346  YZZ=             -7.2633
  YYZ=              4.5387  XYZ=            -12.9734
 Hexadecapole moment (field-independent basis, Debye-Ang**3):
 XXXX=         -24800.3640 YYYY=          -2547.9653 ZZZZ=          -1145.4072 XXXY=          -1224.6602
 XXXZ=            -59.7433 YYYX=           -206.6145 YYYZ=            -53.6667 ZZZX=            155.9971
 ZZZY=            -28.8006 XXYY=          -4528.0009 XXZZ=          -5003.6895 YYZZ=           -615.9703
 XXYZ=           -369.8484 YYXZ=             30.3521 ZZXY=           -111.8545
 N-N= 2.666565108604D+03 E-N=-8.363021358842D+03  KE= 1.292166739091D+03
  Exact polarizability:   0.000   0.000   0.000   0.000   0.000   0.000
 Approx polarizability: 533.353 -23.347 471.641  -9.059  -7.915 389.244
 D2PCM: PCM CHGder 2nd derivatives, FixD1E=F FixD2E=F DoIter=F DoCFld=F I1PDM=0
 Calling FoFJK, ICntrl=    100147 FMM=F ISym2X=0 I1Cent= 0 IOpClX= 0 NMat=1 NMatS=1 NMatT=0.
 ***** Axes restored to original set *****
 -------------------------------------------------------------------
 Center     Atomic                   Forces (Hartrees/Bohr)
 Number     Number              X              Y              Z
 -------------------------------------------------------------------
      1        6           0.002765076    0.003340728    0.005675677
      2        6           0.000967309   -0.007481366    0.003404647
      3        6          -0.004506938    0.003457916    0.001374949
      4        6          -0.000209143    0.001183730   -0.003604552
      5        6          -0.001035507   -0.003467400    0.002092707
      6        6          -0.006407809   -0.002664110    0.001342386
      7        8           0.000825828    0.004377700   -0.001368608
      8        6           0.008114185    0.003655699    0.000539960
      9        6           0.002313335   -0.004376867   -0.001167363
     10        6          -0.011772138   -0.002592905    0.002162979
     11        6           0.011311400   -0.000903816   -0.012816551
     12        7           0.001709645    0.000093535    0.001905578
     13        6          -0.011587482    0.008686004    0.003635957
     14        6           0.010116641    0.001519457    0.002099017
     15        6          -0.005844278   -0.006082168   -0.004400026
     16        6          -0.000926907   -0.000029557    0.004734836
     17        6           0.005037814    0.001165812   -0.004061879
     18        6           0.001037784    0.003358374    0.000148809
     19        6           0.002714954   -0.005217469   -0.000525062
     20        6           0.003700338   -0.006380240   -0.004652824
     21        8           0.004673473   -0.002974858   -0.006536053
     22        6          -0.007755223    0.005578158    0.001315729
     23        6          -0.003663597   -0.000976936    0.004247449
     24        6           0.010189283   -0.006427541   -0.000295380
     25        6          -0.016247501   -0.002713787   -0.002584958
     26        7           0.000503046    0.001563727    0.003353374
     27        6           0.007988165    0.003349399   -0.007885742
     28        6          -0.005150480    0.005054739    0.004658636
     29        6           0.005506864    0.002648703    0.007475580
     30        6          -0.001714732   -0.003063662   -0.003415022
     31        6          -0.002599450   -0.003043476   -0.006255406
     32        1           0.001661492    0.001706941   -0.003360283
     33        1           0.000236962    0.000722333   -0.000914813
     34        1           0.000250824   -0.000266943   -0.001127236
     35        1          -0.001925459   -0.000380720   -0.002067575
     36        1           0.000562376    0.000014875   -0.001165440
     37        1          -0.001507517    0.000751494    0.000784279
     38        1           0.000421605   -0.001112529    0.000833344
     39        1           0.001816018    0.002531377    0.002143309
     40        1           0.000002753   -0.004141424    0.000299098
     41        1           0.001109849    0.000146658    0.001331009
     42        1          -0.001359116   -0.000185194    0.000154095
     43        1           0.001391062   -0.000019717    0.001650878
     44        1          -0.000220009   -0.000167426    0.002770229
     45        1           0.000679819    0.001911448    0.002587818
     46        1          -0.000608080    0.001798872    0.001861076
     47        1           0.001068815    0.001052706   -0.000373517
     48        1          -0.000224544    0.000930926    0.001396629
     49        1          -0.000150056   -0.002787993    0.002776696
     50        1          -0.000334256    0.004167951   -0.001300615
     51        1          -0.000345868    0.000699775    0.001575988
     52        1           0.001674695   -0.000341761   -0.000177197
     53        1          -0.001334564   -0.001548905   -0.000689527
     54        1           0.000201977   -0.001492754   -0.002029222
     55        1          -0.000234436    0.001333715    0.000164744
     56        1          -0.000210308    0.000780636    0.000991250
     57        1          -0.002677989    0.003258138    0.001286140
 -------------------------------------------------------------------
 Cartesian Forces:  Max     0.016247501 RMS     0.003918601
 FormGI is forming the generalized inverse of G from B-inverse, IUseBI=4.

 GradGradGradGradGradGradGradGradGradGradGradGradGradGradGradGradGradGrad
 Berny optimization.
 Internal  Forces:  Max     0.015934290 RMS     0.002695930
 Search for a local minimum.
 Step number   1 out of a maximum of  310
 All quantities printed in internal units (Hartrees-Bohrs-Radians)
 Mixed Optimization -- RFO/linear search
 Second derivative matrix not updated -- analytic derivatives used.
 ITU=  0
     Eigenvalues ---   -0.00082   0.00013   0.00236   0.00268   0.00478
     Eigenvalues ---    0.00487   0.00499   0.00560   0.00684   0.00858
     Eigenvalues ---    0.01507   0.01589   0.01630   0.01682   0.01716
     Eigenvalues ---    0.01728   0.01733   0.01742   0.01754   0.01759
     Eigenvalues ---    0.01806   0.01821   0.01837   0.01852   0.02096
     Eigenvalues ---    0.02123   0.02141   0.02193   0.02235   0.02249
     Eigenvalues ---    0.02293   0.02307   0.02453   0.02503   0.02584
     Eigenvalues ---    0.02608   0.02666   0.02694   0.02741   0.02751
     Eigenvalues ---    0.02769   0.02796   0.02801   0.02809   0.02847
     Eigenvalues ---    0.02868   0.02962   0.03013   0.04575   0.04599
     Eigenvalues ---    0.04651   0.04759   0.05378   0.05534   0.06232
     Eigenvalues ---    0.10765   0.10794   0.10864   0.10905   0.11221
     Eigenvalues ---    0.11243   0.11312   0.11342   0.11633   0.11647
     Eigenvalues ---    0.11720   0.11774   0.11923   0.12058   0.12528
     Eigenvalues ---    0.12539   0.12566   0.12701   0.13214   0.13376
     Eigenvalues ---    0.13451   0.14076   0.14204   0.14938   0.15344
     Eigenvalues ---    0.15441   0.16814   0.17664   0.17731   0.17899
     Eigenvalues ---    0.18020   0.18049   0.18120   0.18233   0.18433
     Eigenvalues ---    0.19139   0.19372   0.19418   0.19894   0.19945
     Eigenvalues ---    0.20247   0.20606   0.21754   0.21969   0.22141
     Eigenvalues ---    0.22666   0.23108   0.23397   0.25189   0.25695
     Eigenvalues ---    0.26406   0.26817   0.26900   0.30193   0.30567
     Eigenvalues ---    0.30876   0.32777   0.32993   0.33127   0.33266
     Eigenvalues ---    0.33297   0.33491   0.34055   0.34163   0.34534
     Eigenvalues ---    0.34797   0.35453   0.35471   0.35728   0.35839
     Eigenvalues ---    0.35939   0.35981   0.36014   0.36091   0.36127
     Eigenvalues ---    0.36254   0.36291   0.36362   0.36453   0.36537
     Eigenvalues ---    0.36710   0.36920   0.38936   0.39231   0.40886
     Eigenvalues ---    0.40927   0.41231   0.41564   0.42486   0.42599
     Eigenvalues ---    0.44776   0.44953   0.45586   0.45863   0.46043
     Eigenvalues ---    0.46428   0.46529   0.46700   0.46857   0.46886
     Eigenvalues ---    0.47278   0.47467   0.48025   0.48281   0.48905
     Eigenvalues ---    0.49190   0.51705   0.51780   0.52948   0.53045
 RFO step:  Lambda=-1.00740669D-02 EMin=-8.21590245D-04
 Linear search not attempted -- first point.
 Iteration  1 RMS(Cart)=  0.21663279 RMS(Int)=  0.03569719
 Iteration  2 RMS(Cart)=  0.16915886 RMS(Int)=  0.01509917
 Iteration  3 RMS(Cart)=  0.15737443 RMS(Int)=  0.00438125
 Iteration  4 RMS(Cart)=  0.01404881 RMS(Int)=  0.00023534
 Iteration  5 RMS(Cart)=  0.00006669 RMS(Int)=  0.00023492
 Iteration  6 RMS(Cart)=  0.00000001 RMS(Int)=  0.00023492
 Variable       Old X    -DE/DX   Delta X   Delta X   Delta X     New X
                                 (Linear)    (Quad)   (Total)
    R1        2.93347  -0.00238   0.00000  -0.00830  -0.00830   2.92517
    R2        2.07326  -0.00241   0.00000  -0.00634  -0.00634   2.06693
    R3        2.07188  -0.00054   0.00000  -0.00287  -0.00287   2.06901
    R4        2.07130  -0.00093   0.00000  -0.00430  -0.00430   2.06701
    R5        2.92717  -0.00555   0.00000  -0.01267  -0.01267   2.91450
    R6        2.92576  -0.00537   0.00000  -0.01220  -0.01220   2.91356
    R7        2.93201  -0.00203   0.00000  -0.00696  -0.00696   2.92505
    R8        2.65905  -0.00515   0.00000  -0.00907  -0.00906   2.65000
    R9        2.66925  -0.00740   0.00000  -0.01586  -0.01586   2.65339
   R10        2.64313  -0.00081   0.00000  -0.00502  -0.00500   2.63812
   R11        2.05230  -0.00140   0.00000  -0.00386  -0.00386   2.04845
   R12        2.63103   0.00120   0.00000   0.00789   0.00789   2.63891
   R13        2.05284  -0.00064   0.00000  -0.00226  -0.00226   2.05058
   R14        2.59389   0.01402   0.00000   0.01918   0.01918   2.61307
   R15        2.62617   0.00500   0.00000   0.01102   0.01100   2.63718
   R16        2.60676   0.00913   0.00000   0.02170   0.02170   2.62846
   R17        2.63659   0.00104   0.00000   0.00330   0.00322   2.63981
   R18        2.63217   0.00477   0.00000   0.00134   0.00127   2.63344
   R19        2.64477  -0.00292   0.00000  -0.01397  -0.01398   2.63078
   R20        2.04874   0.00018   0.00000   0.00208   0.00208   2.05082
   R21        2.63689   0.00896   0.00000   0.02232   0.02239   2.65928
   R22        2.05045   0.00100   0.00000   0.00325   0.00325   2.05369
   R23        2.64287   0.00371   0.00000  -0.00061  -0.00061   2.64227
   R24        2.63567   0.01015   0.00000   0.02008   0.02016   2.65582
   R25        1.91486  -0.00163   0.00000  -0.00248  -0.00248   1.91237
   R26        1.91668  -0.00249   0.00000  -0.00455  -0.00455   1.91214
   R27        2.64332  -0.00449   0.00000  -0.00804  -0.00803   2.63528
   R28        2.05056   0.00107   0.00000   0.00312   0.00312   2.05368
   R29        2.05036   0.00028   0.00000   0.00072   0.00072   2.05108
   R30        2.63882  -0.00160   0.00000  -0.00584  -0.00586   2.63297
   R31        2.05401  -0.00120   0.00000  -0.00323  -0.00323   2.05078
   R32        2.05776  -0.00211   0.00000  -0.00520  -0.00520   2.05256
   R33        2.65560  -0.00461   0.00000  -0.00954  -0.00951   2.64609
   R34        2.66718  -0.00548   0.00000  -0.00972  -0.00969   2.65749
   R35        2.64382  -0.00079   0.00000  -0.00240  -0.00240   2.64141
   R36        2.05525  -0.00246   0.00000  -0.00692  -0.00692   2.04832
   R37        2.62928   0.00171   0.00000   0.00270   0.00268   2.63196
   R38        2.05618  -0.00192   0.00000  -0.00522  -0.00522   2.05096
   R39        2.60114   0.00867   0.00000   0.01128   0.01128   2.61242
   R40        2.63139   0.00427   0.00000   0.01271   0.01268   2.64407
   R41        2.59768   0.01593   0.00000   0.02999   0.02999   2.62766
   R42        2.63413   0.00302   0.00000   0.00511   0.00498   2.63911
   R43        2.62852   0.00469   0.00000   0.00623   0.00612   2.63463
   R44        2.63923  -0.00173   0.00000  -0.00684  -0.00685   2.63238
   R45        2.05225  -0.00061   0.00000  -0.00150  -0.00150   2.05074
   R46        2.64142   0.00806   0.00000   0.01675   0.01686   2.65827
   R47        2.05184   0.00055   0.00000   0.00161   0.00161   2.05345
   R48        2.64191   0.00343   0.00000   0.00123   0.00123   2.64314
   R49        2.63954   0.00809   0.00000   0.01687   0.01699   2.65654
   R50        1.91771  -0.00267   0.00000  -0.00460  -0.00460   1.91311
   R51        1.91816  -0.00290   0.00000  -0.00507  -0.00507   1.91309
   R52        2.63985  -0.00144   0.00000  -0.00606  -0.00605   2.63381
   R53        2.05218   0.00042   0.00000   0.00119   0.00119   2.05336
   R54        2.04939   0.00045   0.00000   0.00156   0.00156   2.05095
   R55        2.63985  -0.00337   0.00000  -0.00996  -0.00996   2.62989
   R56        2.05374  -0.00115   0.00000  -0.00370  -0.00370   2.05004
   R57        2.05782  -0.00211   0.00000  -0.00491  -0.00491   2.05291
   R58        2.07293  -0.00085   0.00000  -0.00370  -0.00370   2.06922
   R59        2.07129  -0.00088   0.00000  -0.00424  -0.00424   2.06704
   R60        2.07454  -0.00283   0.00000  -0.00760  -0.00760   2.06694
    A1        1.93765  -0.00449   0.00000  -0.02660  -0.02671   1.91094
    A2        1.94900  -0.00041   0.00000  -0.00403  -0.00408   1.94492
    A3        1.95976   0.00002   0.00000  -0.00348  -0.00352   1.95623
    A4        1.86707   0.00237   0.00000   0.01246   0.01234   1.87942
    A5        1.86817   0.00217   0.00000   0.01297   0.01287   1.88104
    A6        1.87749   0.00070   0.00000   0.01110   0.01111   1.88860
    A7        1.98361  -0.00454   0.00000  -0.02344  -0.02369   1.95992
    A8        1.85764   0.00398   0.00000   0.02182   0.02181   1.87945
    A9        1.84751   0.00209   0.00000   0.02409   0.02431   1.87181
   A10        1.93791  -0.00126   0.00000  -0.02143  -0.02132   1.91658
   A11        1.85421   0.00402   0.00000   0.02347   0.02344   1.87765
   A12        1.98389  -0.00453   0.00000  -0.02451  -0.02471   1.95917
   A13        2.14385  -0.00038   0.00000   0.00401   0.00394   2.14779
   A14        2.08502  -0.00052   0.00000   0.00169   0.00161   2.08663
   A15        2.05430   0.00090   0.00000  -0.00583  -0.00589   2.04840
   A16        2.11251   0.00189   0.00000   0.01085   0.01086   2.12337
   A17        2.12016  -0.00342   0.00000  -0.01943  -0.01944   2.10072
   A18        2.05051   0.00153   0.00000   0.00856   0.00854   2.05905
   A19        2.09151  -0.00055   0.00000  -0.00293  -0.00293   2.08858
   A20        2.09543   0.00127   0.00000   0.00315   0.00314   2.09857
   A21        2.09624  -0.00072   0.00000  -0.00021  -0.00021   2.09603
   A22        2.11169   0.00024   0.00000   0.03007   0.03001   2.14170
   A23        2.10300  -0.00361   0.00000  -0.01093  -0.01100   2.09200
   A24        2.06697   0.00335   0.00000  -0.02009  -0.02011   2.04686
   A25        2.05149   0.00841   0.00000   0.02974   0.02974   2.08123
   A26        2.18192  -0.00581   0.00000  -0.04632  -0.04627   2.13565
   A27        2.01862   0.00425   0.00000   0.03411   0.03403   2.05264
   A28        2.08065   0.00161   0.00000   0.01061   0.01033   2.09097
   A29        2.09499  -0.00017   0.00000  -0.00134  -0.00152   2.09347
   A30        2.11454  -0.00160   0.00000  -0.01918  -0.01918   2.09536
   A31        2.07331   0.00179   0.00000   0.02101   0.02102   2.09432
   A32        2.11144   0.00130   0.00000   0.00163   0.00167   2.11311
   A33        2.07758  -0.00039   0.00000   0.00601   0.00599   2.08357
   A34        2.09410  -0.00091   0.00000  -0.00768  -0.00770   2.08641
   A35        2.09845   0.00228   0.00000   0.00810   0.00670   2.10515
   A36        2.06755  -0.00330   0.00000  -0.00465  -0.00588   2.06167
   A37        2.10113   0.00165   0.00000   0.01253   0.01117   2.11230
   A38        1.99556   0.00163   0.00000   0.00629   0.00628   2.00184
   A39        1.99672   0.00140   0.00000   0.00778   0.00777   2.00449
   A40        1.97119  -0.00358   0.00000  -0.03242  -0.03244   1.93875
   A41        2.10652   0.00033   0.00000   0.00280   0.00286   2.10938
   A42        2.09789  -0.00091   0.00000  -0.00792  -0.00798   2.08991
   A43        2.07876   0.00058   0.00000   0.00519   0.00513   2.08389
   A44        2.10173   0.00039   0.00000  -0.00429  -0.00437   2.09736
   A45        2.08993  -0.00152   0.00000  -0.00765  -0.00763   2.08230
   A46        2.09141   0.00114   0.00000   0.01207   0.01209   2.10350
   A47        2.08672   0.00033   0.00000   0.00240   0.00235   2.08907
   A48        2.09928  -0.00191   0.00000  -0.01812  -0.01811   2.08116
   A49        2.09718   0.00158   0.00000   0.01575   0.01576   2.11294
   A50        2.11792   0.00106   0.00000   0.00693   0.00688   2.12480
   A51        2.09992  -0.00231   0.00000  -0.01315  -0.01316   2.08676
   A52        2.06528   0.00124   0.00000   0.00635   0.00634   2.07162
   A53        2.14508  -0.00006   0.00000   0.00514   0.00504   2.15012
   A54        2.08553  -0.00053   0.00000  -0.00050  -0.00060   2.08493
   A55        2.05258   0.00060   0.00000  -0.00458  -0.00461   2.04796
   A56        2.11255   0.00139   0.00000   0.00754   0.00751   2.12006
   A57        2.11909  -0.00290   0.00000  -0.01616  -0.01621   2.10287
   A58        2.05144   0.00152   0.00000   0.00887   0.00881   2.06025
   A59        2.09771  -0.00112   0.00000  -0.00458  -0.00462   2.09309
   A60        2.09255   0.00233   0.00000   0.01567   0.01568   2.10823
   A61        2.09292  -0.00121   0.00000  -0.01109  -0.01108   2.08185
   A62        2.04619   0.00378   0.00000   0.00335   0.00337   2.04956
   A63        2.09427  -0.00190   0.00000  -0.00203  -0.00210   2.09217
   A64        2.14124  -0.00189   0.00000  -0.00181  -0.00180   2.13944
   A65        2.04192   0.00961   0.00000   0.03829   0.03829   2.08020
   A66        2.13748  -0.00192   0.00000  -0.00450  -0.00434   2.13314
   A67        2.04830   0.00335   0.00000   0.00691   0.00708   2.05538
   A68        2.09441  -0.00139   0.00000  -0.00183  -0.00219   2.09222
   A69        2.08967   0.00145   0.00000   0.00291   0.00261   2.09227
   A70        2.10467  -0.00181   0.00000  -0.00917  -0.00909   2.09559
[...]
   417    C   28  dxz    Ryd( 3d)     0.00045
   418    C   28  dyz    Ryd( 3d)     0.00067
   419    C   28  dx2y2  Ryd( 3d)     0.00044
   420    C   28  dz2    Ryd( 3d)     0.00050

   421    C   29  S      Cor( 1S)     1.99901
   422    C   29  S      Val( 2S)     0.95612
   423    C   29  S      Ryd( 3S)     0.00072
   424    C   29  S      Ryd( 4S)     0.00005
   425    C   29  px     Val( 2p)     1.07886
   426    C   29  px     Ryd( 3p)     0.00371
   427    C   29  py     Val( 2p)     1.19759
   428    C   29  py     Ryd( 3p)     0.00382
   429    C   29  pz     Val( 2p)     1.08323
   430    C   29  pz     Ryd( 3p)     0.00296
   431    C   29  dxy    Ryd( 3d)     0.00064
   432    C   29  dxz    Ryd( 3d)     0.00054
   433    C   29  dyz    Ryd( 3d)     0.00041
   434    C   29  dx2y2  Ryd( 3d)     0.00057
   435    C   29  dz2    Ryd( 3d)     0.00047

   436    C   30  S      Cor( 1S)     1.99905
   437    C   30  S      Val( 2S)     0.93918
   438    C   30  S      Ryd( 3S)     0.00082
   439    C   30  S      Ryd( 4S)     0.00006
   440    C   30  px     Val( 2p)     1.12161
   441    C   30  px     Ryd( 3p)     0.00351
   442    C   30  py     Val( 2p)     1.11184
   443    C   30  py     Ryd( 3p)     0.00464
   444    C   30  pz     Val( 2p)     1.08295
   445    C   30  pz     Ryd( 3p)     0.00319
   446    C   30  dxy    Ryd( 3d)     0.00065
   447    C   30  dxz    Ryd( 3d)     0.00048
   448    C   30  dyz    Ryd( 3d)     0.00050
   449    C   30  dx2y2  Ryd( 3d)     0.00058
   450    C   30  dz2    Ryd( 3d)     0.00033

   451    C   31  S      Cor( 1S)     1.99940
   452    C   31  S      Val( 2S)     1.09382
   453    C   31  S      Ryd( 3S)     0.00055
   454    C   31  S      Ryd( 4S)     0.00001
   455    C   31  px     Val( 2p)     1.25093
   456    C   31  px     Ryd( 3p)     0.00206
   457    C   31  py     Val( 2p)     1.09537
   458    C   31  py     Ryd( 3p)     0.00159
   459    C   31  pz     Val( 2p)     1.23193
   460    C   31  pz     Ryd( 3p)     0.00210
   461    C   31  dxy    Ryd( 3d)     0.00077
   462    C   31  dxz    Ryd( 3d)     0.00025
   463    C   31  dyz    Ryd( 3d)     0.00040
   464    C   31  dx2y2  Ryd( 3d)     0.00053
   465    C   31  dz2    Ryd( 3d)     0.00096

   466    H   32  S      Val( 1S)     0.75390
   467    H   32  S      Ryd( 2S)     0.00093
   468    H   32  px     Ryd( 2p)     0.00024
   469    H   32  py     Ryd( 2p)     0.00017
   470    H   32  pz     Ryd( 2p)     0.00010

   471    H   33  S      Val( 1S)     0.76247
   472    H   33  S      Ryd( 2S)     0.00105
   473    H   33  px     Ryd( 2p)     0.00027
   474    H   33  py     Ryd( 2p)     0.00014
   475    H   33  pz     Ryd( 2p)     0.00011

   476    H   34  S      Val( 1S)     0.75870
   477    H   34  S      Ryd( 2S)     0.00102
   478    H   34  px     Ryd( 2p)     0.00009
   479    H   34  py     Ryd( 2p)     0.00029
   480    H   34  pz     Ryd( 2p)     0.00013

   481    H   35  S      Val( 1S)     0.75177
   482    H   35  S      Ryd( 2S)     0.00094
   483    H   35  px     Ryd( 2p)     0.00008
   484    H   35  py     Ryd( 2p)     0.00011
   485    H   35  pz     Ryd( 2p)     0.00041

   486    H   36  S      Val( 1S)     0.74329
   487    H   36  S      Ryd( 2S)     0.00088
   488    H   36  px     Ryd( 2p)     0.00026
   489    H   36  py     Ryd( 2p)     0.00016
   490    H   36  pz     Ryd( 2p)     0.00018

   491    H   37  S      Val( 1S)     0.74203
   492    H   37  S      Ryd( 2S)     0.00096
   493    H   37  px     Ryd( 2p)     0.00006
   494    H   37  py     Ryd( 2p)     0.00037
   495    H   37  pz     Ryd( 2p)     0.00015

   496    H   38  S      Val( 1S)     0.75057
   497    H   38  S      Ryd( 2S)     0.00090
   498    H   38  px     Ryd( 2p)     0.00033
   499    H   38  py     Ryd( 2p)     0.00016
   500    H   38  pz     Ryd( 2p)     0.00011

   501    H   39  S      Val( 1S)     0.58196
   502    H   39  S      Ryd( 2S)     0.00107
   503    H   39  px     Ryd( 2p)     0.00044
   504    H   39  py     Ryd( 2p)     0.00039
   505    H   39  pz     Ryd( 2p)     0.00043

   506    H   40  S      Val( 1S)     0.58189
   507    H   40  S      Ryd( 2S)     0.00107
   508    H   40  px     Ryd( 2p)     0.00027
   509    H   40  py     Ryd( 2p)     0.00046
   510    H   40  pz     Ryd( 2p)     0.00053

   511    H   41  S      Val( 1S)     0.75056
   512    H   41  S      Ryd( 2S)     0.00090
   513    H   41  px     Ryd( 2p)     0.00007
   514    H   41  py     Ryd( 2p)     0.00037
   515    H   41  pz     Ryd( 2p)     0.00015

   516    H   42  S      Val( 1S)     0.74208
   517    H   42  S      Ryd( 2S)     0.00096
   518    H   42  px     Ryd( 2p)     0.00033
   519    H   42  py     Ryd( 2p)     0.00015
   520    H   42  pz     Ryd( 2p)     0.00011

   521    H   43  S      Val( 1S)     0.74627
   522    H   43  S      Ryd( 2S)     0.00124
   523    H   43  px     Ryd( 2p)     0.00008
   524    H   43  py     Ryd( 2p)     0.00011
   525    H   43  pz     Ryd( 2p)     0.00040

   526    H   44  S      Val( 1S)     0.75131
   527    H   44  S      Ryd( 2S)     0.00114
   528    H   44  px     Ryd( 2p)     0.00027
   529    H   44  py     Ryd( 2p)     0.00014
   530    H   44  pz     Ryd( 2p)     0.00019

   531    H   45  S      Val( 1S)     0.75759
   532    H   45  S      Ryd( 2S)     0.00092
   533    H   45  px     Ryd( 2p)     0.00009
   534    H   45  py     Ryd( 2p)     0.00039
   535    H   45  pz     Ryd( 2p)     0.00014

   536    H   46  S      Val( 1S)     0.75361
   537    H   46  S      Ryd( 2S)     0.00115
   538    H   46  px     Ryd( 2p)     0.00024
   539    H   46  py     Ryd( 2p)     0.00017
   540    H   46  pz     Ryd( 2p)     0.00020

   541    H   47  S      Val( 1S)     0.74315
   542    H   47  S      Ryd( 2S)     0.00095
   543    H   47  px     Ryd( 2p)     0.00015
   544    H   47  py     Ryd( 2p)     0.00026
   545    H   47  pz     Ryd( 2p)     0.00021

   546    H   48  S      Val( 1S)     0.75173
   547    H   48  S      Ryd( 2S)     0.00105
   548    H   48  px     Ryd( 2p)     0.00022
   549    H   48  py     Ryd( 2p)     0.00007
   550    H   48  pz     Ryd( 2p)     0.00035

   551    H   49  S      Val( 1S)     0.55998
   552    H   49  S      Ryd( 2S)     0.00138
   553    H   49  px     Ryd( 2p)     0.00045
   554    H   49  py     Ryd( 2p)     0.00045
   555    H   49  pz     Ryd( 2p)     0.00031

   556    H   50  S      Val( 1S)     0.56012
   557    H   50  S      Ryd( 2S)     0.00142
   558    H   50  px     Ryd( 2p)     0.00037
   559    H   50  py     Ryd( 2p)     0.00022
   560    H   50  pz     Ryd( 2p)     0.00062

   561    H   51  S      Val( 1S)     0.75133
   562    H   51  S      Ryd( 2S)     0.00108
   563    H   51  px     Ryd( 2p)     0.00015
   564    H   51  py     Ryd( 2p)     0.00024
   565    H   51  pz     Ryd( 2p)     0.00024

   566    H   52  S      Val( 1S)     0.74341
   567    H   52  S      Ryd( 2S)     0.00102
   568    H   52  px     Ryd( 2p)     0.00020
   569    H   52  py     Ryd( 2p)     0.00008
   570    H   52  pz     Ryd( 2p)     0.00034

   571    H   53  S      Val( 1S)     0.74840
   572    H   53  S      Ryd( 2S)     0.00089
   573    H   53  px     Ryd( 2p)     0.00009
   574    H   53  py     Ryd( 2p)     0.00038
   575    H   53  pz     Ryd( 2p)     0.00016

   576    H   54  S      Val( 1S)     0.75907
   577    H   54  S      Ryd( 2S)     0.00100
   578    H   54  px     Ryd( 2p)     0.00024
   579    H   54  py     Ryd( 2p)     0.00018
   580    H   54  pz     Ryd( 2p)     0.00020

   581    H   55  S      Val( 1S)     0.76118
   582    H   55  S      Ryd( 2S)     0.00109
   583    H   55  px     Ryd( 2p)     0.00020
   584    H   55  py     Ryd( 2p)     0.00020
   585    H   55  pz     Ryd( 2p)     0.00012

   586    H   56  S      Val( 1S)     0.75917
   587    H   56  S      Ryd( 2S)     0.00103
   588    H   56  px     Ryd( 2p)     0.00009
   589    H   56  py     Ryd( 2p)     0.00008
   590    H   56  pz     Ryd( 2p)     0.00035

   591    H   57  S      Val( 1S)     0.75510
   592    H   57  S      Ryd( 2S)     0.00090
   593    H   57  px     Ryd( 2p)     0.00031
   594    H   57  py     Ryd( 2p)     0.00010
   595    H   57  pz     Ryd( 2p)     0.00010

 WARNING:  1 low occupancy (<1.9990e) core orbital  found on  C    6
           1 low occupancy (<1.9990e) core orbital  found on  C    8
           1 low occupancy (<1.9990e) core orbital  found on  C    9
           1 low occupancy (<1.9990e) core orbital  found on  C   11
           1 low occupancy (<1.9990e) core orbital  found on  C   14
           1 low occupancy (<1.9990e) core orbital  found on  C   20
           1 low occupancy (<1.9990e) core orbital  found on  C   22
           1 low occupancy (<1.9990e) core orbital  found on  C   25


 Summary of Natural Population Analysis:                  
                                                          
                                       Natural Population 
                Natural  -----------------------------------------------
    Atom  No    Charge         Core      Valence    Rydberg      Total
 -----------------------------------------------------------------------
      C    1   -0.68133      1.99940     4.67262    0.00931     6.68133
      C    2   -0.06862      1.99905     4.05476    0.01481     6.06862
      C    3   -0.05300      1.99900     4.03554    0.01845     6.05300
      C    4   -0.22810      1.99904     4.21630    0.01276     6.22810
      C    5   -0.31075      1.99901     4.29998    0.01175     6.31075
      C    6    0.30886      1.99873     3.67103    0.02138     5.69114
      O    7   -0.52911      1.99971     6.51799    0.01141     8.52911
      C    8    0.24327      1.99870     3.73538    0.02265     5.75673
      C    9   -0.26019      1.99899     4.24777    0.01342     6.26019
      C   10   -0.28436      1.99905     4.27269    0.01262     6.28436
      C   11    0.16250      1.99899     3.82148    0.01703     5.83750
      N   12   -0.85877      1.99952     5.84744    0.01181     7.85877
      C   13   -0.28427      1.99905     4.27260    0.01262     6.28427
      C   14   -0.26009      1.99899     4.24767    0.01342     6.26009
      C   15   -0.28496      1.99903     4.27181    0.01413     6.28496
      C   16   -0.21972      1.99904     4.20813    0.01255     6.21972
      C   17   -0.04952      1.99900     4.03199    0.01852     6.04952
      C   18   -0.25538      1.99903     4.24299    0.01336     6.25538
      C   19   -0.32728      1.99903     4.31220    0.01604     6.32728
      C   20    0.30482      1.99871     3.67481    0.02166     5.69518
      O   21   -0.51092      1.99969     6.49982    0.01142     8.51092
      C   22    0.37815      1.99870     3.59988    0.02327     5.62185
      C   23   -0.34338      1.99901     4.32525    0.01912     6.34338
      C   24   -0.31580      1.99906     4.29836    0.01838     6.31580
      C   25    0.18871      1.99897     3.79465    0.01766     5.81129
      N   26   -0.66421      1.99946     5.65535    0.00939     7.66421
      C   27   -0.30819      1.99906     4.29090    0.01823     6.30819
      C   28   -0.34418      1.99901     4.32594    0.01923     6.34418
      C   29   -0.32869      1.99901     4.31580    0.01387     6.32869
      C   30   -0.26939      1.99905     4.25558    0.01477     6.26939
      C   31   -0.68068      1.99940     4.67205    0.00923     6.68068
      H   32    0.24465      0.00000     0.75390    0.00145     0.75535
      H   33    0.23596      0.00000     0.76247    0.00157     0.76404
      H   34    0.23975      0.00000     0.75870    0.00155     0.76025
      H   35    0.24668      0.00000     0.75177    0.00155     0.75332
      H   36    0.25523      0.00000     0.74329    0.00148     0.74477
      H   37    0.25642      0.00000     0.74203    0.00155     0.74358
      H   38    0.24794      0.00000     0.75057    0.00149     0.75206
      H   39    0.41571      0.00000     0.58196    0.00233     0.58429
      H   40    0.41578      0.00000     0.58189    0.00233     0.58422
      H   41    0.24794      0.00000     0.75056    0.00149     0.75206
      H   42    0.25637      0.00000     0.74208    0.00155     0.74363
      H   43    0.25190      0.00000     0.74627    0.00183     0.74810
      H   44    0.24696      0.00000     0.75131    0.00174     0.75304
      H   45    0.24087      0.00000     0.75759    0.00154     0.75913
      H   46    0.24464      0.00000     0.75361    0.00176     0.75536
      H   47    0.25528      0.00000     0.74315    0.00157     0.74472
      H   48    0.24657      0.00000     0.75173    0.00169     0.75343
      H   49    0.43743      0.00000     0.55998    0.00259     0.56257
      H   50    0.43725      0.00000     0.56012    0.00263     0.56275
      H   51    0.24695      0.00000     0.75133    0.00172     0.75305
      H   52    0.25495      0.00000     0.74341    0.00165     0.74505
      H   53    0.25008      0.00000     0.74840    0.00152     0.74992
      H   54    0.23931      0.00000     0.75907    0.00162     0.76069
      H   55    0.23721      0.00000     0.76118    0.00161     0.76279
      H   56    0.23928      0.00000     0.75917    0.00155     0.76072
      H   57    0.24348      0.00000     0.75510    0.00141     0.75652
 =======================================================================
   * Total *    0.00000     61.97151   155.50943    0.51907   218.00000

                                 Natural Population      
 --------------------------------------------------------
   Core                      61.97151 ( 99.9540% of  62)
   Valence                  155.50943 ( 99.6855% of 156)
   Natural Minimal Basis    217.48093 ( 99.7619% of 218)
   Natural Rydberg Basis      0.51907 (  0.2381% of 218)
 --------------------------------------------------------

    Atom  No          Natural Electron Configuration
 ----------------------------------------------------------------------------
      C    1      [core]2S( 1.09)2p( 3.58)3p( 0.01)
      C    2      [core]2S( 0.90)2p( 3.16)3p( 0.01)
      C    3      [core]2S( 0.87)2p( 3.16)3p( 0.01)
      C    4      [core]2S( 0.94)2p( 3.27)3p( 0.01)
      C    5      [core]2S( 0.96)2p( 3.34)3p( 0.01)
      C    6      [core]2S( 0.84)2p( 2.83)3p( 0.01)3d( 0.01)
      O    7      [core]2S( 1.57)2p( 4.95)3p( 0.01)3d( 0.01)
      C    8      [core]2S( 0.83)2p( 2.90)3p( 0.02)3d( 0.01)
      C    9      [core]2S( 0.97)2p( 3.28)3p( 0.01)
      C   10      [core]2S( 0.96)2p( 3.32)3p( 0.01)
      C   11      [core]2S( 0.85)2p( 2.98)3p( 0.01)
      N   12      [core]2S( 1.36)2p( 4.48)3p( 0.01)
      C   13      [core]2S( 0.96)2p( 3.32)3p( 0.01)
      C   14      [core]2S( 0.97)2p( 3.28)3p( 0.01)
      C   15      [core]2S( 0.96)2p( 3.31)3p( 0.01)
      C   16      [core]2S( 0.95)2p( 3.26)3p( 0.01)
      C   17      [core]2S( 0.87)2p( 3.16)3p( 0.01)
      C   18      [core]2S( 0.94)2p( 3.30)3p( 0.01)
      C   19      [core]2S( 0.95)2p( 3.36)3p( 0.01)
      C   20      [core]2S( 0.84)2p( 2.84)3p( 0.01)3d( 0.01)
      O   21      [core]2S( 1.57)2p( 4.93)3p( 0.01)3d( 0.01)
      C   22      [core]2S( 0.85)2p( 2.75)3p( 0.02)3d( 0.01)
      C   23      [core]2S( 0.96)2p( 3.36)3p( 0.02)
      C   24      [core]2S( 0.95)2p( 3.34)3p( 0.02)
      C   25      [core]2S( 0.86)2p( 2.94)3p( 0.01)3d( 0.01)
      N   26      [core]2S( 1.37)2p( 4.28)3p( 0.01)
      C   27      [core]2S( 0.96)2p( 3.34)3p( 0.01)
      C   28      [core]2S( 0.96)2p( 3.36)3p( 0.02)
      C   29      [core]2S( 0.96)2p( 3.36)3p( 0.01)
      C   30      [core]2S( 0.94)2p( 3.32)3p( 0.01)
      C   31      [core]2S( 1.09)2p( 3.58)3p( 0.01)
      H   32            1S( 0.75)
      H   33            1S( 0.76)
      H   34            1S( 0.76)
      H   35            1S( 0.75)
      H   36            1S( 0.74)
      H   37            1S( 0.74)
      H   38            1S( 0.75)
      H   39            1S( 0.58)
      H   40            1S( 0.58)
      H   41            1S( 0.75)
      H   42            1S( 0.74)
      H   43            1S( 0.75)
      H   44            1S( 0.75)
      H   45            1S( 0.76)
      H   46            1S( 0.75)
      H   47            1S( 0.74)
      H   48            1S( 0.75)
      H   49            1S( 0.56)
      H   50            1S( 0.56)
      H   51            1S( 0.75)
      H   52            1S( 0.74)
      H   53            1S( 0.75)
      H   54            1S( 0.76)
      H   55            1S( 0.76)
      H   56            1S( 0.76)
      H   57            1S( 0.76)


 NBO analysis skipped by request.
 1\1\GINC-DRG2-W002\SP\RB3LYP TD-FC\6-31G(d,p)\C27H26N2O2\QDUEZ\18-Jul-
 2024\0\\# TD(NStates=10, Root=1) B3LYP/6-31G** SCRF=(Solvent=water) vo
 lume pop=NPA density=current Geom=AllCheck Guess=Read\\KMKWGXGSGPYISJ-
 UHFFFAOYSA-N_conf_0\\0,1\C,0,0.0473587499,-3.3247860375,1.1624547435\C
 ,0,0.0352899305,-2.7944018157,-0.2912731138\C,0,1.132279688,-1.7378984
 064,-0.5352919859\C,0,2.1292021972,-1.4336121354,0.3970366508\C,0,3.13
 64499128,-0.4988063996,0.128191942\C,0,3.1589920318,0.1528305636,-1.10
 38562878\O,0,4.1026361501,1.0883553642,-1.4746248674\C,0,5.1122341642,
 1.4362620533,-0.5765940823\C,0,6.3293980476,0.7560431684,-0.6010929469
 \C,0,7.3665335407,1.1551465308,0.2390092345\C,0,7.2040453189,2.2423478
 104,1.118268231\N,0,8.2637136294,2.6827673861,1.9127946657\C,0,5.96883
 68038,2.9174566422,1.1259469301\C,0,4.9322362091,2.5173683065,0.285774
 4848\C,0,2.1720432641,-0.1315742222,-2.0564832294\C,0,1.1798224335,-1.
 0599780305,-1.767830805\C,0,-1.351619684,-2.1709030581,-0.5529299261\C
 ,0,-2.3151364003,-2.7579401628,-1.3853429669\C,0,-3.5765102594,-2.1875
 304005,-1.5587103331\C,0,-3.9069742627,-1.0046492748,-0.8944142604\O,0
 ,-5.1715220132,-0.5067252427,-1.1321429461\C,0,-5.607779225,0.62190408
 85,-0.4377125699\C,0,-6.1871557922,0.4883613886,0.8243478766\C,0,-6.69
 60009404,1.6080546826,1.4779429321\C,0,-6.6377319493,2.8810243424,0.87
 93023764\N,0,-7.2090255478,3.9904082128,1.5047150186\C,0,-6.0518947417
 ,2.9942618656,-0.3953510138\C,0,-5.5404312171,1.8740282091,-1.04716546
 26\C,0,-2.9655459117,-0.39422911,-0.0595838396\C,0,-1.7104007596,-0.98
 0030066,0.0978474943\C,0,0.321079279,-3.996484352,-1.223229127\H,0,-0.
 7640251985,-4.0466665065,1.293515257\H,0,0.9879690681,-3.835219177,1.3
 936742003\H,0,-0.097458206,-2.5233787809,1.89251501\H,0,2.141807952,-1
 .9230964097,1.3643205846\H,0,3.8914367264,-0.2853906692,0.875670164\H,
 0,6.4616048631,-0.0810470687,-1.2793616539\H,0,8.3141203606,0.62406392
 8,0.2138053551\H,0,8.9522904094,1.9735356832,2.1300642428\H,0,7.987075
 7975,3.1863901887,2.7459955473\H,0,5.8248942557,3.7629140388,1.7930793
 07\H,0,3.982948326,3.0437226441,0.2937755674\H,0,2.1961752068,0.385069
 6336,-3.0108226063\H,0,0.4166075788,-1.2562433438,-2.5155481127\H,0,-2
 .0951468607,-3.6771064206,-1.9163095574\H,0,-4.3125043204,-2.651160150
 9,-2.2079742583\H,0,-6.2401874193,-0.4910295145,1.2894288475\H,0,-7.14
 87201975,1.4988599744,2.4596858479\H,0,-6.8213880542,4.8816530785,1.22
 21827783\H,0,-7.2669821405,3.9237527691,2.5129536156\H,0,-6.0006354436
 ,3.9670338636,-0.8766937585\H,0,-5.0915426298,1.9662586061,-2.03113113
 67\H,0,-3.2066720675,0.5274229876,0.4569592248\H,0,-0.9873601612,-0.48
 575456,0.7406995413\H,0,-0.3885656262,-4.812382306,-1.0520436361\H,0,0
 .2747571158,-3.7174378308,-2.2797227712\H,0,1.3250780189,-4.3818365578
 ,-1.0229707186\\Version=ES64L-G16RevA.03\State=1-A\HF=-1304.5312198\RM
 SD=6.966e-09\Dipole=-0.8601165,2.8176201,3.0750273\Quadrupole=16.96953
 66,-3.0188006,-13.950736,-35.2744941,-1.6912356,15.7109434\PG=C01 [X(C
 27H26N2O2)]\\@


 FRICTION IS A DRAG,
 AND ENTROPY AIN'T WHAT IT USED TO BE.
 Job cpu time:       0 days  3 hours 28 minutes 49.7 seconds.
 Elapsed time:       0 days  1 hours  9 minutes 47.3 seconds.
 File lengths (MBytes):  RWF=   2742 Int=      0 D2E=      0 Chk=    168 Scr=      1
 Normal termination of Gaussian 16 at Thu Jul 18 11:43:06 2024.
