 Entering Gaussian System, Link 0=g16
 Initial command:
 /opt/sw/arch/manual/gaussian/G16_A03/g16/l1.exe "/scratch/1380910/Gau-114303.inp" -scrdir="/scratch/1380910/"
 Entering Link 1 = /opt/sw/arch/manual/gaussian/G16_A03/g16/l1.exe PID=    114304.
  
 Copyright (c) 1988,1990,1992,1993,1995,1998,2003,2009,2016,
            Gaussian, Inc.  All Rights Reserved.
  
 This is part of the Gaussian(R) 16 program.  It is based on
 the Gaussian(R) 09 system (copyright 2009, Gaussian, Inc.),
 the Gaussian(R) 03 system (copyright 2003, Gaussian, Inc.),
 the Gaussian(R) 98 system (copyright 1998, Gaussian, Inc.),
 the Gaussian(R) 94 system (copyright 1995, Gaussian, Inc.),
 the Gaussian 92(TM) system (copyright 1992, Gaussian, Inc.),
 the Gaussian 90(TM) system (copyright 1990, Gaussian, Inc.),
 the Gaussian 88(TM) system (copyright 1988, Gaussian, Inc.),
 the Gaussian 86(TM) system (copyright 1986, Carnegie Mellon
 University), and the Gaussian 82(TM) system (copyright 1983,
 Carnegie Mellon University). Gaussian is a federally registered
 trademark of Gaussian, Inc.
  
 This software contains proprietary and confidential information,
 including trade secrets, belonging to Gaussian, Inc.
  
 This software is provided under written license and may be
 used, copied, transmitted, or stored only in accord with that
 written license.
  
 The following legend is applicable only to US Government
 contracts under FAR:
  
                    RESTRICTED RIGHTS LEGEND
  
 Use, reproduction and disclosure by the US Government is
 subject to restrictions as set forth in subparagraphs (a)
 and (c) of the Commercial Computer Software - Restricted
 Rights clause in FAR 52.227-19.
  
 Gaussian, Inc.
 340 Quinnipiac St., Bldg. 40, Wallingford CT 06492
  
  
 ---------------------------------------------------------------
 Warning -- This program may not be used in any manner that
 competes with the business of Gaussian, Inc. or will provide
 assistance to any competitor of Gaussian, Inc.  The licensee
 of this program is prohibited from giving any competitor of
 Gaussian, Inc. access to this program.  By using this program,
 the user acknowledges that Gaussian, Inc. is engaged in the
 business of creating and licensing software in the field of
 computational chemistry and represents and warrants to the
 licensee that it is not a competitor of Gaussian, Inc. and that
 it will not use this program in any manner prohibited above.
 ---------------------------------------------------------------
  

 Cite this work as:
 Gaussian 16, Revision A.03,
 M. J. Frisch, G. W. Trucks, H. B. Schlegel, G. E. Scuseria, 
 M. A. Robb, J. R. Cheeseman, G. Scalmani, V. Barone, 
 G. A. Petersson, H. Nakatsuji, X. Li, M. Caricato, A. V. Marenich, 
 J. Bloino, B. G. Janesko, R. Gomperts, B. Mennucci, H. P. Hratchian, 
 J. V. Ortiz, A. F. Izmaylov, J. L. Sonnenberg, D. Williams-Young, 
 F. Ding, F. Lipparini, F. Egidi, J. Goings, B. Peng, A. Petrone, 
 T. Henderson, D. Ranasinghe, V. G. Zakrzewski, J. Gao, N. Rega, 
 G. Zheng, W. Liang, M. Hada, M. Ehara, K. Toyota, R. Fukuda, 
 J. Hasegawa, M. Ishida, T. Nakajima, Y. Honda, O. Kitao, H. Nakai, 
 T. Vreven, K. Throssell, J. A. Montgomery, Jr., J. E. Peralta, 
 F. Ogliaro, M. J. Bearpark, J. J. Heyd, E. N. Brothers, K. N. Kudin, 
 V. N. Staroverov, T. A. Keith, R. Kobayashi, J. Normand, 
 K. Raghavachari, A. P. Rendell, J. C. Burant, S. S. Iyengar, 
 J. Tomasi, M. Cossi, J. M. Millam, M. Klene, C. Adamo, R. Cammi, 
 J. W. Ochterski, R. L. Martin, K. Morokuma, O. Farkas, 
 J. B. Foresman, and D. J. Fox, Gaussian, Inc., Wallingford CT, 2016.
 
 ******************************************
 Gaussian 16:  ES64L-G16RevA.03 25-Dec-2016
                18-Jul-2024 
 ******************************************
 %nprocshared=9
 Will use up to    9 processors via shared memory.
 %mem=18GB
 %Chk=KMKWGXGSGPYISJ-UHFFFAOYSA-N_conf_2_0.chk
 -------------------------------------------------------
 # opt=CalcFc B3LYP/6-31G** SCRF=(Solvent=water) scf=xqc
 -------------------------------------------------------
 1/10=4,18=20,19=15,26=3,38=1/1,3;
 2/9=110,12=2,17=6,18=5,40=1/2;
 3/5=1,6=6,7=101,11=2,25=1,30=1,70=2201,71=2,72=1,74=-5,140=1/1,2,3;
 4//1;
 5/5=2,8=3,13=1,38=5,53=1/2,8;
 8/6=4,10=90,11=11/1;
 11/6=1,8=1,9=11,15=111,16=1/1,2,10;
 10/6=1,13=1/2;
 6/7=2,8=2,9=2,10=2,28=1/1;
 7/10=1,18=20,25=1/1,2,3,16;
 1/10=4,18=20,19=15,26=3/3(2);
 2/9=110/2;
 99//99;
 2/9=110/2;
 3/5=1,6=6,7=101,11=2,25=1,30=1,70=2205,71=1,72=1,74=-5/1,2,3;
 4/5=5,16=3,69=1/1;
 5/5=2,8=3,13=1,38=5,53=1/2,8;
 7//1,2,3,16;
 1/18=20,19=15,26=3/3(-5);
 2/9=110/2;
 6/7=2,8=2,9=2,10=2,19=2,28=1/1;
 99/9=1/99;
 ----------------------------------
 KMKWGXGSGPYISJ-UHFFFAOYSA-N_conf_2
 ----------------------------------
 Symbolic Z-matrix:
 Charge =  0 Multiplicity = 1
 C                     0.19723   0.62233   2.99075 
 C                    -0.01448  -0.69174   2.19512 
 C                    -1.17378  -0.61814   1.17105 
 C                    -1.99411   0.5139    1.02513 
 C                    -3.0167    0.5491    0.06931 
 C                    -3.25282  -0.5563   -0.74777 
 O                    -4.20292  -0.59101  -1.74353 
 C                    -5.37465   0.09609  -1.53821 
 C                    -5.77065   1.00106  -2.51918 
 C                    -6.97106   1.70069  -2.37352 
 C                    -7.76862   1.52144  -1.23897 
 N                    -9.021     2.14009  -1.15609 
 C                    -7.4003    0.54814  -0.30551 
 C                    -6.20087  -0.15638  -0.44358 
 C                    -2.44658  -1.68463  -0.62705 
 C                    -1.4234   -1.71791   0.32487 
 C                     1.32976  -0.98941   1.48618 
 C                     2.20156  -2.01091   1.89947 
 C                     3.41184  -2.23881   1.23455 
 C                     3.78292  -1.44259   0.15347 
 O                     4.97166  -1.75959  -0.46503 
 C                     5.73074  -0.72412  -0.9538 
 C                     6.16336  -0.81094  -2.27453 
 C                     6.96546   0.20051  -2.81022 
 C                     7.31761   1.31466  -2.04226 
 N                     8.21372   2.26365  -2.54831 
 C                     6.94576   1.34648  -0.69477 
 C                     6.14352   0.33893  -0.15079 
 C                     2.92775  -0.43477  -0.28653 
 C                     1.72205  -0.20416   0.3817 
 C                    -0.41728  -1.76328   3.24205 
 H                     0.41864   1.47334   2.33618 
 H                    -0.68726   0.88208   3.58515 
 H                     1.03891   0.52983   3.68898 
 H                    -1.85339   1.39923   1.63879 
 H                    -3.61079   1.45321  -0.03174 
 H                    -5.15238   1.15535  -3.39866 
 H                    -7.27998   2.38596  -3.15756 
 H                    -9.07553   3.02206  -1.65588 
 H                    -9.38264   2.2097   -0.21036 
 H                    -8.04825   0.32589   0.53815 
 H                    -5.92644  -0.9064    0.29225 
 H                    -2.60788  -2.54016  -1.27747 
 H                    -0.80389  -2.61127   0.38774 
 H                     1.96397  -2.65337   2.74239 
 H                     4.06778  -3.03992   1.5654 
 H                     5.8848   -1.66508  -2.88417 
 H                     7.31631   0.10914  -3.83495 
 H                     8.16544   3.16176  -2.07763 
 H                     8.17968   2.35652  -3.55815 
 H                     7.2825    2.15635  -0.0538 
 H                     5.8596    0.3809    0.8969 
 H                     3.17837   0.17345  -1.15082 
 H                     1.07601   0.59375   0.01871 
 H                    -1.39562  -1.53495   3.68314 
 H                     0.30203  -1.81338   4.06825 
 H                    -0.48571  -2.76638   2.80589 
 

 GradGradGradGradGradGradGradGradGradGradGradGradGradGradGradGradGradGrad
 Berny optimization.
 Initialization pass.
                           ----------------------------
                           !    Initial Parameters    !
                           ! (Angstroms and Degrees)  !
 --------------------------                            --------------------------
 ! Name  Definition              Value          Derivative Info.                !
 --------------------------------------------------------------------------------
 ! R1    R(1,2)                  1.5507         calculate D2E/DX2 analytically  !
 ! R2    R(1,32)                 1.0962         calculate D2E/DX2 analytically  !
 ! R3    R(1,33)                 1.0969         calculate D2E/DX2 analytically  !
 ! R4    R(1,34)                 1.0975         calculate D2E/DX2 analytically  !
 ! R5    R(2,3)                  1.5486         calculate D2E/DX2 analytically  !
 ! R6    R(2,17)                 1.5486         calculate D2E/DX2 analytically  !
 ! R7    R(2,31)                 1.5513         calculate D2E/DX2 analytically  !
 ! R8    R(3,4)                  1.4056         calculate D2E/DX2 analytically  !
 ! R9    R(3,16)                 1.4099         calculate D2E/DX2 analytically  !
 ! R10   R(4,5)                  1.4002         calculate D2E/DX2 analytically  !
 ! R11   R(4,35)                 1.0864         calculate D2E/DX2 analytically  !
 ! R12   R(5,6)                  1.3947         calculate D2E/DX2 analytically  !
 ! R13   R(5,36)                 1.0865         calculate D2E/DX2 analytically  !
 ! R14   R(6,7)                  1.3767         calculate D2E/DX2 analytically  !
 ! R15   R(6,15)                 1.392          calculate D2E/DX2 analytically  !
 ! R16   R(7,8)                  1.3738         calculate D2E/DX2 analytically  !
 ! R17   R(8,9)                  1.3922         calculate D2E/DX2 analytically  !
 ! R18   R(8,14)                 1.3945         calculate D2E/DX2 analytically  !
 ! R19   R(9,10)                 1.397          calculate D2E/DX2 analytically  !
 ! R20   R(9,37)                 1.0861         calculate D2E/DX2 analytically  !
 ! R21   R(10,11)                1.3984         calculate D2E/DX2 analytically  !
 ! R22   R(10,38)                1.0862         calculate D2E/DX2 analytically  !
 ! R23   R(11,12)                1.3993         calculate D2E/DX2 analytically  !
 ! R24   R(11,13)                1.398          calculate D2E/DX2 analytically  !
 ! R25   R(12,39)                1.0152         calculate D2E/DX2 analytically  !
 ! R26   R(12,40)                1.0149         calculate D2E/DX2 analytically  !
 ! R27   R(13,14)                1.3979         calculate D2E/DX2 analytically  !
 ! R28   R(13,41)                1.0867         calculate D2E/DX2 analytically  !
 ! R29   R(14,42)                1.0859         calculate D2E/DX2 analytically  !
 ! R30   R(15,16)                1.3979         calculate D2E/DX2 analytically  !
 ! R31   R(15,43)                1.0867         calculate D2E/DX2 analytically  !
 ! R32   R(16,44)                1.089          calculate D2E/DX2 analytically  !
 ! R33   R(17,18)                1.4051         calculate D2E/DX2 analytically  !
 ! R34   R(17,30)                1.4108         calculate D2E/DX2 analytically  !
 ! R35   R(18,19)                1.3996         calculate D2E/DX2 analytically  !
 ! R36   R(18,45)                1.0861         calculate D2E/DX2 analytically  !
 ! R37   R(19,20)                1.393          calculate D2E/DX2 analytically  !
 ! R38   R(19,46)                1.087          calculate D2E/DX2 analytically  !
 ! R39   R(20,21)                1.377          calculate D2E/DX2 analytically  !
 ! R40   R(20,29)                1.3931         calculate D2E/DX2 analytically  !
 ! R41   R(21,22)                1.3738         calculate D2E/DX2 analytically  !
 ! R42   R(22,23)                1.3925         calculate D2E/DX2 analytically  !
 ! R43   R(22,28)                1.3947         calculate D2E/DX2 analytically  !
 ! R44   R(23,24)                1.3976         calculate D2E/DX2 analytically  !
 ! R45   R(23,47)                1.0857         calculate D2E/DX2 analytically  !
 ! R46   R(24,25)                1.3983         calculate D2E/DX2 analytically  !
 ! R47   R(24,48)                1.087          calculate D2E/DX2 analytically  !
 ! R48   R(25,26)                1.3999         calculate D2E/DX2 analytically  !
 ! R49   R(25,27)                1.3982         calculate D2E/DX2 analytically  !
 ! R50   R(26,49)                1.0151         calculate D2E/DX2 analytically  !
 ! R51   R(26,50)                1.0147         calculate D2E/DX2 analytically  !
 ! R52   R(27,28)                1.3981         calculate D2E/DX2 analytically  !
 ! R53   R(27,51)                1.0863         calculate D2E/DX2 analytically  !
 ! R54   R(28,52)                1.0863         calculate D2E/DX2 analytically  !
 ! R55   R(29,30)                1.3976         calculate D2E/DX2 analytically  !
 ! R56   R(29,53)                1.0862         calculate D2E/DX2 analytically  !
 ! R57   R(30,54)                1.0889         calculate D2E/DX2 analytically  !
 ! R58   R(31,55)                1.0972         calculate D2E/DX2 analytically  !
 ! R59   R(31,56)                1.0966         calculate D2E/DX2 analytically  !
 ! R60   R(31,57)                1.096          calculate D2E/DX2 analytically  !
 ! A1    A(2,1,32)             112.2755         calculate D2E/DX2 analytically  !
 ! A2    A(2,1,33)             111.6313         calculate D2E/DX2 analytically  !
 ! A3    A(2,1,34)             111.0822         calculate D2E/DX2 analytically  !
 ! A4    A(32,1,33)            107.6142         calculate D2E/DX2 analytically  !
 ! A5    A(32,1,34)            106.8829         calculate D2E/DX2 analytically  !
 ! A6    A(33,1,34)            107.0747         calculate D2E/DX2 analytically  !
 ! A7    A(1,2,3)              113.6552         calculate D2E/DX2 analytically  !
 ! A8    A(1,2,17)             106.2162         calculate D2E/DX2 analytically  !
 ! A9    A(1,2,31)             105.9337         calculate D2E/DX2 analytically  !
 ! A10   A(3,2,17)             110.8687         calculate D2E/DX2 analytically  !
 ! A11   A(3,2,31)             106.5433         calculate D2E/DX2 analytically  !
 ! A12   A(17,2,31)            113.6759         calculate D2E/DX2 analytically  !
 ! A13   A(2,3,4)              122.945          calculate D2E/DX2 analytically  !
 ! A14   A(2,3,16)             119.4956         calculate D2E/DX2 analytically  !
 ! A15   A(4,3,16)             117.5537         calculate D2E/DX2 analytically  !
 ! A16   A(3,4,5)              121.1541         calculate D2E/DX2 analytically  !
 ! A17   A(3,4,35)             121.4726         calculate D2E/DX2 analytically  !
 ! A18   A(5,4,35)             117.369          calculate D2E/DX2 analytically  !
 ! A19   A(4,5,6)              120.2403         calculate D2E/DX2 analytically  !
 ! A20   A(4,5,36)             118.9291         calculate D2E/DX2 analytically  !
 ! A21   A(6,5,36)             120.826          calculate D2E/DX2 analytically  !
 ! A22   A(5,6,7)              124.0923         calculate D2E/DX2 analytically  !
 ! A23   A(5,6,15)             119.575          calculate D2E/DX2 analytically  !
 ! A24   A(7,6,15)             116.2307         calculate D2E/DX2 analytically  !
 ! A25   A(6,7,8)              117.8982         calculate D2E/DX2 analytically  !
 ! A26   A(7,8,9)              117.5439         calculate D2E/DX2 analytically  !
 ! A27   A(7,8,14)             122.1492         calculate D2E/DX2 analytically  !
 ! A28   A(9,8,14)             120.1511         calculate D2E/DX2 analytically  !
 ! A29   A(8,9,10)             119.7681         calculate D2E/DX2 analytically  !
 ! A30   A(8,9,37)             120.068          calculate D2E/DX2 analytically  !
 ! A31   A(10,9,37)            120.1615         calculate D2E/DX2 analytically  !
 ! A32   A(9,10,11)            120.6958         calculate D2E/DX2 analytically  !
 ! A33   A(9,10,38)            119.0179         calculate D2E/DX2 analytically  !
 ! A34   A(11,10,38)           120.286          calculate D2E/DX2 analytically  !
 ! A35   A(10,11,12)           120.1224         calculate D2E/DX2 analytically  !
 ! A36   A(10,11,13)           118.733          calculate D2E/DX2 analytically  !
 ! A37   A(12,11,13)           120.269          calculate D2E/DX2 analytically  !
 ! A38   A(11,12,39)           113.7661         calculate D2E/DX2 analytically  !
 ! A39   A(11,12,40)           113.8555         calculate D2E/DX2 analytically  !
 ! A40   A(39,12,40)           112.3348         calculate D2E/DX2 analytically  !
 ! A41   A(11,13,14)           120.7307         calculate D2E/DX2 analytically  !
 ! A42   A(11,13,41)           120.2431         calculate D2E/DX2 analytically  !
 ! A43   A(14,13,41)           119.0257         calculate D2E/DX2 analytically  !
 ! A44   A(8,14,13)            119.6477         calculate D2E/DX2 analytically  !
 ! A45   A(8,14,42)            120.4777         calculate D2E/DX2 analytically  !
 ! A46   A(13,14,42)           119.8675         calculate D2E/DX2 analytically  !
 ! A47   A(6,15,16)            120.1506         calculate D2E/DX2 analytically  !
 ! A48   A(6,15,43)            120.0165         calculate D2E/DX2 analytically  !
 ! A49   A(16,15,43)           119.8319         calculate D2E/DX2 analytically  !
 ! A50   A(3,16,15)            121.3127         calculate D2E/DX2 analytically  !
 ! A51   A(3,16,44)            120.3015         calculate D2E/DX2 analytically  !
 ! A52   A(15,16,44)           118.375          calculate D2E/DX2 analytically  !
 ! A53   A(2,17,18)            122.9333         calculate D2E/DX2 analytically  !
 ! A54   A(2,17,30)            119.5225         calculate D2E/DX2 analytically  !
 ! A55   A(18,17,30)           117.5416         calculate D2E/DX2 analytically  !
 ! A56   A(17,18,19)           121.0088         calculate D2E/DX2 analytically  !
 ! A57   A(17,18,45)           121.5047         calculate D2E/DX2 analytically  !
 ! A58   A(19,18,45)           117.4864         calculate D2E/DX2 analytically  !
 ! A59   A(18,19,20)           120.3971         calculate D2E/DX2 analytically  !
 ! A60   A(18,19,46)           119.8175         calculate D2E/DX2 analytically  !
 ! A61   A(20,19,46)           119.7852         calculate D2E/DX2 analytically  !
 ! A62   A(19,20,21)           116.5495         calculate D2E/DX2 analytically  !
 ! A63   A(19,20,29)           119.6782         calculate D2E/DX2 analytically  !
 ! A64   A(21,20,29)           123.685          calculate D2E/DX2 analytically  !
 ! A65   A(20,21,22)           117.5999         calculate D2E/DX2 analytically  !
 ! A66   A(21,22,23)           117.5242         calculate D2E/DX2 analytically  !
 ! A67   A(21,22,28)           122.2202         calculate D2E/DX2 analytically  !
 ! A68   A(23,22,28)           120.1088         calculate D2E/DX2 analytically  !
 ! A69   A(22,23,24)           119.7831         calculate D2E/DX2 analytically  !
 ! A70   A(22,23,47)           120.126          calculate D2E/DX2 analytically  !
 ! A71   A(24,23,47)           120.0893         calculate D2E/DX2 analytically  !
 ! A72   A(23,24,25)           120.7089         calculate D2E/DX2 analytically  !
 ! A73   A(23,24,48)           119.0619         calculate D2E/DX2 analytically  !
 ! A74   A(25,24,48)           120.229          calculate D2E/DX2 analytically  !
 ! A75   A(24,25,26)           120.1883         calculate D2E/DX2 analytically  !
 ! A76   A(24,25,27)           118.7149         calculate D2E/DX2 analytically  !
 ! A77   A(26,25,27)           120.2116         calculate D2E/DX2 analytically  !
 ! A78   A(25,26,49)           113.6852         calculate D2E/DX2 analytically  !
 ! A79   A(25,26,50)           113.5999         calculate D2E/DX2 analytically  !
 ! A80   A(49,26,50)           112.2645         calculate D2E/DX2 analytically  !
 ! A81   A(25,27,28)           120.7425         calculate D2E/DX2 analytically  !
 ! A82   A(25,27,51)           120.2087         calculate D2E/DX2 analytically  !
 ! A83   A(28,27,51)           119.0481         calculate D2E/DX2 analytically  !
 ! A84   A(22,28,27)           119.6752         calculate D2E/DX2 analytically  !
 ! A85   A(22,28,52)           120.4892         calculate D2E/DX2 analytically  !
 ! A86   A(27,28,52)           119.8281         calculate D2E/DX2 analytically  !
 ! A87   A(20,29,30)           119.8629         calculate D2E/DX2 analytically  !
 ! A88   A(20,29,53)           120.9844         calculate D2E/DX2 analytically  !
 ! A89   A(30,29,53)           119.1504         calculate D2E/DX2 analytically  !
 ! A90   A(17,30,29)           121.4887         calculate D2E/DX2 analytically  !
 ! A91   A(17,30,54)           120.2541         calculate D2E/DX2 analytically  !
 ! A92   A(29,30,54)           118.2504         calculate D2E/DX2 analytically  !
 ! A93   A(2,31,55)            111.0446         calculate D2E/DX2 analytically  !
 ! A94   A(2,31,56)            111.6977         calculate D2E/DX2 analytically  !
 ! A95   A(2,31,57)            112.3244         calculate D2E/DX2 analytically  !
 ! A96   A(55,31,56)           106.9482         calculate D2E/DX2 analytically  !
 ! A97   A(55,31,57)           107.1442         calculate D2E/DX2 analytically  !
 ! A98   A(56,31,57)           107.3962         calculate D2E/DX2 analytically  !
 ! D1    D(32,1,2,3)           -59.3071         calculate D2E/DX2 analytically  !
 ! D2    D(32,1,2,17)           62.8616         calculate D2E/DX2 analytically  !
 ! D3    D(32,1,2,31)         -175.9442         calculate D2E/DX2 analytically  !
 ! D4    D(33,1,2,3)            61.6387         calculate D2E/DX2 analytically  !
 ! D5    D(33,1,2,17)         -176.1925         calculate D2E/DX2 analytically  !
 ! D6    D(33,1,2,31)          -54.9983         calculate D2E/DX2 analytically  !
 ! D7    D(34,1,2,3)          -178.9286         calculate D2E/DX2 analytically  !
 ! D8    D(34,1,2,17)          -56.7599         calculate D2E/DX2 analytically  !
 ! D9    D(34,1,2,31)           64.4343         calculate D2E/DX2 analytically  !
 ! D10   D(1,2,3,4)             -2.8422         calculate D2E/DX2 analytically  !
 ! D11   D(1,2,3,16)           176.2667         calculate D2E/DX2 analytically  !
 ! D12   D(17,2,3,4)          -122.3986         calculate D2E/DX2 analytically  !
 ! D13   D(17,2,3,16)           56.7103         calculate D2E/DX2 analytically  !
 ! D14   D(31,2,3,4)           113.4381         calculate D2E/DX2 analytically  !
 ! D15   D(31,2,3,16)          -67.4531         calculate D2E/DX2 analytically  !
 ! D16   D(1,2,17,18)          106.4797         calculate D2E/DX2 analytically  !
 ! D17   D(1,2,17,30)          -72.9088         calculate D2E/DX2 analytically  !
 ! D18   D(3,2,17,18)         -129.5979         calculate D2E/DX2 analytically  !
 ! D19   D(3,2,17,30)           51.0135         calculate D2E/DX2 analytically  !
 ! D20   D(31,2,17,18)          -9.6047         calculate D2E/DX2 analytically  !
 ! D21   D(31,2,17,30)         171.0067         calculate D2E/DX2 analytically  !
 ! D22   D(1,2,31,55)           66.3886         calculate D2E/DX2 analytically  !
 ! D23   D(1,2,31,56)          -52.9028         calculate D2E/DX2 analytically  !
 ! D24   D(1,2,31,57)         -173.6492         calculate D2E/DX2 analytically  !
 ! D25   D(3,2,31,55)          -54.9493         calculate D2E/DX2 analytically  !
 ! D26   D(3,2,31,56)         -174.2407         calculate D2E/DX2 analytically  !
 ! D27   D(3,2,31,57)           65.013          calculate D2E/DX2 analytically  !
 ! D28   D(17,2,31,55)        -177.3612         calculate D2E/DX2 analytically  !
 ! D29   D(17,2,31,56)          63.3473         calculate D2E/DX2 analytically  !
 ! D30   D(17,2,31,57)         -57.399          calculate D2E/DX2 analytically  !
 ! D31   D(2,3,4,5)            178.8013         calculate D2E/DX2 analytically  !
 ! D32   D(2,3,4,35)            -0.43           calculate D2E/DX2 analytically  !
 ! D33   D(16,3,4,5)            -0.3238         calculate D2E/DX2 analytically  !
 ! D34   D(16,3,4,35)         -179.5551         calculate D2E/DX2 analytically  !
 ! D35   D(2,3,16,15)         -179.0098         calculate D2E/DX2 analytically  !
 ! D36   D(2,3,16,44)           -0.2242         calculate D2E/DX2 analytically  !
 ! D37   D(4,3,16,15)            0.1467         calculate D2E/DX2 analytically  !
 ! D38   D(4,3,16,44)          178.9322         calculate D2E/DX2 analytically  !
 ! D39   D(3,4,5,6)              0.9536         calculate D2E/DX2 analytically  !
 ! D40   D(3,4,5,36)          -178.2721         calculate D2E/DX2 analytically  !
 ! D41   D(35,4,5,6)          -179.7846         calculate D2E/DX2 analytically  !
 ! D42   D(35,4,5,36)            0.9897         calculate D2E/DX2 analytically  !
 ! D43   D(4,5,6,7)           -177.5702         calculate D2E/DX2 analytically  !
 ! D44   D(4,5,6,15)            -1.3874         calculate D2E/DX2 analytically  !
 ! D45   D(36,5,6,7)             1.6407         calculate D2E/DX2 analytically  !
 ! D46   D(36,5,6,15)          177.8234         calculate D2E/DX2 analytically  !
 ! D47   D(5,6,7,8)            -34.6841         calculate D2E/DX2 analytically  !
 ! D48   D(15,6,7,8)           149.0168         calculate D2E/DX2 analytically  !
 ! D49   D(5,6,15,16)            1.2107         calculate D2E/DX2 analytically  !
 ! D50   D(5,6,15,43)         -178.4305         calculate D2E/DX2 analytically  !
 ! D51   D(7,6,15,16)          177.687          calculate D2E/DX2 analytically  !
 ! D52   D(7,6,15,43)           -1.9542         calculate D2E/DX2 analytically  !
 ! D53   D(6,7,8,9)            127.1474         calculate D2E/DX2 analytically  !
 ! D54   D(6,7,8,14)           -57.3868         calculate D2E/DX2 analytically  !
 ! D55   D(7,8,9,10)           178.4325         calculate D2E/DX2 analytically  !
 ! D56   D(7,8,9,37)            -1.015          calculate D2E/DX2 analytically  !
 ! D57   D(14,8,9,10)            2.8718         calculate D2E/DX2 analytically  !
 ! D58   D(14,8,9,37)         -176.5756         calculate D2E/DX2 analytically  !
 ! D59   D(7,8,14,13)         -178.2275         calculate D2E/DX2 analytically  !
 ! D60   D(7,8,14,42)            0.804          calculate D2E/DX2 analytically  !
 ! D61   D(9,8,14,13)           -2.877          calculate D2E/DX2 analytically  !
 ! D62   D(9,8,14,42)          176.1545         calculate D2E/DX2 analytically  !
 ! D63   D(8,9,10,11)            1.248          calculate D2E/DX2 analytically  !
 ! D64   D(8,9,10,38)         -178.5432         calculate D2E/DX2 analytically  !
 ! D65   D(37,9,10,11)        -179.3051         calculate D2E/DX2 analytically  !
 ! D66   D(37,9,10,38)           0.9037         calculate D2E/DX2 analytically  !
 ! D67   D(9,10,11,12)        -174.5798         calculate D2E/DX2 analytically  !
 ! D68   D(9,10,11,13)          -5.2598         calculate D2E/DX2 analytically  !
 ! D69   D(38,10,11,12)          5.2087         calculate D2E/DX2 analytically  !
 ! D70   D(38,10,11,13)        174.5287         calculate D2E/DX2 analytically  !
 ! D71   D(10,11,12,39)        -30.453          calculate D2E/DX2 analytically  !
 ! D72   D(10,11,12,40)       -160.8999         calculate D2E/DX2 analytically  !
 ! D73   D(13,11,12,39)        160.3922         calculate D2E/DX2 analytically  !
 ! D74   D(13,11,12,40)         29.9453         calculate D2E/DX2 analytically  !
 ! D75   D(10,11,13,14)          5.2529         calculate D2E/DX2 analytically  !
 ! D76   D(10,11,13,41)       -174.4792         calculate D2E/DX2 analytically  !
 ! D77   D(12,11,13,14)        174.5568         calculate D2E/DX2 analytically  !
 ! D78   D(12,11,13,41)         -5.1753         calculate D2E/DX2 analytically  !
 ! D79   D(11,13,14,8)          -1.2362         calculate D2E/DX2 analytically  !
 ! D80   D(11,13,14,42)        179.7262         calculate D2E/DX2 analytically  !
 ! D81   D(41,13,14,8)         178.4991         calculate D2E/DX2 analytically  !
 ! D82   D(41,13,14,42)         -0.5385         calculate D2E/DX2 analytically  !
 ! D83   D(6,15,16,3)           -0.5975         calculate D2E/DX2 analytically  !
 ! D84   D(6,15,16,44)        -179.4058         calculate D2E/DX2 analytically  !
 ! D85   D(43,15,16,3)         179.0443         calculate D2E/DX2 analytically  !
 ! D86   D(43,15,16,44)          0.236          calculate D2E/DX2 analytically  !
 ! D87   D(2,17,18,19)        -179.5446         calculate D2E/DX2 analytically  !
 ! D88   D(2,17,18,45)           0.561          calculate D2E/DX2 analytically  !
 ! D89   D(30,17,18,19)         -0.1446         calculate D2E/DX2 analytically  !
 ! D90   D(30,17,18,45)        179.961          calculate D2E/DX2 analytically  !
 ! D91   D(2,17,30,29)         179.8494         calculate D2E/DX2 analytically  !
 ! D92   D(2,17,30,54)          -1.1169         calculate D2E/DX2 analytically  !
 ! D93   D(18,17,30,29)          0.4281         calculate D2E/DX2 analytically  !
 ! D94   D(18,17,30,54)        179.4619         calculate D2E/DX2 analytically  !
 ! D95   D(17,18,19,20)          0.7088         calculate D2E/DX2 analytically  !
 ! D96   D(17,18,19,46)       -179.4777         calculate D2E/DX2 analytically  !
 ! D97   D(45,18,19,20)       -179.3927         calculate D2E/DX2 analytically  !
 ! D98   D(45,18,19,46)          0.4208         calculate D2E/DX2 analytically  !
 ! D99   D(18,19,20,21)       -178.2669         calculate D2E/DX2 analytically  !
 ! D100  D(18,19,20,29)         -1.5399         calculate D2E/DX2 analytically  !
 ! D101  D(46,19,20,21)          1.9196         calculate D2E/DX2 analytically  !
 ! D102  D(46,19,20,29)        178.6467         calculate D2E/DX2 analytically  !
 ! D103  D(19,20,21,22)       -144.7084         calculate D2E/DX2 analytically  !
 ! D104  D(29,20,21,22)         38.7092         calculate D2E/DX2 analytically  !
 ! D105  D(19,20,29,30)          1.8095         calculate D2E/DX2 analytically  !
 ! D106  D(19,20,29,53)       -177.6318         calculate D2E/DX2 analytically  !
 ! D107  D(21,20,29,30)        178.2906         calculate D2E/DX2 analytically  !
 ! D108  D(21,20,29,53)         -1.1507         calculate D2E/DX2 analytically  !
 ! D109  D(20,21,22,23)       -128.99           calculate D2E/DX2 analytically  !
 ! D110  D(20,21,22,28)         55.4131         calculate D2E/DX2 analytically  !
 ! D111  D(21,22,23,24)       -178.4536         calculate D2E/DX2 analytically  !
 ! D112  D(21,22,23,47)          1.0914         calculate D2E/DX2 analytically  !
 ! D113  D(28,22,23,24)         -2.7594         calculate D2E/DX2 analytically  !
 ! D114  D(28,22,23,47)        176.7856         calculate D2E/DX2 analytically  !
 ! D115  D(21,22,28,27)        178.2538         calculate D2E/DX2 analytically  !
 ! D116  D(21,22,28,52)         -0.7557         calculate D2E/DX2 analytically  !
 ! D117  D(23,22,28,27)          2.7678         calculate D2E/DX2 analytically  !
 ! D118  D(23,22,28,52)       -176.2418         calculate D2E/DX2 analytically  !
 ! D119  D(22,23,24,25)         -1.2912         calculate D2E/DX2 analytically  !
 ! D120  D(22,23,24,48)        178.5408         calculate D2E/DX2 analytically  !
 ! D121  D(47,23,24,25)        179.1636         calculate D2E/DX2 analytically  !
 ! D122  D(47,23,24,48)         -1.0045         calculate D2E/DX2 analytically  !
 ! D123  D(23,24,25,26)        174.487          calculate D2E/DX2 analytically  !
 ! D124  D(23,24,25,27)          5.2315         calculate D2E/DX2 analytically  !
 ! D125  D(48,24,25,26)         -5.343          calculate D2E/DX2 analytically  !
 ! D126  D(48,24,25,27)       -174.5984         calculate D2E/DX2 analytically  !
 ! D127  D(24,25,26,49)        160.3897         calculate D2E/DX2 analytically  !
 ! D128  D(24,25,26,50)         30.3634         calculate D2E/DX2 analytically  !
 ! D129  D(27,25,26,49)        -30.5165         calculate D2E/DX2 analytically  !
 ! D130  D(27,25,26,50)       -160.5429         calculate D2E/DX2 analytically  !
 ! D131  D(24,25,27,28)         -5.2219         calculate D2E/DX2 analytically  !
 ! D132  D(24,25,27,51)        174.4931         calculate D2E/DX2 analytically  !
 ! D133  D(26,25,27,28)       -174.4748         calculate D2E/DX2 analytically  !
 ! D134  D(26,25,27,51)          5.2402         calculate D2E/DX2 analytically  !
 ! D135  D(25,27,28,22)          1.273          calculate D2E/DX2 analytically  !
 ! D136  D(25,27,28,52)       -179.7108         calculate D2E/DX2 analytically  !
 ! D137  D(51,27,28,22)       -178.4452         calculate D2E/DX2 analytically  !
 ! D138  D(51,27,28,52)          0.5709         calculate D2E/DX2 analytically  !
 ! D139  D(20,29,30,17)         -1.2706         calculate D2E/DX2 analytically  !
 ! D140  D(20,29,30,54)        179.6768         calculate D2E/DX2 analytically  !
 ! D141  D(53,29,30,17)        178.181          calculate D2E/DX2 analytically  !
 ! D142  D(53,29,30,54)         -0.8716         calculate D2E/DX2 analytically  !
 --------------------------------------------------------------------------------
 Trust Radius=3.00D-01 FncErr=1.00D-07 GrdErr=1.00D-06 EigMax=2.50D+02 EigMin=1.00D-04
 Number of steps in this run=    310 maximum allowed number of steps=    342.
 GradGradGradGradGradGradGradGradGradGradGradGradGradGradGradGradGradGrad

 Stoichiometry    C27H26N2O2
 Framework group  C1[X(C27H26N2O2)]
 Deg. of freedom   165
 Full point group                 C1      NOp   1
 Largest Abelian subgroup         C1      NOp   1
 Largest concise Abelian subgroup C1      NOp   1
                         Standard orientation:                         
 ---------------------------------------------------------------------
 Center     Atomic      Atomic             Coordinates (Angstroms)
 Number     Number       Type             X           Y           Z
 ---------------------------------------------------------------------
      1          6           0       -0.104698    2.415107    2.288505
      2          6           0        0.034545    2.409176    0.744100
      3          6           0        1.191266    1.518286    0.227947
      4          6           0        2.068742    0.832143    1.085264
      5          6           0        3.087266    0.016434    0.577591
      6          6           0        3.261653   -0.114166   -0.800021
      7          8           0        4.203952   -0.930056   -1.384688
      8          6           0        5.410830   -1.078863   -0.745531
      9          6           0        5.848797   -2.375531   -0.490723
     10          6           0        7.084683   -2.581342    0.127272
     11          6           0        7.877160   -1.497197    0.517193
     12          7           0        9.160433   -1.714298    1.031120
     13          6           0        7.463056   -0.205730    0.178141
     14          6           0        6.227925    0.009123   -0.440202
     15          6           0        2.398322    0.548746   -1.667740
     16          6           0        1.379290    1.360123   -1.160387
     17          6           0       -1.326700    1.922263    0.189014
     18          6           0       -2.248549    2.780278   -0.434127
     19          6           0       -3.472181    2.298485   -0.913147
     20          6           0       -3.806374    0.954137   -0.766711
     21          8           0       -5.012907    0.558306   -1.299367
     22          6           0       -5.719334   -0.408601   -0.626057
     23          6           0       -6.162104   -1.508202   -1.356715
     24          6           0       -6.912951   -2.504084   -0.726014
     25          6           0       -7.202987   -2.422777    0.639413
     26          7           0       -8.050830   -3.363364    1.236173
     27          6           0       -6.823643   -1.273427    1.339476
     28          6           0       -6.072405   -0.272412    0.716358
     29          6           0       -2.901964    0.079807   -0.168210
     30          6           0       -1.682761    0.562946    0.315047
     31          6           0        0.385918    3.865827    0.342588
     32          1           0       -0.284569    1.412388    2.693364
     33          1           0        0.794906    2.812654    2.774068
     34          1           0       -0.946760    3.043031    2.606557
     35          1           0        1.977207    0.902842    2.165459
     36          1           0        3.727146   -0.519644    1.273111
     37          1           0        5.235267   -3.223790   -0.779823
     38          1           0        7.425179   -3.598414    0.298679
     39          1           0        9.258465   -2.593688    1.528814
     40          1           0        9.529654   -0.929552    1.558265
     41          1           0        8.102520    0.647220    0.389215
     42          1           0        5.918274    1.018707   -0.693454
     43          1           0        2.511784    0.431690   -2.742179
     44          1           0        0.714405    1.857325   -1.865049
     45          1           0       -2.040774    3.838373   -0.564415
     46          1           0       -4.167379    2.977789   -1.399703
     47          1           0       -5.931270   -1.588294   -2.414605
     48          1           0       -7.272911   -3.345304   -1.312790
     49          1           0       -7.953635   -3.417723    2.245173
     50          1           0       -8.016758   -4.277382    0.796870
     51          1           0       -7.114724   -1.145088    2.378193
     52          1           0       -5.781754    0.612289    1.275688
     53          1           0       -3.124637   -0.979411   -0.077616
     54          1           0       -0.997763   -0.142539    0.782854
     55          1           0        1.376889    4.149927    0.718236
     56          1           0       -0.331123    4.584722    0.756785
     57          1           0        0.399966    4.006210   -0.744259
 ---------------------------------------------------------------------
 Rotational constants (GHZ):           0.2815996           0.0453883           0.0417619
 Standard basis: 6-31G(d,p) (6D, 7F)
 There are   595 symmetry adapted cartesian basis functions of A   symmetry.
 There are   595 symmetry adapted basis functions of A   symmetry.
   595 basis functions,  1050 primitive gaussians,   595 cartesian basis functions
   109 alpha electrons      109 beta electrons
       nuclear repulsion energy      2671.3978192645 Hartrees.
 NAtoms=   57 NActive=   57 NUniq=   57 SFac= 1.00D+00 NAtFMM=   60 NAOKFM=F Big=F
 Integral buffers will be    131072 words long.
 Raffenetti 2 integral format.
 Two-electron integral symmetry is turned on.
 Force inversion solution in PCM.
 ------------------------------------------------------------------------------
 Polarizable Continuum Model (PCM)
 =================================
 Model                : PCM.
 Atomic radii         : UFF (Universal Force Field).
 Polarization charges : Total charges.
 Charge compensation  : None.
 Solution method      : Matrix inversion.
 Cavity type          : Scaled VdW (van der Waals Surface) (Alpha=1.100).
 Cavity algorithm     : GePol (No added spheres)
                        Default sphere list used, NSphG=   57.
                        Lebedev-Laikov grids with approx.  5.0 points / Ang**2.
                        Smoothing algorithm: York/Karplus (Gamma=1.0000).
                        Polarization charges: spherical gaussians, with
                                              point-specific exponents (IZeta= 3).
                        Self-potential: point-specific (ISelfS= 7).
                        Self-field    : sphere-specific E.n sum rule (ISelfD= 2).
 1st derivatives      : Analytical E(r).r(x)/FMM algorithm (CHGder, D1EAlg=3).
                        Cavity 1st derivative terms included.
 2nd derivatives      : Analytical E(r).r(xy)/FMM algorithm (CHGder, D2EAlg=3).
                        Cavity 2nd derivative terms included.
 Solvent              : Water, Eps=  78.355300 Eps(inf)=   1.777849
 ------------------------------------------------------------------------------
 One-electron integrals computed using PRISM.
 NBasis=   595 RedAO= T EigKep=  4.09D-04  NBF=   595
 NBsUse=   595 1.00D-06 EigRej= -1.00D+00 NBFU=   595
 ExpMin= 1.61D-01 ExpMax= 5.48D+03 ExpMxC= 8.25D+02 IAcc=3 IRadAn=         5 AccDes= 0.00D+00
 Harris functional with IExCor=  402 and IRadAn=       5 diagonalized for initial guess.
 HarFok:  IExCor=  402 AccDes= 0.00D+00 IRadAn=         5 IDoV= 1 UseB2=F ITyADJ=14
 ICtDFT=  3500011 ScaDFX=  1.000000  1.000000  1.000000  1.000000
 FoFCou: FMM=F IPFlag=           0 FMFlag=      100000 FMFlg1=           0
         NFxFlg=           0 DoJE=T BraDBF=F KetDBF=T FulRan=T
         wScrn=  0.000000 ICntrl=       500 IOpCl=  0 I1Cent=   200000004 NGrid=           0
         NMat0=    1 NMatS0=      1 NMatT0=    0 NMatD0=    1 NMtDS0=    0 NMtDT0=    0
 Petite list used in FoFCou.
 Requested convergence on RMS density matrix=1.00D-08 within  32 cycles.
 Requested convergence on MAX density matrix=1.00D-06.
 Requested convergence on             energy=1.00D-06.
 No special actions if energy rises.
 Inv3:  Mode=1 IEnd=    49280427.
 Iteration    1 A*A^-1 deviation from unit magnitude is 3.55D-15 for   1138.
 Iteration    1 A*A^-1 deviation from orthogonality  is 2.55D-15 for   2061   1317.
 Iteration    1 A^-1*A deviation from unit magnitude is 3.11D-15 for    239.
 Iteration    1 A^-1*A deviation from orthogonality  is 1.54D-12 for   3316   3288.
 Error on total polarization charges =  0.01334
 SCF Done:  E(RB3LYP) =  -1304.52490260     A.U. after   12 cycles
            NFock= 12  Conv=0.70D-08     -V/T= 2.0096
 QCSCF skips out because SCF is already converged.
 DoSCS=F DFT=T ScalE2(SS,OS)=  1.000000  1.000000
 Range of M.O.s used for correlation:     1   595
 NBasis=   595 NAE=   109 NBE=   109 NFC=     0 NFV=     0
 NROrb=    595 NOA=   109 NOB=   109 NVA=   486 NVB=   486
 Symmetrizing basis deriv contribution to polar:
 IMax=3 JMax=2 DiffMx= 0.00D+00
 G2DrvN: will do    58 centers at a time, making    1 passes.
 Calling FoFCou, ICntrl=  3107 FMM=F I1Cent=   0 AccDes= 0.00D+00.
 NEqPCM:  Using equilibrium solvation (IEInf=0, Eps=  78.3553, EpsInf=   1.7778)
 G2PCM: DoFxE=T DoFxN=T DoGrad=T DoDP/DQ/DG/TGxP=FFFF NFrqRd=   0 IEInf=0 SqF1=F DoCFld=F IF1Alg=4.
 End of G2Drv F.D. properties file   721 does not exist.
 End of G2Drv F.D. properties file   722 does not exist.
 End of G2Drv F.D. properties file   788 does not exist.
          IDoAtm=11111111111111111111111111111111111111111111111111
          IDoAtm=1111111
 NEqPCM:  Using equilibrium solvation (IEInf=0, Eps=  78.3553, EpsInf=   1.7778)
          Differentiating once with respect to nuclear coordinates.
 CalDSu exits because no D1Ps are significant.
          There are   174 degrees of freedom in the 1st order CPHF.  IDoFFX=6 NUNeed=     0.
    168 vectors produced by pass  0 Test12= 5.30D-14 1.00D-09 XBig12= 1.63D-01 1.12D-01.
 AX will form   168 AO Fock derivatives at one time.
    168 vectors produced by pass  1 Test12= 5.30D-14 1.00D-09 XBig12= 3.00D-02 2.76D-02.
    168 vectors produced by pass  2 Test12= 5.30D-14 1.00D-09 XBig12= 2.70D-04 1.33D-03.
    168 vectors produced by pass  3 Test12= 5.30D-14 1.00D-09 XBig12= 8.20D-07 8.78D-05.
    168 vectors produced by pass  4 Test12= 5.30D-14 1.00D-09 XBig12= 1.18D-09 2.63D-06.
    112 vectors produced by pass  5 Test12= 5.30D-14 1.00D-09 XBig12= 1.39D-12 8.05D-08.
     18 vectors produced by pass  6 Test12= 5.30D-14 1.00D-09 XBig12= 1.28D-15 2.63D-09.
 InvSVY:  IOpt=1 It=  1 EMax= 4.44D-16
 Solved reduced A of dimension   970 with   174 vectors.
 End of Minotr F.D. properties file   721 does not exist.
 End of Minotr F.D. properties file   722 does not exist.
 End of Minotr F.D. properties file   788 does not exist.

 **********************************************************************

            Population analysis using the SCF density.

 **********************************************************************

 Orbital symmetries:
       Occupied  (A) (A) (A) (A) (A) (A) (A) (A) (A) (A) (A) (A)
                 (A) (A) (A) (A) (A) (A) (A) (A) (A) (A) (A) (A)
                 (A) (A) (A) (A) (A) (A) (A) (A) (A) (A) (A) (A)
                 (A) (A) (A) (A) (A) (A) (A) (A) (A) (A) (A) (A)
                 (A) (A) (A) (A) (A) (A) (A) (A) (A) (A) (A) (A)
                 (A) (A) (A) (A) (A) (A) (A) (A) (A) (A) (A) (A)
                 (A) (A) (A) (A) (A) (A) (A) (A) (A) (A) (A) (A)
                 (A) (A) (A) (A) (A) (A) (A) (A) (A) (A) (A) (A)
                 (A) (A) (A) (A) (A) (A) (A) (A) (A) (A) (A) (A)
                 (A)
       Virtual   (A) (A) (A) (A) (A) (A) (A) (A) (A) (A) (A) (A)
                 (A) (A) (A) (A) (A) (A) (A) (A) (A) (A) (A) (A)
                 (A) (A) (A) (A) (A) (A) (A) (A) (A) (A) (A) (A)
                 (A) (A) (A) (A) (A) (A) (A) (A) (A) (A) (A) (A)
                 (A) (A) (A) (A) (A) (A) (A) (A) (A) (A) (A) (A)
                 (A) (A) (A) (A) (A) (A) (A) (A) (A) (A) (A) (A)
                 (A) (A) (A) (A) (A) (A) (A) (A) (A) (A) (A) (A)
                 (A) (A) (A) (A) (A) (A) (A) (A) (A) (A) (A) (A)
                 (A) (A) (A) (A) (A) (A) (A) (A) (A) (A) (A) (A)
                 (A) (A) (A) (A) (A) (A) (A) (A) (A) (A) (A) (A)
                 (A) (A) (A) (A) (A) (A) (A) (A) (A) (A) (A) (A)
                 (A) (A) (A) (A) (A) (A) (A) (A) (A) (A) (A) (A)
                 (A) (A) (A) (A) (A) (A) (A) (A) (A) (A) (A) (A)
                 (A) (A) (A) (A) (A) (A) (A) (A) (A) (A) (A) (A)
                 (A) (A) (A) (A) (A) (A) (A) (A) (A) (A) (A) (A)
                 (A) (A) (A) (A) (A) (A) (A) (A) (A) (A) (A) (A)
                 (A) (A) (A) (A) (A) (A) (A) (A) (A) (A) (A) (A)
                 (A) (A) (A) (A) (A) (A) (A) (A) (A) (A) (A) (A)
                 (A) (A) (A) (A) (A) (A) (A) (A) (A) (A) (A) (A)
                 (A) (A) (A) (A) (A) (A) (A) (A) (A) (A) (A) (A)
                 (A) (A) (A) (A) (A) (A) (A) (A) (A) (A) (A) (A)
                 (A) (A) (A) (A) (A) (A) (A) (A) (A) (A) (A) (A)
                 (A) (A) (A) (A) (A) (A) (A) (A) (A) (A) (A) (A)
                 (A) (A) (A) (A) (A) (A) (A) (A) (A) (A) (A) (A)
                 (A) (A) (A) (A) (A) (A) (A) (A) (A) (A) (A) (A)
                 (A) (A) (A) (A) (A) (A) (A) (A) (A) (A) (A) (A)
                 (A) (A) (A) (A) (A) (A) (A) (A) (A) (A) (A) (A)
                 (A) (A) (A) (A) (A) (A) (A) (A) (A) (A) (A) (A)
                 (A) (A) (A) (A) (A) (A) (A) (A) (A) (A) (A) (A)
                 (A) (A) (A) (A) (A) (A) (A) (A) (A) (A) (A) (A)
                 (A) (A) (A) (A) (A) (A) (A) (A) (A) (A) (A) (A)
                 (A) (A) (A) (A) (A) (A) (A) (A) (A) (A) (A) (A)
                 (A) (A) (A) (A) (A) (A) (A) (A) (A) (A) (A) (A)
                 (A) (A) (A) (A) (A) (A) (A) (A) (A) (A) (A) (A)
                 (A) (A) (A) (A) (A) (A) (A) (A) (A) (A) (A) (A)
                 (A) (A) (A) (A) (A) (A) (A) (A) (A) (A) (A) (A)
                 (A) (A) (A) (A) (A) (A) (A) (A) (A) (A) (A) (A)
                 (A) (A) (A) (A) (A) (A) (A) (A) (A) (A) (A) (A)
                 (A) (A) (A) (A) (A) (A) (A) (A) (A) (A) (A) (A)
                 (A) (A) (A) (A) (A) (A) (A) (A) (A) (A) (A) (A)
                 (A) (A) (A) (A) (A) (A)
 The electronic state is 1-A.
 Alpha  occ. eigenvalues --  -19.18483 -19.18413 -14.33565 -14.33546 -10.24911
 Alpha  occ. eigenvalues --  -10.24839 -10.23887 -10.23870 -10.22631 -10.22598
 Alpha  occ. eigenvalues --  -10.21186 -10.19606 -10.19572 -10.19215 -10.19211
 Alpha  occ. eigenvalues --  -10.19208 -10.19191 -10.19182 -10.19138 -10.19069
 Alpha  occ. eigenvalues --  -10.19015 -10.18976 -10.18959 -10.18864 -10.18803
 Alpha  occ. eigenvalues --  -10.18728 -10.18717 -10.18630 -10.18625 -10.17587
 Alpha  occ. eigenvalues --  -10.17575  -1.07905  -1.07868  -0.91428  -0.91411
 Alpha  occ. eigenvalues --   -0.86620  -0.85386  -0.83830  -0.83374  -0.80654
 Alpha  occ. eigenvalues --   -0.75420  -0.74957  -0.74850  -0.74805  -0.74467
 Alpha  occ. eigenvalues --   -0.73781  -0.71042  -0.70659  -0.68366  -0.63861
 Alpha  occ. eigenvalues --   -0.62920  -0.62035  -0.61989  -0.61030  -0.60743
 Alpha  occ. eigenvalues --   -0.58826  -0.57771  -0.55461  -0.54465  -0.54428
 Alpha  occ. eigenvalues --   -0.51352  -0.51279  -0.50780  -0.50603  -0.49304
 Alpha  occ. eigenvalues --   -0.48159  -0.47287  -0.45634  -0.45112  -0.44813
 Alpha  occ. eigenvalues --   -0.44566  -0.44543  -0.44192  -0.44137  -0.42423
 Alpha  occ. eigenvalues --   -0.42297  -0.42133  -0.42051  -0.41767  -0.41283
 Alpha  occ. eigenvalues --   -0.40251  -0.39922  -0.39498  -0.39177  -0.38869
 Alpha  occ. eigenvalues --   -0.38148  -0.37956  -0.37511  -0.37362  -0.37047
 Alpha  occ. eigenvalues --   -0.35805  -0.35242  -0.34905  -0.34653  -0.33635
 Alpha  occ. eigenvalues --   -0.33586  -0.32210  -0.32110  -0.31591  -0.29549
 Alpha  occ. eigenvalues --   -0.29336  -0.25663  -0.25581  -0.25171  -0.25054
 Alpha  occ. eigenvalues --   -0.23440  -0.22282  -0.19667  -0.19557
 Alpha virt. eigenvalues --   -0.01434  -0.01168  -0.00238  -0.00168   0.00086
 Alpha virt. eigenvalues --    0.00775   0.01990   0.02246   0.08778   0.09023
 Alpha virt. eigenvalues --    0.09413   0.10410   0.10718   0.10770   0.12198
 Alpha virt. eigenvalues --    0.13028   0.13146   0.13159   0.13891   0.14060
 Alpha virt. eigenvalues --    0.14976   0.15182   0.15470   0.16081   0.16300
 Alpha virt. eigenvalues --    0.16923   0.17147   0.17159   0.17301   0.17481
 Alpha virt. eigenvalues --    0.17703   0.17741   0.17915   0.18664   0.19284
 Alpha virt. eigenvalues --    0.20048   0.20136   0.20222   0.20821   0.22733
 Alpha virt. eigenvalues --    0.23361   0.23786   0.24590   0.24774   0.25665
 Alpha virt. eigenvalues --    0.26081   0.27617   0.27813   0.30215   0.30996
 Alpha virt. eigenvalues --    0.32787   0.32804   0.33389   0.33424   0.33970
 Alpha virt. eigenvalues --    0.34071   0.34238   0.34538   0.34932   0.35308
 Alpha virt. eigenvalues --    0.36932   0.37307   0.37605   0.37881   0.47504
 Alpha virt. eigenvalues --    0.47924   0.48523   0.48663   0.49341   0.49815
 Alpha virt. eigenvalues --    0.50191   0.50371   0.51043   0.51965   0.52137
 Alpha virt. eigenvalues --    0.52329   0.52837   0.53127   0.53522   0.53681
 Alpha virt. eigenvalues --    0.54517   0.54623   0.55194   0.55661   0.56214
 Alpha virt. eigenvalues --    0.56974   0.57030   0.57936   0.58053   0.58712
 Alpha virt. eigenvalues --    0.58819   0.59095   0.59194   0.59292   0.59564
 Alpha virt. eigenvalues --    0.59773   0.59986   0.60395   0.60603   0.60824
 Alpha virt. eigenvalues --    0.61283   0.61528   0.61776   0.61994   0.62303
 Alpha virt. eigenvalues --    0.62790   0.63307   0.63706   0.63911   0.65728
 Alpha virt. eigenvalues --    0.66292   0.66502   0.67173   0.67484   0.68071
 Alpha virt. eigenvalues --    0.68684   0.69998   0.70086   0.70153   0.70869
 Alpha virt. eigenvalues --    0.71319   0.73619   0.74392   0.75863   0.76744
 Alpha virt. eigenvalues --    0.76885   0.77610   0.77983   0.78298   0.78722
 Alpha virt. eigenvalues --    0.79520   0.80020   0.80552   0.81922   0.81992
 Alpha virt. eigenvalues --    0.82042   0.82280   0.82503   0.82910   0.83237
 Alpha virt. eigenvalues --    0.84269   0.84524   0.84615   0.85283   0.85569
 Alpha virt. eigenvalues --    0.85758   0.85995   0.86144   0.86757   0.86964
 Alpha virt. eigenvalues --    0.87629   0.87976   0.88516   0.89089   0.89662
 Alpha virt. eigenvalues --    0.89829   0.90746   0.90899   0.91488   0.92306
 Alpha virt. eigenvalues --    0.92541   0.93380   0.93693   0.94137   0.94480
 Alpha virt. eigenvalues --    0.95953   0.97125   0.98364   0.98776   0.99244
 Alpha virt. eigenvalues --    0.99646   0.99676   1.00949   1.01790   1.02064
 Alpha virt. eigenvalues --    1.03758   1.04027   1.04474   1.04859   1.05787
 Alpha virt. eigenvalues --    1.06769   1.08343   1.11388   1.11538   1.12787
 Alpha virt. eigenvalues --    1.13922   1.14456   1.14872   1.15751   1.16247
 Alpha virt. eigenvalues --    1.16733   1.17155   1.17363   1.18551   1.19513
 Alpha virt. eigenvalues --    1.20154   1.21309   1.22353   1.22507   1.23802
 Alpha virt. eigenvalues --    1.24465   1.25141   1.26002   1.27962   1.29558
 Alpha virt. eigenvalues --    1.30289   1.32074   1.32351   1.33943   1.34608
 Alpha virt. eigenvalues --    1.35249   1.35697   1.36729   1.37233   1.38214
 Alpha virt. eigenvalues --    1.38891   1.39740   1.39903   1.40255   1.40349
 Alpha virt. eigenvalues --    1.40553   1.40571   1.40786   1.41973   1.42625
 Alpha virt. eigenvalues --    1.43538   1.43792   1.45041   1.47046   1.47741
 Alpha virt. eigenvalues --    1.48414   1.49958   1.50518   1.51974   1.52435
 Alpha virt. eigenvalues --    1.54411   1.55007   1.61608   1.67287   1.67893
 Alpha virt. eigenvalues --    1.69244   1.70787   1.72621   1.73460   1.74891
 Alpha virt. eigenvalues --    1.75470   1.75763   1.76382   1.76929   1.77012
 Alpha virt. eigenvalues --    1.78194   1.78482   1.79020   1.79898   1.80433
 Alpha virt. eigenvalues --    1.80661   1.81507   1.82307   1.84196   1.84807
 Alpha virt. eigenvalues --    1.85717   1.86379   1.86675   1.87270   1.87446
 Alpha virt. eigenvalues --    1.87602   1.88448   1.89674   1.90220   1.90904
 Alpha virt. eigenvalues --    1.91044   1.91463   1.91588   1.92195   1.92286
 Alpha virt. eigenvalues --    1.92390   1.92735   1.94193   1.94954   1.95725
 Alpha virt. eigenvalues --    1.96176   1.97017   1.97143   1.97302   1.97967
 Alpha virt. eigenvalues --    1.98711   1.99085   1.99498   2.00148   2.01260
 Alpha virt. eigenvalues --    2.01495   2.01913   2.02225   2.05659   2.06117
 Alpha virt. eigenvalues --    2.06353   2.06791   2.07128   2.07590   2.09439
 Alpha virt. eigenvalues --    2.09531   2.09958   2.11487   2.12342   2.12799
 Alpha virt. eigenvalues --    2.14174   2.14464   2.14896   2.15187   2.16543
 Alpha virt. eigenvalues --    2.16669   2.17207   2.20064   2.21332   2.22709
 Alpha virt. eigenvalues --    2.23567   2.23796   2.24313   2.24684   2.26477
 Alpha virt. eigenvalues --    2.26611   2.27500   2.27573   2.29062   2.29665
 Alpha virt. eigenvalues --    2.30469   2.30951   2.31968   2.32016   2.32921
 Alpha virt. eigenvalues --    2.33075   2.34137   2.34325   2.35507   2.36051
 Alpha virt. eigenvalues --    2.36597   2.36664   2.37382   2.40294   2.41259
 Alpha virt. eigenvalues --    2.41285   2.41654   2.41762   2.41845   2.42153
 Alpha virt. eigenvalues --    2.44226   2.44703   2.45189   2.45595   2.46056
 Alpha virt. eigenvalues --    2.46486   2.46552   2.46884   2.47173   2.47232
 Alpha virt. eigenvalues --    2.48342   2.49554   2.50206   2.50404   2.51290
 Alpha virt. eigenvalues --    2.51980   2.53797   2.54470   2.54856   2.55052
 Alpha virt. eigenvalues --    2.55769   2.56649   2.57170   2.57341   2.58487
 Alpha virt. eigenvalues --    2.59134   2.59523   2.59800   2.59892   2.60307
 Alpha virt. eigenvalues --    2.60986   2.61184   2.64673   2.64916   2.65364
 Alpha virt. eigenvalues --    2.65463   2.68542   2.69275   2.69851   2.72510
 Alpha virt. eigenvalues --    2.72918   2.73456   2.74130   2.74484   2.74972
 Alpha virt. eigenvalues --    2.75211   2.76497   2.77150   2.79357   2.80231
 Alpha virt. eigenvalues --    2.80541   2.81303   2.83030   2.83661   2.84315
 Alpha virt. eigenvalues --    2.84629   2.85248   2.86015   2.88078   2.89284
 Alpha virt. eigenvalues --    2.90403   2.91552   2.96537   2.98181   2.98234
 Alpha virt. eigenvalues --    2.98744   3.00471   3.01863   3.04725   3.05356
 Alpha virt. eigenvalues --    3.06217   3.06529   3.08855   3.09277   3.11691
 Alpha virt. eigenvalues --    3.12268   3.18154   3.18777   3.19061   3.20457
 Alpha virt. eigenvalues --    3.20984   3.24602   3.24910   3.24915   3.25449
 Alpha virt. eigenvalues --    3.26813   3.28384   3.28401   3.30971   3.31276
 Alpha virt. eigenvalues --    3.35767   3.35933   3.37042   3.37321   3.38036
 Alpha virt. eigenvalues --    3.38290   3.42893   3.44368   3.48660   3.48722
 Alpha virt. eigenvalues --    3.49174   3.50456   3.51198   3.52109   3.54358
 Alpha virt. eigenvalues --    3.54520   3.79798   3.80680   3.83872   3.84064
 Alpha virt. eigenvalues --    4.03687   4.03696   4.13556   4.13585   4.14039
 Alpha virt. eigenvalues --    4.14151   4.15279   4.15488   4.16039   4.16974
 Alpha virt. eigenvalues --    4.19213   4.20011   4.22710   4.24938   4.41055
 Alpha virt. eigenvalues --    4.41815   4.42271   4.44644   4.45191   4.45702
 Alpha virt. eigenvalues --    4.46094   4.48005   4.49195   4.59260   4.61572
 Alpha virt. eigenvalues --    4.66055   4.73491   4.83178   4.84767   4.87456
 Alpha virt. eigenvalues --    4.88543
          Condensed to atoms (all electrons):
 Mulliken charges:
               1
     1  C   -0.314052
     2  C   -0.076066
     3  C    0.123666
     4  C   -0.154286
     5  C   -0.128106
     6  C    0.319315
     7  O   -0.585562
     8  C    0.289550
     9  C   -0.131833
    10  C   -0.141931
    11  C    0.259005
    12  N   -0.672500
    13  C   -0.142044
    14  C   -0.112493
    15  C   -0.139212
    16  C   -0.136601
    17  C    0.126030
    18  C   -0.150750
    19  C   -0.140734
    20  C    0.316933
    21  O   -0.585734
    22  C    0.290063
    23  C   -0.132571
    24  C   -0.141940
    25  C    0.257564
    26  N   -0.672059
    27  C   -0.141807
    28  C   -0.113634
    29  C   -0.122536
    30  C   -0.140672
    31  C   -0.316693
    32  H    0.108669
    33  H    0.107453
    34  H    0.108794
    35  H    0.102327
    36  H    0.107502
    37  H    0.103678
    38  H    0.100189
    39  H    0.277339
    40  H    0.277198
    41  H    0.101509
    42  H    0.107495
    43  H    0.103184
    44  H    0.101346
    45  H    0.100720
    46  H    0.101980
    47  H    0.103468
    48  H    0.100060
    49  H    0.277033
    50  H    0.277015
    51  H    0.101319
    52  H    0.107280
    53  H    0.108439
    54  H    0.101904
    55  H    0.109244
    56  H    0.107531
    57  H    0.109017
 Sum of Mulliken charges =  -0.00000
 Mulliken charges with hydrogens summed into heavy atoms:
               1
     1  C    0.010864
     2  C   -0.076066
     3  C    0.123666
     4  C   -0.051959
     5  C   -0.020604
     6  C    0.319315
     7  O   -0.585562
     8  C    0.289550
     9  C   -0.028155
    10  C   -0.041742
    11  C    0.259005
    12  N   -0.117962
    13  C   -0.040535
    14  C   -0.004998
    15  C   -0.036028
    16  C   -0.035256
    17  C    0.126030
    18  C   -0.050031
    19  C   -0.038755
    20  C    0.316933
    21  O   -0.585734
    22  C    0.290063
    23  C   -0.029102
    24  C   -0.041880
    25  C    0.257564
    26  N   -0.118012
    27  C   -0.040488
    28  C   -0.006354
    29  C   -0.014097
    30  C   -0.038769
    31  C    0.009100
 APT charges:
               1
     1  C   -1.131601
     2  C   -0.253970
     3  C   -0.225941
     4  C   -0.549071
     5  C   -0.456217
     6  C    0.158416
     7  O   -0.361450
     8  C   -0.952193
     9  C   -0.512400
    10  C   -0.323675
    11  C    0.609371
    12  N   -1.368559
    13  C   -0.283660
    14  C   -0.668121
    15  C   -0.513255
    16  C   -0.508852
    17  C   -0.364035
    18  C   -0.473976
    19  C   -0.478376
    20  C    0.155260
    21  O   -0.165298
    22  C   -0.773223
    23  C   -0.425494
    24  C   -0.390289
    25  C    0.374376
    26  N   -0.962383
    27  C   -0.367442
    28  C   -0.667660
    29  C   -0.449308
    30  C   -0.575080
    31  C   -1.362842
    32  H    0.121100
    33  H    0.525279
    34  H    0.589575
    35  H    0.450003
    36  H    0.608689
    37  H    0.124367
    38  H    0.976716
    39  H    0.977343
    40  H    0.918629
    41  H    0.919786
    42  H    0.075137
    43  H    0.561578
    44  H    0.376358
    45  H    0.672000
    46  H    0.914725
    47  H    0.349714
    48  H    0.986270
    49  H    0.570577
    50  H    0.856709
    51  H    0.728242
    52  H    0.096864
    53  H    0.330710
    54  H    0.089067
    55  H    0.515078
    56  H    0.609716
    57  H    0.322717
 Sum of APT charges =  -0.00000
 APT charges with hydrogens summed into heavy atoms:
               1
     1  C    0.104353
     2  C   -0.253970
     3  C   -0.225941
     4  C   -0.099068
     5  C    0.152472
     6  C    0.158416
     7  O   -0.361450
     8  C   -0.952193
     9  C   -0.388033
    10  C    0.653041
    11  C    0.609371
    12  N    0.527413
    13  C    0.636126
    14  C   -0.592984
    15  C    0.048324
    16  C   -0.132494
    17  C   -0.364035
    18  C    0.198024
    19  C    0.436349
    20  C    0.155260
    21  O   -0.165298
    22  C   -0.773223
    23  C   -0.075781
    24  C    0.595981
    25  C    0.374376
    26  N    0.464904
    27  C    0.360800
    28  C   -0.570797
    29  C   -0.118598
    30  C   -0.486014
    31  C    0.084669
 Electronic spatial extent (au):  <R**2>=          24423.8773
 Charge=             -0.0000 electrons
 Dipole moment (field-independent basis, Debye):
    X=              1.9613    Y=             -1.9628    Z=              5.3713  Tot=              6.0456
 Quadrupole moment (field-independent basis, Debye-Ang):
   XX=           -157.3362   YY=           -152.6680   ZZ=           -170.3877
   XY=             15.8201   XZ=             11.9681   YZ=             -7.5813
 Traceless Quadrupole moment (field-independent basis, Debye-Ang):
   XX=              2.7944   YY=              7.4627   ZZ=            -10.2571
   XY=             15.8201   XZ=             11.9681   YZ=             -7.5813
 Octapole moment (field-independent basis, Debye-Ang**2):
  XXX=            344.7221  YYY=            -86.1286  ZZZ=             20.2986  XYY=            -68.6317
  XXY=           -184.5234  XXZ=            296.8569  XZZ=            -18.2211  YZZ=            -21.3459
  YYZ=             20.2819  XYZ=            -16.0997
 Hexadecapole moment (field-independent basis, Debye-Ang**3):
 XXXX=         -26294.3803 YYYY=          -3418.3942 ZZZZ=          -1238.5093 XXXY=            589.1363
 XXXZ=           1377.1035 YYYX=            272.9935 YYYZ=           -112.5613 ZZZX=            -26.3025
 ZZZY=            -60.5524 XXYY=          -4052.3445 XXZZ=          -4317.9021 YYZZ=           -802.2731
 XXYZ=           -529.6131 YYXZ=              8.0603 ZZXY=            115.3684
 N-N= 2.671397819264D+03 E-N=-8.372723950502D+03  KE= 1.292119968516D+03
  Exact polarizability:   0.000   0.000   0.000   0.000   0.000   0.000
 Approx polarizability: 495.161   8.126 493.769  52.659 -11.912 411.023
 D2PCM: PCM CHGder 2nd derivatives, FixD1E=F FixD2E=F DoIter=F DoCFld=F I1PDM=0
 Calling FoFJK, ICntrl=    100147 FMM=F ISym2X=0 I1Cent= 0 IOpClX= 0 NMat=1 NMatS=1 NMatT=0.
 ***** Axes restored to original set *****
 -------------------------------------------------------------------
 Center     Atomic                   Forces (Hartrees/Bohr)
 Number     Number              X              Y              Z
 -------------------------------------------------------------------
      1        6          -0.003488761    0.006688946   -0.001240190
      2        6          -0.000932112    0.000930118    0.007925406
      3        6           0.005529723    0.004409834   -0.001049537
      4        6          -0.000004486   -0.004943386   -0.003203815
      5        6          -0.001154127    0.004565350    0.002606286
      6        6           0.004669457   -0.001103640    0.000530036
      7        8           0.007288520   -0.005783605   -0.000162077
      8        6          -0.008115365    0.005677072   -0.003520388
      9        6          -0.005609869    0.005188039    0.000206860
     10        6           0.009804027    0.000294411   -0.004699644
     11        6          -0.014326989   -0.004816970   -0.006897363
     12        7           0.000852587    0.002996580    0.001892541
     13        6           0.009583011   -0.005532185    0.006380801
     14        6          -0.005343774    0.002020898    0.002054677
     15        6           0.008313012   -0.006917412    0.005607334
     16        6          -0.002156739    0.004383938   -0.002141805
     17        6          -0.004747581   -0.003434890   -0.001883559
     18        6           0.000718926    0.001434603   -0.004321337
     19        6          -0.002959341   -0.001046047    0.005445912
     20        6          -0.002654473   -0.006886165    0.005688885
     21        8          -0.004470484   -0.006841799    0.004085795
     22        6           0.006799740    0.004056343   -0.007314297
     23        6           0.003629353    0.005791208   -0.004352625
     24        6          -0.007031685   -0.007973673   -0.002804872
     25        6           0.016519607   -0.000948625   -0.000105789
     26        7          -0.002609705    0.002408006   -0.000873316
     27        6          -0.009245542   -0.002912061    0.008144379
     28        6           0.003379797    0.005105060   -0.000486522
     29        6          -0.005935869    0.007306968   -0.001458604
     30        6           0.002452498   -0.004732158    0.002171093
     31        6           0.003720587   -0.006308467    0.001179101
     32        1          -0.000300121   -0.001205144   -0.000113567
     33        1           0.000008478   -0.000687840   -0.000857887
     34        1          -0.001579762   -0.003023611   -0.002560996
     35        1           0.001629401   -0.002141906   -0.000327921
     36        1          -0.000967646   -0.002237261   -0.000552810
     37        1           0.000834651   -0.000467132    0.001342022
     38        1          -0.000769669    0.001191228    0.000935493
     39        1          -0.001445329   -0.001210822    0.003619542
     40        1          -0.000001842    0.002735736   -0.002878276
     41        1          -0.000212378    0.001320200    0.000017791
     42        1           0.000966517    0.000738466   -0.000406389
     43        1          -0.001732348    0.001376302    0.000179732
     44        1          -0.000420954    0.002361662    0.000578325
     45        1          -0.001811551    0.001622691   -0.001090657
     46        1           0.000718718    0.001568065   -0.001191406
     47        1          -0.001120796    0.000098809    0.001193644
     48        1          -0.000284238    0.001517185    0.000031460
     49        1           0.000377640   -0.000794508   -0.003936378
     50        1           0.000414000    0.002950880    0.002450063
     51        1          -0.000166284    0.000930166   -0.000900900
     52        1          -0.000855572   -0.000425802   -0.001027589
     53        1           0.001964894   -0.000686869    0.001243625
     54        1           0.000052491   -0.002463890    0.001082894
     55        1           0.001970984    0.002196165   -0.002759315
     56        1           0.000275404    0.000559568   -0.001084471
     57        1          -0.000018631    0.001101368   -0.000389398
 -------------------------------------------------------------------
 Cartesian Forces:  Max     0.016519607 RMS     0.003979262
 FormGI is forming the generalized inverse of G from B-inverse, IUseBI=4.

 GradGradGradGradGradGradGradGradGradGradGradGradGradGradGradGradGradGrad
 Berny optimization.
 Internal  Forces:  Max     0.016530480 RMS     0.002577326
 Search for a local minimum.
 Step number   1 out of a maximum of  310
 All quantities printed in internal units (Hartrees-Bohrs-Radians)
 Mixed Optimization -- RFO/linear search
 Second derivative matrix not updated -- analytic derivatives used.
 ITU=  0
     Eigenvalues ---    0.00030   0.00091   0.00187   0.00277   0.00461
     Eigenvalues ---    0.00489   0.00492   0.00566   0.00693   0.00873
     Eigenvalues ---    0.01593   0.01619   0.01633   0.01657   0.01731
     Eigenvalues ---    0.01732   0.01749   0.01757   0.01799   0.01809
     Eigenvalues ---    0.01818   0.01822   0.01856   0.01899   0.02120
     Eigenvalues ---    0.02124   0.02126   0.02167   0.02208   0.02219
     Eigenvalues ---    0.02301   0.02306   0.02413   0.02417   0.02595
     Eigenvalues ---    0.02596   0.02653   0.02682   0.02725   0.02737
     Eigenvalues ---    0.02744   0.02783   0.02798   0.02804   0.02869
     Eigenvalues ---    0.02884   0.02999   0.03033   0.04571   0.04602
     Eigenvalues ---    0.04649   0.04762   0.05378   0.05548   0.06244
     Eigenvalues ---    0.10748   0.10791   0.10877   0.10909   0.11174
     Eigenvalues ---    0.11206   0.11324   0.11395   0.11625   0.11638
     Eigenvalues ---    0.11671   0.11735   0.11924   0.12066   0.12506
     Eigenvalues ---    0.12524   0.12544   0.12709   0.13194   0.13581
     Eigenvalues ---    0.13582   0.14072   0.14185   0.14937   0.15258
     Eigenvalues ---    0.15629   0.16811   0.17686   0.17712   0.17930
     Eigenvalues ---    0.17994   0.18021   0.18131   0.18240   0.18463
     Eigenvalues ---    0.19111   0.19379   0.19413   0.19896   0.19931
     Eigenvalues ---    0.20411   0.20634   0.21669   0.21821   0.22731
     Eigenvalues ---    0.22849   0.23056   0.23246   0.25639   0.25818
     Eigenvalues ---    0.25916   0.26746   0.27030   0.30510   0.31015
     Eigenvalues ---    0.31176   0.32340   0.32594   0.33149   0.33264
     Eigenvalues ---    0.33271   0.33486   0.34052   0.34163   0.34564
     Eigenvalues ---    0.34759   0.35460   0.35472   0.35675   0.35719
     Eigenvalues ---    0.35914   0.35927   0.35968   0.35993   0.36094
     Eigenvalues ---    0.36116   0.36161   0.36185   0.36432   0.36493
     Eigenvalues ---    0.36574   0.36653   0.38757   0.38947   0.40795
     Eigenvalues ---    0.40833   0.41148   0.41435   0.42395   0.42512
     Eigenvalues ---    0.44872   0.44990   0.45552   0.45588   0.46009
     Eigenvalues ---    0.46059   0.46425   0.46594   0.46683   0.46746
     Eigenvalues ---    0.47184   0.47272   0.47703   0.47793   0.48776
     Eigenvalues ---    0.48795   0.51614   0.51717   0.52850   0.52955
 RFO step:  Lambda=-9.44960051D-03 EMin= 2.95004044D-04
 Linear search not attempted -- first point.
 Iteration  1 RMS(Cart)=  0.08792921 RMS(Int)=  0.00099484
 Iteration  2 RMS(Cart)=  0.00257684 RMS(Int)=  0.00021868
 Iteration  3 RMS(Cart)=  0.00000229 RMS(Int)=  0.00021868
 Iteration  4 RMS(Cart)=  0.00000000 RMS(Int)=  0.00021868
 Variable       Old X    -DE/DX   Delta X   Delta X   Delta X     New X
                                 (Linear)    (Quad)   (Total)
    R1        2.93036  -0.00168   0.00000  -0.00604  -0.00604   2.92433
    R2        2.07157  -0.00093   0.00000  -0.00450  -0.00450   2.06707
    R3        2.07276  -0.00063   0.00000  -0.00345  -0.00345   2.06931
    R4        2.07398  -0.00259   0.00000  -0.00696  -0.00696   2.06702
    R5        2.92639  -0.00527   0.00000  -0.01257  -0.01257   2.91382
    R6        2.92645  -0.00503   0.00000  -0.01164  -0.01164   2.91481
    R7        2.93152  -0.00191   0.00000  -0.00651  -0.00651   2.92500
    R8        2.65622  -0.00460   0.00000  -0.01104  -0.01101   2.64521
    R9        2.66434  -0.00491   0.00000  -0.00676  -0.00675   2.65759
   R10        2.64596  -0.00147   0.00000  -0.00257  -0.00256   2.64340
   R11        2.05294  -0.00172   0.00000  -0.00438  -0.00438   2.04856
   R12        2.63566  -0.00050   0.00000  -0.00034  -0.00036   2.63531
   R13        2.05327  -0.00128   0.00000  -0.00425  -0.00425   2.04901
   R14        2.60168   0.00591   0.00000   0.00764   0.00764   2.60932
   R15        2.63054   0.00502   0.00000   0.01258   0.01256   2.64310
   R16        2.59603   0.01653   0.00000   0.03326   0.03326   2.62929
   R17        2.63079   0.00342   0.00000   0.00306   0.00297   2.63376
   R18        2.63519   0.00225   0.00000   0.00415   0.00404   2.63923
   R19        2.64000  -0.00163   0.00000  -0.00571  -0.00570   2.63430
   R20        2.05237  -0.00068   0.00000  -0.00134  -0.00134   2.05103
   R21        2.64253   0.00666   0.00000   0.01397   0.01407   2.65660
   R22        2.05255   0.00030   0.00000   0.00080   0.00080   2.05335
   R23        2.64430   0.00269   0.00000  -0.00258  -0.00258   2.64171
   R24        2.64179   0.00775   0.00000   0.01746   0.01756   2.65934
   R25        1.91845  -0.00276   0.00000  -0.00540  -0.00540   1.91305
   R26        1.91789  -0.00249   0.00000  -0.00488  -0.00488   1.91301
   R27        2.64160  -0.00305   0.00000  -0.01018  -0.01019   2.63141
   R28        2.05363  -0.00013   0.00000  -0.00014  -0.00014   2.05349
   R29        2.05214  -0.00054   0.00000  -0.00121  -0.00121   2.05093
   R30        2.64168  -0.00472   0.00000  -0.01385  -0.01386   2.62782
   R31        2.05363  -0.00093   0.00000  -0.00252  -0.00252   2.05111
   R32        2.05783  -0.00214   0.00000  -0.00507  -0.00507   2.05276
   R33        2.65525  -0.00414   0.00000  -0.00796  -0.00794   2.64731
   R34        2.66606  -0.00565   0.00000  -0.01042  -0.01040   2.65566
   R35        2.64485  -0.00198   0.00000  -0.00498  -0.00498   2.63987
   R36        2.05252  -0.00141   0.00000  -0.00397  -0.00397   2.04855
   R37        2.63235   0.00123   0.00000   0.00187   0.00185   2.63421
   R38        2.05406  -0.00108   0.00000  -0.00303  -0.00303   2.05103
   R39        2.60215   0.00657   0.00000   0.00865   0.00865   2.61080
   R40        2.63250   0.00359   0.00000   0.01113   0.01111   2.64361
   R41        2.59608   0.01636   0.00000   0.03285   0.03285   2.62894
   R42        2.63143   0.00313   0.00000   0.00267   0.00257   2.63400
   R43        2.63567   0.00209   0.00000   0.00372   0.00361   2.63927
   R44        2.64111  -0.00211   0.00000  -0.00683  -0.00682   2.63430
   R45        2.05175  -0.00046   0.00000  -0.00075  -0.00075   2.05100
   R46        2.64232   0.00665   0.00000   0.01408   0.01419   2.65652
   R47        2.05410  -0.00025   0.00000  -0.00070  -0.00070   2.05340
   R48        2.64539   0.00278   0.00000  -0.00284  -0.00284   2.64255
   R49        2.64224   0.00745   0.00000   0.01671   0.01681   2.65905
   R50        1.91831  -0.00255   0.00000  -0.00508  -0.00508   1.91323
   R51        1.91747  -0.00218   0.00000  -0.00427  -0.00427   1.91320
   R52        2.64201  -0.00332   0.00000  -0.01047  -0.01048   2.63153
   R53        2.05288   0.00011   0.00000   0.00056   0.00056   2.05344
   R54        2.05279  -0.00078   0.00000  -0.00187  -0.00187   2.05092
   R55        2.64117  -0.00342   0.00000  -0.00993  -0.00993   2.63124
   R56        2.05254  -0.00092   0.00000  -0.00315  -0.00315   2.04938
   R57        2.05779  -0.00220   0.00000  -0.00499  -0.00499   2.05279
   R58        2.07341  -0.00241   0.00000  -0.00638  -0.00638   2.06703
   R59        2.07226  -0.00066   0.00000  -0.00336  -0.00336   2.06891
   R60        2.07108  -0.00085   0.00000  -0.00425  -0.00425   2.06682
    A1        1.95958  -0.00013   0.00000  -0.00371  -0.00376   1.95582
    A2        1.94833  -0.00019   0.00000  -0.00447  -0.00453   1.94380
    A3        1.93875  -0.00457   0.00000  -0.02741  -0.02754   1.91121
    A4        1.87822   0.00066   0.00000   0.01135   0.01136   1.88958
    A5        1.86546   0.00231   0.00000   0.01438   0.01428   1.87974
    A6        1.86881   0.00227   0.00000   0.01240   0.01227   1.88107
    A7        1.98366  -0.00469   0.00000  -0.02421  -0.02437   1.95929
    A8        1.85382   0.00420   0.00000   0.02551   0.02553   1.87935
    A9        1.84889   0.00199   0.00000   0.02205   0.02228   1.87117
   A10        1.93502  -0.00111   0.00000  -0.02042  -0.02029   1.91473
   A11        1.85953   0.00404   0.00000   0.02198   0.02194   1.88147
   A12        1.98402  -0.00472   0.00000  -0.02521  -0.02545   1.95857
   A13        2.14579   0.00019   0.00000   0.00711   0.00696   2.15275
   A14        2.08559  -0.00028   0.00000  -0.00102  -0.00117   2.08442
   A15        2.05170   0.00010   0.00000  -0.00571  -0.00577   2.04593
   A16        2.11454   0.00265   0.00000   0.01155   0.01159   2.12613
   A17        2.12010  -0.00342   0.00000  -0.01878  -0.01881   2.10129
   A18        2.04848   0.00078   0.00000   0.00731   0.00728   2.05575
   A19        2.09859  -0.00251   0.00000  -0.01059  -0.01060   2.08799
   A20        2.07570   0.00318   0.00000   0.01985   0.01984   2.09555
   A21        2.10881  -0.00067   0.00000  -0.00916  -0.00917   2.09964
   A22        2.16582  -0.00317   0.00000  -0.00796  -0.00795   2.15787
   A23        2.08698  -0.00066   0.00000   0.00289   0.00285   2.08982
   A24        2.02861   0.00382   0.00000   0.00538   0.00539   2.03400
   A25        2.05771   0.00858   0.00000   0.02890   0.02890   2.08662
   A26        2.05153   0.00368   0.00000   0.01097   0.01114   2.06267
   A27        2.13191  -0.00197   0.00000  -0.00741  -0.00724   2.12467
   A28        2.09703  -0.00170   0.00000  -0.00340  -0.00374   2.09329
   A29        2.09035   0.00201   0.00000   0.00587   0.00565   2.09600
   A30        2.09558  -0.00236   0.00000  -0.01249  -0.01238   2.08320
   A31        2.09721   0.00035   0.00000   0.00663   0.00674   2.10395
   A32        2.10654   0.00024   0.00000   0.00204   0.00203   2.10856
   A33        2.07725   0.00130   0.00000   0.00987   0.00987   2.08712
   A34        2.09939  -0.00154   0.00000  -0.01189  -0.01189   2.08749
   A35        2.09653   0.00219   0.00000   0.01324   0.01194   2.10847
   A36        2.07228  -0.00324   0.00000  -0.00715  -0.00839   2.06389
   A37        2.09909   0.00162   0.00000   0.00923   0.00791   2.10700
   A38        1.98559   0.00207   0.00000   0.01106   0.01107   1.99667
   A39        1.98715   0.00200   0.00000   0.01019   0.01020   1.99735
   A40        1.96061  -0.00349   0.00000  -0.02639  -0.02638   1.93423
   A41        2.10715   0.00114   0.00000   0.00413   0.00408   2.11123
   A42        2.09864  -0.00164   0.00000  -0.01218  -0.01215   2.08648
   A43        2.07739   0.00050   0.00000   0.00803   0.00806   2.08545
   A44        2.08825   0.00176   0.00000   0.00487   0.00459   2.09284
   A45        2.10273  -0.00176   0.00000  -0.00916  -0.00905   2.09368
   A46        2.09208   0.00001   0.00000   0.00445   0.00457   2.09665
   A47        2.09702  -0.00100   0.00000  -0.00625  -0.00628   2.09075
   A48        2.09468  -0.00144   0.00000  -0.01435  -0.01433   2.08035
   A49        2.09146   0.00244   0.00000   0.02060   0.02061   2.11207
   A50        2.11731   0.00143   0.00000   0.00837   0.00836   2.12567
   A51        2.09966  -0.00194   0.00000  -0.01296  -0.01299   2.08667
   A52        2.06603   0.00053   0.00000   0.00482   0.00479   2.07082
   A53        2.14559  -0.00040   0.00000   0.00411   0.00405   2.14964
   A54        2.08606   0.00003   0.00000   0.00072   0.00066   2.08672
   A55        2.05149   0.00036   0.00000  -0.00500  -0.00502   2.04646
   A56        2.11200   0.00162   0.00000   0.00860   0.00859   2.12060
   A57        2.12066  -0.00308   0.00000  -0.01784  -0.01785   2.10281
   A58        2.05053   0.00146   0.00000   0.00925   0.00925   2.05977
   A59        2.10133  -0.00155   0.00000  -0.00709  -0.00713   2.09419
   A60        2.09121   0.00252   0.00000   0.01696   0.01697   2.10818
   A61        2.09065  -0.00097   0.00000  -0.00985  -0.00984   2.08081
   A62        2.03417   0.00393   0.00000   0.00761   0.00763   2.04181
   A63        2.08878  -0.00095   0.00000   0.00167   0.00161   2.09039
   A64        2.15871  -0.00299   0.00000  -0.00940  -0.00937   2.14934
   A65        2.05251   0.00879   0.00000   0.03035   0.03035   2.08286
   A66        2.05118   0.00359   0.00000   0.01016   0.01032   2.06151
   A67        2.13314  -0.00200   0.00000  -0.00695  -0.00678   2.12637
   A68        2.09629  -0.00159   0.00000  -0.00304  -0.00337   2.09292
   A69        2.09061   0.00198   0.00000   0.00576   0.00556   2.09617
   A70        2.09659  -0.00248   0.00000  -0.01362  -0.01352   2.08308
   A71        2.09595   0.00050   0.00000   0.00786   0.00796   2.10392
   A72        2.10677   0.00024   0.00000   0.00193   0.00194   2.10871
[...]
   420    C   28  dz2    Ryd( 3d)     0.00055

   421    C   29  S      Cor( 1S)     1.99901
   422    C   29  S      Val( 2S)     0.95612
   423    C   29  S      Ryd( 3S)     0.00072
   424    C   29  S      Ryd( 4S)     0.00005
   425    C   29  px     Val( 2p)     1.07887
   426    C   29  px     Ryd( 3p)     0.00371
   427    C   29  py     Val( 2p)     1.19758
   428    C   29  py     Ryd( 3p)     0.00382
   429    C   29  pz     Val( 2p)     1.08324
   430    C   29  pz     Ryd( 3p)     0.00296
   431    C   29  dxy    Ryd( 3d)     0.00064
   432    C   29  dxz    Ryd( 3d)     0.00054
   433    C   29  dyz    Ryd( 3d)     0.00041
   434    C   29  dx2y2  Ryd( 3d)     0.00057
   435    C   29  dz2    Ryd( 3d)     0.00047

   436    C   30  S      Cor( 1S)     1.99905
   437    C   30  S      Val( 2S)     0.93918
   438    C   30  S      Ryd( 3S)     0.00082
   439    C   30  S      Ryd( 4S)     0.00006
   440    C   30  px     Val( 2p)     1.12161
   441    C   30  px     Ryd( 3p)     0.00351
   442    C   30  py     Val( 2p)     1.11183
   443    C   30  py     Ryd( 3p)     0.00464
   444    C   30  pz     Val( 2p)     1.08295
   445    C   30  pz     Ryd( 3p)     0.00319
   446    C   30  dxy    Ryd( 3d)     0.00065
   447    C   30  dxz    Ryd( 3d)     0.00048
   448    C   30  dyz    Ryd( 3d)     0.00050
   449    C   30  dx2y2  Ryd( 3d)     0.00058
   450    C   30  dz2    Ryd( 3d)     0.00033

   451    C   31  S      Cor( 1S)     1.99940
   452    C   31  S      Val( 2S)     1.09382
   453    C   31  S      Ryd( 3S)     0.00055
   454    C   31  S      Ryd( 4S)     0.00001
   455    C   31  px     Val( 2p)     1.25093
   456    C   31  px     Ryd( 3p)     0.00206
   457    C   31  py     Val( 2p)     1.09538
   458    C   31  py     Ryd( 3p)     0.00159
   459    C   31  pz     Val( 2p)     1.23193
   460    C   31  pz     Ryd( 3p)     0.00210
   461    C   31  dxy    Ryd( 3d)     0.00077
   462    C   31  dxz    Ryd( 3d)     0.00025
   463    C   31  dyz    Ryd( 3d)     0.00040
   464    C   31  dx2y2  Ryd( 3d)     0.00053
   465    C   31  dz2    Ryd( 3d)     0.00096

   466    H   32  S      Val( 1S)     0.75870
   467    H   32  S      Ryd( 2S)     0.00102
   468    H   32  px     Ryd( 2p)     0.00009
   469    H   32  py     Ryd( 2p)     0.00029
   470    H   32  pz     Ryd( 2p)     0.00013

   471    H   33  S      Val( 1S)     0.76247
   472    H   33  S      Ryd( 2S)     0.00105
   473    H   33  px     Ryd( 2p)     0.00027
   474    H   33  py     Ryd( 2p)     0.00014
   475    H   33  pz     Ryd( 2p)     0.00011

   476    H   34  S      Val( 1S)     0.75390
   477    H   34  S      Ryd( 2S)     0.00093
   478    H   34  px     Ryd( 2p)     0.00024
   479    H   34  py     Ryd( 2p)     0.00017
   480    H   34  pz     Ryd( 2p)     0.00010

   481    H   35  S      Val( 1S)     0.75178
   482    H   35  S      Ryd( 2S)     0.00094
   483    H   35  px     Ryd( 2p)     0.00008
   484    H   35  py     Ryd( 2p)     0.00011
   485    H   35  pz     Ryd( 2p)     0.00041

   486    H   36  S      Val( 1S)     0.74329
   487    H   36  S      Ryd( 2S)     0.00088
   488    H   36  px     Ryd( 2p)     0.00026
   489    H   36  py     Ryd( 2p)     0.00016
   490    H   36  pz     Ryd( 2p)     0.00018

   491    H   37  S      Val( 1S)     0.74208
   492    H   37  S      Ryd( 2S)     0.00096
   493    H   37  px     Ryd( 2p)     0.00033
   494    H   37  py     Ryd( 2p)     0.00015
   495    H   37  pz     Ryd( 2p)     0.00011

   496    H   38  S      Val( 1S)     0.75056
   497    H   38  S      Ryd( 2S)     0.00090
   498    H   38  px     Ryd( 2p)     0.00007
   499    H   38  py     Ryd( 2p)     0.00037
   500    H   38  pz     Ryd( 2p)     0.00015

   501    H   39  S      Val( 1S)     0.58189
   502    H   39  S      Ryd( 2S)     0.00107
   503    H   39  px     Ryd( 2p)     0.00027
   504    H   39  py     Ryd( 2p)     0.00046
   505    H   39  pz     Ryd( 2p)     0.00053

   506    H   40  S      Val( 1S)     0.58196
   507    H   40  S      Ryd( 2S)     0.00107
   508    H   40  px     Ryd( 2p)     0.00044
   509    H   40  py     Ryd( 2p)     0.00039
   510    H   40  pz     Ryd( 2p)     0.00043

   511    H   41  S      Val( 1S)     0.75057
   512    H   41  S      Ryd( 2S)     0.00090
   513    H   41  px     Ryd( 2p)     0.00033
   514    H   41  py     Ryd( 2p)     0.00016
   515    H   41  pz     Ryd( 2p)     0.00011

   516    H   42  S      Val( 1S)     0.74203
   517    H   42  S      Ryd( 2S)     0.00096
   518    H   42  px     Ryd( 2p)     0.00006
   519    H   42  py     Ryd( 2p)     0.00037
   520    H   42  pz     Ryd( 2p)     0.00015

   521    H   43  S      Val( 1S)     0.74627
   522    H   43  S      Ryd( 2S)     0.00124
   523    H   43  px     Ryd( 2p)     0.00008
   524    H   43  py     Ryd( 2p)     0.00011
   525    H   43  pz     Ryd( 2p)     0.00040

   526    H   44  S      Val( 1S)     0.75131
   527    H   44  S      Ryd( 2S)     0.00114
   528    H   44  px     Ryd( 2p)     0.00027
   529    H   44  py     Ryd( 2p)     0.00014
   530    H   44  pz     Ryd( 2p)     0.00019

   531    H   45  S      Val( 1S)     0.75760
   532    H   45  S      Ryd( 2S)     0.00092
   533    H   45  px     Ryd( 2p)     0.00009
   534    H   45  py     Ryd( 2p)     0.00039
   535    H   45  pz     Ryd( 2p)     0.00014

   536    H   46  S      Val( 1S)     0.75361
   537    H   46  S      Ryd( 2S)     0.00115
   538    H   46  px     Ryd( 2p)     0.00024
   539    H   46  py     Ryd( 2p)     0.00017
   540    H   46  pz     Ryd( 2p)     0.00020

   541    H   47  S      Val( 1S)     0.74341
   542    H   47  S      Ryd( 2S)     0.00102
   543    H   47  px     Ryd( 2p)     0.00020
   544    H   47  py     Ryd( 2p)     0.00008
   545    H   47  pz     Ryd( 2p)     0.00034

   546    H   48  S      Val( 1S)     0.75133
   547    H   48  S      Ryd( 2S)     0.00108
   548    H   48  px     Ryd( 2p)     0.00015
   549    H   48  py     Ryd( 2p)     0.00024
   550    H   48  pz     Ryd( 2p)     0.00024

   551    H   49  S      Val( 1S)     0.56012
   552    H   49  S      Ryd( 2S)     0.00142
   553    H   49  px     Ryd( 2p)     0.00037
   554    H   49  py     Ryd( 2p)     0.00022
   555    H   49  pz     Ryd( 2p)     0.00062

   556    H   50  S      Val( 1S)     0.55997
   557    H   50  S      Ryd( 2S)     0.00138
   558    H   50  px     Ryd( 2p)     0.00045
   559    H   50  py     Ryd( 2p)     0.00045
   560    H   50  pz     Ryd( 2p)     0.00031

   561    H   51  S      Val( 1S)     0.75173
   562    H   51  S      Ryd( 2S)     0.00105
   563    H   51  px     Ryd( 2p)     0.00022
   564    H   51  py     Ryd( 2p)     0.00007
   565    H   51  pz     Ryd( 2p)     0.00035

   566    H   52  S      Val( 1S)     0.74315
   567    H   52  S      Ryd( 2S)     0.00095
   568    H   52  px     Ryd( 2p)     0.00015
   569    H   52  py     Ryd( 2p)     0.00026
   570    H   52  pz     Ryd( 2p)     0.00021

   571    H   53  S      Val( 1S)     0.74840
   572    H   53  S      Ryd( 2S)     0.00089
   573    H   53  px     Ryd( 2p)     0.00009
   574    H   53  py     Ryd( 2p)     0.00038
   575    H   53  pz     Ryd( 2p)     0.00016

   576    H   54  S      Val( 1S)     0.75907
   577    H   54  S      Ryd( 2S)     0.00100
   578    H   54  px     Ryd( 2p)     0.00024
   579    H   54  py     Ryd( 2p)     0.00018
   580    H   54  pz     Ryd( 2p)     0.00020

   581    H   55  S      Val( 1S)     0.75510
   582    H   55  S      Ryd( 2S)     0.00090
   583    H   55  px     Ryd( 2p)     0.00031
   584    H   55  py     Ryd( 2p)     0.00010
   585    H   55  pz     Ryd( 2p)     0.00010

   586    H   56  S      Val( 1S)     0.76118
   587    H   56  S      Ryd( 2S)     0.00109
   588    H   56  px     Ryd( 2p)     0.00020
   589    H   56  py     Ryd( 2p)     0.00020
   590    H   56  pz     Ryd( 2p)     0.00012

   591    H   57  S      Val( 1S)     0.75918
   592    H   57  S      Ryd( 2S)     0.00103
   593    H   57  px     Ryd( 2p)     0.00009
   594    H   57  py     Ryd( 2p)     0.00008
   595    H   57  pz     Ryd( 2p)     0.00035

 WARNING:  1 low occupancy (<1.9990e) core orbital  found on  C    6
           1 low occupancy (<1.9990e) core orbital  found on  C    8
           1 low occupancy (<1.9990e) core orbital  found on  C    9
           1 low occupancy (<1.9990e) core orbital  found on  C   11
           1 low occupancy (<1.9990e) core orbital  found on  C   14
           1 low occupancy (<1.9990e) core orbital  found on  C   20
           1 low occupancy (<1.9990e) core orbital  found on  C   22
           1 low occupancy (<1.9990e) core orbital  found on  C   25


 Summary of Natural Population Analysis:                  
                                                          
                                       Natural Population 
                Natural  -----------------------------------------------
    Atom  No    Charge         Core      Valence    Rydberg      Total
 -----------------------------------------------------------------------
      C    1   -0.68133      1.99940     4.67262    0.00931     6.68133
      C    2   -0.06861      1.99905     4.05475    0.01481     6.06861
      C    3   -0.05300      1.99900     4.03555    0.01845     6.05300
      C    4   -0.22810      1.99904     4.21630    0.01276     6.22810
      C    5   -0.31075      1.99901     4.29998    0.01175     6.31075
      C    6    0.30886      1.99873     3.67103    0.02138     5.69114
      O    7   -0.52911      1.99971     6.51800    0.01141     8.52911
      C    8    0.24327      1.99870     3.73538    0.02265     5.75673
      C    9   -0.26009      1.99899     4.24767    0.01342     6.26009
      C   10   -0.28428      1.99905     4.27261    0.01262     6.28428
      C   11    0.16250      1.99899     3.82148    0.01703     5.83750
      N   12   -0.85877      1.99952     5.84744    0.01181     7.85877
      C   13   -0.28436      1.99905     4.27269    0.01262     6.28436
      C   14   -0.26019      1.99899     4.24777    0.01342     6.26019
      C   15   -0.28496      1.99903     4.27181    0.01413     6.28496
      C   16   -0.21972      1.99904     4.20813    0.01255     6.21972
      C   17   -0.04954      1.99900     4.03202    0.01852     6.04954
      C   18   -0.25538      1.99903     4.24298    0.01336     6.25538
      C   19   -0.32728      1.99903     4.31220    0.01604     6.32728
      C   20    0.30481      1.99871     3.67481    0.02166     5.69519
      O   21   -0.51095      1.99969     6.49985    0.01142     8.51095
      C   22    0.37817      1.99870     3.59986    0.02327     5.62183
      C   23   -0.34418      1.99901     4.32594    0.01923     6.34418
      C   24   -0.30820      1.99906     4.29090    0.01823     6.30820
      C   25    0.18870      1.99897     3.79466    0.01766     5.81130
      N   26   -0.66417      1.99946     5.65532    0.00939     7.66417
      C   27   -0.31579      1.99906     4.29834    0.01838     6.31579
      C   28   -0.34339      1.99901     4.32526    0.01912     6.34339
      C   29   -0.32869      1.99901     4.31581    0.01387     6.32869
      C   30   -0.26939      1.99905     4.25557    0.01477     6.26939
      C   31   -0.68068      1.99940     4.67205    0.00923     6.68068
      H   32    0.23975      0.00000     0.75870    0.00155     0.76025
      H   33    0.23595      0.00000     0.76247    0.00157     0.76405
      H   34    0.24465      0.00000     0.75390    0.00145     0.75535
      H   35    0.24668      0.00000     0.75178    0.00155     0.75332
      H   36    0.25523      0.00000     0.74329    0.00148     0.74477
      H   37    0.25637      0.00000     0.74208    0.00155     0.74363
      H   38    0.24794      0.00000     0.75056    0.00149     0.75206
      H   39    0.41579      0.00000     0.58189    0.00233     0.58421
      H   40    0.41571      0.00000     0.58196    0.00233     0.58429
      H   41    0.24794      0.00000     0.75057    0.00149     0.75206
      H   42    0.25642      0.00000     0.74203    0.00155     0.74358
      H   43    0.25190      0.00000     0.74627    0.00183     0.74810
      H   44    0.24696      0.00000     0.75131    0.00174     0.75304
      H   45    0.24087      0.00000     0.75760    0.00154     0.75913
      H   46    0.24464      0.00000     0.75361    0.00176     0.75536
      H   47    0.25495      0.00000     0.74341    0.00165     0.74505
      H   48    0.24695      0.00000     0.75133    0.00172     0.75305
      H   49    0.43726      0.00000     0.56012    0.00263     0.56274
      H   50    0.43743      0.00000     0.55997    0.00259     0.56257
      H   51    0.24657      0.00000     0.75173    0.00169     0.75343
      H   52    0.25528      0.00000     0.74315    0.00157     0.74472
      H   53    0.25008      0.00000     0.74840    0.00152     0.74992
      H   54    0.23931      0.00000     0.75907    0.00162     0.76069
      H   55    0.24348      0.00000     0.75510    0.00141     0.75652
      H   56    0.23721      0.00000     0.76118    0.00161     0.76279
      H   57    0.23928      0.00000     0.75918    0.00155     0.76072
 =======================================================================
   * Total *    0.00000     61.97151   155.50943    0.51907   218.00000

                                 Natural Population      
 --------------------------------------------------------
   Core                      61.97151 ( 99.9540% of  62)
   Valence                  155.50943 ( 99.6855% of 156)
   Natural Minimal Basis    217.48093 ( 99.7619% of 218)
   Natural Rydberg Basis      0.51907 (  0.2381% of 218)
 --------------------------------------------------------

    Atom  No          Natural Electron Configuration
 ----------------------------------------------------------------------------
      C    1      [core]2S( 1.09)2p( 3.58)3p( 0.01)
      C    2      [core]2S( 0.90)2p( 3.16)3p( 0.01)
      C    3      [core]2S( 0.87)2p( 3.16)3p( 0.01)
      C    4      [core]2S( 0.94)2p( 3.27)3p( 0.01)
      C    5      [core]2S( 0.96)2p( 3.34)3p( 0.01)
      C    6      [core]2S( 0.84)2p( 2.83)3p( 0.01)3d( 0.01)
      O    7      [core]2S( 1.57)2p( 4.95)3p( 0.01)3d( 0.01)
      C    8      [core]2S( 0.83)2p( 2.90)3p( 0.02)3d( 0.01)
      C    9      [core]2S( 0.97)2p( 3.28)3p( 0.01)
      C   10      [core]2S( 0.96)2p( 3.32)3p( 0.01)
      C   11      [core]2S( 0.85)2p( 2.98)3p( 0.01)
      N   12      [core]2S( 1.36)2p( 4.48)3p( 0.01)
      C   13      [core]2S( 0.96)2p( 3.32)3p( 0.01)
      C   14      [core]2S( 0.97)2p( 3.28)3p( 0.01)
      C   15      [core]2S( 0.96)2p( 3.31)3p( 0.01)
      C   16      [core]2S( 0.95)2p( 3.26)3p( 0.01)
      C   17      [core]2S( 0.87)2p( 3.16)3p( 0.01)
      C   18      [core]2S( 0.94)2p( 3.30)3p( 0.01)
      C   19      [core]2S( 0.95)2p( 3.36)3p( 0.01)
      C   20      [core]2S( 0.84)2p( 2.84)3p( 0.01)3d( 0.01)
      O   21      [core]2S( 1.57)2p( 4.93)3p( 0.01)3d( 0.01)
      C   22      [core]2S( 0.85)2p( 2.75)3p( 0.02)3d( 0.01)
      C   23      [core]2S( 0.96)2p( 3.36)3p( 0.02)
      C   24      [core]2S( 0.96)2p( 3.34)3p( 0.01)
      C   25      [core]2S( 0.86)2p( 2.94)3p( 0.01)3d( 0.01)
      N   26      [core]2S( 1.37)2p( 4.28)3p( 0.01)
      C   27      [core]2S( 0.95)2p( 3.34)3p( 0.02)
      C   28      [core]2S( 0.96)2p( 3.36)3p( 0.02)
      C   29      [core]2S( 0.96)2p( 3.36)3p( 0.01)
      C   30      [core]2S( 0.94)2p( 3.32)3p( 0.01)
      C   31      [core]2S( 1.09)2p( 3.58)3p( 0.01)
      H   32            1S( 0.76)
      H   33            1S( 0.76)
      H   34            1S( 0.75)
      H   35            1S( 0.75)
      H   36            1S( 0.74)
      H   37            1S( 0.74)
      H   38            1S( 0.75)
      H   39            1S( 0.58)
      H   40            1S( 0.58)
      H   41            1S( 0.75)
      H   42            1S( 0.74)
      H   43            1S( 0.75)
      H   44            1S( 0.75)
      H   45            1S( 0.76)
      H   46            1S( 0.75)
      H   47            1S( 0.74)
      H   48            1S( 0.75)
      H   49            1S( 0.56)
      H   50            1S( 0.56)
      H   51            1S( 0.75)
      H   52            1S( 0.74)
      H   53            1S( 0.75)
      H   54            1S( 0.76)
      H   55            1S( 0.76)
      H   56            1S( 0.76)
      H   57            1S( 0.76)


 NBO analysis skipped by request.
 1\1\GINC-DRG2-W002\SP\RB3LYP TD-FC\6-31G(d,p)\C27H26N2O2\QDUEZ\18-Jul-
 2024\0\\# TD(NStates=10, Root=1) B3LYP/6-31G** SCRF=(Solvent=water) vo
 lume pop=NPA density=current Geom=AllCheck Guess=Read\\KMKWGXGSGPYISJ-
 UHFFFAOYSA-N_conf_2\\0,1\C,0,0.0032175933,0.2385484086,3.4565183974\C,
 0,-0.0302601014,-1.0155689097,2.550512175\C,0,-1.1388449548,-0.9326360
 246,1.4812636404\C,0,-2.1090891744,0.0741389252,1.4546168555\C,0,-3.12
 81492402,0.0976086133,0.4945888488\C,0,-3.1901899052,-0.9093107979,-0.
 4673604551\O,0,-4.148682725,-0.9854103066,-1.4566235847\C,0,-5.1328113
 461,0.0006057748,-1.534434031\C,0,-4.9323565076,1.1194721077,-2.342405
 1016\C,0,-5.9454346901,2.0647777485,-2.4858430798\C,0,-7.1771607562,1.
 907293071,-1.8228064859\N,0,-8.2148356451,2.8203000867,-2.0171701588\C
 ,0,-7.3605886346,0.7700378188,-1.0137856619\C,0,-6.346981398,-0.174946
 6117,-0.8712889436\C,0,-2.2306064314,-1.9299228474,-0.465240942\C,0,-1
 .2260082932,-1.9321866216,0.4942030758\C,0,1.3454011691,-1.1352768153,
 1.8620654683\C,0,2.2864792038,-2.1220891153,2.1883502784\C,0,3.5395146
 721,-2.1679200407,1.5765590974\C,0,3.8841060729,-1.2158517968,0.615035
 5834\O,0,5.1387535783,-1.3433997858,0.0554645852\C,0,5.5901492682,-0.3
 801304646,-0.8471470066\C,0,5.4986974884,-0.6235255469,-2.216886436\C,
 0,6.0240128212,0.2944355808,-3.1239503377\C,0,6.6481221589,1.473550639
 7,-2.675676779\N,0,7.2325265498,2.3615109921,-3.5802483499\C,0,6.73027
 13521,1.7011184301,-1.2887102146\C,0,6.207500539,0.7815258823,-0.38267
 96258\C,0,2.9650744121,-0.2209427547,0.2666416603\C,0,1.717859335,-0.1
 948048839,0.8888236668\C,0,-0.338028086,-2.2314991891,3.4571607716\H,0
 ,0.1659278717,1.1550260142,2.8822297288\H,0,-0.9277662691,0.3475933176
 ,4.0223189274\H,0,0.8214418017,0.1458889118,4.1766264087\H,0,-2.090773
 8699,0.8715238625,2.1889424086\H,0,-3.8616234387,0.8952516123,0.502061
 1354\H,0,-3.9857125903,1.2445661032,-2.8586192951\H,0,-5.7857159925,2.
 9326940662,-3.1197147908\H,0,-7.9159691316,3.7512624925,-2.2786559099\
 H,0,-8.8933510745,2.8549843508,-1.2669924428\H,0,-8.3060226912,0.62706
 14872,-0.4977273756\H,0,-6.4953452433,-1.0516219719,-0.2486520454\H,0,
 -2.2853841705,-2.7064585287,-1.2217188803\H,0,-0.4843933488,-2.7256112
 754,0.4700632752\H,0,2.0550559046,-2.8771151289,2.9310253465\H,0,4.258
 0390121,-2.9387581234,1.8367800705\H,0,5.0202499621,-1.5325228146,-2.5
 676115109\H,0,5.9537934932,0.0977518394,-4.1902463567\H,0,7.3208668931
 ,3.3115152387,-3.242557479\H,0,6.8323865916,2.3430830907,-4.5097397197
 \H,0,7.2125593351,2.6032558256,-0.9223186176\H,0,6.2790246785,0.960719
 4088,0.685539725\H,0,3.2171807024,0.5203125539,-0.4826130293\H,0,1.011
 9501746,0.5778576953,0.597207852\H,0,-1.3338618177,-2.1164338146,3.894
 9830007\H,0,0.3801305235,-2.308399792,4.2799152589\H,0,-0.324345631,-3
 .1729279884,2.9006392736\\Version=ES64L-G16RevA.03\State=1-A\HF=-1304.
 5312198\RMSD=8.294e-09\Dipole=0.9383009,3.7016832,-1.886022\Quadrupole
 =16.7159024,-5.503698,-11.2122044,10.4322207,-34.2748331,-15.4588795\P
 G=C01 [X(C27H26N2O2)]\\@


 IF YOU PERCEIVE THAT THERE ARE FOUR POSSIBLE WAYS IN
 WHICH A PROCEDURE CAN GO WRONG AND CIRCUMVENT THESE, 
 THEN A FIFTH WAY WILL DEVELOP.

                              -- MURPHY'S TWELFTH LAW
 Job cpu time:       0 days  3 hours 31 minutes 10.2 seconds.
 Elapsed time:       0 days  1 hours 10 minutes 34.3 seconds.
 File lengths (MBytes):  RWF=   2742 Int=      0 D2E=      0 Chk=    168 Scr=      1
 Normal termination of Gaussian 16 at Thu Jul 18 11:36:33 2024.
