 Entering Gaussian System, Link 0=g16
 Initial command:
 /opt/sw/arch/manual/gaussian/G16_A03/g16/l1.exe "/scratch/1032093.jesse.materianova.be/Gau-19855.inp" -scrdir="/scratch/1032093.jesse.materianova.be/"
 Entering Link 1 = /opt/sw/arch/manual/gaussian/G16_A03/g16/l1.exe PID=     19856.
  
 Copyright (c) 1988,1990,1992,1993,1995,1998,2003,2009,2016,
            Gaussian, Inc.  All Rights Reserved.
  
 This is part of the Gaussian(R) 16 program.  It is based on
 the Gaussian(R) 09 system (copyright 2009, Gaussian, Inc.),
 the Gaussian(R) 03 system (copyright 2003, Gaussian, Inc.),
 the Gaussian(R) 98 system (copyright 1998, Gaussian, Inc.),
 the Gaussian(R) 94 system (copyright 1995, Gaussian, Inc.),
 the Gaussian 92(TM) system (copyright 1992, Gaussian, Inc.),
 the Gaussian 90(TM) system (copyright 1990, Gaussian, Inc.),
 the Gaussian 88(TM) system (copyright 1988, Gaussian, Inc.),
 the Gaussian 86(TM) system (copyright 1986, Carnegie Mellon
 University), and the Gaussian 82(TM) system (copyright 1983,
 Carnegie Mellon University). Gaussian is a federally registered
 trademark of Gaussian, Inc.
  
 This software contains proprietary and confidential information,
 including trade secrets, belonging to Gaussian, Inc.
  
 This software is provided under written license and may be
 used, copied, transmitted, or stored only in accord with that
 written license.
  
 The following legend is applicable only to US Government
 contracts under FAR:
  
                    RESTRICTED RIGHTS LEGEND
  
 Use, reproduction and disclosure by the US Government is
 subject to restrictions as set forth in subparagraphs (a)
 and (c) of the Commercial Computer Software - Restricted
 Rights clause in FAR 52.227-19.
  
 Gaussian, Inc.
 340 Quinnipiac St., Bldg. 40, Wallingford CT 06492
  
  
 ---------------------------------------------------------------
 Warning -- This program may not be used in any manner that
 competes with the business of Gaussian, Inc. or will provide
 assistance to any competitor of Gaussian, Inc.  The licensee
 of this program is prohibited from giving any competitor of
 Gaussian, Inc. access to this program.  By using this program,
 the user acknowledges that Gaussian, Inc. is engaged in the
 business of creating and licensing software in the field of
 computational chemistry and represents and warrants to the
 licensee that it is not a competitor of Gaussian, Inc. and that
 it will not use this program in any manner prohibited above.
 ---------------------------------------------------------------
  

 Cite this work as:
 Gaussian 16, Revision A.03,
 M. J. Frisch, G. W. Trucks, H. B. Schlegel, G. E. Scuseria, 
 M. A. Robb, J. R. Cheeseman, G. Scalmani, V. Barone, 
 G. A. Petersson, H. Nakatsuji, X. Li, M. Caricato, A. V. Marenich, 
 J. Bloino, B. G. Janesko, R. Gomperts, B. Mennucci, H. P. Hratchian, 
 J. V. Ortiz, A. F. Izmaylov, J. L. Sonnenberg, D. Williams-Young, 
 F. Ding, F. Lipparini, F. Egidi, J. Goings, B. Peng, A. Petrone, 
 T. Henderson, D. Ranasinghe, V. G. Zakrzewski, J. Gao, N. Rega, 
 G. Zheng, W. Liang, M. Hada, M. Ehara, K. Toyota, R. Fukuda, 
 J. Hasegawa, M. Ishida, T. Nakajima, Y. Honda, O. Kitao, H. Nakai, 
 T. Vreven, K. Throssell, J. A. Montgomery, Jr., J. E. Peralta, 
 F. Ogliaro, M. J. Bearpark, J. J. Heyd, E. N. Brothers, K. N. Kudin, 
 V. N. Staroverov, T. A. Keith, R. Kobayashi, J. Normand, 
 K. Raghavachari, A. P. Rendell, J. C. Burant, S. S. Iyengar, 
 J. Tomasi, M. Cossi, J. M. Millam, M. Klene, C. Adamo, R. Cammi, 
 J. W. Ochterski, R. L. Martin, K. Morokuma, O. Farkas, 
 J. B. Foresman, and D. J. Fox, Gaussian, Inc., Wallingford CT, 2016.
 
 ******************************************
 Gaussian 16:  EM64L-G16RevA.03 25-Dec-2016
                11-Jul-2024 
 ******************************************
 %nprocshared=4
 Will use up to    4 processors via shared memory.
 %mem=8GB
 %Chk=QOHMWDJIBGVPIF-UHFFFAOYSA-N_conf_2_0.chk
 -------------------------------------------------------
 # opt=CalcFc B3LYP/6-31G** SCRF=(Solvent=water) scf=xqc
 -------------------------------------------------------
 1/10=4,18=20,19=15,26=3,38=1/1,3;
 2/9=110,12=2,17=6,18=5,40=1/2;
 3/5=1,6=6,7=101,11=2,25=1,30=1,70=2201,71=2,72=1,74=-5,140=1/1,2,3;
 4//1;
 5/5=2,8=3,13=1,38=5,53=1/2,8;
 8/6=4,10=90,11=11/1;
 11/6=1,8=1,9=11,15=111,16=1/1,2,10;
 10/6=1,13=1/2;
 6/7=2,8=2,9=2,10=2,28=1/1;
 7/10=1,18=20,25=1/1,2,3,16;
 1/10=4,18=20,19=15,26=3/3(2);
 2/9=110/2;
 99//99;
 2/9=110/2;
 3/5=1,6=6,7=101,11=2,25=1,30=1,70=2205,71=1,72=1,74=-5/1,2,3;
 4/5=5,16=3,69=1/1;
 5/5=2,8=3,13=1,38=5,53=1/2,8;
 7//1,2,3,16;
 1/18=20,19=15,26=3/3(-5);
 2/9=110/2;
 6/7=2,8=2,9=2,10=2,19=2,28=1/1;
 99/9=1/99;
 ----------------------------------
 QOHMWDJIBGVPIF-UHFFFAOYSA-N_conf_2
 ----------------------------------
 Symbolic Z-matrix:
 Charge =  0 Multiplicity = 1
 N                     3.57612   0.91579  -0.34219 
 C                     2.96097  -0.36496  -0.67129 
 C                     1.51728  -0.4976   -0.17459 
 C                     0.5373    0.40136  -0.9372 
 N                    -0.85639   0.40305  -0.4747 
 C                    -1.03689   1.01474   0.84217 
 C                    -2.47619   1.45472   1.09133 
 C                    -1.59117  -0.84093  -0.72215 
 C                    -1.59383  -1.89465   0.38312 
 H                     3.08827   1.67685  -0.81155 
 H                     3.48826   1.09494   0.65751 
 H                     3.00571  -0.51959  -1.75491 
 H                     3.56471  -1.15651  -0.21356 
 H                     1.48132  -0.28897   0.90097 
 H                     1.22673  -1.54454  -0.31023 
 H                     0.89585   1.43774  -0.91708 
 H                     0.55514   0.12507  -1.99974 
 H                    -0.4175    1.91818   0.91108 
 H                    -0.7039    0.35098   1.64796 
 H                    -3.16575   0.60689   1.13637 
 H                    -2.81983   2.13623   0.3058 
 H                    -2.54311   1.9857    2.04671 
 H                    -2.6357   -0.57641  -0.92982 
 H                    -1.23547  -1.30509  -1.65086 
 H                    -0.58682  -2.20485   0.66813 
 H                    -2.10823  -1.54125   1.28154 
 H                    -2.12688  -2.78691   0.03717 
 

 GradGradGradGradGradGradGradGradGradGradGradGradGradGradGradGradGradGrad
 Berny optimization.
 Initialization pass.
                           ----------------------------
                           !    Initial Parameters    !
                           ! (Angstroms and Degrees)  !
 --------------------------                            --------------------------
 ! Name  Definition              Value          Derivative Info.                !
 --------------------------------------------------------------------------------
 ! R1    R(1,2)                  1.4584         calculate D2E/DX2 analytically  !
 ! R2    R(1,10)                 1.0186         calculate D2E/DX2 analytically  !
 ! R3    R(1,11)                 1.0194         calculate D2E/DX2 analytically  !
 ! R4    R(2,3)                  1.5325         calculate D2E/DX2 analytically  !
 ! R5    R(2,12)                 1.0955         calculate D2E/DX2 analytically  !
 ! R6    R(2,13)                 1.0957         calculate D2E/DX2 analytically  !
 ! R7    R(3,4)                  1.533          calculate D2E/DX2 analytically  !
 ! R8    R(3,14)                 1.0962         calculate D2E/DX2 analytically  !
 ! R9    R(3,15)                 1.0949         calculate D2E/DX2 analytically  !
 ! R10   R(4,5)                  1.4684         calculate D2E/DX2 analytically  !
 ! R11   R(4,16)                 1.0968         calculate D2E/DX2 analytically  !
 ! R12   R(4,17)                 1.098          calculate D2E/DX2 analytically  !
 ! R13   R(5,6)                  1.4632         calculate D2E/DX2 analytically  !
 ! R14   R(5,8)                  1.4658         calculate D2E/DX2 analytically  !
 ! R15   R(6,7)                  1.5255         calculate D2E/DX2 analytically  !
 ! R16   R(6,18)                 1.0976         calculate D2E/DX2 analytically  !
 ! R17   R(6,19)                 1.0958         calculate D2E/DX2 analytically  !
 ! R18   R(7,20)                 1.0938         calculate D2E/DX2 analytically  !
 ! R19   R(7,21)                 1.0953         calculate D2E/DX2 analytically  !
 ! R20   R(7,22)                 1.0951         calculate D2E/DX2 analytically  !
 ! R21   R(8,9)                  1.5271         calculate D2E/DX2 analytically  !
 ! R22   R(8,23)                 1.0973         calculate D2E/DX2 analytically  !
 ! R23   R(8,24)                 1.0975         calculate D2E/DX2 analytically  !
 ! R24   R(9,25)                 1.0916         calculate D2E/DX2 analytically  !
 ! R25   R(9,26)                 1.0939         calculate D2E/DX2 analytically  !
 ! R26   R(9,27)                 1.0954         calculate D2E/DX2 analytically  !
 ! A1    A(2,1,10)             110.4961         calculate D2E/DX2 analytically  !
 ! A2    A(2,1,11)             109.832          calculate D2E/DX2 analytically  !
 ! A3    A(10,1,11)            106.2181         calculate D2E/DX2 analytically  !
 ! A4    A(1,2,3)              113.5918         calculate D2E/DX2 analytically  !
 ! A5    A(1,2,12)             109.2646         calculate D2E/DX2 analytically  !
 ! A6    A(1,2,13)             107.9215         calculate D2E/DX2 analytically  !
 ! A7    A(3,2,12)             110.2949         calculate D2E/DX2 analytically  !
 ! A8    A(3,2,13)             108.7327         calculate D2E/DX2 analytically  !
 ! A9    A(12,2,13)            106.7831         calculate D2E/DX2 analytically  !
 ! A10   A(2,3,4)              112.9686         calculate D2E/DX2 analytically  !
 ! A11   A(2,3,14)             109.4174         calculate D2E/DX2 analytically  !
 ! A12   A(2,3,15)             107.0131         calculate D2E/DX2 analytically  !
 ! A13   A(4,3,14)             110.8251         calculate D2E/DX2 analytically  !
 ! A14   A(4,3,15)             109.2349         calculate D2E/DX2 analytically  !
 ! A15   A(14,3,15)            107.1465         calculate D2E/DX2 analytically  !
 ! A16   A(3,4,5)              116.7897         calculate D2E/DX2 analytically  !
 ! A17   A(3,4,16)             109.6328         calculate D2E/DX2 analytically  !
 ! A18   A(3,4,17)             108.8713         calculate D2E/DX2 analytically  !
 ! A19   A(5,4,16)             107.6618         calculate D2E/DX2 analytically  !
 ! A20   A(5,4,17)             108.6927         calculate D2E/DX2 analytically  !
 ! A21   A(16,4,17)            104.4893         calculate D2E/DX2 analytically  !
 ! A22   A(4,5,6)              113.6425         calculate D2E/DX2 analytically  !
 ! A23   A(4,5,8)              114.9368         calculate D2E/DX2 analytically  !
 ! A24   A(6,5,8)              116.4159         calculate D2E/DX2 analytically  !
 ! A25   A(5,6,7)              112.5789         calculate D2E/DX2 analytically  !
 ! A26   A(5,6,18)             109.3302         calculate D2E/DX2 analytically  !
 ! A27   A(5,6,19)             111.7838         calculate D2E/DX2 analytically  !
 ! A28   A(7,6,18)             106.5461         calculate D2E/DX2 analytically  !
 ! A29   A(7,6,19)             109.9564         calculate D2E/DX2 analytically  !
 ! A30   A(18,6,19)            106.3162         calculate D2E/DX2 analytically  !
 ! A31   A(6,7,20)             112.2086         calculate D2E/DX2 analytically  !
 ! A32   A(6,7,21)             110.998          calculate D2E/DX2 analytically  !
 ! A33   A(6,7,22)             109.8766         calculate D2E/DX2 analytically  !
 ! A34   A(20,7,21)            108.3036         calculate D2E/DX2 analytically  !
 ! A35   A(20,7,22)            107.5417         calculate D2E/DX2 analytically  !
 ! A36   A(21,7,22)            107.7479         calculate D2E/DX2 analytically  !
 ! A37   A(5,8,9)              117.664          calculate D2E/DX2 analytically  !
 ! A38   A(5,8,23)             107.7296         calculate D2E/DX2 analytically  !
 ! A39   A(5,8,24)             109.8353         calculate D2E/DX2 analytically  !
 ! A40   A(9,8,23)             107.5567         calculate D2E/DX2 analytically  !
 ! A41   A(9,8,24)             108.736          calculate D2E/DX2 analytically  !
 ! A42   A(23,8,24)            104.4962         calculate D2E/DX2 analytically  !
 ! A43   A(8,9,25)             112.5483         calculate D2E/DX2 analytically  !
 ! A44   A(8,9,26)             111.8596         calculate D2E/DX2 analytically  !
 ! A45   A(8,9,27)             109.5312         calculate D2E/DX2 analytically  !
 ! A46   A(25,9,26)            108.13           calculate D2E/DX2 analytically  !
 ! A47   A(25,9,27)            107.452          calculate D2E/DX2 analytically  !
 ! A48   A(26,9,27)            107.0791         calculate D2E/DX2 analytically  !
 ! D1    D(10,1,2,3)           -63.9248         calculate D2E/DX2 analytically  !
 ! D2    D(10,1,2,12)           59.6874         calculate D2E/DX2 analytically  !
 ! D3    D(10,1,2,13)          175.4413         calculate D2E/DX2 analytically  !
 ! D4    D(11,1,2,3)            52.9334         calculate D2E/DX2 analytically  !
 ! D5    D(11,1,2,12)          176.5456         calculate D2E/DX2 analytically  !
 ! D6    D(11,1,2,13)          -67.7006         calculate D2E/DX2 analytically  !
 ! D7    D(1,2,3,4)             69.9519         calculate D2E/DX2 analytically  !
 ! D8    D(1,2,3,14)           -54.0219         calculate D2E/DX2 analytically  !
 ! D9    D(1,2,3,15)          -169.7919         calculate D2E/DX2 analytically  !
 ! D10   D(12,2,3,4)           -53.0969         calculate D2E/DX2 analytically  !
 ! D11   D(12,2,3,14)         -177.0707         calculate D2E/DX2 analytically  !
 ! D12   D(12,2,3,15)           67.1593         calculate D2E/DX2 analytically  !
 ! D13   D(13,2,3,4)          -169.872          calculate D2E/DX2 analytically  !
 ! D14   D(13,2,3,14)           66.1542         calculate D2E/DX2 analytically  !
 ! D15   D(13,2,3,15)          -49.6158         calculate D2E/DX2 analytically  !
 ! D16   D(2,3,4,5)           -176.3258         calculate D2E/DX2 analytically  !
 ! D17   D(2,3,4,16)           -53.5759         calculate D2E/DX2 analytically  !
 ! D18   D(2,3,4,17)            60.1692         calculate D2E/DX2 analytically  !
 ! D19   D(14,3,4,5)           -53.1287         calculate D2E/DX2 analytically  !
 ! D20   D(14,3,4,16)           69.6212         calculate D2E/DX2 analytically  !
 ! D21   D(14,3,4,17)         -176.6337         calculate D2E/DX2 analytically  !
 ! D22   D(15,3,4,5)            64.6974         calculate D2E/DX2 analytically  !
 ! D23   D(15,3,4,16)         -172.5527         calculate D2E/DX2 analytically  !
 ! D24   D(15,3,4,17)          -58.8076         calculate D2E/DX2 analytically  !
 ! D25   D(3,4,5,6)             68.1414         calculate D2E/DX2 analytically  !
 ! D26   D(3,4,5,8)            -69.5155         calculate D2E/DX2 analytically  !
 ! D27   D(16,4,5,6)           -55.6227         calculate D2E/DX2 analytically  !
 ! D28   D(16,4,5,8)           166.7203         calculate D2E/DX2 analytically  !
 ! D29   D(17,4,5,6)          -168.262          calculate D2E/DX2 analytically  !
 ! D30   D(17,4,5,8)            54.0811         calculate D2E/DX2 analytically  !
 ! D31   D(4,5,6,7)            159.6876         calculate D2E/DX2 analytically  !
 ! D32   D(4,5,6,18)            41.4767         calculate D2E/DX2 analytically  !
 ! D33   D(4,5,6,19)           -75.9624         calculate D2E/DX2 analytically  !
 ! D34   D(8,5,6,7)            -63.311          calculate D2E/DX2 analytically  !
 ! D35   D(8,5,6,18)           178.4781         calculate D2E/DX2 analytically  !
 ! D36   D(8,5,6,19)            61.039          calculate D2E/DX2 analytically  !
 ! D37   D(4,5,8,9)             92.3601         calculate D2E/DX2 analytically  !
 ! D38   D(4,5,8,23)          -145.9608         calculate D2E/DX2 analytically  !
 ! D39   D(4,5,8,24)           -32.7137         calculate D2E/DX2 analytically  !
 ! D40   D(6,5,8,9)            -44.0913         calculate D2E/DX2 analytically  !
 ! D41   D(6,5,8,23)            77.5878         calculate D2E/DX2 analytically  !
 ! D42   D(6,5,8,24)          -169.1652         calculate D2E/DX2 analytically  !
 ! D43   D(5,6,7,20)            65.5118         calculate D2E/DX2 analytically  !
 ! D44   D(5,6,7,21)           -55.8236         calculate D2E/DX2 analytically  !
 ! D45   D(5,6,7,22)          -174.8991         calculate D2E/DX2 analytically  !
 ! D46   D(18,6,7,20)         -174.6525         calculate D2E/DX2 analytically  !
 ! D47   D(18,6,7,21)           64.012          calculate D2E/DX2 analytically  !
 ! D48   D(18,6,7,22)          -55.0634         calculate D2E/DX2 analytically  !
 ! D49   D(19,6,7,20)          -59.8387         calculate D2E/DX2 analytically  !
 ! D50   D(19,6,7,21)          178.8258         calculate D2E/DX2 analytically  !
 ! D51   D(19,6,7,22)           59.7504         calculate D2E/DX2 analytically  !
 ! D52   D(5,8,9,25)           -57.1767         calculate D2E/DX2 analytically  !
 ! D53   D(5,8,9,26)            64.8019         calculate D2E/DX2 analytically  !
 ! D54   D(5,8,9,27)          -176.6384         calculate D2E/DX2 analytically  !
 ! D55   D(23,8,9,25)         -178.9448         calculate D2E/DX2 analytically  !
 ! D56   D(23,8,9,26)          -56.9662         calculate D2E/DX2 analytically  !
 ! D57   D(23,8,9,27)           61.5935         calculate D2E/DX2 analytically  !
 ! D58   D(24,8,9,25)           68.4395         calculate D2E/DX2 analytically  !
 ! D59   D(24,8,9,26)         -169.5819         calculate D2E/DX2 analytically  !
 ! D60   D(24,8,9,27)          -51.0222         calculate D2E/DX2 analytically  !
 --------------------------------------------------------------------------------
 Trust Radius=3.00D-01 FncErr=1.00D-07 GrdErr=1.00D-06 EigMax=2.50D+02 EigMin=1.00D-04
 Number of steps in this run=    144 maximum allowed number of steps=    162.
 GradGradGradGradGradGradGradGradGradGradGradGradGradGradGradGradGradGrad

                          Input orientation:                          
 ---------------------------------------------------------------------
 Center     Atomic      Atomic             Coordinates (Angstroms)
 Number     Number       Type             X           Y           Z
 ---------------------------------------------------------------------
      1          7           0        3.576123    0.915790   -0.342190
      2          6           0        2.960966   -0.364959   -0.671292
      3          6           0        1.517283   -0.497598   -0.174590
      4          6           0        0.537301    0.401363   -0.937199
      5          7           0       -0.856394    0.403048   -0.474702
      6          6           0       -1.036895    1.014739    0.842171
      7          6           0       -2.476188    1.454717    1.091329
      8          6           0       -1.591170   -0.840930   -0.722152
      9          6           0       -1.593830   -1.894650    0.383117
     10          1           0        3.088271    1.676845   -0.811546
     11          1           0        3.488262    1.094940    0.657506
     12          1           0        3.005705   -0.519588   -1.754908
     13          1           0        3.564711   -1.156507   -0.213556
     14          1           0        1.481316   -0.288966    0.900969
     15          1           0        1.226727   -1.544541   -0.310228
     16          1           0        0.895851    1.437737   -0.917081
     17          1           0        0.555142    0.125068   -1.999737
     18          1           0       -0.417497    1.918185    0.911084
     19          1           0       -0.703899    0.350985    1.647964
     20          1           0       -3.165753    0.606895    1.136373
     21          1           0       -2.819827    2.136232    0.305796
     22          1           0       -2.543108    1.985703    2.046706
     23          1           0       -2.635700   -0.576411   -0.929816
     24          1           0       -1.235474   -1.305092   -1.650862
     25          1           0       -0.586816   -2.204850    0.668126
     26          1           0       -2.108228   -1.541248    1.281544
     27          1           0       -2.126880   -2.786907    0.037173
 ---------------------------------------------------------------------
                    Distance matrix (angstroms):
                    1          2          3          4          5
     1  N    0.000000
     2  C    1.458438   0.000000
     3  C    2.502913   1.532490   0.000000
     4  C    3.138966   2.555798   1.532993   0.000000
     5  N    4.464042   3.898810   2.556477   1.468432   0.000000
     6  C    4.763657   4.491884   3.137641   2.453667   1.463181
     7  C    6.243067   5.998391   4.621893   3.782274   2.486402
     8  C    5.470955   4.577234   3.174929   2.473848   1.465813
     9  C    5.929000   4.919136   3.455693   3.399504   2.561070
    10  H    1.018578   2.050571   2.757158   2.854836   4.158895
    11  H    1.019415   2.043294   2.667081   3.425245   4.542758
    12  H    2.093193   1.095507   2.171011   2.758590   4.172049
    13  H    2.076316   1.095709   2.151195   3.480780   4.695379
    14  H    2.717553   2.160357   1.096197   2.178665   2.799330
    15  H    3.402045   2.128231   1.094948   2.157532   2.856493
    16  H    2.790481   2.752239   2.164022   1.096829   2.082461
    17  H    3.535397   2.791573   2.155131   1.098019   2.096531
    18  H    4.304008   4.373862   3.279949   2.574594   2.099684
    19  H    4.753767   4.395766   2.995905   2.868132   2.128773
    20  H    6.909012   6.461334   4.986918   4.249065   2.823164
    21  H    6.543511   6.374027   5.096896   3.978079   2.732795
    22  H    6.655563   6.573276   5.252401   4.571952   3.421593
    23  H    6.415505   5.606623   4.221830   3.320246   2.081441
    24  H    5.458608   4.410614   3.226313   2.562037   2.108268
    25  H    5.299923   4.214973   2.837624   3.260836   2.860045
    26  H    6.401983   5.558232   4.043990   3.961739   2.903751
    27  H    6.810148   5.679254   4.308793   4.267590   3.471593
                    6          7          8          9         10
     6  C    0.000000
     7  C    1.525525   0.000000
     8  C    2.489545   3.056464   0.000000
     9  C    2.997574   3.535305   1.527073   0.000000
    10  H    4.493345   5.885021   5.314541   6.008732   0.000000
    11  H    4.529633   5.991019   5.608179   5.902592   1.629945
    12  H    5.043966   6.484605   4.722404   5.255251   2.391875
    13  H    5.196503   6.709223   5.190507   5.245133   2.934701
    14  H    2.836282   4.328800   3.518431   3.507551   3.062584
    15  H    3.605818   4.967041   2.933478   2.925550   3.754197
    16  H    2.647527   3.924875   3.378697   4.358191   2.207943
    17  H    3.376765   4.528976   2.678065   3.791482   3.199461
    18  H    1.097550   2.117900   3.414335   4.024949   3.913579
    19  H    1.095791   2.160805   2.797384   2.726662   4.710376
    20  H    2.187448   1.093770   2.833659   3.048945   6.637168
    21  H    2.173543   1.095268   3.380794   4.213912   6.030349
    22  H    2.159249   1.095066   4.069720   4.327331   6.322770
    23  H    2.868427   2.869835   1.097333   2.132380   6.152641
    24  H    3.411196   4.083568   1.097482   2.147806   5.318944
    25  H    3.255552   4.140201   2.191318   1.091572   5.546462
    26  H    2.806042   3.024464   2.184626   1.093924   6.460707
    27  H    4.035914   4.384591   2.156475   1.095419   6.916878
                   11         12         13         14         15
    11  H    0.000000
    12  H    2.942669   0.000000
    13  H    2.415286   1.758954   0.000000
    14  H    2.449960   3.070933   2.517007   0.000000
    15  H    3.608034   2.510457   2.371937   1.763032   0.000000
    16  H    3.052446   2.997425   3.787857   2.574797   3.061329
    17  H    4.074897   2.545738   3.726980   3.072999   2.468413
    18  H    3.999623   4.976802   5.155242   2.911548   4.023127
    19  H    4.371349   5.108678   4.894775   2.396394   3.339888
    20  H    6.689052   6.907631   7.087386   4.738485   5.100511
    21  H    6.403122   6.725824   7.202373   4.973495   5.504742
    22  H    6.253060   7.177609   7.231025   4.762649   5.677096
    23  H    6.543387   5.701707   6.268544   4.514889   4.029828
    24  H    5.779481   4.314562   5.012954   3.863328   2.813729
    25  H    5.243566   4.649452   4.371677   2.828780   2.163821
    26  H    6.217685   6.034578   5.879250   3.820716   3.695358
    27  H    6.854441   5.890307   5.925814   4.472687   3.593166
                   16         17         18         19         20
    16  H    0.000000
    17  H    1.735318   0.000000
    18  H    2.301717   3.554459   0.000000
    19  H    3.212427   3.865481   1.755316   0.000000
    20  H    4.626403   4.890031   3.053383   2.527438   0.000000
    21  H    3.973611   4.555292   2.486988   3.076634   1.774372
    22  H    4.572826   5.425387   2.410896   2.492788   1.765647
    23  H    4.065564   3.437772   3.812131   3.352143   2.439324
    24  H    3.550224   2.318054   4.197876   3.729264   3.892345
    25  H    4.240238   3.721569   4.133656   2.739723   3.843967
    26  H    4.767891   4.542791   3.868266   2.384732   2.398739
    27  H    5.281583   4.452173   5.081692   3.803404   3.715560
                   21         22         23         24         25
    21  H    0.000000
    22  H    1.769181   0.000000
    23  H    2.986481   3.928446   0.000000
    24  H    4.263964   5.119692   1.735372   0.000000
    25  H    4.895162   4.825795   3.066457   2.570608   0.000000
    26  H    3.870699   3.635103   2.469666   3.068627   1.769560
    27  H    4.978918   5.195120   2.465818   2.416576   1.763147
                   26         27
    26  H    0.000000
    27  H    1.760816   0.000000
 Stoichiometry    C7H18N2
 Framework group  C1[X(C7H18N2)]
 Deg. of freedom    75
 Full point group                 C1      NOp   1
 Largest Abelian subgroup         C1      NOp   1
 Largest concise Abelian subgroup C1      NOp   1
                         Standard orientation:                         
 ---------------------------------------------------------------------
 Center     Atomic      Atomic             Coordinates (Angstroms)
 Number     Number       Type             X           Y           Z
 ---------------------------------------------------------------------
      1          7           0        3.478569   -0.842881   -0.174696
      2          6           0        2.901253    0.495098   -0.115029
      3          6           0        1.385751    0.519820   -0.341238
      4          6           0        0.597319   -0.094578    0.821068
      5          7           0       -0.858667   -0.190045    0.655883
      6          6           0       -1.271262   -1.148794   -0.369527
      7          6           0       -2.718197   -1.601392   -0.199944
      8          6           0       -1.567954    1.092625    0.672514
      9          6           0       -1.813801    1.784271   -0.666567
     10          1           0        3.112443   -1.423187    0.578097
     11          1           0        3.205287   -1.298997   -1.044456
     12          1           0        3.149093    0.953036    0.848819
     13          1           0        3.382406    1.104698   -0.887983
     14          1           0        1.149636    0.012244   -1.283716
     15          1           0        1.096413    1.569316   -0.458505
     16          1           0        0.975267   -1.102685    1.030610
     17          1           0        0.811184    0.474553    1.735396
     18          1           0       -0.650699   -2.050923   -0.294146
     19          1           0       -1.118924   -0.753925   -1.380285
     20          1           0       -3.427891   -0.783280   -0.352786
     21          1           0       -2.884355   -2.018785    0.798948
     22          1           0       -2.952188   -2.382246   -0.931167
     23          1           0       -2.544893    0.928161    1.144406
     24          1           0       -1.053893    1.793770    1.342293
     25          1           0       -0.889869    1.971314   -1.216925
     26          1           0       -2.480926    1.202305   -1.309163
     27          1           0       -2.296050    2.752817   -0.495401
 ---------------------------------------------------------------------
 Rotational constants (GHZ):           2.4511327           0.8026372           0.6833022
 Standard basis: 6-31G(d,p) (6D, 7F)
 There are   225 symmetry adapted cartesian basis functions of A   symmetry.
 There are   225 symmetry adapted basis functions of A   symmetry.
   225 basis functions,   378 primitive gaussians,   225 cartesian basis functions
    37 alpha electrons       37 beta electrons
       nuclear repulsion energy       497.2741200277 Hartrees.
 NAtoms=   27 NActive=   27 NUniq=   27 SFac= 1.00D+00 NAtFMM=   60 NAOKFM=F Big=F
 Integral buffers will be    131072 words long.
 Raffenetti 2 integral format.
 Two-electron integral symmetry is turned on.
 Force inversion solution in PCM.
 ------------------------------------------------------------------------------
 Polarizable Continuum Model (PCM)
 =================================
 Model                : PCM.
 Atomic radii         : UFF (Universal Force Field).
 Polarization charges : Total charges.
 Charge compensation  : None.
 Solution method      : Matrix inversion.
 Cavity type          : Scaled VdW (van der Waals Surface) (Alpha=1.100).
 Cavity algorithm     : GePol (No added spheres)
                        Default sphere list used, NSphG=   27.
                        Lebedev-Laikov grids with approx.  5.0 points / Ang**2.
                        Smoothing algorithm: York/Karplus (Gamma=1.0000).
                        Polarization charges: spherical gaussians, with
                                              point-specific exponents (IZeta= 3).
                        Self-potential: point-specific (ISelfS= 7).
                        Self-field    : sphere-specific E.n sum rule (ISelfD= 2).
 1st derivatives      : Analytical E(r).r(x)/FMM algorithm (CHGder, D1EAlg=3).
                        Cavity 1st derivative terms included.
 2nd derivatives      : Analytical E(r).r(xy)/FMM algorithm (CHGder, D2EAlg=3).
                        Cavity 2nd derivative terms included.
 Solvent              : Water, Eps=  78.355300 Eps(inf)=   1.777849
 ------------------------------------------------------------------------------
 One-electron integrals computed using PRISM.
 NBasis=   225 RedAO= T EigKep=  3.57D-03  NBF=   225
 NBsUse=   225 1.00D-06 EigRej= -1.00D+00 NBFU=   225
 ExpMin= 1.61D-01 ExpMax= 4.17D+03 ExpMxC= 6.27D+02 IAcc=3 IRadAn=         5 AccDes= 0.00D+00
 Harris functional with IExCor=  402 and IRadAn=       5 diagonalized for initial guess.
 HarFok:  IExCor=  402 AccDes= 0.00D+00 IRadAn=         5 IDoV= 1 UseB2=F ITyADJ=14
 ICtDFT=  3500011 ScaDFX=  1.000000  1.000000  1.000000  1.000000
 FoFCou: FMM=F IPFlag=           0 FMFlag=      100000 FMFlg1=           0
         NFxFlg=           0 DoJE=T BraDBF=F KetDBF=T FulRan=T
         wScrn=  0.000000 ICntrl=       500 IOpCl=  0 I1Cent=   200000004 NGrid=           0
         NMat0=    1 NMatS0=      1 NMatT0=    0 NMatD0=    1 NMtDS0=    0 NMtDT0=    0
 Petite list used in FoFCou.
 Keep R1 ints in memory in canonical form, NReq=329001147.
 Requested convergence on RMS density matrix=1.00D-08 within  32 cycles.
 Requested convergence on MAX density matrix=1.00D-06.
 Requested convergence on             energy=1.00D-06.
 No special actions if energy rises.
 Inv3:  Mode=1 IEnd=     9558675.
 Iteration    1 A*A^-1 deviation from unit magnitude is 7.11D-15 for    779.
 Iteration    1 A*A^-1 deviation from orthogonality  is 3.03D-15 for   1537    909.
 Iteration    1 A^-1*A deviation from unit magnitude is 6.22D-15 for    147.
 Iteration    1 A^-1*A deviation from orthogonality  is 3.13D-15 for   1476   1085.
 Error on total polarization charges =  0.01006
 SCF Done:  E(RB3LYP) =  -387.096604662     A.U. after   11 cycles
            NFock= 11  Conv=0.34D-08     -V/T= 2.0097
 QCSCF skips out because SCF is already converged.
 DoSCS=F DFT=T ScalE2(SS,OS)=  1.000000  1.000000
 Range of M.O.s used for correlation:     1   225
 NBasis=   225 NAE=    37 NBE=    37 NFC=     0 NFV=     0
 NROrb=    225 NOA=    37 NOB=    37 NVA=   188 NVB=   188
 Symmetrizing basis deriv contribution to polar:
 IMax=3 JMax=2 DiffMx= 0.00D+00
 G2DrvN: will do    28 centers at a time, making    1 passes.
 Calling FoFCou, ICntrl=  3107 FMM=F I1Cent=   0 AccDes= 0.00D+00.
 NEqPCM:  Using equilibrium solvation (IEInf=0, Eps=  78.3553, EpsInf=   1.7778)
 G2PCM: DoFxE=T DoFxN=T DoGrad=T DoDP/DQ/DG/TGxP=FFFF NFrqRd=   0 IEInf=0 SqF1=F DoCFld=F IF1Alg=4.
 End of G2Drv F.D. properties file   721 does not exist.
 End of G2Drv F.D. properties file   722 does not exist.
 End of G2Drv F.D. properties file   788 does not exist.
          IDoAtm=111111111111111111111111111
 NEqPCM:  Using equilibrium solvation (IEInf=0, Eps=  78.3553, EpsInf=   1.7778)
          Differentiating once with respect to nuclear coordinates.
 Keep R1 ints in memory in canonical form, NReq=331790292.
          There are    84 degrees of freedom in the 1st order CPHF.  IDoFFX=6 NUNeed=     0.
     78 vectors produced by pass  0 Test12= 8.28D-15 1.19D-09 XBig12= 8.76D-02 7.52D-02.
 AX will form    78 AO Fock derivatives at one time.
     78 vectors produced by pass  1 Test12= 8.28D-15 1.19D-09 XBig12= 8.06D-03 2.42D-02.
     78 vectors produced by pass  2 Test12= 8.28D-15 1.19D-09 XBig12= 1.68D-04 1.93D-03.
     78 vectors produced by pass  3 Test12= 8.28D-15 1.19D-09 XBig12= 5.70D-07 6.25D-05.
     78 vectors produced by pass  4 Test12= 8.28D-15 1.19D-09 XBig12= 5.19D-10 2.26D-06.
     31 vectors produced by pass  5 Test12= 8.28D-15 1.19D-09 XBig12= 3.23D-13 5.64D-08.
      1 vectors produced by pass  6 Test12= 8.28D-15 1.19D-09 XBig12= 2.06D-16 1.41D-09.
 InvSVY:  IOpt=1 It=  1 EMax= 7.22D-16
 Solved reduced A of dimension   422 with    84 vectors.
 End of Minotr F.D. properties file   721 does not exist.
 End of Minotr F.D. properties file   722 does not exist.
 End of Minotr F.D. properties file   788 does not exist.

 **********************************************************************

            Population analysis using the SCF density.

 **********************************************************************

 Orbital symmetries:
       Occupied  (A) (A) (A) (A) (A) (A) (A) (A) (A) (A) (A) (A)
                 (A) (A) (A) (A) (A) (A) (A) (A) (A) (A) (A) (A)
                 (A) (A) (A) (A) (A) (A) (A) (A) (A) (A) (A) (A)
                 (A)
       Virtual   (A) (A) (A) (A) (A) (A) (A) (A) (A) (A) (A) (A)
                 (A) (A) (A) (A) (A) (A) (A) (A) (A) (A) (A) (A)
                 (A) (A) (A) (A) (A) (A) (A) (A) (A) (A) (A) (A)
                 (A) (A) (A) (A) (A) (A) (A) (A) (A) (A) (A) (A)
                 (A) (A) (A) (A) (A) (A) (A) (A) (A) (A) (A) (A)
                 (A) (A) (A) (A) (A) (A) (A) (A) (A) (A) (A) (A)
                 (A) (A) (A) (A) (A) (A) (A) (A) (A) (A) (A) (A)
                 (A) (A) (A) (A) (A) (A) (A) (A) (A) (A) (A) (A)
                 (A) (A) (A) (A) (A) (A) (A) (A) (A) (A) (A) (A)
                 (A) (A) (A) (A) (A) (A) (A) (A) (A) (A) (A) (A)
                 (A) (A) (A) (A) (A) (A) (A) (A) (A) (A) (A) (A)
                 (A) (A) (A) (A) (A) (A) (A) (A) (A) (A) (A) (A)
                 (A) (A) (A) (A) (A) (A) (A) (A) (A) (A) (A) (A)
                 (A) (A) (A) (A) (A) (A) (A) (A) (A) (A) (A) (A)
                 (A) (A) (A) (A) (A) (A) (A) (A) (A) (A) (A) (A)
                 (A) (A) (A) (A) (A) (A) (A) (A)
 The electronic state is 1-A.
 Alpha  occ. eigenvalues --  -14.31200 -14.30709 -10.20065 -10.20046 -10.20013
 Alpha  occ. eigenvalues --  -10.19885 -10.16956 -10.16810 -10.16697  -0.90744
 Alpha  occ. eigenvalues --   -0.87544  -0.75837  -0.75012  -0.71478  -0.64795
 Alpha  occ. eigenvalues --   -0.62851  -0.58717  -0.54994  -0.49261  -0.48029
 Alpha  occ. eigenvalues --   -0.46588  -0.44952  -0.42236  -0.41624  -0.40624
 Alpha  occ. eigenvalues --   -0.40123  -0.39288  -0.36900  -0.36726  -0.36175
 Alpha  occ. eigenvalues --   -0.35159  -0.33500  -0.33346  -0.32357  -0.31847
 Alpha  occ. eigenvalues --   -0.23265  -0.19307
 Alpha virt. eigenvalues --    0.07864   0.09333   0.10996   0.11303   0.12474
 Alpha virt. eigenvalues --    0.14105   0.14731   0.15355   0.16241   0.16741
 Alpha virt. eigenvalues --    0.17278   0.18229   0.18399   0.18829   0.20559
 Alpha virt. eigenvalues --    0.21316   0.22209   0.22964   0.23471   0.24279
 Alpha virt. eigenvalues --    0.25912   0.26950   0.27980   0.28471   0.31314
 Alpha virt. eigenvalues --    0.31707   0.50126   0.50975   0.52330   0.52434
 Alpha virt. eigenvalues --    0.53386   0.55952   0.56397   0.58010   0.59145
 Alpha virt. eigenvalues --    0.60780   0.62273   0.62996   0.66352   0.67372
 Alpha virt. eigenvalues --    0.67565   0.69551   0.71603   0.73058   0.75282
 Alpha virt. eigenvalues --    0.79157   0.79997   0.80948   0.82018   0.83504
 Alpha virt. eigenvalues --    0.85179   0.85801   0.86743   0.87690   0.88667
 Alpha virt. eigenvalues --    0.88861   0.89914   0.91396   0.91710   0.92404
 Alpha virt. eigenvalues --    0.93818   0.95327   0.96478   0.96900   0.98169
 Alpha virt. eigenvalues --    0.99580   1.00297   1.02366   1.03476   1.05689
 Alpha virt. eigenvalues --    1.09578   1.14814   1.17937   1.20357   1.30000
 Alpha virt. eigenvalues --    1.31555   1.32679   1.36712   1.41315   1.45759
 Alpha virt. eigenvalues --    1.46228   1.50691   1.53748   1.55364   1.57708
 Alpha virt. eigenvalues --    1.59355   1.62580   1.68392   1.72072   1.73266
 Alpha virt. eigenvalues --    1.75481   1.80528   1.82122   1.83271   1.86183
 Alpha virt. eigenvalues --    1.87094   1.90076   1.90873   1.93793   1.95004
 Alpha virt. eigenvalues --    1.97633   1.98730   1.99339   2.00824   2.05070
 Alpha virt. eigenvalues --    2.05585   2.07167   2.08451   2.09483   2.10297
 Alpha virt. eigenvalues --    2.12024   2.12915   2.13299   2.14828   2.16545
 Alpha virt. eigenvalues --    2.19105   2.21684   2.22732   2.24132   2.26820
 Alpha virt. eigenvalues --    2.27091   2.27426   2.28335   2.29921   2.30477
 Alpha virt. eigenvalues --    2.31343   2.35655   2.38464   2.41019   2.42639
 Alpha virt. eigenvalues --    2.45328   2.46182   2.47586   2.48774   2.52306
 Alpha virt. eigenvalues --    2.54885   2.59417   2.61444   2.65524   2.67867
 Alpha virt. eigenvalues --    2.68335   2.70383   2.71373   2.73677   2.74908
 Alpha virt. eigenvalues --    2.77729   2.79000   2.80220   2.82489   2.83984
 Alpha virt. eigenvalues --    2.86268   2.88492   2.88743   2.90895   2.91277
 Alpha virt. eigenvalues --    2.93024   2.95416   2.95866   2.99127   3.01137
 Alpha virt. eigenvalues --    3.02104   3.19439   3.22680   3.25623   3.29419
 Alpha virt. eigenvalues --    3.29958   3.32507   3.33578   3.36235   3.38843
 Alpha virt. eigenvalues --    3.41989   3.42709   3.46080   3.47561   3.49973
 Alpha virt. eigenvalues --    3.54226   3.56837   3.58589   3.60559   3.97131
 Alpha virt. eigenvalues --    4.09903   4.37351   4.40896   4.41678   4.57473
 Alpha virt. eigenvalues --    4.60201   4.68391   4.73298
          Condensed to atoms (all electrons):
               1          2          3          4          5          6
     1  N    6.759468   0.326795  -0.072311  -0.007577   0.000095  -0.000045
     2  C    0.326795   4.808131   0.344572  -0.029418   0.003786   0.000134
     3  C   -0.072311   0.344572   5.111634   0.345143  -0.060707  -0.007579
     4  C   -0.007577  -0.029418   0.345143   4.807309   0.342423  -0.046176
     5  N    0.000095   0.003786  -0.060707   0.342423   6.873280   0.322020
     6  C   -0.000045   0.000134  -0.007579  -0.046176   0.322020   4.766296
     7  C   -0.000000   0.000001   0.000008   0.004055  -0.062205   0.374014
     8  C   -0.000000  -0.000091  -0.002491  -0.047253   0.331348  -0.049983
     9  C   -0.000001   0.000013   0.000895  -0.000333  -0.060053  -0.006958
    10  H    0.351160  -0.044407  -0.002993   0.001910  -0.000094   0.000009
    11  H    0.347502  -0.044948  -0.003805  -0.000721   0.000001  -0.000007
    12  H   -0.037554   0.387768  -0.047710  -0.006947   0.000065   0.000011
    13  H   -0.041339   0.383618  -0.041875   0.003825  -0.000129  -0.000001
    14  H   -0.004747  -0.035731   0.383537  -0.040726  -0.003361   0.003819
    15  H    0.006014  -0.028393   0.353186  -0.034150  -0.002216  -0.000351
    16  H    0.008571  -0.004366  -0.060826   0.376720  -0.039565  -0.006180
    17  H   -0.000111  -0.001247  -0.055203   0.383469  -0.038369   0.005783
    18  H    0.000017  -0.000009  -0.002275  -0.004951  -0.040249   0.390708
    19  H    0.000008  -0.000255   0.005412  -0.001895  -0.052924   0.367885
    20  H   -0.000000  -0.000000  -0.000024   0.000032  -0.004797  -0.032047
    21  H    0.000000  -0.000000   0.000028   0.000173   0.005418  -0.032699
    22  H    0.000000  -0.000000   0.000012  -0.000126   0.004175  -0.027328
    23  H    0.000000   0.000006  -0.000264   0.004043  -0.051362  -0.002168
    24  H    0.000001  -0.000052  -0.001203  -0.006178  -0.034555   0.005498
    25  H    0.000002   0.000099   0.000278   0.000599  -0.000394  -0.000658
    26  H    0.000000  -0.000004   0.000070   0.000033  -0.004463   0.002309
    27  H    0.000000   0.000000  -0.000075  -0.000066   0.004150   0.000258
               7          8          9         10         11         12
     1  N   -0.000000  -0.000000  -0.000001   0.351160   0.347502  -0.037554
     2  C    0.000001  -0.000091   0.000013  -0.044407  -0.044948   0.387768
     3  C    0.000008  -0.002491   0.000895  -0.002993  -0.003805  -0.047710
     4  C    0.004055  -0.047253  -0.000333   0.001910  -0.000721  -0.006947
     5  N   -0.062205   0.331348  -0.060053  -0.000094   0.000001   0.000065
     6  C    0.374014  -0.049983  -0.006958   0.000009  -0.000007   0.000011
     7  C    4.970950  -0.000471  -0.004419  -0.000000   0.000000   0.000000
     8  C   -0.000471   4.772201   0.346348   0.000002   0.000000  -0.000009
     9  C   -0.004419   0.346348   5.023975  -0.000000  -0.000000  -0.000007
    10  H   -0.000000   0.000002  -0.000000   0.472008  -0.034788  -0.006141
    11  H    0.000000   0.000000  -0.000000  -0.034788   0.478573   0.006519
    12  H    0.000000  -0.000009  -0.000007  -0.006141   0.006519   0.626986
    13  H   -0.000000  -0.000000   0.000008   0.006409  -0.004663  -0.037094
    14  H   -0.000092  -0.000566   0.000000  -0.000165   0.006049   0.005610
    15  H   -0.000015   0.003775  -0.003872  -0.000007   0.000082  -0.000850
    16  H    0.000260   0.005270  -0.000348   0.005353   0.000767   0.000317
    17  H   -0.000196  -0.007227  -0.000732   0.000079   0.000057   0.005908
    18  H   -0.034562   0.005735  -0.000247   0.000024   0.000048   0.000003
    19  H   -0.053435  -0.010081   0.010746  -0.000001  -0.000010  -0.000005
    20  H    0.386960   0.003407  -0.001008  -0.000000   0.000000   0.000000
    21  H    0.373941  -0.001076   0.000411  -0.000000  -0.000000  -0.000000
    22  H    0.371499  -0.000111   0.000128   0.000000  -0.000000  -0.000000
    23  H    0.004121   0.393588  -0.061273  -0.000000  -0.000000   0.000000
    24  H   -0.000086   0.389997  -0.044927   0.000001  -0.000000   0.000005
    25  H    0.000240  -0.033712   0.381526  -0.000000   0.000000   0.000010
    26  H   -0.000328  -0.033411   0.387192   0.000000   0.000000  -0.000000
    27  H    0.000041  -0.023220   0.364441   0.000000   0.000000   0.000000
              13         14         15         16         17         18
     1  N   -0.041339  -0.004747   0.006014   0.008571  -0.000111   0.000017
     2  C    0.383618  -0.035731  -0.028393  -0.004366  -0.001247  -0.000009
     3  C   -0.041875   0.383537   0.353186  -0.060826  -0.055203  -0.002275
     4  C    0.003825  -0.040726  -0.034150   0.376720   0.383469  -0.004951
     5  N   -0.000129  -0.003361  -0.002216  -0.039565  -0.038369  -0.040249
     6  C   -0.000001   0.003819  -0.000351  -0.006180   0.005783   0.390708
     7  C   -0.000000  -0.000092  -0.000015   0.000260  -0.000196  -0.034562
     8  C   -0.000000  -0.000566   0.003775   0.005270  -0.007227   0.005735
     9  C    0.000008   0.000000  -0.003872  -0.000348  -0.000732  -0.000247
    10  H    0.006409  -0.000165  -0.000007   0.005353   0.000079   0.000024
    11  H   -0.004663   0.006049   0.000082   0.000767   0.000057   0.000048
    12  H   -0.037094   0.005610  -0.000850   0.000317   0.005908   0.000003
    13  H    0.636948  -0.003021  -0.001981   0.000079  -0.000128  -0.000001
    14  H   -0.003021   0.626673  -0.037044  -0.004450   0.005857   0.000638
    15  H   -0.001981  -0.037044   0.646950   0.006948  -0.007041   0.000063
    16  H    0.000079  -0.004450   0.006948   0.657048  -0.035928   0.007002
    17  H   -0.000128   0.005857  -0.007041  -0.035928   0.645786   0.000368
    18  H   -0.000001   0.000638   0.000063   0.007002   0.000368   0.633446
    19  H    0.000014   0.000842   0.000132  -0.001043  -0.000445  -0.049244
    20  H   -0.000000   0.000008  -0.000000   0.000003   0.000011   0.005568
    21  H    0.000000  -0.000001   0.000000  -0.000052  -0.000037  -0.006348
    22  H    0.000000   0.000007  -0.000000  -0.000026   0.000003  -0.004613
    23  H   -0.000000  -0.000012  -0.000047  -0.000224   0.000522   0.000008
    24  H    0.000002   0.000057   0.000759   0.000323   0.005568  -0.000171
    25  H   -0.000016   0.000711   0.003260  -0.000034   0.000166  -0.000001
    26  H    0.000000  -0.000082   0.000064   0.000012  -0.000006  -0.000001
    27  H   -0.000000   0.000008   0.000248   0.000007   0.000017  -0.000000
              19         20         21         22         23         24
     1  N    0.000008  -0.000000   0.000000   0.000000   0.000000   0.000001
     2  C   -0.000255  -0.000000  -0.000000  -0.000000   0.000006  -0.000052
     3  C    0.005412  -0.000024   0.000028   0.000012  -0.000264  -0.001203
     4  C   -0.001895   0.000032   0.000173  -0.000126   0.004043  -0.006178
     5  N   -0.052924  -0.004797   0.005418   0.004175  -0.051362  -0.034555
     6  C    0.367885  -0.032047  -0.032699  -0.027328  -0.002168   0.005498
     7  C   -0.053435   0.386960   0.373941   0.371499   0.004121  -0.000086
     8  C   -0.010081   0.003407  -0.001076  -0.000111   0.393588   0.389997
     9  C    0.010746  -0.001008   0.000411   0.000128  -0.061273  -0.044927
    10  H   -0.000001  -0.000000  -0.000000   0.000000  -0.000000   0.000001
    11  H   -0.000010   0.000000  -0.000000  -0.000000  -0.000000  -0.000000
    12  H   -0.000005   0.000000  -0.000000  -0.000000   0.000000   0.000005
    13  H    0.000014  -0.000000   0.000000   0.000000  -0.000000   0.000002
    14  H    0.000842   0.000008  -0.000001   0.000007  -0.000012   0.000057
    15  H    0.000132  -0.000000   0.000000  -0.000000  -0.000047   0.000759
    16  H   -0.001043   0.000003  -0.000052  -0.000026  -0.000224   0.000323
    17  H   -0.000445   0.000011  -0.000037   0.000003   0.000522   0.005568
    18  H   -0.049244   0.005568  -0.006348  -0.004613   0.000008  -0.000171
    19  H    0.700286  -0.007003   0.006678   0.001551  -0.001308  -0.000101
    20  H   -0.007003   0.599400  -0.033462  -0.030572   0.000715  -0.000021
    21  H    0.006678  -0.033462   0.609846  -0.028155  -0.000529  -0.000026
    22  H    0.001551  -0.030572  -0.028155   0.610313  -0.000139  -0.000002
    23  H   -0.001308   0.000715  -0.000529  -0.000139   0.656948  -0.036818
    24  H   -0.000101  -0.000021  -0.000026  -0.000002  -0.036818   0.622438
    25  H   -0.000848  -0.000024  -0.000010  -0.000002   0.005899  -0.004045
    26  H    0.000709   0.002805  -0.000046  -0.000029  -0.007654   0.005306
    27  H   -0.000353  -0.000044  -0.000006  -0.000002   0.000359  -0.003160
              25         26         27
     1  N    0.000002   0.000000   0.000000
     2  C    0.000099  -0.000004   0.000000
     3  C    0.000278   0.000070  -0.000075
     4  C    0.000599   0.000033  -0.000066
     5  N   -0.000394  -0.004463   0.004150
     6  C   -0.000658   0.002309   0.000258
     7  C    0.000240  -0.000328   0.000041
     8  C   -0.033712  -0.033411  -0.023220
     9  C    0.381526   0.387192   0.364441
    10  H   -0.000000   0.000000   0.000000
    11  H    0.000000   0.000000   0.000000
    12  H    0.000010  -0.000000   0.000000
    13  H   -0.000016   0.000000  -0.000000
    14  H    0.000711  -0.000082   0.000008
    15  H    0.003260   0.000064   0.000248
    16  H   -0.000034   0.000012   0.000007
    17  H    0.000166  -0.000006   0.000017
    18  H   -0.000001  -0.000001  -0.000000
    19  H   -0.000848   0.000709  -0.000353
    20  H   -0.000024   0.002805  -0.000044
    21  H   -0.000010  -0.000046  -0.000006
    22  H   -0.000002  -0.000029  -0.000002
    23  H    0.005899  -0.007654   0.000359
    24  H   -0.004045   0.005306  -0.003160
    25  H    0.597835  -0.032783  -0.028253
    26  H   -0.032783   0.602256  -0.031064
    27  H   -0.028253  -0.031064   0.615482
 Mulliken charges:
               1
     1  N   -0.635949
     2  C   -0.066000
     3  C   -0.185434
     4  C   -0.043214
     5  N   -0.431318
     6  C   -0.026561
     7  C   -0.330282
     8  C   -0.041968
     9  C   -0.331507
    10  H    0.251644
    11  H    0.249342
    12  H    0.103114
    13  H    0.099347
    14  H    0.096181
    15  H    0.094488
    16  H    0.084363
    17  H    0.093076
    18  H    0.099044
    19  H    0.084688
    20  H    0.110095
    21  H    0.105950
    22  H    0.103419
    23  H    0.095589
    24  H    0.101392
    25  H    0.110155
    26  H    0.109114
    27  H    0.101233
 Sum of Mulliken charges =   0.00000
 Mulliken charges with hydrogens summed into heavy atoms:
               1
     1  N   -0.134963
     2  C    0.136461
     3  C    0.005235
     4  C    0.134225
     5  N   -0.431318
     6  C    0.157171
     7  C   -0.010819
     8  C    0.155012
     9  C   -0.011004
 APT charges:
               1
     1  N   -0.614746
     2  C   -0.950694
     3  C   -0.464106
     4  C   -0.663730
     5  N   -0.289505
     6  C   -0.498904
     7  C   -1.279772
     8  C   -0.813863
     9  C   -1.093153
    10  H    0.261746
    11  H    0.358854
    12  H    0.399031
    13  H    0.503219
    14  H    0.246724
    15  H    0.313309
    16  H    0.322056
    17  H    0.380758
    18  H    0.348668
    19  H    0.225634
    20  H    0.377698
    21  H    0.405907
    22  H    0.535151
    23  H    0.479807
    24  H    0.374875
    25  H    0.174551
    26  H    0.376719
    27  H    0.583767
 Sum of APT charges =   0.00000
 APT charges with hydrogens summed into heavy atoms:
               1
     1  N    0.005853
     2  C   -0.048444
     3  C    0.095927
     4  C    0.039084
     5  N   -0.289505
     6  C    0.075398
     7  C    0.038984
     8  C    0.040820
     9  C    0.041885
 Electronic spatial extent (au):  <R**2>=           1823.0308
 Charge=              0.0000 electrons
 Dipole moment (field-independent basis, Debye):
    X=             -1.2968    Y=              0.1608    Z=             -0.8180  Tot=              1.5417
 Quadrupole moment (field-independent basis, Debye-Ang):
   XX=            -71.3652   YY=            -56.3189   ZZ=            -59.1288
   XY=              0.0789   XZ=              1.0076   YZ=              1.7198
 Traceless Quadrupole moment (field-independent basis, Debye-Ang):
   XX=             -9.0942   YY=              5.9521   ZZ=              3.1421
   XY=              0.0789   XZ=              1.0076   YZ=              1.7198
 Octapole moment (field-independent basis, Debye-Ang**2):
  XXX=            -64.4551  YYY=             -6.2260  ZZZ=             -1.6777  XYY=              4.7936
  XXY=              9.1756  XXZ=             -1.0085  XZZ=              9.5012  YZZ=             -1.6652
  YYZ=              0.7565  XYZ=             -1.5321
 Hexadecapole moment (field-independent basis, Debye-Ang**3):
 XXXX=          -2037.0046 YYYY=           -528.1599 ZZZZ=           -220.0355 XXXY=             41.1116
 XXXZ=              0.5373 YYYX=            -16.8630 YYYZ=              5.3832 ZZZX=             -4.0600
 ZZZY=              6.0053 XXYY=           -362.2888 XXZZ=           -301.4303 YYZZ=           -122.9201
 XXYZ=              3.5892 YYXZ=             -2.2240 ZZXY=             -6.0194
 N-N= 4.972741200277D+02 E-N=-1.890945242876D+03  KE= 3.833601641072D+02
  Exact polarizability:   0.000   0.000   0.000   0.000   0.000   0.000
 Approx polarizability: 120.635  -1.620 124.016   1.264   3.023 117.653
 D2PCM: PCM CHGder 2nd derivatives, FixD1E=F FixD2E=F DoIter=F DoCFld=F I1PDM=0
 Calling FoFJK, ICntrl=    100147 FMM=F ISym2X=0 I1Cent= 0 IOpClX= 0 NMat=1 NMatS=1 NMatT=0.
 ***** Axes restored to original set *****
 -------------------------------------------------------------------
 Center     Atomic                   Forces (Hartrees/Bohr)
 Number     Number              X              Y              Z
 -------------------------------------------------------------------
      1        7           0.010487193    0.007825522   -0.003388467
      2        6          -0.003390801    0.001775094    0.008755083
      3        6           0.001319065   -0.008473549   -0.006489874
      4        6          -0.003788112    0.000850400    0.000920793
      5        7           0.008872815    0.005549897   -0.008633796
      6        6          -0.003810408    0.001442007   -0.003354370
      7        6          -0.003289006    0.000261924    0.002479643
      8        6          -0.007057627    0.002112843   -0.000211424
      9        6          -0.000948207   -0.005945755    0.003099922
     10        1           0.000324156   -0.001211482    0.001466850
     11        1          -0.000908052   -0.000486038   -0.001496263
     12        1           0.000356642    0.000845329   -0.001178746
     13        1           0.001144083   -0.000817311   -0.000707005
     14        1           0.000587570    0.000297025    0.000487965
     15        1          -0.002844499   -0.001270131    0.001255611
     16        1          -0.000598955    0.001276812    0.003044272
     17        1          -0.001854884   -0.002506951    0.000065320
     18        1           0.003335672   -0.002937211   -0.004040125
     19        1           0.000150979   -0.001120312    0.005629493
     20        1          -0.000984871    0.000185655   -0.000288951
     21        1           0.000589906   -0.000974099   -0.000557230
     22        1          -0.000343917   -0.000548084    0.000441956
     23        1          -0.002139502   -0.000218256    0.000357926
     24        1           0.004033796    0.004503900    0.000924110
     25        1           0.000750809   -0.000208310    0.000727652
     26        1           0.000615121   -0.000065504    0.000747292
     27        1          -0.000608965   -0.000143415   -0.000057635
 -------------------------------------------------------------------
 Cartesian Forces:  Max     0.010487193 RMS     0.003326621
 FormGI is forming the generalized inverse of G from B-inverse, IUseBI=4.

 GradGradGradGradGradGradGradGradGradGradGradGradGradGradGradGradGradGrad
 Berny optimization.
 Internal  Forces:  Max     0.013825315 RMS     0.002662876
 Search for a local minimum.
 Step number   1 out of a maximum of  144
 All quantities printed in internal units (Hartrees-Bohrs-Radians)
 Mixed Optimization -- RFO/linear search
 Second derivative matrix not updated -- analytic derivatives used.
 ITU=  0
     Eigenvalues ---    0.00195   0.00230   0.00260   0.00263   0.00359
     Eigenvalues ---    0.00389   0.00540   0.01033   0.01530   0.03060
     Eigenvalues ---    0.03564   0.03946   0.04284   0.04447   0.04485
     Eigenvalues ---    0.04539   0.04577   0.04618   0.04635   0.04663
     Eigenvalues ---    0.04778   0.04942   0.05105   0.05504   0.07003
     Eigenvalues ---    0.08329   0.08470   0.08806   0.09039   0.10320
     Eigenvalues ---    0.11670   0.12057   0.12107   0.12215   0.12393
     Eigenvalues ---    0.13764   0.13864   0.13974   0.14606   0.16002
     Eigenvalues ---    0.16308   0.18380   0.18918   0.19359   0.21871
     Eigenvalues ---    0.23766   0.24351   0.24725   0.26447   0.26942
     Eigenvalues ---    0.28559   0.29360   0.29998   0.31795   0.32435
     Eigenvalues ---    0.32507   0.32823   0.32927   0.33023   0.33215
     Eigenvalues ---    0.33323   0.33506   0.33649   0.33705   0.33825
     Eigenvalues ---    0.33948   0.34179   0.34612   0.34979   0.35937
     Eigenvalues ---    0.36814   0.38047   0.40216   0.44088   0.44437
 RFO step:  Lambda=-4.62325258D-03 EMin= 1.95315936D-03
 Linear search not attempted -- first point.
 Iteration  1 RMS(Cart)=  0.05421714 RMS(Int)=  0.00111348
 Iteration  2 RMS(Cart)=  0.00157583 RMS(Int)=  0.00011863
 Iteration  3 RMS(Cart)=  0.00000192 RMS(Int)=  0.00011862
 Iteration  4 RMS(Cart)=  0.00000000 RMS(Int)=  0.00011862
 Variable       Old X    -DE/DX   Delta X   Delta X   Delta X     New X
                                 (Linear)    (Quad)   (Total)
    R1        2.75605   0.00878   0.00000   0.02192   0.02192   2.77797
    R2        1.92483  -0.00174   0.00000  -0.00158  -0.00158   1.92326
    R3        1.92641  -0.00148   0.00000  -0.00042  -0.00042   1.92599
    R4        2.89599   0.00712   0.00000   0.01443   0.01443   2.91042
    R5        2.07021   0.00106   0.00000   0.00473   0.00473   2.07494
    R6        2.07059   0.00093   0.00000   0.00188   0.00188   2.07247
    R7        2.89694   0.00477   0.00000   0.01748   0.01748   2.91442
    R8        2.07151   0.00052   0.00000   0.00413   0.00413   2.07564
    R9        2.06915   0.00181   0.00000   0.00321   0.00321   2.07236
   R10        2.77494  -0.00007   0.00000  -0.01018  -0.01018   2.76476
   R11        2.07271   0.00107   0.00000   0.00322   0.00322   2.07593
   R12        2.07496   0.00054   0.00000   0.00118   0.00118   2.07613
   R13        2.76501  -0.00073   0.00000  -0.00195  -0.00195   2.76306
   R14        2.76999   0.00171   0.00000   0.00217   0.00217   2.77216
   R15        2.88282   0.00383   0.00000   0.00963   0.00963   2.89245
   R16        2.07407  -0.00079   0.00000  -0.00170  -0.00170   2.07237
   R17        2.07075   0.00486   0.00000   0.01632   0.01632   2.08706
   R18        2.06693   0.00046   0.00000   0.00130   0.00130   2.06823
   R19        2.06976  -0.00039   0.00000  -0.00093  -0.00093   2.06883
   R20        2.06938   0.00014   0.00000  -0.00053  -0.00053   2.06884
   R21        2.88575   0.00767   0.00000   0.02362   0.02362   2.90937
   R22        2.07366   0.00192   0.00000   0.00249   0.00249   2.07615
   R23        2.07394  -0.00138   0.00000  -0.00318  -0.00318   2.07076
   R24        2.06277   0.00094   0.00000   0.00289   0.00289   2.06567
   R25        2.06722   0.00031   0.00000   0.00151   0.00151   2.06873
   R26        2.07004   0.00043   0.00000   0.00044   0.00044   2.07049
    A1        1.92852  -0.00002   0.00000  -0.01168  -0.01183   1.91669
    A2        1.91693  -0.00137   0.00000  -0.01381  -0.01396   1.90297
    A3        1.85386  -0.00009   0.00000  -0.01317  -0.01348   1.84038
    A4        1.98255   0.01383   0.00000   0.05219   0.05207   2.03462
    A5        1.90703  -0.00550   0.00000  -0.02721  -0.02709   1.87994
    A6        1.88359  -0.00390   0.00000  -0.00614  -0.00674   1.87685
    A7        1.92501  -0.00382   0.00000  -0.01448  -0.01416   1.91085
    A8        1.89774  -0.00275   0.00000  -0.00011  -0.00049   1.89725
    A9        1.86372   0.00151   0.00000  -0.00726  -0.00747   1.85624
   A10        1.97167   0.00149   0.00000   0.00001  -0.00013   1.97154
   A11        1.90969  -0.00168   0.00000  -0.00963  -0.00968   1.90001
   A12        1.86773   0.00197   0.00000   0.02108   0.02101   1.88874
   A13        1.93426  -0.00021   0.00000  -0.01155  -0.01162   1.92264
   A14        1.90651  -0.00144   0.00000   0.00725   0.00711   1.91362
   A15        1.87006  -0.00014   0.00000  -0.00626  -0.00617   1.86388
   A16        2.03836   0.00998   0.00000   0.03642   0.03660   2.07496
   A17        1.91345  -0.00294   0.00000  -0.02083  -0.02065   1.89280
   A18        1.90016  -0.00272   0.00000  -0.00879  -0.00871   1.89145
   A19        1.87905  -0.00404   0.00000  -0.01834  -0.01816   1.86090
   A20        1.89705  -0.00392   0.00000  -0.01725  -0.01725   1.87980
   A21        1.82368   0.00299   0.00000   0.02857   0.02847   1.85215
   A22        1.98344   0.00146   0.00000   0.01337   0.01329   1.99673
   A23        2.00603   0.00252   0.00000   0.01930   0.01926   2.02529
   A24        2.03184  -0.00335   0.00000  -0.01127  -0.01161   2.02023
   A25        1.96487   0.00093   0.00000   0.00571   0.00570   1.97058
   A26        1.90817  -0.00524   0.00000  -0.03952  -0.03950   1.86867
   A27        1.95099   0.00291   0.00000   0.02190   0.02196   1.97295
   A28        1.85958   0.00448   0.00000   0.03507   0.03520   1.89478
   A29        1.91910  -0.00296   0.00000  -0.01772  -0.01774   1.90136
   A30        1.85557  -0.00016   0.00000  -0.00593  -0.00572   1.84985
   A31        1.95841   0.00120   0.00000  -0.00101  -0.00103   1.95738
   A32        1.93728  -0.00151   0.00000  -0.00647  -0.00649   1.93079
   A33        1.91771   0.00048   0.00000   0.00338   0.00339   1.92109
   A34        1.89025  -0.00031   0.00000  -0.00451  -0.00455   1.88571
   A35        1.87696  -0.00065   0.00000  -0.00168  -0.00167   1.87528
   A36        1.88056   0.00080   0.00000   0.01087   0.01088   1.89144
   A37        2.05362   0.00504   0.00000   0.01188   0.01177   2.06540
   A38        1.88024   0.00002   0.00000   0.00838   0.00831   1.88855
   A39        1.91699  -0.00624   0.00000  -0.04840  -0.04835   1.86864
   A40        1.87722  -0.00200   0.00000   0.00208   0.00190   1.87912
   A41        1.89780   0.00138   0.00000   0.00747   0.00733   1.90513
   A42        1.82380   0.00157   0.00000   0.02152   0.02152   1.84533
   A43        1.96434   0.00033   0.00000  -0.00134  -0.00135   1.96299
   A44        1.95232   0.00056   0.00000  -0.00187  -0.00188   1.95044
   A45        1.91168  -0.00018   0.00000  -0.00205  -0.00205   1.90963
   A46        1.88722  -0.00076   0.00000  -0.00512  -0.00513   1.88209
   A47        1.87539   0.00012   0.00000   0.00706   0.00707   1.88246
   A48        1.86888  -0.00011   0.00000   0.00395   0.00395   1.87283
    D1       -1.11570   0.00111   0.00000   0.03102   0.03109  -1.08460
    D2        1.04174   0.00179   0.00000   0.02863   0.02833   1.07007
    D3        3.06203  -0.00146   0.00000   0.00234   0.00230   3.06433
    D4        0.92386   0.00017   0.00000  -0.00030  -0.00006   0.92381
    D5        3.08130   0.00084   0.00000  -0.00270  -0.00282   3.07848
    D6       -1.18160  -0.00240   0.00000  -0.02899  -0.02885  -1.21045
    D7        1.22089  -0.00110   0.00000  -0.03536  -0.03550   1.18539
    D8       -0.94286  -0.00062   0.00000  -0.01316  -0.01331  -0.95617
    D9       -2.96343  -0.00066   0.00000  -0.01224  -0.01230  -2.97573
   D10       -0.92672  -0.00100   0.00000  -0.02652  -0.02654  -0.95326
   D11       -3.09047  -0.00052   0.00000  -0.00433  -0.00435  -3.09482
   D12        1.17215  -0.00057   0.00000  -0.00341  -0.00335   1.16880
   D13       -2.96483   0.00095   0.00000  -0.00950  -0.00941  -2.97424
   D14        1.15461   0.00143   0.00000   0.01270   0.01278   1.16739
   D15       -0.86596   0.00139   0.00000   0.01362   0.01379  -0.85217
   D16       -3.07747   0.00144   0.00000   0.03300   0.03304  -3.04443
   D17       -0.93508   0.00104   0.00000   0.01829   0.01823  -0.91684
   D18        1.05015   0.00156   0.00000   0.03640   0.03639   1.08654
   D19       -0.92727   0.00017   0.00000   0.01166   0.01173  -0.91554
   D20        1.21512  -0.00024   0.00000  -0.00305  -0.00307   1.21205
   D21       -3.08284   0.00028   0.00000   0.01507   0.01508  -3.06776
   D22        1.12918  -0.00101   0.00000   0.00157   0.00161   1.13079
   D23       -3.01161  -0.00142   0.00000  -0.01314  -0.01320  -3.02481
   D24       -1.02639  -0.00090   0.00000   0.00497   0.00496  -1.02143
   D25        1.18929  -0.00050   0.00000  -0.00469  -0.00452   1.18477
   D26       -1.21327   0.00023   0.00000  -0.02471  -0.02486  -1.23814
   D27       -0.97080  -0.00047   0.00000   0.01184   0.01207  -0.95873
   D28        2.90982   0.00027   0.00000  -0.00817  -0.00827   2.90155
   D29       -2.93673  -0.00002   0.00000  -0.00382  -0.00374  -2.94046
   D30        0.94389   0.00072   0.00000  -0.02384  -0.02407   0.91982
   D31        2.78707  -0.00002   0.00000  -0.01494  -0.01496   2.77211
   D32        0.72390  -0.00274   0.00000  -0.03619  -0.03610   0.68781
   D33       -1.32579  -0.00098   0.00000  -0.01707  -0.01692  -1.34271
   D34       -1.10498   0.00186   0.00000   0.01913   0.01896  -1.08603
   D35        3.11503  -0.00085   0.00000  -0.00212  -0.00218   3.11285
   D36        1.06533   0.00091   0.00000   0.01700   0.01701   1.08234
   D37        1.61199   0.00015   0.00000  -0.06071  -0.06073   1.55126
   D38       -2.54750   0.00103   0.00000  -0.04284  -0.04281  -2.59030
   D39       -0.57096  -0.00026   0.00000  -0.03743  -0.03759  -0.60855
   D40       -0.76954  -0.00126   0.00000  -0.09247  -0.09239  -0.86193
   D41        1.35416  -0.00039   0.00000  -0.07460  -0.07447   1.27969
   D42       -2.95249  -0.00168   0.00000  -0.06919  -0.06925  -3.02174
   D43        1.14340   0.00137   0.00000   0.00807   0.00803   1.15142
   D44       -0.97431   0.00200   0.00000   0.01918   0.01913  -0.95518
   D45       -3.05256   0.00165   0.00000   0.00758   0.00754  -3.04503
   D46       -3.04826  -0.00162   0.00000  -0.01440  -0.01434  -3.06260
   D47        1.11722  -0.00099   0.00000  -0.00329  -0.00324   1.11398
   D48       -0.96104  -0.00134   0.00000  -0.01489  -0.01483  -0.97586
   D49       -1.04438  -0.00087   0.00000  -0.01129  -0.01130  -1.05568
   D50        3.12110  -0.00024   0.00000  -0.00017  -0.00020   3.12090
   D51        1.04284  -0.00059   0.00000  -0.01177  -0.01178   1.03106
   D52       -0.99792   0.00178   0.00000   0.00106   0.00110  -0.99682
   D53        1.13101   0.00144   0.00000  -0.00799  -0.00795   1.12306
   D54       -3.08292   0.00154   0.00000  -0.00558  -0.00554  -3.08846
   D55       -3.12318  -0.00013   0.00000  -0.02001  -0.02000   3.14001
   D56       -0.99425  -0.00047   0.00000  -0.02907  -0.02905  -1.02329
   D57        1.07501  -0.00037   0.00000  -0.02665  -0.02664   1.04837
   D58        1.19449  -0.00162   0.00000  -0.04966  -0.04973   1.14477
   D59       -2.95976  -0.00196   0.00000  -0.05872  -0.05878  -3.01854
   D60       -0.89050  -0.00186   0.00000  -0.05631  -0.05637  -0.94687
         Item               Value     Threshold  Converged?
 Maximum Force            0.013825     0.000450     NO 
 RMS     Force            0.002663     0.000300     NO 
 Maximum Displacement     0.163476     0.001800     NO 
 RMS     Displacement     0.054455     0.001200     NO 
 Predicted change in Energy=-2.470900D-03
 GradGradGradGradGradGradGradGradGradGradGradGradGradGradGradGradGradGrad

                          Input orientation:                          
 ---------------------------------------------------------------------
 Center     Atomic      Atomic             Coordinates (Angstroms)
 Number     Number       Type             X           Y           Z
 ---------------------------------------------------------------------
      1          7           0        3.626030    0.958218   -0.384194
      2          6           0        2.993513   -0.340231   -0.658003
      3          6           0        1.548766   -0.522280   -0.156445
      4          6           0        0.535099    0.365517   -0.906650
      5          7           0       -0.855780    0.388217   -0.453386
      6          6           0       -1.054834    1.010649    0.854601
      7          6           0       -2.493261    1.484636    1.076096
      8          6           0       -1.635159   -0.828780   -0.705312
      9          6           0       -1.618754   -1.940617    0.359504
     10          1           0        3.108429    1.699544   -0.851450
     11          1           0        3.551050    1.160993    0.611802
     12          1           0        3.028299   -0.506635   -1.742772
     13          1           0        3.623078   -1.116289   -0.206181
     14          1           0        1.516781   -0.306685    0.920095
     15          1           0        1.274538   -1.577267   -0.276574
     16          1           0        0.892647    1.403778   -0.875770
     17          1           0        0.536608    0.073746   -1.965838
     18          1           0       -0.389323    1.881019    0.901485
     19          1           0       -0.759690    0.356457    1.694053
     20          1           0       -3.200465    0.650501    1.119923
     21          1           0       -2.807564    2.153591    0.268475
     22          1           0       -2.567999    2.028425    2.023334
     23          1           0       -2.682165   -0.538349   -0.867973
     24          1           0       -1.289235   -1.240267   -1.660190
     25          1           0       -0.607591   -2.291358    0.581776
     26          1           0       -2.072843   -1.609388    1.298925
     27          1           0       -2.200175   -2.797147    0.000669
 ---------------------------------------------------------------------
                    Distance matrix (angstroms):
                    1          2          3          4          5
     1  N    0.000000
     2  C    1.470040   0.000000
     3  C    2.561010   1.540129   0.000000
     4  C    3.190315   2.569767   1.542242   0.000000
     5  N    4.518441   3.922953   2.588246   1.463047   0.000000
     6  C    4.842298   4.527908   3.186035   2.458879   1.462147
     7  C    6.313104   6.036714   4.678125   3.788756   2.494553
     8  C    5.565661   4.654624   3.245392   2.485337   1.466963
     9  C    6.038550   4.986938   3.508712   3.400070   2.581934
    10  H    1.017744   2.052147   2.802157   2.899087   4.194400
    11  H    1.019190   2.043752   2.726308   3.469068   4.599126
    12  H    2.085380   1.098009   2.169261   2.770522   4.189194
    13  H    2.082133   1.096705   2.158261   3.496001   4.731260
    14  H    2.783897   2.161540   1.098382   2.180034   2.828141
    15  H    3.459737   2.151888   1.096644   2.172137   2.903902
    16  H    2.812749   2.739093   2.158152   1.098535   2.065616
    17  H    3.581677   2.813928   2.157223   1.098641   2.079699
    18  H    4.315969   4.336995   3.263625   2.533901   2.069231
    19  H    4.890375   4.483756   3.086340   2.905205   2.149823
    20  H    6.997005   6.519810   5.055662   4.259419   2.835779
    21  H    6.576170   6.382005   5.130151   3.968818   2.728935
    22  H    6.731086   6.612904   5.310864   4.580314   3.428719
    23  H    6.501313   5.683015   4.290373   3.342044   2.089519
    24  H    5.533654   4.489585   3.291049   2.544516   2.072733
    25  H    5.423687   4.279240   2.885217   3.252712   2.883276
    26  H    6.473225   5.577480   4.051660   3.945398   2.922715
    27  H    6.942302   5.783138   4.387968   4.278714   3.487135
                    6          7          8          9         10
     6  C    0.000000
     7  C    1.530620   0.000000
     8  C    2.480646   3.043296   0.000000
     9  C    3.045176   3.607024   1.539572   0.000000
    10  H    4.551697   5.927947   5.377305   6.087975   0.000000
    11  H    4.614728   6.070750   5.708830   6.034112   1.620820
    12  H    5.071535   6.511436   4.788312   5.298203   2.380777
    13  H    5.247093   6.768947   5.289693   5.336320   2.934306
    14  H    2.890131   4.394724   3.584586   3.579884   3.113948
    15  H    3.660989   5.039968   3.034862   2.984586   3.798833
    16  H    2.634656   3.909052   3.376858   4.360964   2.235568
    17  H    3.371254   4.519301   2.668342   3.756388   3.240269
    18  H    1.096652   2.148060   3.387760   4.050943   3.916630
    19  H    1.104426   2.158686   2.815704   2.792053   4.821392
    20  H    2.191765   1.094459   2.823108   3.129527   6.692455
    21  H    2.172998   1.094778   3.349228   4.264281   6.038159
    22  H    2.165981   1.094783   4.059473   4.407118   6.371372
    23  H    2.831054   2.812039   1.098649   2.145669   6.208013
    24  H    3.383156   4.045002   1.095800   2.162923   5.351262
    25  H    3.343308   4.249498   2.202640   1.093103   5.638283
    26  H    2.845762   3.130398   2.194968   1.094725   6.512966
    27  H    4.066979   4.424490   2.166130   1.095654   7.009110
                   11         12         13         14         15
    11  H    0.000000
    12  H    2.932280   0.000000
    13  H    2.420805   1.756859   0.000000
    14  H    2.527325   3.068473   2.521992   0.000000
    15  H    3.670120   2.524216   2.394388   1.762123   0.000000
    16  H    3.055965   2.993723   3.775493   2.557412   3.064557
    17  H    4.112565   2.568097   3.746848   3.071494   2.474671
    18  H    4.016079   4.936914   5.129341   2.901659   4.014474
    19  H    4.516749   5.187056   4.998853   2.494211   3.429394
    20  H    6.789826   6.952084   7.172226   4.817524   5.190261
    21  H    6.444772   6.721547   7.229838   5.017720   5.556972
    22  H    6.339370   7.206151   7.293106   4.832731   5.749407
    23  H    6.628006   5.777168   6.366166   4.569683   4.133353
    24  H    5.861429   4.380198   5.124484   3.924687   2.932729
    25  H    5.404990   4.669952   4.460966   2.926831   2.188401
    26  H    6.306767   6.040664   5.912022   3.837439   3.699755
    27  H    7.008348   5.968498   6.064515   4.567659   3.693048
                   16         17         18         19         20
    16  H    0.000000
    17  H    1.756131   0.000000
    18  H    2.242731   3.513563   0.000000
    19  H    3.229720   3.892958   1.757733   0.000000
    20  H    4.615602   4.880603   3.076427   2.524572   0.000000
    21  H    3.945006   4.527847   2.514535   3.075020   1.771613
    22  H    4.557527   5.419672   2.454974   2.484729   1.764890
    23  H    4.068316   3.455498   3.773785   3.325743   2.373549
    24  H    3.516660   2.270188   4.136961   3.752452   3.867407
    25  H    4.246078   3.659678   4.190296   2.875972   3.958172
    26  H    4.754219   4.505647   3.895527   2.396882   2.531930
    27  H    5.289751   4.427094   5.096655   3.858467   3.760264
                   21         22         23         24         25
    21  H    0.000000
    22  H    1.775553   0.000000
    23  H    2.924685   3.867948   0.000000
    24  H    4.188477   5.088019   1.749443   0.000000
    25  H    4.969467   4.958004   3.078744   2.568237   0.000000
    26  H    3.970094   3.742142   2.492759   3.083286   1.768148
    27  H    4.995042   5.245246   2.467594   2.451966   1.769133
                   26         27
    26  H    0.000000
    27  H    1.764215   0.000000
 Stoichiometry    C7H18N2
 Framework group  C1[X(C7H18N2)]
 Deg. of freedom    75
 Full point group                 C1      NOp   1
 Largest Abelian subgroup         C1      NOp   1
 Largest concise Abelian subgroup C1      NOp   1
                         Standard orientation:                         
 ---------------------------------------------------------------------
 Center     Atomic      Atomic             Coordinates (Angstroms)
 Number     Number       Type             X           Y           Z
 ---------------------------------------------------------------------
      1          7           0        3.543066   -0.843358   -0.133152
      2          6           0        2.926907    0.491178   -0.113678
      3          6           0        1.407935    0.552443   -0.360589
      4          6           0        0.586465   -0.072982    0.785074
      5          7           0       -0.863142   -0.195867    0.629999
      6          6           0       -1.282327   -1.154115   -0.391724
      7          6           0       -2.718634   -1.644995   -0.194605
      8          6           0       -1.624612    1.057009    0.679432
      9          6           0       -1.849246    1.827989   -0.634117
     10          1           0        3.149872   -1.415842    0.610799
     11          1           0        3.289235   -1.313995   -1.000803
     12          1           0        3.159324    0.952326    0.855316
     13          1           0        3.431638    1.099293   -0.874077
     14          1           0        1.181595    0.046296   -1.308761
     15          1           0        1.123277    1.603937   -0.486914
     16          1           0        0.969100   -1.085073    0.974923
     17          1           0        0.776872    0.502035    1.701650
     18          1           0       -0.606529   -2.014991   -0.322185
     19          1           0       -1.174407   -0.764904   -1.419647
     20          1           0       -3.451125   -0.843416   -0.331595
     21          1           0       -2.850819   -2.056898    0.811080
     22          1           0       -2.950715   -2.429539   -0.922052
     23          1           0       -2.611052    0.842278    1.112858
     24          1           0       -1.120156    1.711738    1.398898
     25          1           0       -0.911391    2.084688   -1.133525
     26          1           0       -2.459850    1.256586   -1.340575
     27          1           0       -2.383266    2.760898   -0.422079
 ---------------------------------------------------------------------
 Rotational constants (GHZ):           2.4242841           0.7858203           0.6662749
 Standard basis: 6-31G(d,p) (6D, 7F)
 There are   225 symmetry adapted cartesian basis functions of A   symmetry.
 There are   225 symmetry adapted basis functions of A   symmetry.
   225 basis functions,   378 primitive gaussians,   225 cartesian basis functions
    37 alpha electrons       37 beta electrons
       nuclear repulsion energy       494.1718675855 Hartrees.
 NAtoms=   27 NActive=   27 NUniq=   27 SFac= 1.00D+00 NAtFMM=   60 NAOKFM=F Big=F
 Integral buffers will be    131072 words long.
 Raffenetti 2 integral format.
 Two-electron integral symmetry is turned on.
 ------------------------------------------------------------------------------
 Polarizable Continuum Model (PCM)
 =================================
 Model                : PCM.
 Atomic radii         : UFF (Universal Force Field).
 Polarization charges : Total charges.
 Charge compensation  : None.
 Solution method      : Matrix inversion.
 Cavity type          : Scaled VdW (van der Waals Surface) (Alpha=1.100).
 Cavity algorithm     : GePol (No added spheres)
                        Default sphere list used, NSphG=   27.
                        Lebedev-Laikov grids with approx.  5.0 points / Ang**2.
                        Smoothing algorithm: York/Karplus (Gamma=1.0000).
                        Polarization charges: spherical gaussians, with
                                              point-specific exponents (IZeta= 3).
                        Self-potential: point-specific (ISelfS= 7).
                        Self-field    : sphere-specific E.n sum rule (ISelfD= 2).
 1st derivatives      : Analytical E(r).r(x)/FMM algorithm (CHGder, D1EAlg=3).
                        Cavity 1st derivative terms included.
 Solvent              : Water, Eps=  78.355300 Eps(inf)=   1.777849
 ------------------------------------------------------------------------------
 One-electron integrals computed using PRISM.
 NBasis=   225 RedAO= T EigKep=  3.63D-03  NBF=   225
[...]
    27  H    0.097603
 Sum of Mulliken charges =  -0.00000
 Mulliken charges with hydrogens summed into heavy atoms:
               1
     1  N   -0.225740
     2  C    0.139719
     3  C   -0.005640
     4  C    0.124089
     5  N   -0.241853
     6  C    0.130926
     7  C   -0.047265
     8  C    0.161280
     9  C   -0.035516
 Electronic spatial extent (au):  <R**2>=           1872.4863
 Charge=             -0.0000 electrons
 Dipole moment (field-independent basis, Debye):
    X=             -3.0966    Y=              1.2325    Z=              0.8390  Tot=              3.4369
 Quadrupole moment (field-independent basis, Debye-Ang):
   XX=            -78.2672   YY=            -62.5649   ZZ=            -60.1843
   XY=              2.9914   XZ=             -2.0473   YZ=              1.3010
 Traceless Quadrupole moment (field-independent basis, Debye-Ang):
   XX=            -11.2617   YY=              4.4406   ZZ=              6.8212
   XY=              2.9914   XZ=             -2.0473   YZ=              1.3010
 Octapole moment (field-independent basis, Debye-Ang**2):
  XXX=            -66.4661  YYY=              2.1327  ZZZ=              4.2957  XYY=              1.5725
  XXY=             18.4002  XXZ=              0.9203  XZZ=              5.9333  YZZ=             -0.4588
  YYZ=             -0.4746  XYZ=             -0.4446
 Hexadecapole moment (field-independent basis, Debye-Ang**3):
 XXXX=          -2180.7577 YYYY=           -606.7197 ZZZZ=           -223.7355 XXXY=             66.2295
 XXXZ=            -23.6389 YYYX=            -12.1026 YYYZ=              2.6997 ZZZX=             -8.0470
 ZZZY=              3.7329 XXYY=           -392.1304 XXZZ=           -323.7123 YYZZ=           -134.0289
 XXYZ=              4.1478 YYXZ=             -3.9632 ZZXY=             -0.6917
 N-N= 4.936145303098D+02 E-N=-1.881373385301D+03  KE= 3.833957961529D+02
 Evaluate density.
 Using the total density.
 Monte-Carlo method of calculating molar volume:
 based on  0.001 e/bohr**3 density envelope.
 Number of points per bohr**3 =   20 CutOff= 1.00D-04
 Using the CI density.
 There are       388 points.  Will hold       388 in memory.
 LenV=  1073602122 MDV=  1073741824.
 Box volume = 7347.029 fraction occupied=0.227
 Integrated density= 6.1821408508175416D+01 error=-1.2178591491824584D+01
 Molar volume = 1666.337 bohr**3/mol (148.702 cm**3/mol)
 Recommended a0 for SCRF calculation =  4.78 angstrom (  9.04 bohr)
 ******************************Gaussian NBO Version 3.1******************************
             N A T U R A L   A T O M I C   O R B I T A L   A N D
          N A T U R A L   B O N D   O R B I T A L   A N A L Y S I S
 ******************************Gaussian NBO Version 3.1******************************
       /RESON  / : Allow strongly delocalized NBO set

 Analyzing the CI density

 Job title: QOHMWDJIBGVPIF-UHFFFAOYSA-N_conf_2                              

 Storage needed:    154314 in NPA (1073737909 available)
 GSVD:  LWork=       26433 too small for GESVD, short by       20979 words or       20979 for optimal perf.


 NATURAL POPULATIONS:  Natural atomic orbital occupancies 
                                                          
   NAO  Atom  No  lang   Type(AO)    Occupancy
 --------------------------------------------
     1    N    1  S      Cor( 1S)     1.99969
     2    N    1  S      Val( 2S)     1.44870
     3    N    1  S      Ryd( 3S)     0.00213
     4    N    1  S      Ryd( 4S)     0.00003
     5    N    1  px     Val( 2p)     1.79674
     6    N    1  px     Ryd( 3p)     0.00590
     7    N    1  py     Val( 2p)     1.27153
     8    N    1  py     Ryd( 3p)     0.00209
     9    N    1  pz     Val( 2p)     1.38509
    10    N    1  pz     Ryd( 3p)     0.00161
    11    N    1  dxy    Ryd( 3d)     0.00115
    12    N    1  dxz    Ryd( 3d)     0.00107
    13    N    1  dyz    Ryd( 3d)     0.00058
    14    N    1  dx2y2  Ryd( 3d)     0.00096
    15    N    1  dz2    Ryd( 3d)     0.00045

    16    C    2  S      Cor( 1S)     1.99937
    17    C    2  S      Val( 2S)     1.02094
    18    C    2  S      Ryd( 3S)     0.00153
    19    C    2  S      Ryd( 4S)     0.00004
    20    C    2  px     Val( 2p)     1.01976
    21    C    2  px     Ryd( 3p)     0.00401
    22    C    2  py     Val( 2p)     0.97654
    23    C    2  py     Ryd( 3p)     0.00419
    24    C    2  pz     Val( 2p)     1.24421
    25    C    2  pz     Ryd( 3p)     0.00350
    26    C    2  dxy    Ryd( 3d)     0.00129
    27    C    2  dxz    Ryd( 3d)     0.00053
    28    C    2  dyz    Ryd( 3d)     0.00108
    29    C    2  dx2y2  Ryd( 3d)     0.00115
    30    C    2  dz2    Ryd( 3d)     0.00075

    31    C    3  S      Cor( 1S)     1.99927
    32    C    3  S      Val( 2S)     1.06549
    33    C    3  S      Ryd( 3S)     0.00090
    34    C    3  S      Ryd( 4S)     0.00003
    35    C    3  px     Val( 2p)     1.04985
    36    C    3  px     Ryd( 3p)     0.00142
    37    C    3  py     Val( 2p)     1.22779
    38    C    3  py     Ryd( 3p)     0.00347
    39    C    3  pz     Val( 2p)     1.13071
    40    C    3  pz     Ryd( 3p)     0.00213
    41    C    3  dxy    Ryd( 3d)     0.00047
    42    C    3  dxz    Ryd( 3d)     0.00063
    43    C    3  dyz    Ryd( 3d)     0.00061
    44    C    3  dx2y2  Ryd( 3d)     0.00078
    45    C    3  dz2    Ryd( 3d)     0.00058

    46    C    4  S      Cor( 1S)     1.99928
    47    C    4  S      Val( 2S)     1.03675
    48    C    4  S      Ryd( 3S)     0.00187
    49    C    4  S      Ryd( 4S)     0.00004
    50    C    4  px     Val( 2p)     0.83417
    51    C    4  px     Ryd( 3p)     0.00364
    52    C    4  py     Val( 2p)     1.26106
    53    C    4  py     Ryd( 3p)     0.00723
    54    C    4  pz     Val( 2p)     1.16244
    55    C    4  pz     Ryd( 3p)     0.00295
    56    C    4  dxy    Ryd( 3d)     0.00055
    57    C    4  dxz    Ryd( 3d)     0.00060
    58    C    4  dyz    Ryd( 3d)     0.00078
    59    C    4  dx2y2  Ryd( 3d)     0.00138
    60    C    4  dz2    Ryd( 3d)     0.00091

    61    N    5  S      Cor( 1S)     1.99938
    62    N    5  S      Val( 2S)     1.26969
    63    N    5  S      Ryd( 3S)     0.00161
    64    N    5  S      Ryd( 4S)     0.00002
    65    N    5  px     Val( 2p)     1.28259
    66    N    5  px     Ryd( 3p)     0.00081
    67    N    5  py     Val( 2p)     1.26766
    68    N    5  py     Ryd( 3p)     0.00101
    69    N    5  pz     Val( 2p)     1.21760
    70    N    5  pz     Ryd( 3p)     0.00233
    71    N    5  dxy    Ryd( 3d)     0.00084
    72    N    5  dxz    Ryd( 3d)     0.00052
    73    N    5  dyz    Ryd( 3d)     0.00064
    74    N    5  dx2y2  Ryd( 3d)     0.00087
    75    N    5  dz2    Ryd( 3d)     0.00068

    76    C    6  S      Cor( 1S)     1.99930
    77    C    6  S      Val( 2S)     1.05393
    78    C    6  S      Ryd( 3S)     0.00215
    79    C    6  S      Ryd( 4S)     0.00004
    80    C    6  px     Val( 2p)     1.12831
    81    C    6  px     Ryd( 3p)     0.00372
    82    C    6  py     Val( 2p)     1.05484
    83    C    6  py     Ryd( 3p)     0.00294
    84    C    6  pz     Val( 2p)     1.06605
    85    C    6  pz     Ryd( 3p)     0.00342
    86    C    6  dxy    Ryd( 3d)     0.00100
    87    C    6  dxz    Ryd( 3d)     0.00050
    88    C    6  dyz    Ryd( 3d)     0.00119
    89    C    6  dx2y2  Ryd( 3d)     0.00064
    90    C    6  dz2    Ryd( 3d)     0.00086

    91    C    7  S      Cor( 1S)     1.99945
    92    C    7  S      Val( 2S)     1.12351
    93    C    7  S      Ryd( 3S)     0.00048
    94    C    7  S      Ryd( 4S)     0.00002
    95    C    7  px     Val( 2p)     1.09281
    96    C    7  px     Ryd( 3p)     0.00358
    97    C    7  py     Val( 2p)     1.23071
    98    C    7  py     Ryd( 3p)     0.00152
    99    C    7  pz     Val( 2p)     1.25463
   100    C    7  pz     Ryd( 3p)     0.00182
   101    C    7  dxy    Ryd( 3d)     0.00071
   102    C    7  dxz    Ryd( 3d)     0.00016
   103    C    7  dyz    Ryd( 3d)     0.00069
   104    C    7  dx2y2  Ryd( 3d)     0.00040
   105    C    7  dz2    Ryd( 3d)     0.00068

   106    C    8  S      Cor( 1S)     1.99932
   107    C    8  S      Val( 2S)     1.04723
   108    C    8  S      Ryd( 3S)     0.00158
   109    C    8  S      Ryd( 4S)     0.00004
   110    C    8  px     Val( 2p)     1.15339
   111    C    8  px     Ryd( 3p)     0.00445
   112    C    8  py     Val( 2p)     0.93924
   113    C    8  py     Ryd( 3p)     0.00339
   114    C    8  pz     Val( 2p)     1.15946
   115    C    8  pz     Ryd( 3p)     0.00370
   116    C    8  dxy    Ryd( 3d)     0.00122
   117    C    8  dxz    Ryd( 3d)     0.00065
   118    C    8  dyz    Ryd( 3d)     0.00086
   119    C    8  dx2y2  Ryd( 3d)     0.00073
   120    C    8  dz2    Ryd( 3d)     0.00080

   121    C    9  S      Cor( 1S)     1.99941
   122    C    9  S      Val( 2S)     1.13541
   123    C    9  S      Ryd( 3S)     0.00047
   124    C    9  S      Ryd( 4S)     0.00003
   125    C    9  px     Val( 2p)     1.25447
   126    C    9  px     Ryd( 3p)     0.00139
   127    C    9  py     Val( 2p)     1.18799
   128    C    9  py     Ryd( 3p)     0.00158
   129    C    9  pz     Val( 2p)     1.11428
   130    C    9  pz     Ryd( 3p)     0.00352
   131    C    9  dxy    Ryd( 3d)     0.00070
   132    C    9  dxz    Ryd( 3d)     0.00051
   133    C    9  dyz    Ryd( 3d)     0.00072
   134    C    9  dx2y2  Ryd( 3d)     0.00030
   135    C    9  dz2    Ryd( 3d)     0.00043

   136    H   10  S      Val( 1S)     0.65296
   137    H   10  S      Ryd( 2S)     0.02618
   138    H   10  px     Ryd( 2p)     0.00059
   139    H   10  py     Ryd( 2p)     0.00035
   140    H   10  pz     Ryd( 2p)     0.00043

   141    H   11  S      Val( 1S)     0.63699
   142    H   11  S      Ryd( 2S)     0.02160
   143    H   11  px     Ryd( 2p)     0.00053
   144    H   11  py     Ryd( 2p)     0.00035
   145    H   11  pz     Ryd( 2p)     0.00047

   146    H   12  S      Val( 1S)     0.77079
   147    H   12  S      Ryd( 2S)     0.00538
   148    H   12  px     Ryd( 2p)     0.00012
   149    H   12  py     Ryd( 2p)     0.00014
   150    H   12  pz     Ryd( 2p)     0.00030

   151    H   13  S      Val( 1S)     0.75565
   152    H   13  S      Ryd( 2S)     0.00327
   153    H   13  px     Ryd( 2p)     0.00017
   154    H   13  py     Ryd( 2p)     0.00015
   155    H   13  pz     Ryd( 2p)     0.00023

   156    H   14  S      Val( 1S)     0.77012
   157    H   14  S      Ryd( 2S)     0.02052
   158    H   14  px     Ryd( 2p)     0.00009
   159    H   14  py     Ryd( 2p)     0.00015
   160    H   14  pz     Ryd( 2p)     0.00029

   161    H   15  S      Val( 1S)     0.76837
   162    H   15  S      Ryd( 2S)     0.01613
   163    H   15  px     Ryd( 2p)     0.00013
   164    H   15  py     Ryd( 2p)     0.00033
   165    H   15  pz     Ryd( 2p)     0.00010

   166    H   16  S      Val( 1S)     0.79308
   167    H   16  S      Ryd( 2S)     0.04309
   168    H   16  px     Ryd( 2p)     0.00011
   169    H   16  py     Ryd( 2p)     0.00031
   170    H   16  pz     Ryd( 2p)     0.00011

   171    H   17  S      Val( 1S)     0.74348
   172    H   17  S      Ryd( 2S)     0.01160
   173    H   17  px     Ryd( 2p)     0.00007
   174    H   17  py     Ryd( 2p)     0.00018
   175    H   17  pz     Ryd( 2p)     0.00029

   176    H   18  S      Val( 1S)     0.77964
   177    H   18  S      Ryd( 2S)     0.03870
   178    H   18  px     Ryd( 2p)     0.00017
   179    H   18  py     Ryd( 2p)     0.00027
   180    H   18  pz     Ryd( 2p)     0.00006

   181    H   19  S      Val( 1S)     0.75106
   182    H   19  S      Ryd( 2S)     0.03094
   183    H   19  px     Ryd( 2p)     0.00010
   184    H   19  py     Ryd( 2p)     0.00009
   185    H   19  pz     Ryd( 2p)     0.00035

   186    H   20  S      Val( 1S)     0.77732
   187    H   20  S      Ryd( 2S)     0.01918
   188    H   20  px     Ryd( 2p)     0.00021
   189    H   20  py     Ryd( 2p)     0.00022
   190    H   20  pz     Ryd( 2p)     0.00008

   191    H   21  S      Val( 1S)     0.76497
   192    H   21  S      Ryd( 2S)     0.01046
   193    H   21  px     Ryd( 2p)     0.00009
   194    H   21  py     Ryd( 2p)     0.00011
   195    H   21  pz     Ryd( 2p)     0.00029

   196    H   22  S      Val( 1S)     0.76362
   197    H   22  S      Ryd( 2S)     0.01114
   198    H   22  px     Ryd( 2p)     0.00010
   199    H   22  py     Ryd( 2p)     0.00022
   200    H   22  pz     Ryd( 2p)     0.00018

   201    H   23  S      Val( 1S)     0.75212
   202    H   23  S      Ryd( 2S)     0.02261
   203    H   23  px     Ryd( 2p)     0.00033
   204    H   23  py     Ryd( 2p)     0.00007
   205    H   23  pz     Ryd( 2p)     0.00014

   206    H   24  S      Val( 1S)     0.75608
   207    H   24  S      Ryd( 2S)     0.01929
   208    H   24  px     Ryd( 2p)     0.00010
   209    H   24  py     Ryd( 2p)     0.00018
   210    H   24  pz     Ryd( 2p)     0.00024

   211    H   25  S      Val( 1S)     0.77556
   212    H   25  S      Ryd( 2S)     0.01606
   213    H   25  px     Ryd( 2p)     0.00028
   214    H   25  py     Ryd( 2p)     0.00011
   215    H   25  pz     Ryd( 2p)     0.00012

   216    H   26  S      Val( 1S)     0.78338
   217    H   26  S      Ryd( 2S)     0.02411
   218    H   26  px     Ryd( 2p)     0.00012
   219    H   26  py     Ryd( 2p)     0.00017
   220    H   26  pz     Ryd( 2p)     0.00022

   221    H   27  S      Val( 1S)     0.75536
   222    H   27  S      Ryd( 2S)     0.01009
   223    H   27  px     Ryd( 2p)     0.00017
   224    H   27  py     Ryd( 2p)     0.00025
   225    H   27  pz     Ryd( 2p)     0.00008


 Summary of Natural Population Analysis:                  
                                                          
                                       Natural Population 
                Natural  -----------------------------------------------
    Atom  No    Charge         Core      Valence    Rydberg      Total
 -----------------------------------------------------------------------
      N    1   -0.91770      1.99969     5.90205    0.01596     7.91770
      C    2   -0.27892      1.99937     4.26146    0.01809     6.27892
      C    3   -0.48413      1.99927     4.47385    0.01101     6.48413
      C    4   -0.31367      1.99928     4.29442    0.01997     6.31367
      N    5   -0.04625      1.99938     5.03754    0.00933     7.04625
      C    6   -0.31890      1.99930     4.30313    0.01647     6.31890
      C    7   -0.71118      1.99945     4.70166    0.01006     6.71118
      C    8   -0.31606      1.99932     4.29932    0.01743     6.31606
      C    9   -0.70121      1.99941     4.69216    0.00964     6.70121
      H   10    0.31949      0.00000     0.65296    0.02755     0.68051
      H   11    0.34005      0.00000     0.63699    0.02296     0.65995
      H   12    0.22328      0.00000     0.77079    0.00593     0.77672
      H   13    0.24053      0.00000     0.75565    0.00382     0.75947
      H   14    0.20883      0.00000     0.77012    0.02105     0.79117
      H   15    0.21494      0.00000     0.76837    0.01669     0.78506
      H   16    0.16330      0.00000     0.79308    0.04362     0.83670
      H   17    0.24439      0.00000     0.74348    0.01213     0.75561
      H   18    0.18116      0.00000     0.77964    0.03920     0.81884
      H   19    0.21745      0.00000     0.75106    0.03148     0.78255
      H   20    0.20298      0.00000     0.77732    0.01970     0.79702
      H   21    0.22408      0.00000     0.76497    0.01096     0.77592
      H   22    0.22475      0.00000     0.76362    0.01163     0.77525
      H   23    0.22474      0.00000     0.75212    0.02314     0.77526
      H   24    0.22412      0.00000     0.75608    0.01980     0.77588
      H   25    0.20787      0.00000     0.77556    0.01657     0.79213
      H   26    0.19200      0.00000     0.78338    0.02462     0.80800
      H   27    0.23405      0.00000     0.75536    0.01058     0.76595
 =======================================================================
   * Total *   -0.00000     17.99446    55.51613    0.48940    74.00000

                                 Natural Population      
 --------------------------------------------------------
   Core                      17.99446 ( 99.9692% of  18)
   Valence                   55.51613 ( 99.1360% of  56)
   Natural Minimal Basis     73.51060 ( 99.3386% of  74)
   Natural Rydberg Basis      0.48940 (  0.6614% of  74)
 --------------------------------------------------------

    Atom  No          Natural Electron Configuration
 ----------------------------------------------------------------------------
      N    1      [core]2S( 1.45)2p( 4.45)3p( 0.01)
      C    2      [core]2S( 1.02)2p( 3.24)3p( 0.01)
      C    3      [core]2S( 1.07)2p( 3.41)3p( 0.01)
      C    4      [core]2S( 1.04)2p( 3.26)3p( 0.01)
      N    5      [core]2S( 1.27)2p( 3.77)
      C    6      [core]2S( 1.05)2p( 3.25)3p( 0.01)
      C    7      [core]2S( 1.12)2p( 3.58)3p( 0.01)
      C    8      [core]2S( 1.05)2p( 3.25)3p( 0.01)
      C    9      [core]2S( 1.14)2p( 3.56)3p( 0.01)
      H   10            1S( 0.65)2S( 0.03)
      H   11            1S( 0.64)2S( 0.02)
      H   12            1S( 0.77)2S( 0.01)
      H   13            1S( 0.76)
      H   14            1S( 0.77)2S( 0.02)
      H   15            1S( 0.77)2S( 0.02)
      H   16            1S( 0.79)2S( 0.04)
      H   17            1S( 0.74)2S( 0.01)
      H   18            1S( 0.78)2S( 0.04)
      H   19            1S( 0.75)2S( 0.03)
      H   20            1S( 0.78)2S( 0.02)
      H   21            1S( 0.76)2S( 0.01)
      H   22            1S( 0.76)2S( 0.01)
      H   23            1S( 0.75)2S( 0.02)
      H   24            1S( 0.76)2S( 0.02)
      H   25            1S( 0.78)2S( 0.02)
      H   26            1S( 0.78)2S( 0.02)
      H   27            1S( 0.76)2S( 0.01)


 NBO analysis skipped by request.
 1\1\GINC-CN13\SP\RB3LYP TD-FC\6-31G(d,p)\C7H18N2\QDUEZ\11-Jul-2024\0\\
 # TD(NStates=10, Root=1) B3LYP/6-31G** SCRF=(Solvent=water) volume pop
 =NPA density=current Geom=AllCheck Guess=Read\\QOHMWDJIBGVPIF-UHFFFAOY
 SA-N_conf_2\\0,1\N,0,3.6129220574,0.9902156683,-0.4005833665\C,0,2.999
 6636416,-0.329567923,-0.6148040819\C,0,1.553321496,-0.5173027061,-0.11
 78567863\C,0,0.5312436676,0.3336253416,-0.9005831563\N,0,-0.8577199368
 ,0.3727829454,-0.443740629\C,0,-1.0495038251,1.0069712631,0.8595746738
 \C,0,-2.4780754531,1.5122418597,1.0774320784\C,0,-1.6675572512,-0.8201
 744449,-0.7059184375\C,0,-1.605092305,-1.985607724,0.2994742977\H,0,3.
 0861156099,1.7013259403,-0.9032487244\H,0,3.5314323523,1.2391814377,0.
 5844255927\H,0,3.04640806,-0.5464130601,-1.6903799942\H,0,3.6387703347
 ,-1.0743674142,-0.1252136454\H,0,1.5103629329,-0.2681321202,0.95104516
 77\H,0,1.2966303438,-1.5797253877,-0.203957168\H,0,0.8873641583,1.3731
 86379,-0.9115586918\H,0,0.5280290988,-0.0015768512,-1.9466629282\H,0,-
 0.3650820402,1.8630509951,0.9014162392\H,0,-0.7691996577,0.3542506087,
 1.7059341003\H,0,-3.2015431551,0.6931347576,1.1353684266\H,0,-2.781679
 1444,2.1761527347,0.2615814692\H,0,-2.5388742291,2.0696151621,2.017720
 5567\H,0,-2.7164729169,-0.5068613405,-0.7893746965\H,0,-1.384629877,-1
 .1868555078,-1.699527595\H,0,-0.6043416,-2.4187634624,0.3749178946\H,0
 ,-1.9114371013,-1.6714554557,1.302556592\H,0,-2.2910552605,-2.77893169
 55,-0.0180371881\\Version=EM64L-G16RevA.03\State=1-A\HF=-387.0992617\R
 MSD=6.745e-09\Dipole=-1.2639131,-0.4231941,-0.2275345\Quadrupole=-7.40
 22177,2.6889132,4.7133045,-2.9020118,3.1909972,0.9148716\PG=C01 [X(C7H
 18N2)]\\@


 A MAN THINKING OR WORKING IS ALWAYS ALONE, 
 LET HIM BE WHERE HE WILL.

                                    -- THOREAU
 Job cpu time:       0 days  0 hours 58 minutes  5.5 seconds.
 Elapsed time:       0 days  0 hours 29 minutes 12.4 seconds.
 File lengths (MBytes):  RWF=    453 Int=      0 D2E=      0 Chk=     29 Scr=      1
 Normal termination of Gaussian 16 at Thu Jul 11 19:40:16 2024.
