 Entering Gaussian System, Link 0=g16
 Initial command:
 /opt/sw/arch/manual/gaussian/G16_A03/g16/l1.exe "/scratch/1032095.jesse.materianova.be/Gau-44047.inp" -scrdir="/scratch/1032095.jesse.materianova.be/"
 Entering Link 1 = /opt/sw/arch/manual/gaussian/G16_A03/g16/l1.exe PID=     44048.
  
 Copyright (c) 1988,1990,1992,1993,1995,1998,2003,2009,2016,
            Gaussian, Inc.  All Rights Reserved.
  
 This is part of the Gaussian(R) 16 program.  It is based on
 the Gaussian(R) 09 system (copyright 2009, Gaussian, Inc.),
 the Gaussian(R) 03 system (copyright 2003, Gaussian, Inc.),
 the Gaussian(R) 98 system (copyright 1998, Gaussian, Inc.),
 the Gaussian(R) 94 system (copyright 1995, Gaussian, Inc.),
 the Gaussian 92(TM) system (copyright 1992, Gaussian, Inc.),
 the Gaussian 90(TM) system (copyright 1990, Gaussian, Inc.),
 the Gaussian 88(TM) system (copyright 1988, Gaussian, Inc.),
 the Gaussian 86(TM) system (copyright 1986, Carnegie Mellon
 University), and the Gaussian 82(TM) system (copyright 1983,
 Carnegie Mellon University). Gaussian is a federally registered
 trademark of Gaussian, Inc.
  
 This software contains proprietary and confidential information,
 including trade secrets, belonging to Gaussian, Inc.
  
 This software is provided under written license and may be
 used, copied, transmitted, or stored only in accord with that
 written license.
  
 The following legend is applicable only to US Government
 contracts under FAR:
  
                    RESTRICTED RIGHTS LEGEND
  
 Use, reproduction and disclosure by the US Government is
 subject to restrictions as set forth in subparagraphs (a)
 and (c) of the Commercial Computer Software - Restricted
 Rights clause in FAR 52.227-19.
  
 Gaussian, Inc.
 340 Quinnipiac St., Bldg. 40, Wallingford CT 06492
  
  
 ---------------------------------------------------------------
 Warning -- This program may not be used in any manner that
 competes with the business of Gaussian, Inc. or will provide
 assistance to any competitor of Gaussian, Inc.  The licensee
 of this program is prohibited from giving any competitor of
 Gaussian, Inc. access to this program.  By using this program,
 the user acknowledges that Gaussian, Inc. is engaged in the
 business of creating and licensing software in the field of
 computational chemistry and represents and warrants to the
 licensee that it is not a competitor of Gaussian, Inc. and that
 it will not use this program in any manner prohibited above.
 ---------------------------------------------------------------
  

 Cite this work as:
 Gaussian 16, Revision A.03,
 M. J. Frisch, G. W. Trucks, H. B. Schlegel, G. E. Scuseria, 
 M. A. Robb, J. R. Cheeseman, G. Scalmani, V. Barone, 
 G. A. Petersson, H. Nakatsuji, X. Li, M. Caricato, A. V. Marenich, 
 J. Bloino, B. G. Janesko, R. Gomperts, B. Mennucci, H. P. Hratchian, 
 J. V. Ortiz, A. F. Izmaylov, J. L. Sonnenberg, D. Williams-Young, 
 F. Ding, F. Lipparini, F. Egidi, J. Goings, B. Peng, A. Petrone, 
 T. Henderson, D. Ranasinghe, V. G. Zakrzewski, J. Gao, N. Rega, 
 G. Zheng, W. Liang, M. Hada, M. Ehara, K. Toyota, R. Fukuda, 
 J. Hasegawa, M. Ishida, T. Nakajima, Y. Honda, O. Kitao, H. Nakai, 
 T. Vreven, K. Throssell, J. A. Montgomery, Jr., J. E. Peralta, 
 F. Ogliaro, M. J. Bearpark, J. J. Heyd, E. N. Brothers, K. N. Kudin, 
 V. N. Staroverov, T. A. Keith, R. Kobayashi, J. Normand, 
 K. Raghavachari, A. P. Rendell, J. C. Burant, S. S. Iyengar, 
 J. Tomasi, M. Cossi, J. M. Millam, M. Klene, C. Adamo, R. Cammi, 
 J. W. Ochterski, R. L. Martin, K. Morokuma, O. Farkas, 
 J. B. Foresman, and D. J. Fox, Gaussian, Inc., Wallingford CT, 2016.
 
 ******************************************
 Gaussian 16:  EM64L-G16RevA.03 25-Dec-2016
                11-Jul-2024 
 ******************************************
 %nprocshared=4
 Will use up to    4 processors via shared memory.
 %mem=8GB
 %Chk=QOHMWDJIBGVPIF-UHFFFAOYSA-N_conf_4_0.chk
 -------------------------------------------------------
 # opt=CalcFc B3LYP/6-31G** SCRF=(Solvent=water) scf=xqc
 -------------------------------------------------------
 1/10=4,18=20,19=15,26=3,38=1/1,3;
 2/9=110,12=2,17=6,18=5,40=1/2;
 3/5=1,6=6,7=101,11=2,25=1,30=1,70=2201,71=2,72=1,74=-5,140=1/1,2,3;
 4//1;
 5/5=2,8=3,13=1,38=5,53=1/2,8;
 8/6=4,10=90,11=11/1;
 11/6=1,8=1,9=11,15=111,16=1/1,2,10;
 10/6=1,13=1/2;
 6/7=2,8=2,9=2,10=2,28=1/1;
 7/10=1,18=20,25=1/1,2,3,16;
 1/10=4,18=20,19=15,26=3/3(2);
 2/9=110/2;
 99//99;
 2/9=110/2;
 3/5=1,6=6,7=101,11=2,25=1,30=1,70=2205,71=1,72=1,74=-5/1,2,3;
 4/5=5,16=3,69=1/1;
 5/5=2,8=3,13=1,38=5,53=1/2,8;
 7//1,2,3,16;
 1/18=20,19=15,26=3/3(-5);
 2/9=110/2;
 6/7=2,8=2,9=2,10=2,19=2,28=1/1;
 99/9=1/99;
 ----------------------------------
 QOHMWDJIBGVPIF-UHFFFAOYSA-N_conf_4
 ----------------------------------
 Symbolic Z-matrix:
 Charge =  0 Multiplicity = 1
 N                     3.50971   0.86328  -0.00353 
 C                     2.87973  -0.44564   0.12469 
 C                     1.42512  -0.4524   -0.35519 
 C                     0.49178   0.36498   0.5511 
 N                    -0.94078   0.36329   0.19318 
 C                    -1.16587   1.05587  -1.08823 
 C                    -2.61221   1.50477  -1.27369 
 C                    -1.56917  -0.96705   0.21613 
 C                    -1.44352  -1.68871   1.55526 
 H                     3.07813   1.52709   0.63803 
 H                     4.48663   0.79639   0.28142 
 H                     3.44996  -1.15987  -0.47964 
 H                     2.93885  -0.78298   1.16542 
 H                     1.09436  -1.49688  -0.38311 
 H                     1.38273  -0.07936  -1.38543 
 H                     0.60219   0.02335   1.58734 
 H                     0.83018   1.40864   0.57784 
 H                    -0.8631    0.43232  -1.93814 
 H                    -0.5518    1.96477  -1.12523 
 H                    -3.29088   0.65859  -1.41386 
 H                    -2.6931    2.13805  -2.16359 
 H                    -2.95728   2.09006  -0.41488 
 H                    -1.17568  -1.60852  -0.58128 
 H                    -2.64352  -0.86246   0.02914 
 H                    -0.4136   -1.99681   1.75878 
 H                    -1.7899   -1.05612   2.37922 
 H                    -2.05896  -2.59464   1.54822 
 

 GradGradGradGradGradGradGradGradGradGradGradGradGradGradGradGradGradGrad
 Berny optimization.
 Initialization pass.
                           ----------------------------
                           !    Initial Parameters    !
                           ! (Angstroms and Degrees)  !
 --------------------------                            --------------------------
 ! Name  Definition              Value          Derivative Info.                !
 --------------------------------------------------------------------------------
 ! R1    R(1,2)                  1.4583         calculate D2E/DX2 analytically  !
 ! R2    R(1,10)                 1.0191         calculate D2E/DX2 analytically  !
 ! R3    R(1,11)                 1.0198         calculate D2E/DX2 analytically  !
 ! R4    R(2,3)                  1.5317         calculate D2E/DX2 analytically  !
 ! R5    R(2,12)                 1.0957         calculate D2E/DX2 analytically  !
 ! R6    R(2,13)                 1.0956         calculate D2E/DX2 analytically  !
 ! R7    R(3,4)                  1.5364         calculate D2E/DX2 analytically  !
 ! R8    R(3,14)                 1.096          calculate D2E/DX2 analytically  !
 ! R9    R(3,15)                 1.0965         calculate D2E/DX2 analytically  !
 ! R10   R(4,5)                  1.4766         calculate D2E/DX2 analytically  !
 ! R11   R(4,16)                 1.0967         calculate D2E/DX2 analytically  !
 ! R12   R(4,17)                 1.0975         calculate D2E/DX2 analytically  !
 ! R13   R(5,6)                  1.4739         calculate D2E/DX2 analytically  !
 ! R14   R(5,8)                  1.4715         calculate D2E/DX2 analytically  !
 ! R15   R(6,7)                  1.5257         calculate D2E/DX2 analytically  !
 ! R16   R(6,18)                 1.0967         calculate D2E/DX2 analytically  !
 ! R17   R(6,19)                 1.0975         calculate D2E/DX2 analytically  !
 ! R18   R(7,20)                 1.0937         calculate D2E/DX2 analytically  !
 ! R19   R(7,21)                 1.0952         calculate D2E/DX2 analytically  !
 ! R20   R(7,22)                 1.0951         calculate D2E/DX2 analytically  !
 ! R21   R(8,9)                  1.5264         calculate D2E/DX2 analytically  !
 ! R22   R(8,23)                 1.0964         calculate D2E/DX2 analytically  !
 ! R23   R(8,24)                 1.0955         calculate D2E/DX2 analytically  !
 ! R24   R(9,25)                 1.0941         calculate D2E/DX2 analytically  !
 ! R25   R(9,26)                 1.095          calculate D2E/DX2 analytically  !
 ! R26   R(9,27)                 1.0952         calculate D2E/DX2 analytically  !
 ! A1    A(2,1,10)             110.2646         calculate D2E/DX2 analytically  !
 ! A2    A(2,1,11)             109.2927         calculate D2E/DX2 analytically  !
 ! A3    A(10,1,11)            105.8135         calculate D2E/DX2 analytically  !
 ! A4    A(1,2,3)              112.7472         calculate D2E/DX2 analytically  !
 ! A5    A(1,2,12)             108.1659         calculate D2E/DX2 analytically  !
 ! A6    A(1,2,13)             109.6682         calculate D2E/DX2 analytically  !
 ! A7    A(3,2,12)             108.5754         calculate D2E/DX2 analytically  !
 ! A8    A(3,2,13)             110.333          calculate D2E/DX2 analytically  !
 ! A9    A(12,2,13)            107.1653         calculate D2E/DX2 analytically  !
 ! A10   A(2,3,4)              112.9379         calculate D2E/DX2 analytically  !
 ! A11   A(2,3,14)             107.385          calculate D2E/DX2 analytically  !
 ! A12   A(2,3,15)             109.2422         calculate D2E/DX2 analytically  !
 ! A13   A(4,3,14)             109.7983         calculate D2E/DX2 analytically  !
 ! A14   A(4,3,15)             110.4716         calculate D2E/DX2 analytically  !
 ! A15   A(14,3,15)            106.7758         calculate D2E/DX2 analytically  !
 ! A16   A(3,4,5)              116.4721         calculate D2E/DX2 analytically  !
 ! A17   A(3,4,16)             109.2979         calculate D2E/DX2 analytically  !
 ! A18   A(3,4,17)             109.4493         calculate D2E/DX2 analytically  !
 ! A19   A(5,4,16)             109.0478         calculate D2E/DX2 analytically  !
 ! A20   A(5,4,17)             107.8272         calculate D2E/DX2 analytically  !
 ! A21   A(16,4,17)            104.0151         calculate D2E/DX2 analytically  !
 ! A22   A(4,5,6)              111.0002         calculate D2E/DX2 analytically  !
 ! A23   A(4,5,8)              114.3032         calculate D2E/DX2 analytically  !
 ! A24   A(6,5,8)              111.9119         calculate D2E/DX2 analytically  !
 ! A25   A(5,6,7)              112.8743         calculate D2E/DX2 analytically  !
 ! A26   A(5,6,18)             111.3717         calculate D2E/DX2 analytically  !
 ! A27   A(5,6,19)             109.4515         calculate D2E/DX2 analytically  !
 ! A28   A(7,6,18)             109.5595         calculate D2E/DX2 analytically  !
 ! A29   A(7,6,19)             106.4183         calculate D2E/DX2 analytically  !
 ! A30   A(18,6,19)            106.8729         calculate D2E/DX2 analytically  !
 ! A31   A(6,7,20)             112.0971         calculate D2E/DX2 analytically  !
 ! A32   A(6,7,21)             109.8105         calculate D2E/DX2 analytically  !
 ! A33   A(6,7,22)             111.1397         calculate D2E/DX2 analytically  !
 ! A34   A(20,7,21)            107.3001         calculate D2E/DX2 analytically  !
 ! A35   A(20,7,22)            108.5711         calculate D2E/DX2 analytically  !
 ! A36   A(21,7,22)            107.7525         calculate D2E/DX2 analytically  !
 ! A37   A(5,8,9)              113.9525         calculate D2E/DX2 analytically  !
 ! A38   A(5,8,23)             111.3666         calculate D2E/DX2 analytically  !
 ! A39   A(5,8,24)             109.2577         calculate D2E/DX2 analytically  !
 ! A40   A(9,8,23)             109.3843         calculate D2E/DX2 analytically  !
 ! A41   A(9,8,24)             105.9988         calculate D2E/DX2 analytically  !
 ! A42   A(23,8,24)            106.4795         calculate D2E/DX2 analytically  !
 ! A43   A(8,9,25)             111.9514         calculate D2E/DX2 analytically  !
 ! A44   A(8,9,26)             111.1604         calculate D2E/DX2 analytically  !
 ! A45   A(8,9,27)             109.8268         calculate D2E/DX2 analytically  !
 ! A46   A(25,9,26)            108.6917         calculate D2E/DX2 analytically  !
 ! A47   A(25,9,27)            107.2916         calculate D2E/DX2 analytically  !
 ! A48   A(26,9,27)            107.754          calculate D2E/DX2 analytically  !
 ! D1    D(10,1,2,3)            67.1466         calculate D2E/DX2 analytically  !
 ! D2    D(10,1,2,12)         -172.7797         calculate D2E/DX2 analytically  !
 ! D3    D(10,1,2,13)          -56.2195         calculate D2E/DX2 analytically  !
 ! D4    D(11,1,2,3)          -176.9399         calculate D2E/DX2 analytically  !
 ! D5    D(11,1,2,12)          -56.8661         calculate D2E/DX2 analytically  !
 ! D6    D(11,1,2,13)           59.694          calculate D2E/DX2 analytically  !
 ! D7    D(1,2,3,4)            -68.308          calculate D2E/DX2 analytically  !
 ! D8    D(1,2,3,14)           170.5007         calculate D2E/DX2 analytically  !
 ! D9    D(1,2,3,15)            55.0567         calculate D2E/DX2 analytically  !
 ! D10   D(12,2,3,4)           171.8541         calculate D2E/DX2 analytically  !
 ! D11   D(12,2,3,14)           50.6628         calculate D2E/DX2 analytically  !
 ! D12   D(12,2,3,15)          -64.7811         calculate D2E/DX2 analytically  !
 ! D13   D(13,2,3,4)            54.6881         calculate D2E/DX2 analytically  !
 ! D14   D(13,2,3,14)          -66.5032         calculate D2E/DX2 analytically  !
 ! D15   D(13,2,3,15)          178.0528         calculate D2E/DX2 analytically  !
 ! D16   D(2,3,4,5)           -177.4331         calculate D2E/DX2 analytically  !
 ! D17   D(2,3,4,16)           -53.3321         calculate D2E/DX2 analytically  !
 ! D18   D(2,3,4,17)            59.982          calculate D2E/DX2 analytically  !
 ! D19   D(14,3,4,5)           -57.62           calculate D2E/DX2 analytically  !
 ! D20   D(14,3,4,16)           66.4811         calculate D2E/DX2 analytically  !
 ! D21   D(14,3,4,17)          179.7951         calculate D2E/DX2 analytically  !
 ! D22   D(15,3,4,5)            59.8852         calculate D2E/DX2 analytically  !
 ! D23   D(15,3,4,16)         -176.0137         calculate D2E/DX2 analytically  !
 ! D24   D(15,3,4,17)          -62.6996         calculate D2E/DX2 analytically  !
 ! D25   D(3,4,5,6)            -66.7547         calculate D2E/DX2 analytically  !
 ! D26   D(3,4,5,8)             60.9759         calculate D2E/DX2 analytically  !
 ! D27   D(16,4,5,6)           169.0162         calculate D2E/DX2 analytically  !
 ! D28   D(16,4,5,8)           -63.2533         calculate D2E/DX2 analytically  !
 ! D29   D(17,4,5,6)            56.6725         calculate D2E/DX2 analytically  !
 ! D30   D(17,4,5,8)          -175.597          calculate D2E/DX2 analytically  !
 ! D31   D(4,5,6,7)           -160.243          calculate D2E/DX2 analytically  !
 ! D32   D(4,5,6,18)            76.0265         calculate D2E/DX2 analytically  !
 ! D33   D(4,5,6,19)           -41.9268         calculate D2E/DX2 analytically  !
 ! D34   D(8,5,6,7)             70.7378         calculate D2E/DX2 analytically  !
 ! D35   D(8,5,6,18)           -52.9927         calculate D2E/DX2 analytically  !
 ! D36   D(8,5,6,19)          -170.946          calculate D2E/DX2 analytically  !
 ! D37   D(4,5,8,9)             56.5522         calculate D2E/DX2 analytically  !
 ! D38   D(4,5,8,23)           -67.7654         calculate D2E/DX2 analytically  !
 ! D39   D(4,5,8,24)           174.8898         calculate D2E/DX2 analytically  !
 ! D40   D(6,5,8,9)           -176.1844         calculate D2E/DX2 analytically  !
 ! D41   D(6,5,8,23)            59.4981         calculate D2E/DX2 analytically  !
 ! D42   D(6,5,8,24)           -57.8467         calculate D2E/DX2 analytically  !
 ! D43   D(5,6,7,20)           -69.1691         calculate D2E/DX2 analytically  !
 ! D44   D(5,6,7,21)           171.6615         calculate D2E/DX2 analytically  !
 ! D45   D(5,6,7,22)            52.5338         calculate D2E/DX2 analytically  !
 ! D46   D(18,6,7,20)           55.5556         calculate D2E/DX2 analytically  !
 ! D47   D(18,6,7,21)          -63.6138         calculate D2E/DX2 analytically  !
 ! D48   D(18,6,7,22)          177.2585         calculate D2E/DX2 analytically  !
 ! D49   D(19,6,7,20)          170.7574         calculate D2E/DX2 analytically  !
 ! D50   D(19,6,7,21)           51.588          calculate D2E/DX2 analytically  !
 ! D51   D(19,6,7,22)          -67.5397         calculate D2E/DX2 analytically  !
 ! D52   D(5,8,9,25)           -69.5417         calculate D2E/DX2 analytically  !
 ! D53   D(5,8,9,26)            52.2286         calculate D2E/DX2 analytically  !
 ! D54   D(5,8,9,27)           171.3817         calculate D2E/DX2 analytically  !
 ! D55   D(23,8,9,25)           55.8334         calculate D2E/DX2 analytically  !
 ! D56   D(23,8,9,26)          177.6037         calculate D2E/DX2 analytically  !
 ! D57   D(23,8,9,27)          -63.2432         calculate D2E/DX2 analytically  !
 ! D58   D(24,8,9,25)          170.2721         calculate D2E/DX2 analytically  !
 ! D59   D(24,8,9,26)          -67.9576         calculate D2E/DX2 analytically  !
 ! D60   D(24,8,9,27)           51.1954         calculate D2E/DX2 analytically  !
 --------------------------------------------------------------------------------
 Trust Radius=3.00D-01 FncErr=1.00D-07 GrdErr=1.00D-06 EigMax=2.50D+02 EigMin=1.00D-04
 Number of steps in this run=    144 maximum allowed number of steps=    162.
 GradGradGradGradGradGradGradGradGradGradGradGradGradGradGradGradGradGrad

                          Input orientation:                          
 ---------------------------------------------------------------------
 Center     Atomic      Atomic             Coordinates (Angstroms)
 Number     Number       Type             X           Y           Z
 ---------------------------------------------------------------------
      1          7           0        3.509713    0.863276   -0.003530
      2          6           0        2.879733   -0.445638    0.124694
      3          6           0        1.425117   -0.452403   -0.355191
      4          6           0        0.491779    0.364983    0.551104
      5          7           0       -0.940782    0.363292    0.193176
      6          6           0       -1.165873    1.055874   -1.088228
      7          6           0       -2.612206    1.504768   -1.273686
      8          6           0       -1.569170   -0.967052    0.216131
      9          6           0       -1.443519   -1.688714    1.555262
     10          1           0        3.078126    1.527088    0.638031
     11          1           0        4.486627    0.796394    0.281418
     12          1           0        3.449962   -1.159869   -0.479636
     13          1           0        2.938853   -0.782981    1.165420
     14          1           0        1.094360   -1.496883   -0.383110
     15          1           0        1.382731   -0.079359   -1.385431
     16          1           0        0.602186    0.023350    1.587345
     17          1           0        0.830184    1.408637    0.577841
     18          1           0       -0.863098    0.432320   -1.938142
     19          1           0       -0.551801    1.964773   -1.125231
     20          1           0       -3.290878    0.658589   -1.413862
     21          1           0       -2.693101    2.138051   -2.163594
     22          1           0       -2.957280    2.090059   -0.414876
     23          1           0       -1.175680   -1.608523   -0.581279
     24          1           0       -2.643515   -0.862455    0.029144
     25          1           0       -0.413604   -1.996809    1.758782
     26          1           0       -1.789902   -1.056122    2.379223
     27          1           0       -2.058965   -2.594644    1.548225
 ---------------------------------------------------------------------
                    Distance matrix (angstroms):
                    1          2          3          4          5
     1  N    0.000000
     2  C    1.458277   0.000000
     3  C    2.490023   1.531745   0.000000
     4  C    3.108672   2.557588   1.536427   0.000000
     5  N    4.482810   3.905816   2.561941   1.476600   0.000000
     6  C    4.803620   4.482482   3.086336   2.431574   1.473884
     7  C    6.285118   5.993409   4.579753   3.776731   2.499663
     8  C    5.403092   4.480287   3.091444   2.476698   1.471467
     9  C    5.785931   4.720410   3.661607   2.995227   2.513712
    10  H    1.019075   2.048053   2.763568   2.836765   4.207605
    11  H    1.019818   2.036986   3.367136   4.027115   5.445377
    12  H    2.079269   1.095673   2.148486   3.484027   4.695884
    13  H    2.098210   1.095631   2.170930   2.771890   4.160621
    14  H    3.398288   2.133199   1.095956   2.168503   2.816765
    15  H    2.705968   2.157696   1.096519   2.177476   2.843704
    16  H    3.419075   2.747093   2.162637   1.096676   2.107134
    17  H    2.795583   2.800773   2.165170   1.097472   2.092136
    18  H    4.801034   4.362899   2.919657   2.834885   2.133850
    19  H    4.355159   4.375822   3.216194   2.541356   2.110508
    20  H    6.948307   6.454682   4.959405   4.272680   2.862293
    21  H    6.690728   6.555013   5.190424   4.544977   3.431437
    22  H    6.595165   6.386832   5.066861   3.975552   2.723548
    23  H    5.328836   4.277508   2.855149   2.820893   2.131435
    24  H    6.390731   5.539778   4.107265   3.407216   2.104439
    25  H    5.165099   3.990295   3.199214   2.802903   2.880818
    26  H    6.119438   5.221215   4.263548   3.250789   2.741266
    27  H    6.736121   5.570943   4.511210   4.032361   3.440331
                    6          7          8          9         10
     6  C    0.000000
     7  C    1.525707   0.000000
     8  C    2.440539   3.068774   0.000000
     9  C    3.820718   4.423472   1.526386   0.000000
    10  H    4.605816   6.002920   5.291133   5.623875   0.000000
    11  H    5.821857   7.301615   6.307668   6.554774   1.626334
    12  H    5.156145   6.669384   5.070794   5.326034   2.933799
    13  H    5.030815   6.480532   4.610565   4.491939   2.373595
    14  H    3.481726   4.851976   2.781044   3.199205   3.757986
    15  H    2.805791   4.299008   3.473718   4.384677   3.090216
    16  H    3.369099   4.551089   2.752437   2.667789   3.048394
    17  H    2.623828   3.909916   3.395825   3.964676   2.251865
    18  H    1.096743   2.156624   2.664146   4.127898   4.834091
    19  H    1.097520   2.116344   3.380812   4.618243   4.059191
    20  H    2.186211   1.093739   2.874694   4.211681   6.747501
    21  H    2.158691   1.095229   4.070378   5.480463   6.444335
    22  H    2.175335   1.095078   3.416276   4.522393   6.152372
    23  H    2.712214   3.497945   1.096441   2.154757   5.423434
    24  H    2.666821   2.702238   1.095501   2.109913   6.230397
    25  H    4.241491   5.127451   2.185292   1.094106   5.085874
    26  H    4.107695   4.536308   2.176148   1.095018   5.779482
    27  H    4.590728   5.007438   2.159497   1.095232   6.648821
                   11         12         13         14         15
    11  H    0.000000
    12  H    2.341120   0.000000
    13  H    2.381488   1.763374   0.000000
    14  H    4.148276   2.381545   2.511923   0.000000
    15  H    3.630358   2.502281   3.069763   1.759881   0.000000
    16  H    4.170362   3.712444   2.507629   2.536934   3.075255
    17  H    3.719178   3.818208   3.097567   3.071687   2.524654
    18  H    5.803323   4.823359   5.056074   3.157783   2.368766
    19  H    5.359993   5.118035   4.998190   3.904312   2.826410
    20  H    7.961316   7.044039   6.894953   4.993878   4.731596
    21  H    7.702378   7.172811   7.164752   5.543260   4.704769
    22  H    7.587499   7.184634   6.746560   5.411372   4.948136
    23  H    6.212052   4.648460   4.545532   2.281407   3.087146
    24  H    7.324913   6.121910   5.697393   3.813682   4.338770
    25  H    5.830682   4.542921   3.614475   2.666756   4.097501
    26  H    6.872220   5.969925   4.889688   4.017925   5.019192
    27  H    7.479887   6.043101   5.329808   3.857278   5.174772
                   16         17         18         19         20
    16  H    0.000000
    17  H    1.729191   0.000000
    18  H    3.839709   3.185996   0.000000
    19  H    3.529714   2.262659   1.762425   0.000000
    20  H    4.956482   4.638168   2.494029   3.048273   0.000000
    21  H    5.422215   4.523389   2.511824   2.386083   1.763021
    22  H    4.577113   3.974255   3.074741   2.511301   1.777180
    23  H    3.244494   3.803985   2.470592   3.667909   3.210460
    24  H    3.707724   4.186349   2.952379   3.701496   2.194292
    25  H    2.267656   3.812964   4.446343   4.902118   5.039396
    26  H    2.741243   4.023041   4.659835   4.789561   4.425003
    27  H    3.733248   5.031409   4.769420   5.496107   4.568927
                   21         22         23         24         25
    21  H    0.000000
    22  H    1.769212   0.000000
    23  H    4.340864   4.108685   0.000000
    24  H    3.716664   3.002156   1.756068   0.000000
    25  H    6.138258   5.281814   2.491468   3.041531   0.000000
    26  H    5.626339   4.366716   3.073595   2.507795   1.778773
    27  H    6.047986   5.158214   2.507472   2.376928   1.763222
                   26         27
    26  H    0.000000
    27  H    1.769181   0.000000
 Stoichiometry    C7H18N2
 Framework group  C1[X(C7H18N2)]
 Deg. of freedom    75
 Full point group                 C1      NOp   1
 Largest Abelian subgroup         C1      NOp   1
 Largest concise Abelian subgroup C1      NOp   1
                         Standard orientation:                         
 ---------------------------------------------------------------------
 Center     Atomic      Atomic             Coordinates (Angstroms)
 Number     Number       Type             X           Y           Z
 ---------------------------------------------------------------------
      1          7           0        3.404469   -0.881336   -0.300175
      2          6           0        2.817242    0.279651    0.358495
      3          6           0        1.327186    0.097193    0.662941
      4          6           0        0.457450    0.060556   -0.603086
      5          7           0       -1.000238   -0.053853   -0.397164
      6          6           0       -1.350345   -1.361662    0.185409
      7          6           0       -2.816934   -1.728816   -0.019769
      8          6           0       -1.594477    1.060492    0.358038
      9          6           0       -1.337790    2.433208   -0.258093
     10          1           0        3.015095   -0.990968   -1.235527
     11          1           0        4.403558   -0.724618   -0.431668
     12          1           0        3.349041    0.442090    1.302583
     13          1           0        2.973366    1.171680   -0.258203
     14          1           0        1.018634    0.932966    1.301219
     15          1           0        1.187837   -0.818030    1.250566
     16          1           0        0.664366    0.949692   -1.210802
     17          1           0        0.773536   -0.775810   -1.239504
     18          1           0       -1.108130   -1.400759    1.254356
     19          1           0       -0.762176   -2.148798   -0.303493
     20          1           0       -3.486119   -1.093924    0.567912
     21          1           0       -2.988347   -2.763291    0.296468
     22          1           0       -3.099659   -1.651000   -1.074855
     23          1           0       -1.256981    1.060967    1.401245
     24          1           0       -2.683007    0.939784    0.383630
     25          1           0       -0.287550    2.728614   -0.175641
     26          1           0       -1.625879    2.452513   -1.314358
     27          1           0       -1.931190    3.191496    0.263834
 ---------------------------------------------------------------------
 Rotational constants (GHZ):           2.1116641           0.8432869           0.6565289
 Standard basis: 6-31G(d,p) (6D, 7F)
 There are   225 symmetry adapted cartesian basis functions of A   symmetry.
 There are   225 symmetry adapted basis functions of A   symmetry.
   225 basis functions,   378 primitive gaussians,   225 cartesian basis functions
    37 alpha electrons       37 beta electrons
       nuclear repulsion energy       493.9039389883 Hartrees.
 NAtoms=   27 NActive=   27 NUniq=   27 SFac= 1.00D+00 NAtFMM=   60 NAOKFM=F Big=F
 Integral buffers will be    131072 words long.
 Raffenetti 2 integral format.
 Two-electron integral symmetry is turned on.
 Force inversion solution in PCM.
 ------------------------------------------------------------------------------
 Polarizable Continuum Model (PCM)
 =================================
 Model                : PCM.
 Atomic radii         : UFF (Universal Force Field).
 Polarization charges : Total charges.
 Charge compensation  : None.
 Solution method      : Matrix inversion.
 Cavity type          : Scaled VdW (van der Waals Surface) (Alpha=1.100).
 Cavity algorithm     : GePol (No added spheres)
                        Default sphere list used, NSphG=   27.
                        Lebedev-Laikov grids with approx.  5.0 points / Ang**2.
                        Smoothing algorithm: York/Karplus (Gamma=1.0000).
                        Polarization charges: spherical gaussians, with
                                              point-specific exponents (IZeta= 3).
                        Self-potential: point-specific (ISelfS= 7).
                        Self-field    : sphere-specific E.n sum rule (ISelfD= 2).
 1st derivatives      : Analytical E(r).r(x)/FMM algorithm (CHGder, D1EAlg=3).
                        Cavity 1st derivative terms included.
 2nd derivatives      : Analytical E(r).r(xy)/FMM algorithm (CHGder, D2EAlg=3).
                        Cavity 2nd derivative terms included.
 Solvent              : Water, Eps=  78.355300 Eps(inf)=   1.777849
 ------------------------------------------------------------------------------
 One-electron integrals computed using PRISM.
 NBasis=   225 RedAO= T EigKep=  3.49D-03  NBF=   225
 NBsUse=   225 1.00D-06 EigRej= -1.00D+00 NBFU=   225
 ExpMin= 1.61D-01 ExpMax= 4.17D+03 ExpMxC= 6.27D+02 IAcc=3 IRadAn=         5 AccDes= 0.00D+00
 Harris functional with IExCor=  402 and IRadAn=       5 diagonalized for initial guess.
 HarFok:  IExCor=  402 AccDes= 0.00D+00 IRadAn=         5 IDoV= 1 UseB2=F ITyADJ=14
 ICtDFT=  3500011 ScaDFX=  1.000000  1.000000  1.000000  1.000000
 FoFCou: FMM=F IPFlag=           0 FMFlag=      100000 FMFlg1=           0
         NFxFlg=           0 DoJE=T BraDBF=F KetDBF=T FulRan=T
         wScrn=  0.000000 ICntrl=       500 IOpCl=  0 I1Cent=   200000004 NGrid=           0
         NMat0=    1 NMatS0=      1 NMatT0=    0 NMatD0=    1 NMtDS0=    0 NMtDT0=    0
 Petite list used in FoFCou.
 Keep R1 ints in memory in canonical form, NReq=329001147.
 Requested convergence on RMS density matrix=1.00D-08 within  32 cycles.
 Requested convergence on MAX density matrix=1.00D-06.
 Requested convergence on             energy=1.00D-06.
 No special actions if energy rises.
 Inv3:  Mode=1 IEnd=     9590832.
 Iteration    1 A*A^-1 deviation from unit magnitude is 6.22D-15 for   1217.
 Iteration    1 A*A^-1 deviation from orthogonality  is 4.11D-15 for   1679    310.
 Iteration    1 A^-1*A deviation from unit magnitude is 6.11D-15 for    221.
 Iteration    1 A^-1*A deviation from orthogonality  is 3.41D-15 for   1592    474.
 Error on total polarization charges =  0.01000
 SCF Done:  E(RB3LYP) =  -387.098423669     A.U. after   11 cycles
            NFock= 11  Conv=0.43D-08     -V/T= 2.0098
 QCSCF skips out because SCF is already converged.
 DoSCS=F DFT=T ScalE2(SS,OS)=  1.000000  1.000000
 Range of M.O.s used for correlation:     1   225
 NBasis=   225 NAE=    37 NBE=    37 NFC=     0 NFV=     0
 NROrb=    225 NOA=    37 NOB=    37 NVA=   188 NVB=   188
 Symmetrizing basis deriv contribution to polar:
 IMax=3 JMax=2 DiffMx= 0.00D+00
 G2DrvN: will do    28 centers at a time, making    1 passes.
 Calling FoFCou, ICntrl=  3107 FMM=F I1Cent=   0 AccDes= 0.00D+00.
 NEqPCM:  Using equilibrium solvation (IEInf=0, Eps=  78.3553, EpsInf=   1.7778)
 G2PCM: DoFxE=T DoFxN=T DoGrad=T DoDP/DQ/DG/TGxP=FFFF NFrqRd=   0 IEInf=0 SqF1=F DoCFld=F IF1Alg=4.
 End of G2Drv F.D. properties file   721 does not exist.
 End of G2Drv F.D. properties file   722 does not exist.
 End of G2Drv F.D. properties file   788 does not exist.
          IDoAtm=111111111111111111111111111
 NEqPCM:  Using equilibrium solvation (IEInf=0, Eps=  78.3553, EpsInf=   1.7778)
          Differentiating once with respect to nuclear coordinates.
 Keep R1 ints in memory in canonical form, NReq=331810358.
          There are    84 degrees of freedom in the 1st order CPHF.  IDoFFX=6 NUNeed=     0.
     78 vectors produced by pass  0 Test12= 8.28D-15 1.19D-09 XBig12= 8.38D-02 7.74D-02.
 AX will form    78 AO Fock derivatives at one time.
     78 vectors produced by pass  1 Test12= 8.28D-15 1.19D-09 XBig12= 5.92D-03 1.19D-02.
     78 vectors produced by pass  2 Test12= 8.28D-15 1.19D-09 XBig12= 4.52D-05 1.11D-03.
     78 vectors produced by pass  3 Test12= 8.28D-15 1.19D-09 XBig12= 1.16D-07 3.83D-05.
     78 vectors produced by pass  4 Test12= 8.28D-15 1.19D-09 XBig12= 9.88D-11 1.05D-06.
     31 vectors produced by pass  5 Test12= 8.28D-15 1.19D-09 XBig12= 5.06D-14 2.17D-08.
 InvSVY:  IOpt=1 It=  1 EMax= 6.66D-16
 Solved reduced A of dimension   421 with    84 vectors.
 End of Minotr F.D. properties file   721 does not exist.
 End of Minotr F.D. properties file   722 does not exist.
 End of Minotr F.D. properties file   788 does not exist.

 **********************************************************************

            Population analysis using the SCF density.

 **********************************************************************

 Orbital symmetries:
       Occupied  (A) (A) (A) (A) (A) (A) (A) (A) (A) (A) (A) (A)
                 (A) (A) (A) (A) (A) (A) (A) (A) (A) (A) (A) (A)
                 (A) (A) (A) (A) (A) (A) (A) (A) (A) (A) (A) (A)
                 (A)
       Virtual   (A) (A) (A) (A) (A) (A) (A) (A) (A) (A) (A) (A)
                 (A) (A) (A) (A) (A) (A) (A) (A) (A) (A) (A) (A)
                 (A) (A) (A) (A) (A) (A) (A) (A) (A) (A) (A) (A)
                 (A) (A) (A) (A) (A) (A) (A) (A) (A) (A) (A) (A)
                 (A) (A) (A) (A) (A) (A) (A) (A) (A) (A) (A) (A)
                 (A) (A) (A) (A) (A) (A) (A) (A) (A) (A) (A) (A)
                 (A) (A) (A) (A) (A) (A) (A) (A) (A) (A) (A) (A)
                 (A) (A) (A) (A) (A) (A) (A) (A) (A) (A) (A) (A)
                 (A) (A) (A) (A) (A) (A) (A) (A) (A) (A) (A) (A)
                 (A) (A) (A) (A) (A) (A) (A) (A) (A) (A) (A) (A)
                 (A) (A) (A) (A) (A) (A) (A) (A) (A) (A) (A) (A)
                 (A) (A) (A) (A) (A) (A) (A) (A) (A) (A) (A) (A)
                 (A) (A) (A) (A) (A) (A) (A) (A) (A) (A) (A) (A)
                 (A) (A) (A) (A) (A) (A) (A) (A) (A) (A) (A) (A)
                 (A) (A) (A) (A) (A) (A) (A) (A) (A) (A) (A) (A)
                 (A) (A) (A) (A) (A) (A) (A) (A)
 The electronic state is 1-A.
 Alpha  occ. eigenvalues --  -14.31701 -14.30619 -10.20053 -10.20031 -10.20005
 Alpha  occ. eigenvalues --  -10.19963 -10.17253 -10.17175 -10.16942  -0.90890
 Alpha  occ. eigenvalues --   -0.87469  -0.75881  -0.75438  -0.71308  -0.65335
 Alpha  occ. eigenvalues --   -0.61524  -0.59062  -0.54667  -0.49150  -0.47762
 Alpha  occ. eigenvalues --   -0.46002  -0.45158  -0.45022  -0.42428  -0.41166
 Alpha  occ. eigenvalues --   -0.39249  -0.38047  -0.37007  -0.36184  -0.35497
 Alpha  occ. eigenvalues --   -0.34829  -0.34074  -0.33414  -0.32645  -0.31651
 Alpha  occ. eigenvalues --   -0.23118  -0.20425
 Alpha virt. eigenvalues --    0.07734   0.09855   0.10298   0.12067   0.12472
 Alpha virt. eigenvalues --    0.13690   0.14771   0.15364   0.16019   0.17211
 Alpha virt. eigenvalues --    0.17333   0.18111   0.18431   0.19339   0.20258
 Alpha virt. eigenvalues --    0.20644   0.21777   0.22609   0.23455   0.24784
 Alpha virt. eigenvalues --    0.25326   0.26436   0.27334   0.28083   0.28549
 Alpha virt. eigenvalues --    0.30060   0.49778   0.50038   0.52370   0.53488
 Alpha virt. eigenvalues --    0.54230   0.54467   0.56363   0.57683   0.58499
 Alpha virt. eigenvalues --    0.61198   0.61469   0.64721   0.66028   0.67264
 Alpha virt. eigenvalues --    0.67740   0.69157   0.72199   0.72450   0.75786
 Alpha virt. eigenvalues --    0.78880   0.79715   0.80963   0.83038   0.84165
 Alpha virt. eigenvalues --    0.85751   0.86247   0.87147   0.87715   0.87984
 Alpha virt. eigenvalues --    0.88914   0.89566   0.90233   0.90643   0.93064
 Alpha virt. eigenvalues --    0.94570   0.94863   0.96364   0.96955   0.98251
 Alpha virt. eigenvalues --    0.99329   1.00405   1.01768   1.04186   1.05500
 Alpha virt. eigenvalues --    1.06063   1.15697   1.17992   1.26600   1.28078
 Alpha virt. eigenvalues --    1.29355   1.31375   1.35123   1.40986   1.43401
 Alpha virt. eigenvalues --    1.47352   1.51843   1.54032   1.56333   1.57553
 Alpha virt. eigenvalues --    1.63180   1.66772   1.68012   1.72581   1.73152
 Alpha virt. eigenvalues --    1.74983   1.77167   1.79442   1.81851   1.86302
 Alpha virt. eigenvalues --    1.88326   1.88648   1.89535   1.91712   1.93436
 Alpha virt. eigenvalues --    1.95186   1.98780   2.00385   2.02297   2.04090
 Alpha virt. eigenvalues --    2.05410   2.06060   2.07011   2.07171   2.09077
 Alpha virt. eigenvalues --    2.09240   2.12276   2.12955   2.13483   2.15449
 Alpha virt. eigenvalues --    2.18755   2.20695   2.21566   2.24233   2.27138
 Alpha virt. eigenvalues --    2.27659   2.27850   2.28492   2.30646   2.32675
 Alpha virt. eigenvalues --    2.34661   2.36898   2.37928   2.40082   2.42704
 Alpha virt. eigenvalues --    2.43724   2.49022   2.49699   2.50585   2.52827
 Alpha virt. eigenvalues --    2.56723   2.60620   2.62435   2.65871   2.67085
 Alpha virt. eigenvalues --    2.68147   2.71812   2.73233   2.73652   2.74532
 Alpha virt. eigenvalues --    2.75105   2.78930   2.80647   2.82614   2.85027
 Alpha virt. eigenvalues --    2.85967   2.87982   2.88316   2.90589   2.91821
 Alpha virt. eigenvalues --    2.92485   2.94571   2.95707   2.98042   2.99815
 Alpha virt. eigenvalues --    3.01783   3.19296   3.20703   3.27421   3.30056
 Alpha virt. eigenvalues --    3.30435   3.31822   3.33661   3.36230   3.38621
 Alpha virt. eigenvalues --    3.40551   3.42671   3.47205   3.47913   3.50646
 Alpha virt. eigenvalues --    3.54221   3.55035   3.56942   3.59598   3.96963
 Alpha virt. eigenvalues --    4.11279   4.38073   4.38914   4.39238   4.57911
 Alpha virt. eigenvalues --    4.60470   4.65522   4.72834
          Condensed to atoms (all electrons):
               1          2          3          4          5          6
     1  N    6.814031   0.300653  -0.058871  -0.003939   0.000026  -0.000041
     2  C    0.300653   4.799332   0.357781  -0.030624   0.003517   0.000167
     3  C   -0.058871   0.357781   5.030069   0.348185  -0.053116  -0.007830
     4  C   -0.003939  -0.030624   0.348185   4.830254   0.327310  -0.046463
     5  N    0.000026   0.003517  -0.053116   0.327310   6.907541   0.311044
     6  C   -0.000041   0.000167  -0.007830  -0.046463   0.311044   4.781678
     7  C   -0.000000  -0.000001   0.000038   0.004383  -0.059204   0.374319
     8  C    0.000001   0.000134  -0.006253  -0.049894   0.313414  -0.043598
     9  C   -0.000000  -0.000022  -0.002602  -0.003193  -0.051724   0.005355
    10  H    0.339733  -0.038332  -0.006117   0.004021  -0.000100   0.000015
    11  H    0.340188  -0.033082   0.005757   0.000200   0.000001   0.000000
    12  H   -0.042524   0.384130  -0.027437   0.004058  -0.000121   0.000002
    13  H   -0.055099   0.383512  -0.048313  -0.010966   0.000051   0.000004
    14  H    0.004166  -0.031316   0.374695  -0.038756  -0.004467  -0.000606
    15  H    0.004059  -0.034389   0.370716  -0.040637  -0.002711   0.003414
    16  H   -0.000552  -0.001245  -0.054922   0.384694  -0.039150   0.005840
    17  H    0.003174  -0.003819  -0.051095   0.383775  -0.037423  -0.007672
    18  H   -0.000001  -0.000213   0.005561  -0.003816  -0.050077   0.364618
    19  H    0.000020  -0.000009  -0.002385  -0.004388  -0.038636   0.390025
    20  H   -0.000000  -0.000000  -0.000024   0.000036  -0.002965  -0.031692
    21  H    0.000000  -0.000000   0.000013  -0.000135   0.004020  -0.027657
    22  H   -0.000000   0.000000   0.000030   0.000120   0.004915  -0.033700
    23  H   -0.000001  -0.000327   0.007082  -0.007352  -0.052775  -0.009084
    24  H    0.000000   0.000002  -0.000160   0.005279  -0.043162  -0.003460
    25  H    0.000001  -0.000014  -0.000109   0.001415  -0.003846  -0.000059
    26  H   -0.000000  -0.000004   0.000368  -0.001201   0.004141   0.000010
    27  H   -0.000000  -0.000001   0.000046   0.000126   0.003566  -0.000160
               7          8          9         10         11         12
     1  N   -0.000000   0.000001  -0.000000   0.339733   0.340188  -0.042524
     2  C   -0.000001   0.000134  -0.000022  -0.038332  -0.033082   0.384130
     3  C    0.000038  -0.006253  -0.002602  -0.006117   0.005757  -0.027437
     4  C    0.004383  -0.049894  -0.003193   0.004021   0.000200   0.004058
     5  N   -0.059204   0.313414  -0.051724  -0.000100   0.000001  -0.000121
     6  C    0.374319  -0.043598   0.005355   0.000015   0.000000   0.000002
     7  C    4.970314  -0.003877   0.000104  -0.000000   0.000000  -0.000000
     8  C   -0.003877   4.782282   0.372183   0.000001   0.000000  -0.000006
     9  C    0.000104   0.372183   4.959245   0.000000   0.000000   0.000002
    10  H   -0.000000   0.000001   0.000000   0.479354  -0.031857   0.006617
    11  H    0.000000   0.000000   0.000000  -0.031857   0.475377  -0.005232
    12  H   -0.000000  -0.000006   0.000002   0.006617  -0.005232   0.637930
    13  H    0.000000  -0.000010  -0.000031  -0.005994  -0.003002  -0.047237
    14  H   -0.000020   0.002928  -0.000148  -0.000106  -0.000239  -0.004741
    15  H   -0.000089  -0.000711   0.000087  -0.000433  -0.000087  -0.004650
    16  H   -0.000196  -0.006871   0.004872   0.000054  -0.000036  -0.000115
    17  H    0.000269   0.006293  -0.000016   0.001526  -0.000180  -0.000147
    18  H   -0.051644  -0.011510  -0.000127   0.000000  -0.000000   0.000015
    19  H   -0.037797   0.005369  -0.000223   0.000002   0.000000  -0.000001
    20  H    0.386252   0.000412  -0.000157  -0.000000   0.000000   0.000000
    21  H    0.370514   0.000045  -0.000002   0.000000  -0.000000   0.000000
    22  H    0.374847  -0.000406  -0.000095  -0.000000   0.000000   0.000000
    23  H   -0.001087   0.361931  -0.049092  -0.000000  -0.000000   0.000030
    24  H    0.002599   0.395244  -0.035086  -0.000000  -0.000000  -0.000000
    25  H   -0.000002  -0.032419   0.387459  -0.000001  -0.000000  -0.000012
    26  H   -0.000052  -0.033008   0.375520  -0.000000  -0.000000   0.000000
    27  H    0.000002  -0.026989   0.376151   0.000000  -0.000000   0.000000
              13         14         15         16         17         18
     1  N   -0.055099   0.004166   0.004059  -0.000552   0.003174  -0.000001
     2  C    0.383512  -0.031316  -0.034389  -0.001245  -0.003819  -0.000213
     3  C   -0.048313   0.374695   0.370716  -0.054922  -0.051095   0.005561
     4  C   -0.010966  -0.038756  -0.040637   0.384694   0.383775  -0.003816
     5  N    0.000051  -0.004467  -0.002711  -0.039150  -0.037423  -0.050077
     6  C    0.000004  -0.000606   0.003414   0.005840  -0.007672   0.364618
     7  C    0.000000  -0.000020  -0.000089  -0.000196   0.000269  -0.051644
     8  C   -0.000010   0.002928  -0.000711  -0.006871   0.006293  -0.011510
     9  C   -0.000031  -0.000148   0.000087   0.004872  -0.000016  -0.000127
    10  H   -0.005994  -0.000106  -0.000433   0.000054   0.001526   0.000000
    11  H   -0.003002  -0.000239  -0.000087  -0.000036  -0.000180  -0.000000
    12  H   -0.047237  -0.004741  -0.004650  -0.000115  -0.000147   0.000015
    13  H    0.689347   0.000263   0.006958   0.007058   0.000521  -0.000006
    14  H    0.000263   0.628912  -0.034636  -0.005560   0.005969   0.000420
    15  H    0.006958  -0.034636   0.631653   0.005946  -0.005193   0.000519
    16  H    0.007058  -0.005560   0.005946   0.639424  -0.036925  -0.000440
    17  H    0.000521   0.005969  -0.005193  -0.036925   0.639370  -0.000833
    18  H   -0.000006   0.000420   0.000519  -0.000440  -0.000833   0.696465
    19  H    0.000003   0.000069   0.000971   0.000357   0.006387  -0.046141
    20  H   -0.000000  -0.000001   0.000009   0.000009  -0.000000  -0.006549
    21  H   -0.000000  -0.000000   0.000006   0.000003  -0.000030   0.001837
    22  H   -0.000000   0.000000  -0.000002  -0.000035  -0.000038   0.006591
    23  H   -0.000013   0.001346   0.000199  -0.000860  -0.000303   0.015693
    24  H    0.000000  -0.000055  -0.000021   0.000105  -0.000156  -0.002040
    25  H    0.000196   0.001638  -0.000015   0.000627   0.000026  -0.000021
    26  H   -0.000005  -0.000025  -0.000004  -0.000040  -0.000093   0.000050
    27  H   -0.000000  -0.000062   0.000002  -0.000081  -0.000006   0.000013
              19         20         21         22         23         24
     1  N    0.000020  -0.000000   0.000000  -0.000000  -0.000001   0.000000
     2  C   -0.000009  -0.000000  -0.000000   0.000000  -0.000327   0.000002
     3  C   -0.002385  -0.000024   0.000013   0.000030   0.007082  -0.000160
     4  C   -0.004388   0.000036  -0.000135   0.000120  -0.007352   0.005279
     5  N   -0.038636  -0.002965   0.004020   0.004915  -0.052775  -0.043162
     6  C    0.390025  -0.031692  -0.027657  -0.033700  -0.009084  -0.003460
     7  C   -0.037797   0.386252   0.370514   0.374847  -0.001087   0.002599
     8  C    0.005369   0.000412   0.000045  -0.000406   0.361931   0.395244
     9  C   -0.000223  -0.000157  -0.000002  -0.000095  -0.049092  -0.035086
    10  H    0.000002  -0.000000   0.000000  -0.000000  -0.000000  -0.000000
    11  H    0.000000   0.000000  -0.000000   0.000000  -0.000000  -0.000000
    12  H   -0.000001   0.000000   0.000000   0.000000   0.000030  -0.000000
    13  H    0.000003  -0.000000  -0.000000  -0.000000  -0.000013   0.000000
    14  H    0.000069  -0.000001  -0.000000   0.000000   0.001346  -0.000055
    15  H    0.000971   0.000009   0.000006  -0.000002   0.000199  -0.000021
    16  H    0.000357   0.000009   0.000003  -0.000035  -0.000860   0.000105
    17  H    0.006387  -0.000000  -0.000030  -0.000038  -0.000303  -0.000156
    18  H   -0.046141  -0.006549   0.001837   0.006591   0.015693  -0.002040
    19  H    0.631878   0.005440  -0.005086  -0.005215  -0.000250   0.000135
    20  H    0.005440   0.600163  -0.030098  -0.033112   0.000241   0.002770
    21  H   -0.005086  -0.030098   0.611330  -0.027984   0.000051  -0.000202
    22  H   -0.005215  -0.033112  -0.027984   0.607728   0.000237  -0.000134
    23  H   -0.000250   0.000241   0.000051   0.000237   0.706597  -0.051056
    24  H    0.000135   0.002770  -0.000202  -0.000134  -0.051056   0.630814
    25  H    0.000003   0.000000   0.000000  -0.000000  -0.007595   0.005474
    26  H   -0.000004   0.000011   0.000000   0.000043   0.006826  -0.005880
    27  H    0.000003   0.000010  -0.000000   0.000001   0.000650  -0.004985
              25         26         27
     1  N    0.000001  -0.000000  -0.000000
     2  C   -0.000014  -0.000004  -0.000001
     3  C   -0.000109   0.000368   0.000046
     4  C    0.001415  -0.001201   0.000126
     5  N   -0.003846   0.004141   0.003566
     6  C   -0.000059   0.000010  -0.000160
     7  C   -0.000002  -0.000052   0.000002
     8  C   -0.032419  -0.033008  -0.026989
     9  C    0.387459   0.375520   0.376151
    10  H   -0.000001  -0.000000   0.000000
    11  H   -0.000000  -0.000000  -0.000000
    12  H   -0.000012   0.000000   0.000000
    13  H    0.000196  -0.000005  -0.000000
    14  H    0.001638  -0.000025  -0.000062
    15  H   -0.000015  -0.000004   0.000002
    16  H    0.000627  -0.000040  -0.000081
    17  H    0.000026  -0.000093  -0.000006
    18  H   -0.000021   0.000050   0.000013
    19  H    0.000003  -0.000004   0.000003
    20  H    0.000000   0.000011   0.000010
    21  H    0.000000   0.000000  -0.000000
    22  H   -0.000000   0.000043   0.000001
    23  H   -0.007595   0.006826   0.000650
    24  H    0.005474  -0.005880  -0.004985
    25  H    0.599260  -0.033759  -0.030561
    26  H   -0.033759   0.606056  -0.028442
    27  H   -0.030561  -0.028442   0.603571
 Mulliken charges:
               1
     1  N   -0.645024
     2  C   -0.055831
     3  C   -0.181106
     4  C   -0.052491
     5  N   -0.440071
     6  C   -0.024471
     7  C   -0.329674
     8  C   -0.024687
     9  C   -0.338462
    10  H    0.251618
    11  H    0.252192
    12  H    0.099441
    13  H    0.082763
    14  H    0.100331
    15  H    0.099037
    16  H    0.098040
    17  H    0.096619
    18  H    0.081637
    19  H    0.099475
    20  H    0.109245
    21  H    0.103375
    22  H    0.106208
    23  H    0.078909
    24  H    0.103977
    25  H    0.112314
    26  H    0.109491
    27  H    0.107144
 Sum of Mulliken charges =  -0.00000
 Mulliken charges with hydrogens summed into heavy atoms:
               1
     1  N   -0.141214
     2  C    0.126373
     3  C    0.018262
     4  C    0.142168
     5  N   -0.440071
     6  C    0.156640
     7  C   -0.010846
     8  C    0.158199
     9  C   -0.009513
 APT charges:
               1
     1  N   -1.366130
     2  C   -0.738661
     3  C   -0.562149
     4  C   -0.626391
     5  N   -0.328693
     6  C   -0.519302
     7  C   -1.294278
     8  C   -0.685189
     9  C   -1.151002
    10  H    0.280268
    11  H    0.953199
    12  H    0.519567
    13  H    0.349165
    14  H    0.308768
    15  H    0.292535
    16  H    0.349377
    17  H    0.349154
    18  H    0.239569
    19  H    0.347115
    20  H    0.391900
    21  H    0.562438
    22  H    0.378616
    23  H    0.230625
    24  H    0.514327
    25  H    0.211840
    26  H    0.385697
    27  H    0.607636
 Sum of APT charges =  -0.00000
 APT charges with hydrogens summed into heavy atoms:
               1
     1  N   -0.132664
     2  C    0.130071
     3  C    0.039154
     4  C    0.072140
     5  N   -0.328693
     6  C    0.067382
     7  C    0.038676
     8  C    0.059763
     9  C    0.054171
 Electronic spatial extent (au):  <R**2>=           1860.8910
 Charge=              0.0000 electrons
 Dipole moment (field-independent basis, Debye):
    X=              0.7600    Y=              1.2306    Z=             -0.1274  Tot=              1.4520
 Quadrupole moment (field-independent basis, Debye-Ang):
   XX=            -55.2189   YY=            -60.4136   ZZ=            -59.0249
   XY=              3.4422   XZ=             -5.1576   YZ=              1.6569
 Traceless Quadrupole moment (field-independent basis, Debye-Ang):
   XX=              3.0002   YY=             -2.1945   ZZ=             -0.8058
   XY=              3.4422   XZ=             -5.1576   YZ=              1.6569
 Octapole moment (field-independent basis, Debye-Ang**2):
  XXX=             34.2514  YYY=              1.0617  ZZZ=             -3.2507  XYY=             -9.5509
  XXY=             12.2279  XXZ=             -9.9163  XZZ=              9.2888  YZZ=             -1.8291
  YYZ=             -1.8096  XYZ=              4.2803
 Hexadecapole moment (field-independent basis, Debye-Ang**3):
 XXXX=          -1457.8709 YYYY=           -684.6391 ZZZZ=           -178.3358 XXXY=              9.6703
 XXXZ=            -54.6482 YYYX=             10.8898 YYYZ=              5.6484 ZZZX=             -8.0155
 ZZZY=              3.8862 XXYY=           -410.7271 XXZZ=           -286.9614 YYZZ=           -141.5942
 XXYZ=             17.0292 YYXZ=             -8.6205 ZZXY=             -6.9078
 N-N= 4.939039389883D+02 E-N=-1.884455489337D+03  KE= 3.833279818350D+02
  Exact polarizability:   0.000   0.000   0.000   0.000   0.000   0.000
 Approx polarizability: 123.766  -0.959 121.155  -2.031   2.431 117.098
 D2PCM: PCM CHGder 2nd derivatives, FixD1E=F FixD2E=F DoIter=F DoCFld=F I1PDM=0
 Calling FoFJK, ICntrl=    100147 FMM=F ISym2X=0 I1Cent= 0 IOpClX= 0 NMat=1 NMatS=1 NMatT=0.
 ***** Axes restored to original set *****
 -------------------------------------------------------------------
 Center     Atomic                   Forces (Hartrees/Bohr)
 Number     Number              X              Y              Z
 -------------------------------------------------------------------
      1        7           0.004553025    0.010812634   -0.007689834
      2        6           0.000529981   -0.000835348    0.001421459
      3        6           0.002804202   -0.001895691    0.002044666
      4        6          -0.001908553   -0.000183614    0.002078872
      5        7           0.003365963    0.006076184    0.000020492
      6        6          -0.004719574    0.003101852    0.005053496
      7        6          -0.003693757   -0.000451666   -0.002755846
      8        6          -0.002056113    0.001810128    0.004751530
      9        6           0.002538546   -0.001814591    0.001449271
     10        1           0.001638242   -0.001958840    0.000257770
     11        1          -0.002370321    0.000704861    0.000192094
     12        1           0.001079455    0.000127741    0.000255300
     13        1          -0.004247874   -0.008426062    0.003621335
     14        1          -0.000911546   -0.000252269    0.000079777
     15        1           0.001002533    0.000368584    0.000466681
     16        1          -0.001432684   -0.003060209   -0.000471044
     17        1          -0.003025425    0.000774504   -0.003033009
     18        1           0.000943449   -0.001567676   -0.004994789
     19        1           0.003478317   -0.003536894    0.003410454
     20        1          -0.001294562    0.000657000    0.000511624
     21        1          -0.000201687   -0.000508847   -0.000452470
     22        1           0.000722052   -0.000954714    0.000434490
     23        1           0.000829383   -0.004148565   -0.004166837
     24        1           0.001602843    0.004241974   -0.003314852
     25        1          -0.000258353    0.000081959    0.001738101
     26        1           0.000753606    0.000518244   -0.000283908
     27        1           0.000278850    0.000319321   -0.000624825
 -------------------------------------------------------------------
 Cartesian Forces:  Max     0.010812634 RMS     0.002901417
 FormGI is forming the generalized inverse of G from B-inverse, IUseBI=4.

 GradGradGradGradGradGradGradGradGradGradGradGradGradGradGradGradGradGrad
 Berny optimization.
 Internal  Forces:  Max     0.010863015 RMS     0.002253326
 Search for a local minimum.
 Step number   1 out of a maximum of  144
 All quantities printed in internal units (Hartrees-Bohrs-Radians)
 Mixed Optimization -- RFO/linear search
 Second derivative matrix not updated -- analytic derivatives used.
 ITU=  0
     Eigenvalues ---    0.00130   0.00161   0.00232   0.00277   0.00340
     Eigenvalues ---    0.00365   0.00540   0.00767   0.02230   0.03215
     Eigenvalues ---    0.03435   0.03927   0.04413   0.04435   0.04511
     Eigenvalues ---    0.04562   0.04584   0.04617   0.04628   0.04666
     Eigenvalues ---    0.04735   0.05042   0.05151   0.05169   0.07112
     Eigenvalues ---    0.08412   0.08468   0.08620   0.08963   0.10293
     Eigenvalues ---    0.11563   0.11685   0.12261   0.12310   0.12362
     Eigenvalues ---    0.13647   0.13793   0.14264   0.15059   0.16059
     Eigenvalues ---    0.16191   0.17359   0.18823   0.19299   0.20245
     Eigenvalues ---    0.23523   0.23600   0.24902   0.25756   0.26436
     Eigenvalues ---    0.29101   0.29538   0.30027   0.31817   0.32035
     Eigenvalues ---    0.32147   0.32563   0.32945   0.33032   0.33129
     Eigenvalues ---    0.33326   0.33418   0.33711   0.33740   0.33758
     Eigenvalues ---    0.33787   0.34030   0.34604   0.34645   0.35911
     Eigenvalues ---    0.36821   0.37005   0.37937   0.43927   0.44235
 RFO step:  Lambda=-3.89097117D-03 EMin= 1.30270097D-03
 Linear search not attempted -- first point.
 Iteration  1 RMS(Cart)=  0.04476643 RMS(Int)=  0.00095097
 Iteration  2 RMS(Cart)=  0.00114038 RMS(Int)=  0.00007021
 Iteration  3 RMS(Cart)=  0.00000102 RMS(Int)=  0.00007020
 Iteration  4 RMS(Cart)=  0.00000000 RMS(Int)=  0.00007020
 Variable       Old X    -DE/DX   Delta X   Delta X   Delta X     New X
                                 (Linear)    (Quad)   (Total)
    R1        2.75574   0.01086   0.00000   0.02664   0.02664   2.78238
    R2        1.92577  -0.00181   0.00000  -0.00163  -0.00163   1.92414
    R3        1.92718  -0.00226   0.00000  -0.00288  -0.00288   1.92430
    R4        2.89458   0.00052   0.00000   0.00211   0.00211   2.89669
    R5        2.07052   0.00034   0.00000   0.00078   0.00078   2.07130
    R6        2.07044   0.00581   0.00000   0.01646   0.01646   2.08691
    R7        2.90343   0.00281   0.00000   0.01002   0.01002   2.91345
    R8        2.07106   0.00051   0.00000   0.00153   0.00153   2.07258
    R9        2.07212  -0.00035   0.00000  -0.00001  -0.00001   2.07211
   R10        2.79037  -0.00241   0.00000  -0.01129  -0.01129   2.77908
   R11        2.07242   0.00036   0.00000  -0.00009  -0.00009   2.07232
   R12        2.07392  -0.00027   0.00000  -0.00116  -0.00116   2.07276
   R13        2.78524  -0.00185   0.00000  -0.00836  -0.00836   2.77688
   R14        2.78067  -0.00249   0.00000  -0.00498  -0.00498   2.77569
   R15        2.88317   0.00414   0.00000   0.01000   0.01000   2.89317
   R16        2.07254   0.00502   0.00000   0.01693   0.01693   2.08948
   R17        2.07401  -0.00110   0.00000  -0.00304  -0.00304   2.07097
   R18        2.06687   0.00023   0.00000   0.00041   0.00041   2.06728
   R19        2.06968   0.00009   0.00000  -0.00045  -0.00045   2.06923
   R20        2.06940  -0.00040   0.00000  -0.00086  -0.00086   2.06854
   R21        2.88445   0.00269   0.00000   0.00534   0.00534   2.88979
   R22        2.07197   0.00576   0.00000   0.01842   0.01842   2.09040
   R23        2.07020  -0.00060   0.00000  -0.00222  -0.00222   2.06798
   R24        2.06756   0.00006   0.00000  -0.00027  -0.00027   2.06729
   R25        2.06928  -0.00015   0.00000  -0.00016  -0.00016   2.06912
   R26        2.06969  -0.00042   0.00000  -0.00132  -0.00132   2.06836
    A1        1.92448  -0.00123   0.00000  -0.01631  -0.01646   1.90802
    A2        1.90752   0.00037   0.00000  -0.00899  -0.00914   1.89837
    A3        1.84679  -0.00066   0.00000  -0.01782  -0.01817   1.82862
    A4        1.96781  -0.00327   0.00000  -0.01313  -0.01315   1.95466
    A5        1.88785  -0.00108   0.00000  -0.01295  -0.01300   1.87485
    A6        1.91407   0.00770   0.00000   0.05921   0.05932   1.97339
    A7        1.89500   0.00205   0.00000   0.00369   0.00348   1.89848
    A8        1.92567  -0.00418   0.00000  -0.02400  -0.02403   1.90164
    A9        1.87039  -0.00114   0.00000  -0.01348  -0.01359   1.85680
   A10        1.97114   0.00198   0.00000   0.00368   0.00365   1.97479
   A11        1.87422   0.00025   0.00000   0.01139   0.01139   1.88562
   A12        1.90664  -0.00155   0.00000  -0.00952  -0.00952   1.89712
   A13        1.91634  -0.00098   0.00000  -0.00346  -0.00351   1.91283
   A14        1.92809  -0.00027   0.00000  -0.00557  -0.00559   1.92250
   A15        1.86359   0.00050   0.00000   0.00396   0.00399   1.86757
   A16        2.03282   0.00643   0.00000   0.01638   0.01644   2.04927
   A17        1.90761  -0.00247   0.00000  -0.00998  -0.00993   1.89768
   A18        1.91025  -0.00050   0.00000  -0.00193  -0.00186   1.90839
   A19        1.90324  -0.00228   0.00000  -0.01257  -0.01254   1.89070
   A20        1.88194  -0.00431   0.00000  -0.02390  -0.02388   1.85806
   A21        1.81541   0.00277   0.00000   0.03434   0.03430   1.84971
   A22        1.93732   0.00333   0.00000   0.02283   0.02276   1.96008
   A23        1.99497  -0.00147   0.00000   0.00102   0.00079   1.99575
   A24        1.95323  -0.00127   0.00000   0.00298   0.00278   1.95601
   A25        1.97003   0.00181   0.00000   0.00992   0.00991   1.97993
   A26        1.94380   0.00142   0.00000   0.01290   0.01285   1.95665
   A27        1.91029  -0.00510   0.00000  -0.03848  -0.03855   1.87174
   A28        1.91217  -0.00218   0.00000  -0.00691  -0.00698   1.90519
   A29        1.85735   0.00426   0.00000   0.03189   0.03204   1.88939
   A30        1.86528  -0.00023   0.00000  -0.00996  -0.01000   1.85529
   A31        1.95646   0.00211   0.00000   0.00843   0.00842   1.96489
   A32        1.91655   0.00019   0.00000   0.00129   0.00128   1.91783
   A33        1.93975  -0.00182   0.00000  -0.01127  -0.01126   1.92849
   A34        1.87274  -0.00080   0.00000  -0.00093  -0.00095   1.87179
   A35        1.89492  -0.00059   0.00000  -0.00687  -0.00686   1.88807
   A36        1.88064   0.00090   0.00000   0.00978   0.00979   1.89043
   A37        1.98885  -0.00141   0.00000  -0.00171  -0.00168   1.98717
   A38        1.94371   0.00200   0.00000   0.01173   0.01172   1.95543
   A39        1.90691  -0.00396   0.00000  -0.03453  -0.03448   1.87243
   A40        1.90912  -0.00051   0.00000   0.00033   0.00027   1.90939
   A41        1.85003   0.00483   0.00000   0.03433   0.03432   1.88435
   A42        1.85842  -0.00083   0.00000  -0.01020  -0.01034   1.84808
   A43        1.95392   0.00244   0.00000   0.01043   0.01044   1.96436
   A44        1.94012  -0.00099   0.00000  -0.00775  -0.00774   1.93237
   A45        1.91684  -0.00092   0.00000  -0.00199  -0.00200   1.91484
   A46        1.89703  -0.00108   0.00000  -0.00904  -0.00902   1.88801
   A47        1.87259  -0.00036   0.00000   0.00134   0.00132   1.87391
   A48        1.88066   0.00088   0.00000   0.00722   0.00722   1.88788
    D1        1.17193   0.00027   0.00000   0.06022   0.06007   1.23200
    D2       -3.01557   0.00007   0.00000   0.04792   0.04789  -2.96768
    D3       -0.98122   0.00230   0.00000   0.05683   0.05671  -0.92451
    D4       -3.08818  -0.00101   0.00000   0.02420   0.02425  -3.06394
    D5       -0.99250  -0.00121   0.00000   0.01190   0.01207  -0.98043
    D6        1.04186   0.00103   0.00000   0.02081   0.02089   1.06274
    D7       -1.19220  -0.00200   0.00000  -0.00096  -0.00092  -1.19312
    D8        2.97580  -0.00218   0.00000  -0.00671  -0.00671   2.96909
    D9        0.96092  -0.00211   0.00000  -0.01260  -0.01256   0.94836
   D10        2.99942   0.00002   0.00000   0.02102   0.02108   3.02050
   D11        0.88423  -0.00016   0.00000   0.01527   0.01529   0.89952
   D12       -1.13064  -0.00009   0.00000   0.00939   0.00944  -1.12120
   D13        0.95449   0.00256   0.00000   0.04877   0.04871   1.00320
   D14       -1.16070   0.00238   0.00000   0.04301   0.04292  -1.11778
   D15        3.10761   0.00245   0.00000   0.03713   0.03707  -3.13850
   D16       -3.09679  -0.00098   0.00000  -0.01621  -0.01620  -3.11299
   D17       -0.93082  -0.00124   0.00000  -0.02911  -0.02910  -0.95992
   D18        1.04688   0.00046   0.00000   0.00528   0.00528   1.05217
   D19       -1.00566  -0.00004   0.00000  -0.00174  -0.00174  -1.00740
   D20        1.16031  -0.00030   0.00000  -0.01463  -0.01465   1.14567
   D21        3.13802   0.00140   0.00000   0.01975   0.01974  -3.12543
   D22        1.04519  -0.00018   0.00000  -0.00233  -0.00232   1.04287
   D23       -3.07202  -0.00045   0.00000  -0.01523  -0.01523  -3.08725
   D24       -1.09432   0.00125   0.00000   0.01916   0.01916  -1.07516
   D25       -1.16509  -0.00021   0.00000  -0.00647  -0.00649  -1.17158
   D26        1.06423  -0.00029   0.00000   0.01832   0.01838   1.08261
   D27        2.94989   0.00018   0.00000   0.00513   0.00511   2.95500
   D28       -1.10398   0.00010   0.00000   0.02991   0.02998  -1.07400
   D29        0.98912   0.00024   0.00000  -0.01667  -0.01675   0.97237
   D30       -3.06475   0.00016   0.00000   0.00812   0.00812  -3.05663
   D31       -2.79677  -0.00105   0.00000   0.04624   0.04643  -2.75034
   D32        1.32691  -0.00062   0.00000   0.03799   0.03803   1.36494
   D33       -0.73176   0.00202   0.00000   0.06671   0.06666  -0.66510
   D34        1.23461  -0.00079   0.00000   0.02349   0.02355   1.25816
   D35       -0.92490  -0.00036   0.00000   0.01523   0.01516  -0.90974
   D36       -2.98357   0.00228   0.00000   0.04395   0.04378  -2.93979
   D37        0.98702  -0.00175   0.00000   0.02618   0.02623   1.01325
   D38       -1.18273  -0.00157   0.00000   0.01762   0.01767  -1.16506
   D39        3.05240   0.00072   0.00000   0.04461   0.04464   3.09704
   D40       -3.07500   0.00052   0.00000   0.06132   0.06128  -3.01371
   D41        1.03844   0.00070   0.00000   0.05277   0.05273   1.09116
   D42       -1.00962   0.00299   0.00000   0.07976   0.07969  -0.92992
   D43       -1.20723  -0.00083   0.00000   0.01193   0.01199  -1.19524
   D44        2.99606  -0.00131   0.00000   0.00685   0.00690   3.00295
   D45        0.91689  -0.00141   0.00000   0.00095   0.00100   0.91789
   D46        0.96963   0.00067   0.00000   0.03070   0.03071   1.00033
   D47       -1.11027   0.00020   0.00000   0.02562   0.02561  -1.08466
   D48        3.09374   0.00010   0.00000   0.01972   0.01972   3.11346
   D49        2.98028   0.00159   0.00000   0.03258   0.03254   3.01282
   D50        0.90038   0.00112   0.00000   0.02751   0.02745   0.92783
   D51       -1.17879   0.00102   0.00000   0.02160   0.02155  -1.15724
   D52       -1.21373  -0.00088   0.00000  -0.00017  -0.00017  -1.21390
   D53        0.91156  -0.00125   0.00000  -0.00999  -0.01001   0.90155
   D54        2.99117  -0.00137   0.00000  -0.00717  -0.00719   2.98399
   D55        0.97448   0.00030   0.00000   0.01436   0.01434   0.98882
   D56        3.09977  -0.00007   0.00000   0.00454   0.00450   3.10427
   D57       -1.10380  -0.00019   0.00000   0.00736   0.00733  -1.09648
   D58        2.97181   0.00159   0.00000   0.02040   0.02046   2.99227
   D59       -1.18608   0.00122   0.00000   0.01058   0.01062  -1.17547
   D60        0.89353   0.00110   0.00000   0.01340   0.01344   0.90697
         Item               Value     Threshold  Converged?
 Maximum Force            0.010863     0.000450     NO 
 RMS     Force            0.002253     0.000300     NO 
 Maximum Displacement     0.129124     0.001800     NO 
 RMS     Displacement     0.044698     0.001200     NO 
 Predicted change in Energy=-2.081233D-03
 GradGradGradGradGradGradGradGradGradGradGradGradGradGradGradGradGradGrad

                          Input orientation:                          
 ---------------------------------------------------------------------
 Center     Atomic      Atomic             Coordinates (Angstroms)
 Number     Number       Type             X           Y           Z
 ---------------------------------------------------------------------
      1          7           0        3.505764    0.906605   -0.009400
      2          6           0        2.909404   -0.432109    0.132315
      3          6           0        1.457947   -0.468944   -0.359195
      4          6           0        0.494906    0.338117    0.534191
      5          7           0       -0.929642    0.336019    0.168963
      6          6           0       -1.181229    1.034173   -1.099342
      7          6           0       -2.622861    1.527912   -1.247244
      8          6           0       -1.561910   -0.989292    0.204303
      9          6           0       -1.477445   -1.678713    1.566674
     10          1           0        3.081134    1.537924    0.667266
     11          1           0        4.486550    0.858578    0.260183
     12          1           0        3.505276   -1.122806   -0.475366
     13          1           0        2.947508   -0.815413    1.167303
     14          1           0        1.137248   -1.517238   -0.392720
     15          1           0        1.425469   -0.090620   -1.387861
     16          1           0        0.586911   -0.021654    1.566028
     17          1           0        0.809747    1.388677    0.551476
     18          1           0       -0.918725    0.412909   -1.975528
     19          1           0       -0.515650    1.904321   -1.128757
     20          1           0       -3.338603    0.707835   -1.356463
     21          1           0       -2.711410    2.157017   -2.139089
     22          1           0       -2.915470    2.122835   -0.376240
     23          1           0       -1.157349   -1.663067   -0.574166
     24          1           0       -2.619853   -0.851379   -0.039186
     25          1           0       -0.458681   -1.988309    1.817731
     26          1           0       -1.837937   -1.015194    2.359558
     27          1           0       -2.101098   -2.578185    1.564563
 ---------------------------------------------------------------------
                    Distance matrix (angstroms):
                    1          2          3          4          5
     1  N    0.000000
     2  C    1.472373   0.000000
     3  C    2.491595   1.532863   0.000000
     4  C    3.111902   2.566038   1.541731   0.000000
     5  N    4.475512   3.915308   2.574392   1.470624   0.000000
     6  C    4.813746   4.516663   3.126088   2.441793   1.469460
     7  C    6.283178   6.029164   4.629153   3.782803   2.508634
     8  C    5.414925   4.506472   3.115739   2.470088   1.468830
     9  C    5.830973   4.780780   3.713359   3.003962   2.512534
    10  H    1.018210   2.048583   2.777747   2.854089   4.216540
    11  H    1.018294   2.041963   3.364281   4.034747   5.442107
    12  H    2.082218   1.096085   2.152345   3.495115   4.712943
    13  H    2.159080   1.104343   2.160794   2.783293   4.165906
    14  H    3.410545   2.143293   1.096764   2.171200   2.832328
    15  H    2.687422   2.151654   1.096512   2.178084   2.855218
    16  H    3.444320   2.760069   2.159920   1.096625   2.092762
    17  H    2.795619   2.810608   2.168004   1.096859   2.068787
    18  H    4.866774   4.451025   3.006453   2.881429   2.145896
    19  H    4.291873   4.333614   3.181147   2.497923   2.077267
    20  H    6.978499   6.523306   5.038476   4.290345   2.875459
    21  H    6.689720   6.592147   5.239010   4.553602   3.437708
    22  H    6.545688   6.380872   5.083737   3.955347   2.726440
    23  H    5.354139   4.307303   2.883039   2.821903   2.144862
    24  H    6.372956   5.547781   4.108176   3.383102   2.076066
    25  H    5.237915   4.075093   3.274284   2.822952   2.888380
    26  H    6.153082   5.276159   4.307303   3.256620   2.729374
    27  H    6.786606   5.635788   4.562515   4.038034   3.436945
                    6          7          8          9         10
     6  C    0.000000
     7  C    1.530998   0.000000
     8  C    2.436969   3.093368   0.000000
     9  C    3.815119   4.417301   1.529212   0.000000
    10  H    4.641380   6.016727   5.306507   5.651224   0.000000
    11  H    5.831198   7.298224   6.324683   6.611657   1.613203
    12  H    5.196656   6.721322   5.114309   5.413545   2.926600
    13  H    5.060150   6.507705   4.614375   4.526036   2.409583
    14  H    3.519140   4.913407   2.814359   3.271378   3.773099
    15  H    2.853643   4.362155   3.502433   4.436015   3.101117
    16  H    3.368276   4.540737   2.721774   2.647151   3.075907
    17  H    2.610528   3.877832   3.376392   3.958630   2.279228
    18  H    1.105704   2.162801   2.670490   4.151414   4.924316
    19  H    1.095910   2.143842   3.353313   4.585687   4.036930
    20  H    2.197014   1.093957   2.910820   4.207641   6.782149
    21  H    2.164095   1.094989   4.088043   5.474319   6.466256
    22  H    2.171555   1.094625   3.443035   4.504952   6.114759
    23  H    2.747996   3.575346   1.106190   2.164694   5.454561
    24  H    2.597859   2.668415   1.094326   2.137372   6.221663
    25  H    4.262251   5.142135   2.195062   1.093965   5.127200
    26  H    4.073716   4.482468   2.173013   1.094932   5.794784
    27  H    4.581668   5.003852   2.160002   1.094531   6.678549
                   11         12         13         14         15
    11  H    0.000000
    12  H    2.330196   0.000000
    13  H    2.448216   1.761805   0.000000
    14  H    4.157957   2.402075   2.490637   0.000000
    15  H    3.603782   2.494725   3.061175   1.763127   0.000000
    16  H    4.205618   3.727825   2.522193   2.525141   3.071384
    17  H    3.726223   3.824634   3.131657   3.072963   2.515643
    18  H    5.866347   4.917386   5.131658   3.233848   2.468631
    19  H    5.295729   5.075260   4.966117   3.870516   2.795509
    20  H    7.991827   7.139066   6.942973   5.090481   4.830621
    21  H    7.697603   7.223046   7.196591   5.600190   4.767598
    22  H    7.536132   7.195137   6.737236   5.447470   4.976597
    23  H    6.237663   4.694861   4.538842   2.306375   3.131396
    24  H    7.315363   6.146635   5.696702   3.831991   4.331548
    25  H    5.914899   4.660509   3.660719   2.766765   4.174574
    26  H    6.922250   6.049653   4.935775   4.083969   5.054484
    27  H    7.543862   6.140917   5.362239   3.929815   5.228907
                   16         17         18         19         20
    16  H    0.000000
    17  H    1.751572   0.000000
    18  H    3.872777   3.213329   0.000000
    19  H    3.490972   2.201306   1.761761   0.000000
    20  H    4.948007   4.616556   2.515161   3.074490   0.000000
    21  H    5.417880   4.497559   2.506469   2.430224   1.762386
    22  H    4.542897   3.908566   3.077103   2.524513   1.772598
    23  H    3.212026   3.801273   2.516034   3.666825   3.315272
    24  H    3.680827   4.138705   2.870832   3.634379   2.164017
    25  H    2.241506   3.823132   4.512903   4.882377   5.063462
    26  H    2.738010   4.007242   4.655899   4.737125   4.362298
    27  H    3.709615   5.023480   4.782979   5.464474   4.567466
                   21         22         23         24         25
    21  H    0.000000
    22  H    1.774949   0.000000
    23  H    4.411024   4.178901   0.000000
    24  H    3.669935   3.007814   1.756120   0.000000
    25  H    6.157510   5.267905   2.512984   3.067802   0.000000
    26  H    5.573482   4.300337   3.080532   2.528280   1.772816
    27  H    6.042488   5.150681   2.510431   2.413085   1.763400
                   26         27
    26  H    0.000000
    27  H    1.773192   0.000000
 Stoichiometry    C7H18N2
 Framework group  C1[X(C7H18N2)]
 Deg. of freedom    75
 Full point group                 C1      NOp   1
 Largest Abelian subgroup         C1      NOp   1
 Largest concise Abelian subgroup C1      NOp   1
                         Standard orientation:                         
 ---------------------------------------------------------------------
 Center     Atomic      Atomic             Coordinates (Angstroms)
 Number     Number       Type             X           Y           Z
 ---------------------------------------------------------------------
      1          7           0        3.404790   -0.892688   -0.323843
      2          6           0        2.843820    0.295632    0.340304
      3          6           0        1.358150    0.119130    0.673923
      4          6           0        0.457483    0.073472   -0.576536
      5          7           0       -0.991719   -0.056390   -0.362804
      6          6           0       -1.356479   -1.359834    0.209294
      7          6           0       -2.813231   -1.752776   -0.050374
      8          6           0       -1.597301    1.059484    0.375815
      9          6           0       -1.391625    2.422908   -0.285440
     10          1           0        3.026035   -0.962097   -1.266435
     11          1           0        4.404827   -0.752975   -0.455493
     12          1           0        3.399785    0.443229    1.273321
     13          1           0        2.971800    1.221183   -0.248380
     14          1           0        1.052973    0.953671    1.316807
     15          1           0        1.236370   -0.799001    1.260901
     16          1           0        0.638541    0.975049   -1.174001
     17          1           0        0.755472   -0.772281   -1.208205
     18          1           0       -1.155604   -1.408427    1.295511
     19          1           0       -0.709779   -2.111715   -0.257044
     20          1           0       -3.521959   -1.121067    0.493125
     21          1           0       -2.983922   -2.784844    0.273200
     22          1           0       -3.044097   -1.684458   -1.118193
     23          1           0       -1.246090    1.102701    1.423880
     24          1           0       -2.673589    0.868661    0.428174
     25          1           0       -0.350963    2.757436   -0.242161
     26          1           0       -1.697584    2.393802   -1.336354
     27          1           0       -1.998614    3.176582    0.225968
 ---------------------------------------------------------------------
 Rotational constants (GHZ):           2.1030514           0.8356528           0.6513011
 Standard basis: 6-31G(d,p) (6D, 7F)
 There are   225 symmetry adapted cartesian basis functions of A   symmetry.
 There are   225 symmetry adapted basis functions of A   symmetry.
   225 basis functions,   378 primitive gaussians,   225 cartesian basis functions
    37 alpha electrons       37 beta electrons
       nuclear repulsion energy       492.6914273127 Hartrees.
 NAtoms=   27 NActive=   27 NUniq=   27 SFac= 1.00D+00 NAtFMM=   60 NAOKFM=F Big=F
 Integral buffers will be    131072 words long.
 Raffenetti 2 integral format.
 Two-electron integral symmetry is turned on.
 ------------------------------------------------------------------------------
 Polarizable Continuum Model (PCM)
 =================================
 Model                : PCM.
 Atomic radii         : UFF (Universal Force Field).
 Polarization charges : Total charges.
 Charge compensation  : None.
 Solution method      : Matrix inversion.
 Cavity type          : Scaled VdW (van der Waals Surface) (Alpha=1.100).
 Cavity algorithm     : GePol (No added spheres)
                        Default sphere list used, NSphG=   27.
                        Lebedev-Laikov grids with approx.  5.0 points / Ang**2.
                        Smoothing algorithm: York/Karplus (Gamma=1.0000).
                        Polarization charges: spherical gaussians, with
                                              point-specific exponents (IZeta= 3).
                        Self-potential: point-specific (ISelfS= 7).
                        Self-field    : sphere-specific E.n sum rule (ISelfD= 2).
 1st derivatives      : Analytical E(r).r(x)/FMM algorithm (CHGder, D1EAlg=3).
                        Cavity 1st derivative terms included.
 Solvent              : Water, Eps=  78.355300 Eps(inf)=   1.777849
 ------------------------------------------------------------------------------
 One-electron integrals computed using PRISM.
 NBasis=   225 RedAO= T EigKep=  3.58D-03  NBF=   225
 NBsUse=   225 1.00D-06 EigRej= -1.00D+00 NBFU=   225
[...]
    26  H    0.102289
    27  H    0.091650
 Sum of Mulliken charges =   0.00000
 Mulliken charges with hydrogens summed into heavy atoms:
               1
     1  N   -0.280662
     2  C    0.078433
     3  C   -0.025425
     4  C    0.100015
     5  N   -0.232019
     6  C    0.215330
     7  C    0.033392
     8  C    0.164033
     9  C   -0.053097
 Electronic spatial extent (au):  <R**2>=           1896.1074
 Charge=             -0.0000 electrons
 Dipole moment (field-independent basis, Debye):
    X=             -4.8595    Y=             -0.0856    Z=              0.2748  Tot=              4.8681
 Quadrupole moment (field-independent basis, Debye-Ang):
   XX=            -66.4721   YY=            -64.8309   ZZ=            -60.4723
   XY=              7.2260   XZ=             -0.7883   YZ=             -0.3465
 Traceless Quadrupole moment (field-independent basis, Debye-Ang):
   XX=             -2.5470   YY=             -0.9058   ZZ=              3.4528
   XY=              7.2260   XZ=             -0.7883   YZ=             -0.3465
 Octapole moment (field-independent basis, Debye-Ang**2):
  XXX=            -18.4453  YYY=             -9.5956  ZZZ=             -1.5203  XYY=            -17.9913
  XXY=              9.3848  XXZ=             -1.0306  XZZ=             -1.3062  YZZ=             -2.9129
  YYZ=              2.3573  XYZ=              1.0674
 Hexadecapole moment (field-independent basis, Debye-Ang**3):
 XXXX=          -1730.4895 YYYY=           -716.6942 ZZZZ=           -197.5941 XXXY=             60.5878
 XXXZ=             -8.8689 YYYX=             26.3405 YYYZ=             -2.8174 ZZZX=              0.6308
 ZZZY=             -1.1221 XXYY=           -430.5411 XXZZ=           -310.9762 YYZZ=           -150.1996
 XXYZ=              6.1859 YYXZ=             -4.9671 ZZXY=             -0.5613
 N-N= 4.918876384683D+02 E-N=-1.878208498297D+03  KE= 3.834374968236D+02
 Evaluate density.
 Using the total density.
 Monte-Carlo method of calculating molar volume:
 based on  0.001 e/bohr**3 density envelope.
 Number of points per bohr**3 =   20 CutOff= 1.00D-04
 Using the CI density.
 There are       393 points.  Will hold       393 in memory.
 LenV=  1073600977 MDV=  1073741824.
 Box volume = 7614.971 fraction occupied=0.193
 Integrated density= 6.2711523712191543D+01 error=-1.1288476287808457D+01
 Molar volume = 1472.615 bohr**3/mol (131.415 cm**3/mol)
 Recommended a0 for SCRF calculation =  4.61 angstrom (  8.71 bohr)
 ******************************Gaussian NBO Version 3.1******************************
             N A T U R A L   A T O M I C   O R B I T A L   A N D
          N A T U R A L   B O N D   O R B I T A L   A N A L Y S I S
 ******************************Gaussian NBO Version 3.1******************************
       /RESON  / : Allow strongly delocalized NBO set

 Analyzing the CI density

 Job title: QOHMWDJIBGVPIF-UHFFFAOYSA-N_conf_4                              

 Storage needed:    154314 in NPA (1073737909 available)
 GSVD:  LWork=       26433 too small for GESVD, short by       20979 words or       20979 for optimal perf.


 NATURAL POPULATIONS:  Natural atomic orbital occupancies 
                                                          
   NAO  Atom  No  lang   Type(AO)    Occupancy
 --------------------------------------------
     1    N    1  S      Cor( 1S)     1.99967
     2    N    1  S      Val( 2S)     1.47024
     3    N    1  S      Ryd( 3S)     0.00270
     4    N    1  S      Ryd( 4S)     0.00006
     5    N    1  px     Val( 2p)     1.38270
     6    N    1  px     Ryd( 3p)     0.00218
     7    N    1  py     Val( 2p)     1.63211
     8    N    1  py     Ryd( 3p)     0.00412
     9    N    1  pz     Val( 2p)     1.43822
    10    N    1  pz     Ryd( 3p)     0.00303
    11    N    1  dxy    Ryd( 3d)     0.00083
    12    N    1  dxz    Ryd( 3d)     0.00029
    13    N    1  dyz    Ryd( 3d)     0.00105
    14    N    1  dx2y2  Ryd( 3d)     0.00124
    15    N    1  dz2    Ryd( 3d)     0.00105

    16    C    2  S      Cor( 1S)     1.99936
    17    C    2  S      Val( 2S)     1.02159
    18    C    2  S      Ryd( 3S)     0.00201
    19    C    2  S      Ryd( 4S)     0.00004
    20    C    2  px     Val( 2p)     1.03263
    21    C    2  px     Ryd( 3p)     0.00146
    22    C    2  py     Val( 2p)     1.05504
    23    C    2  py     Ryd( 3p)     0.00365
    24    C    2  pz     Val( 2p)     1.14182
    25    C    2  pz     Ryd( 3p)     0.00318
    26    C    2  dxy    Ryd( 3d)     0.00065
    27    C    2  dxz    Ryd( 3d)     0.00086
    28    C    2  dyz    Ryd( 3d)     0.00099
    29    C    2  dx2y2  Ryd( 3d)     0.00145
    30    C    2  dz2    Ryd( 3d)     0.00085

    31    C    3  S      Cor( 1S)     1.99927
    32    C    3  S      Val( 2S)     1.06808
    33    C    3  S      Ryd( 3S)     0.00101
    34    C    3  S      Ryd( 4S)     0.00005
    35    C    3  px     Val( 2p)     1.04362
    36    C    3  px     Ryd( 3p)     0.00170
    37    C    3  py     Val( 2p)     1.25253
    38    C    3  py     Ryd( 3p)     0.00388
    39    C    3  pz     Val( 2p)     1.10052
    40    C    3  pz     Ryd( 3p)     0.00274
    41    C    3  dxy    Ryd( 3d)     0.00039
    42    C    3  dxz    Ryd( 3d)     0.00073
    43    C    3  dyz    Ryd( 3d)     0.00094
    44    C    3  dx2y2  Ryd( 3d)     0.00077
    45    C    3  dz2    Ryd( 3d)     0.00025

    46    C    4  S      Cor( 1S)     1.99927
    47    C    4  S      Val( 2S)     1.05119
    48    C    4  S      Ryd( 3S)     0.00195
    49    C    4  S      Ryd( 4S)     0.00006
    50    C    4  px     Val( 2p)     0.81473
    51    C    4  px     Ryd( 3p)     0.00366
    52    C    4  py     Val( 2p)     1.27721
    53    C    4  py     Ryd( 3p)     0.00591
    54    C    4  pz     Val( 2p)     1.15744
    55    C    4  pz     Ryd( 3p)     0.00446
    56    C    4  dxy    Ryd( 3d)     0.00044
    57    C    4  dxz    Ryd( 3d)     0.00068
    58    C    4  dyz    Ryd( 3d)     0.00106
    59    C    4  dx2y2  Ryd( 3d)     0.00141
    60    C    4  dz2    Ryd( 3d)     0.00063

    61    N    5  S      Cor( 1S)     1.99933
    62    N    5  S      Val( 2S)     1.28283
    63    N    5  S      Ryd( 3S)     0.00166
    64    N    5  S      Ryd( 4S)     0.00002
    65    N    5  px     Val( 2p)     1.27174
    66    N    5  px     Ryd( 3p)     0.00100
    67    N    5  py     Val( 2p)     1.28938
    68    N    5  py     Ryd( 3p)     0.00083
    69    N    5  pz     Val( 2p)     1.17834
    70    N    5  pz     Ryd( 3p)     0.00166
    71    N    5  dxy    Ryd( 3d)     0.00066
    72    N    5  dxz    Ryd( 3d)     0.00054
    73    N    5  dyz    Ryd( 3d)     0.00099
    74    N    5  dx2y2  Ryd( 3d)     0.00097
    75    N    5  dz2    Ryd( 3d)     0.00050

    76    C    6  S      Cor( 1S)     1.99931
    77    C    6  S      Val( 2S)     1.04729
    78    C    6  S      Ryd( 3S)     0.00179
    79    C    6  S      Ryd( 4S)     0.00003
    80    C    6  px     Val( 2p)     1.13185
    81    C    6  px     Ryd( 3p)     0.00257
    82    C    6  py     Val( 2p)     0.92960
    83    C    6  py     Ryd( 3p)     0.00284
    84    C    6  pz     Val( 2p)     1.19319
    85    C    6  pz     Ryd( 3p)     0.00346
    86    C    6  dxy    Ryd( 3d)     0.00096
    87    C    6  dxz    Ryd( 3d)     0.00053
    88    C    6  dyz    Ryd( 3d)     0.00082
    89    C    6  dx2y2  Ryd( 3d)     0.00102
    90    C    6  dz2    Ryd( 3d)     0.00098

    91    C    7  S      Cor( 1S)     1.99945
    92    C    7  S      Val( 2S)     1.11218
    93    C    7  S      Ryd( 3S)     0.00045
    94    C    7  S      Ryd( 4S)     0.00001
    95    C    7  px     Val( 2p)     1.09430
    96    C    7  px     Ryd( 3p)     0.00301
    97    C    7  py     Val( 2p)     1.24406
    98    C    7  py     Ryd( 3p)     0.00180
    99    C    7  pz     Val( 2p)     1.24762
   100    C    7  pz     Ryd( 3p)     0.00161
   101    C    7  dxy    Ryd( 3d)     0.00056
   102    C    7  dxz    Ryd( 3d)     0.00032
   103    C    7  dyz    Ryd( 3d)     0.00037
   104    C    7  dx2y2  Ryd( 3d)     0.00055
   105    C    7  dz2    Ryd( 3d)     0.00084

   106    C    8  S      Cor( 1S)     1.99929
   107    C    8  S      Val( 2S)     1.05525
   108    C    8  S      Ryd( 3S)     0.00197
   109    C    8  S      Ryd( 4S)     0.00004
   110    C    8  px     Val( 2p)     1.18972
   111    C    8  px     Ryd( 3p)     0.00426
   112    C    8  py     Val( 2p)     0.93626
   113    C    8  py     Ryd( 3p)     0.00288
   114    C    8  pz     Val( 2p)     1.12122
   115    C    8  pz     Ryd( 3p)     0.00283
   116    C    8  dxy    Ryd( 3d)     0.00091
   117    C    8  dxz    Ryd( 3d)     0.00062
   118    C    8  dyz    Ryd( 3d)     0.00102
   119    C    8  dx2y2  Ryd( 3d)     0.00095
   120    C    8  dz2    Ryd( 3d)     0.00079

   121    C    9  S      Cor( 1S)     1.99945
   122    C    9  S      Val( 2S)     1.12255
   123    C    9  S      Ryd( 3S)     0.00056
   124    C    9  S      Ryd( 4S)     0.00002
   125    C    9  px     Val( 2p)     1.25835
   126    C    9  px     Ryd( 3p)     0.00192
   127    C    9  py     Val( 2p)     1.11576
   128    C    9  py     Ryd( 3p)     0.00302
   129    C    9  pz     Val( 2p)     1.20847
   130    C    9  pz     Ryd( 3p)     0.00244
   131    C    9  dxy    Ryd( 3d)     0.00052
   132    C    9  dxz    Ryd( 3d)     0.00045
   133    C    9  dyz    Ryd( 3d)     0.00053
   134    C    9  dx2y2  Ryd( 3d)     0.00053
   135    C    9  dz2    Ryd( 3d)     0.00058

   136    H   10  S      Val( 1S)     0.66299
   137    H   10  S      Ryd( 2S)     0.03269
   138    H   10  px     Ryd( 2p)     0.00035
   139    H   10  py     Ryd( 2p)     0.00044
   140    H   10  pz     Ryd( 2p)     0.00059

   141    H   11  S      Val( 1S)     0.65546
   142    H   11  S      Ryd( 2S)     0.02206
   143    H   11  px     Ryd( 2p)     0.00054
   144    H   11  py     Ryd( 2p)     0.00046
   145    H   11  pz     Ryd( 2p)     0.00036

   146    H   12  S      Val( 1S)     0.76987
   147    H   12  S      Ryd( 2S)     0.00910
   148    H   12  px     Ryd( 2p)     0.00017
   149    H   12  py     Ryd( 2p)     0.00009
   150    H   12  pz     Ryd( 2p)     0.00029

   151    H   13  S      Val( 1S)     0.81145
   152    H   13  S      Ryd( 2S)     0.02041
   153    H   13  px     Ryd( 2p)     0.00011
   154    H   13  py     Ryd( 2p)     0.00029
   155    H   13  pz     Ryd( 2p)     0.00017

   156    H   14  S      Val( 1S)     0.79211
   157    H   14  S      Ryd( 2S)     0.03241
   158    H   14  px     Ryd( 2p)     0.00013
   159    H   14  py     Ryd( 2p)     0.00023
   160    H   14  pz     Ryd( 2p)     0.00019

   161    H   15  S      Val( 1S)     0.76599
   162    H   15  S      Ryd( 2S)     0.01619
   163    H   15  px     Ryd( 2p)     0.00009
   164    H   15  py     Ryd( 2p)     0.00028
   165    H   15  pz     Ryd( 2p)     0.00016

   166    H   16  S      Val( 1S)     0.76029
   167    H   16  S      Ryd( 2S)     0.02921
   168    H   16  px     Ryd( 2p)     0.00006
   169    H   16  py     Ryd( 2p)     0.00029
   170    H   16  pz     Ryd( 2p)     0.00018

   171    H   17  S      Val( 1S)     0.78692
   172    H   17  S      Ryd( 2S)     0.03783
   173    H   17  px     Ryd( 2p)     0.00010
   174    H   17  py     Ryd( 2p)     0.00022
   175    H   17  pz     Ryd( 2p)     0.00020

   176    H   18  S      Val( 1S)     0.72105
   177    H   18  S      Ryd( 2S)     0.01346
   178    H   18  px     Ryd( 2p)     0.00010
   179    H   18  py     Ryd( 2p)     0.00006
   180    H   18  pz     Ryd( 2p)     0.00038

   181    H   19  S      Val( 1S)     0.74721
   182    H   19  S      Ryd( 2S)     0.01866
   183    H   19  px     Ryd( 2p)     0.00019
   184    H   19  py     Ryd( 2p)     0.00023
   185    H   19  pz     Ryd( 2p)     0.00010

   186    H   20  S      Val( 1S)     0.76321
   187    H   20  S      Ryd( 2S)     0.00767
   188    H   20  px     Ryd( 2p)     0.00023
   189    H   20  py     Ryd( 2p)     0.00018
   190    H   20  pz     Ryd( 2p)     0.00011

   191    H   21  S      Val( 1S)     0.74676
   192    H   21  S      Ryd( 2S)     0.00442
   193    H   21  px     Ryd( 2p)     0.00010
   194    H   21  py     Ryd( 2p)     0.00030
   195    H   21  pz     Ryd( 2p)     0.00011

   196    H   22  S      Val( 1S)     0.75344
   197    H   22  S      Ryd( 2S)     0.00339
   198    H   22  px     Ryd( 2p)     0.00009
   199    H   22  py     Ryd( 2p)     0.00007
   200    H   22  pz     Ryd( 2p)     0.00034

   201    H   23  S      Val( 1S)     0.73247
   202    H   23  S      Ryd( 2S)     0.02708
   203    H   23  px     Ryd( 2p)     0.00013
   204    H   23  py     Ryd( 2p)     0.00008
   205    H   23  pz     Ryd( 2p)     0.00033

   206    H   24  S      Val( 1S)     0.77589
   207    H   24  S      Ryd( 2S)     0.02747
   208    H   24  px     Ryd( 2p)     0.00036
   209    H   24  py     Ryd( 2p)     0.00007
   210    H   24  pz     Ryd( 2p)     0.00008

   211    H   25  S      Val( 1S)     0.78756
   212    H   25  S      Ryd( 2S)     0.02660
   213    H   25  px     Ryd( 2p)     0.00030
   214    H   25  py     Ryd( 2p)     0.00014
   215    H   25  pz     Ryd( 2p)     0.00008

   216    H   26  S      Val( 1S)     0.76195
   217    H   26  S      Ryd( 2S)     0.00748
   218    H   26  px     Ryd( 2p)     0.00012
   219    H   26  py     Ryd( 2p)     0.00008
   220    H   26  pz     Ryd( 2p)     0.00030

   221    H   27  S      Val( 1S)     0.76002
   222    H   27  S      Ryd( 2S)     0.00941
   223    H   27  px     Ryd( 2p)     0.00015
   224    H   27  py     Ryd( 2p)     0.00022
   225    H   27  pz     Ryd( 2p)     0.00012


 Summary of Natural Population Analysis:                  
                                                          
                                       Natural Population 
                Natural  -----------------------------------------------
    Atom  No    Charge         Core      Valence    Rydberg      Total
 -----------------------------------------------------------------------
      N    1   -0.93947      1.99967     5.92326    0.01654     7.93947
      C    2   -0.26560      1.99936     4.25109    0.01515     6.26560
      C    3   -0.47649      1.99927     4.46475    0.01247     6.47649
      C    4   -0.32011      1.99927     4.30057    0.02026     6.32011
      N    5   -0.03044      1.99933     5.02229    0.00883     7.03044
      C    6   -0.31622      1.99931     4.30192    0.01499     6.31622
      C    7   -0.70712      1.99945     4.69816    0.00952     6.70712
      C    8   -0.31799      1.99929     4.30245    0.01625     6.31799
      C    9   -0.71517      1.99945     4.70515    0.01058     6.71517
      H   10    0.30293      0.00000     0.66299    0.03407     0.69707
      H   11    0.32112      0.00000     0.65546    0.02343     0.67888
      H   12    0.22047      0.00000     0.76987    0.00966     0.77953
      H   13    0.16756      0.00000     0.81145    0.02099     0.83244
      H   14    0.17492      0.00000     0.79211    0.03296     0.82508
      H   15    0.21729      0.00000     0.76599    0.01672     0.78271
      H   16    0.20998      0.00000     0.76029    0.02973     0.79002
      H   17    0.17472      0.00000     0.78692    0.03835     0.82528
      H   18    0.26494      0.00000     0.72105    0.01400     0.73506
      H   19    0.23362      0.00000     0.74721    0.01917     0.76638
      H   20    0.22860      0.00000     0.76321    0.00819     0.77140
      H   21    0.24832      0.00000     0.74676    0.00492     0.75168
      H   22    0.24266      0.00000     0.75344    0.00389     0.75734
      H   23    0.23990      0.00000     0.73247    0.02763     0.76010
      H   24    0.19613      0.00000     0.77589    0.02799     0.80387
      H   25    0.18533      0.00000     0.78756    0.02711     0.81467
      H   26    0.23007      0.00000     0.76195    0.00798     0.76993
      H   27    0.23007      0.00000     0.76002    0.00991     0.76993
 =======================================================================
   * Total *    0.00000     17.99440    55.52430    0.48130    74.00000

                                 Natural Population      
 --------------------------------------------------------
   Core                      17.99440 ( 99.9689% of  18)
   Valence                   55.52430 ( 99.1505% of  56)
   Natural Minimal Basis     73.51870 ( 99.3496% of  74)
   Natural Rydberg Basis      0.48130 (  0.6504% of  74)
 --------------------------------------------------------

    Atom  No          Natural Electron Configuration
 ----------------------------------------------------------------------------
      N    1      [core]2S( 1.47)2p( 4.45)3p( 0.01)
      C    2      [core]2S( 1.02)2p( 3.23)3p( 0.01)
      C    3      [core]2S( 1.07)2p( 3.40)3p( 0.01)
      C    4      [core]2S( 1.05)2p( 3.25)3p( 0.01)
      N    5      [core]2S( 1.28)2p( 3.74)
      C    6      [core]2S( 1.05)2p( 3.25)3p( 0.01)
      C    7      [core]2S( 1.11)2p( 3.59)3p( 0.01)
      C    8      [core]2S( 1.06)2p( 3.25)3p( 0.01)
      C    9      [core]2S( 1.12)2p( 3.58)3p( 0.01)
      H   10            1S( 0.66)2S( 0.03)
      H   11            1S( 0.66)2S( 0.02)
      H   12            1S( 0.77)2S( 0.01)
      H   13            1S( 0.81)2S( 0.02)
      H   14            1S( 0.79)2S( 0.03)
      H   15            1S( 0.77)2S( 0.02)
      H   16            1S( 0.76)2S( 0.03)
      H   17            1S( 0.79)2S( 0.04)
      H   18            1S( 0.72)2S( 0.01)
      H   19            1S( 0.75)2S( 0.02)
      H   20            1S( 0.76)2S( 0.01)
      H   21            1S( 0.75)
      H   22            1S( 0.75)
      H   23            1S( 0.73)2S( 0.03)
      H   24            1S( 0.78)2S( 0.03)
      H   25            1S( 0.79)2S( 0.03)
      H   26            1S( 0.76)2S( 0.01)
      H   27            1S( 0.76)2S( 0.01)


 NBO analysis skipped by request.
 1\1\GINC-CN34\SP\RB3LYP TD-FC\6-31G(d,p)\C7H18N2\QDUEZ\11-Jul-2024\0\\
 # TD(NStates=10, Root=1) B3LYP/6-31G** SCRF=(Solvent=water) volume pop
 =NPA density=current Geom=AllCheck Guess=Read\\QOHMWDJIBGVPIF-UHFFFAOY
 SA-N_conf_4\\0,1\N,0,3.4817764961,0.9681527772,0.0327806541\C,0,2.9364
 19438,-0.3995294102,0.0999751017\C,0,1.4856493037,-0.4630188506,-0.391
 7659454\C,0,0.5053322562,0.3065724227,0.5158534227\N,0,-0.9171114753,0
 .2857369442,0.1445228667\C,0,-1.18642103,0.983154245,-1.1209611142\C,0
 ,-2.5990851635,1.5692832915,-1.1928119639\C,0,-1.5375836498,-1.0441268
 453,0.1890852376\C,0,-1.5717162263,-1.6589416913,1.5892296807\H,0,3.08
 89336117,1.5255063889,0.788870012\H,0,4.4800941369,0.9318294282,0.2298
 669536\H,0,3.555180513,-1.0312688229,-0.5474885773\H,0,2.9920647942,-0
 .8417074458,1.1104724664\H,0,1.1906840493,-1.5180543244,-0.4447128344\
 H,0,1.4421042564,-0.0649042151,-1.4126510444\H,0,0.5991032212,-0.07509
 79743,1.53984409\H,0,0.8033567748,1.3613569231,0.5545743449\H,0,-1.014
 0050051,0.3336784441,-1.9988827328\H,0,-0.4666958591,1.8051572515,-1.2
 040421631\H,0,-3.3723051372,0.7954180662,-1.1625385791\H,0,-2.72980697
 34,2.1246759444,-2.1276495713\H,0,-2.7731523401,2.2536633675,-0.356642
 3952\H,0,-1.0581185622,-1.7520223804,-0.5126261806\H,0,-2.5689136479,-
 0.9321414313,-0.1595275146\H,0,-0.5735308669,-1.911883939,1.9590428654
 \H,0,-2.0337528459,-0.9685009006,2.3022987093\H,0,-2.158500069,-2.5829
 872634,1.5758842112\\Version=EM64L-G16RevA.03\State=1-A\HF=-387.100707
 6\RMSD=2.501e-09\Dipole=-1.9004211,-0.0430716,-0.2338881\Quadrupole=-2
 .3488474,0.2290688,2.1197786,-4.0379046,3.426617,1.228238\PG=C01 [X(C7
 H18N2)]\\@


 Luck is a matter of preparation meeting opportunity.
                                    -- Oprah Winfrey
 Job cpu time:       0 days  1 hours 13 minutes 19.1 seconds.
 Elapsed time:       0 days  0 hours 26 minutes 22.7 seconds.
 File lengths (MBytes):  RWF=    454 Int=      0 D2E=      0 Chk=     29 Scr=      1
 Normal termination of Gaussian 16 at Thu Jul 11 19:42:08 2024.
