 Entering Gaussian System, Link 0=g16
 Initial command:
 /opt/sw/arch/manual/gaussian/G16_A03/g16/l1.exe "/scratch/1380956/Gau-45604.inp" -scrdir="/scratch/1380956/"
 Entering Link 1 = /opt/sw/arch/manual/gaussian/G16_A03/g16/l1.exe PID=     45605.
  
 Copyright (c) 1988,1990,1992,1993,1995,1998,2003,2009,2016,
            Gaussian, Inc.  All Rights Reserved.
  
 This is part of the Gaussian(R) 16 program.  It is based on
 the Gaussian(R) 09 system (copyright 2009, Gaussian, Inc.),
 the Gaussian(R) 03 system (copyright 2003, Gaussian, Inc.),
 the Gaussian(R) 98 system (copyright 1998, Gaussian, Inc.),
 the Gaussian(R) 94 system (copyright 1995, Gaussian, Inc.),
 the Gaussian 92(TM) system (copyright 1992, Gaussian, Inc.),
 the Gaussian 90(TM) system (copyright 1990, Gaussian, Inc.),
 the Gaussian 88(TM) system (copyright 1988, Gaussian, Inc.),
 the Gaussian 86(TM) system (copyright 1986, Carnegie Mellon
 University), and the Gaussian 82(TM) system (copyright 1983,
 Carnegie Mellon University). Gaussian is a federally registered
 trademark of Gaussian, Inc.
  
 This software contains proprietary and confidential information,
 including trade secrets, belonging to Gaussian, Inc.
  
 This software is provided under written license and may be
 used, copied, transmitted, or stored only in accord with that
 written license.
  
 The following legend is applicable only to US Government
 contracts under FAR:
  
                    RESTRICTED RIGHTS LEGEND
  
 Use, reproduction and disclosure by the US Government is
 subject to restrictions as set forth in subparagraphs (a)
 and (c) of the Commercial Computer Software - Restricted
 Rights clause in FAR 52.227-19.
  
 Gaussian, Inc.
 340 Quinnipiac St., Bldg. 40, Wallingford CT 06492
  
  
 ---------------------------------------------------------------
 Warning -- This program may not be used in any manner that
 competes with the business of Gaussian, Inc. or will provide
 assistance to any competitor of Gaussian, Inc.  The licensee
 of this program is prohibited from giving any competitor of
 Gaussian, Inc. access to this program.  By using this program,
 the user acknowledges that Gaussian, Inc. is engaged in the
 business of creating and licensing software in the field of
 computational chemistry and represents and warrants to the
 licensee that it is not a competitor of Gaussian, Inc. and that
 it will not use this program in any manner prohibited above.
 ---------------------------------------------------------------
  

 Cite this work as:
 Gaussian 16, Revision A.03,
 M. J. Frisch, G. W. Trucks, H. B. Schlegel, G. E. Scuseria, 
 M. A. Robb, J. R. Cheeseman, G. Scalmani, V. Barone, 
 G. A. Petersson, H. Nakatsuji, X. Li, M. Caricato, A. V. Marenich, 
 J. Bloino, B. G. Janesko, R. Gomperts, B. Mennucci, H. P. Hratchian, 
 J. V. Ortiz, A. F. Izmaylov, J. L. Sonnenberg, D. Williams-Young, 
 F. Ding, F. Lipparini, F. Egidi, J. Goings, B. Peng, A. Petrone, 
 T. Henderson, D. Ranasinghe, V. G. Zakrzewski, J. Gao, N. Rega, 
 G. Zheng, W. Liang, M. Hada, M. Ehara, K. Toyota, R. Fukuda, 
 J. Hasegawa, M. Ishida, T. Nakajima, Y. Honda, O. Kitao, H. Nakai, 
 T. Vreven, K. Throssell, J. A. Montgomery, Jr., J. E. Peralta, 
 F. Ogliaro, M. J. Bearpark, J. J. Heyd, E. N. Brothers, K. N. Kudin, 
 V. N. Staroverov, T. A. Keith, R. Kobayashi, J. Normand, 
 K. Raghavachari, A. P. Rendell, J. C. Burant, S. S. Iyengar, 
 J. Tomasi, M. Cossi, J. M. Millam, M. Klene, C. Adamo, R. Cammi, 
 J. W. Ochterski, R. L. Martin, K. Morokuma, O. Farkas, 
 J. B. Foresman, and D. J. Fox, Gaussian, Inc., Wallingford CT, 2016.
 
 ******************************************
 Gaussian 16:  ES64L-G16RevA.03 25-Dec-2016
                18-Jul-2024 
 ******************************************
 %nprocshared=6
 Will use up to    6 processors via shared memory.
 %mem=12GB
 %Chk=OXEZLYIDQPBCBB-UHFFFAOYSA-N_conf_1_0.chk
 -------------------------------------------------------
 # opt=CalcFc B3LYP/6-31G** SCRF=(Solvent=water) scf=xqc
 -------------------------------------------------------
 1/10=4,18=20,19=15,26=3,38=1/1,3;
 2/9=110,12=2,17=6,18=5,40=1/2;
 3/5=1,6=6,7=101,11=2,25=1,30=1,70=2201,71=2,72=1,74=-5,140=1/1,2,3;
 4//1;
 5/5=2,8=3,13=1,38=5,53=1/2,8;
 8/6=4,10=90,11=11/1;
 11/6=1,8=1,9=11,15=111,16=1/1,2,10;
 10/6=1,13=1/2;
 6/7=2,8=2,9=2,10=2,28=1/1;
 7/10=1,18=20,25=1/1,2,3,16;
 1/10=4,18=20,19=15,26=3/3(2);
 2/9=110/2;
 99//99;
 2/9=110/2;
 3/5=1,6=6,7=101,11=2,25=1,30=1,70=2205,71=1,72=1,74=-5/1,2,3;
 4/5=5,16=3,69=1/1;
 5/5=2,8=3,13=1,38=5,53=1/2,8;
 7//1,2,3,16;
 1/18=20,19=15,26=3/3(-5);
 2/9=110/2;
 6/7=2,8=2,9=2,10=2,19=2,28=1/1;
 99/9=1/99;
 ----------------------------------
 OXEZLYIDQPBCBB-UHFFFAOYSA-N_conf_1
 ----------------------------------
 Symbolic Z-matrix:
 Charge =  0 Multiplicity = 1
 C                    -2.51853   0.70973   1.19323 
 C                    -1.41688  -0.28298   0.76163 
 C                    -0.04975   0.37853   0.55057 
 C                     1.03058  -0.66887   0.25888 
 C                     2.44745  -0.07502   0.15338 
 C                     2.59581   0.90484  -1.02064 
 C                     4.04266   1.37043  -1.18491 
 N                     4.95798   0.24116  -1.33863 
 C                     4.8923   -0.6548   -0.18537 
 C                     3.48108  -1.20442   0.0107 
 C                    -2.85751   1.76435   0.12731 
 C                    -3.6316    1.17513  -1.05179 
 N                    -4.85082   0.50187  -0.60563 
 C                    -4.56228  -0.56556   0.35122 
 C                    -3.80999  -0.03658   1.57312 
 H                    -2.1573    1.23212   2.08895 
 H                    -1.31536  -1.04871   1.54168 
 H                    -1.70391  -0.81136  -0.15436 
 H                     0.22489   0.94942   1.4453 
 H                    -0.10869   1.08146  -0.28534 
 H                     0.78017  -1.20027  -0.66814 
 H                     1.02256  -1.41726   1.0618 
 H                     2.66466   0.46739   1.08385 
 H                     2.2584    0.42699  -1.94961 
 H                     1.96305   1.78565  -0.86598 
 H                     4.11436   2.00695  -2.07368 
 H                     4.34218   1.98497  -0.32703 
 H                     5.91037   0.59148  -1.43834 
 H                     5.58279  -1.48991  -0.34635 
 H                     5.2265   -0.13284   0.71962 
 H                     3.46275  -1.84191   0.90282 
 H                     3.21882  -1.8445   -0.84216 
 H                    -3.47179   2.54655   0.5943 
 H                    -1.95688   2.26942  -0.23512 
 H                    -3.91047   1.98614  -1.73367 
 H                    -3.00252   0.48411  -1.62454 
 H                    -5.3347    0.1099   -1.41294 
 H                    -5.51003  -1.00516   0.68139 
 H                    -3.99636  -1.36801  -0.13585 
 H                    -3.58779  -0.86392   2.25736 
 H                    -4.46619   0.65147   2.12299 
 

 GradGradGradGradGradGradGradGradGradGradGradGradGradGradGradGradGradGrad
 Berny optimization.
 Initialization pass.
                           ----------------------------
                           !    Initial Parameters    !
                           ! (Angstroms and Degrees)  !
 --------------------------                            --------------------------
 ! Name  Definition              Value          Derivative Info.                !
 --------------------------------------------------------------------------------
 ! R1    R(1,2)                  1.5445         calculate D2E/DX2 analytically  !
 ! R2    R(1,11)                 1.5373         calculate D2E/DX2 analytically  !
 ! R3    R(1,15)                 1.5392         calculate D2E/DX2 analytically  !
 ! R4    R(1,16)                 1.098          calculate D2E/DX2 analytically  !
 ! R5    R(2,3)                  1.5334         calculate D2E/DX2 analytically  !
 ! R6    R(2,17)                 1.0978         calculate D2E/DX2 analytically  !
 ! R7    R(2,18)                 1.0957         calculate D2E/DX2 analytically  !
 ! R8    R(3,4)                  1.5327         calculate D2E/DX2 analytically  !
 ! R9    R(3,19)                 1.0963         calculate D2E/DX2 analytically  !
 ! R10   R(3,20)                 1.0938         calculate D2E/DX2 analytically  !
 ! R11   R(4,5)                  1.5399         calculate D2E/DX2 analytically  !
 ! R12   R(4,21)                 1.0975         calculate D2E/DX2 analytically  !
 ! R13   R(4,22)                 1.0976         calculate D2E/DX2 analytically  !
 ! R14   R(5,6)                  1.5364         calculate D2E/DX2 analytically  !
 ! R15   R(5,10)                 1.5376         calculate D2E/DX2 analytically  !
 ! R16   R(5,23)                 1.0987         calculate D2E/DX2 analytically  !
 ! R17   R(6,7)                  1.5288         calculate D2E/DX2 analytically  !
 ! R18   R(6,24)                 1.0978         calculate D2E/DX2 analytically  !
 ! R19   R(6,25)                 1.0955         calculate D2E/DX2 analytically  !
 ! R20   R(7,8)                  1.4617         calculate D2E/DX2 analytically  !
 ! R21   R(7,26)                 1.0955         calculate D2E/DX2 analytically  !
 ! R22   R(7,27)                 1.097          calculate D2E/DX2 analytically  !
 ! R23   R(8,9)                  1.4619         calculate D2E/DX2 analytically  !
 ! R24   R(8,28)                 1.0197         calculate D2E/DX2 analytically  !
 ! R25   R(9,10)                 1.5271         calculate D2E/DX2 analytically  !
 ! R26   R(9,29)                 1.0955         calculate D2E/DX2 analytically  !
 ! R27   R(9,30)                 1.0969         calculate D2E/DX2 analytically  !
 ! R28   R(10,31)                1.0966         calculate D2E/DX2 analytically  !
 ! R29   R(10,32)                1.0981         calculate D2E/DX2 analytically  !
 ! R30   R(11,12)                1.5286         calculate D2E/DX2 analytically  !
 ! R31   R(11,33)                1.0987         calculate D2E/DX2 analytically  !
 ! R32   R(11,34)                1.0943         calculate D2E/DX2 analytically  !
 ! R33   R(12,13)                1.4625         calculate D2E/DX2 analytically  !
 ! R34   R(12,35)                1.0957         calculate D2E/DX2 analytically  !
 ! R35   R(12,36)                1.096          calculate D2E/DX2 analytically  !
 ! R36   R(13,14)                1.4623         calculate D2E/DX2 analytically  !
 ! R37   R(13,37)                1.0196         calculate D2E/DX2 analytically  !
 ! R38   R(14,15)                1.5293         calculate D2E/DX2 analytically  !
 ! R39   R(14,38)                1.0957         calculate D2E/DX2 analytically  !
 ! R40   R(14,39)                1.0961         calculate D2E/DX2 analytically  !
 ! R41   R(15,40)                1.0964         calculate D2E/DX2 analytically  !
 ! R42   R(15,41)                1.0984         calculate D2E/DX2 analytically  !
 ! A1    A(2,1,11)             113.8573         calculate D2E/DX2 analytically  !
 ! A2    A(2,1,15)             110.8423         calculate D2E/DX2 analytically  !
 ! A3    A(2,1,16)             107.4031         calculate D2E/DX2 analytically  !
 ! A4    A(11,1,15)            108.5866         calculate D2E/DX2 analytically  !
 ! A5    A(11,1,16)            108.1665         calculate D2E/DX2 analytically  !
 ! A6    A(15,1,16)            107.7807         calculate D2E/DX2 analytically  !
 ! A7    A(1,2,3)              113.3991         calculate D2E/DX2 analytically  !
 ! A8    A(1,2,17)             108.4045         calculate D2E/DX2 analytically  !
 ! A9    A(1,2,18)             110.8983         calculate D2E/DX2 analytically  !
 ! A10   A(3,2,17)             108.4384         calculate D2E/DX2 analytically  !
 ! A11   A(3,2,18)             109.0581         calculate D2E/DX2 analytically  !
 ! A12   A(17,2,18)            106.3721         calculate D2E/DX2 analytically  !
 ! A13   A(2,3,4)              111.0889         calculate D2E/DX2 analytically  !
 ! A14   A(2,3,19)             109.6134         calculate D2E/DX2 analytically  !
 ! A15   A(2,3,20)             109.5366         calculate D2E/DX2 analytically  !
 ! A16   A(4,3,19)             109.5479         calculate D2E/DX2 analytically  !
 ! A17   A(4,3,20)             109.3728         calculate D2E/DX2 analytically  !
 ! A18   A(19,3,20)            107.6115         calculate D2E/DX2 analytically  !
 ! A19   A(3,4,5)              113.4553         calculate D2E/DX2 analytically  !
 ! A20   A(3,4,21)             109.3179         calculate D2E/DX2 analytically  !
 ! A21   A(3,4,22)             108.7576         calculate D2E/DX2 analytically  !
 ! A22   A(5,4,21)             109.8036         calculate D2E/DX2 analytically  !
 ! A23   A(5,4,22)             108.6492         calculate D2E/DX2 analytically  !
 ! A24   A(21,4,22)            106.6232         calculate D2E/DX2 analytically  !
 ! A25   A(4,5,6)              112.7773         calculate D2E/DX2 analytically  !
 ! A26   A(4,5,10)             109.9751         calculate D2E/DX2 analytically  !
 ! A27   A(4,5,23)             108.3163         calculate D2E/DX2 analytically  !
 ! A28   A(6,5,10)             109.4282         calculate D2E/DX2 analytically  !
 ! A29   A(6,5,23)             108.2523         calculate D2E/DX2 analytically  !
 ! A30   A(10,5,23)            107.9569         calculate D2E/DX2 analytically  !
 ! A31   A(5,6,7)              111.5759         calculate D2E/DX2 analytically  !
 ! A32   A(5,6,24)             109.8369         calculate D2E/DX2 analytically  !
 ! A33   A(5,6,25)             110.4337         calculate D2E/DX2 analytically  !
 ! A34   A(7,6,24)             109.4221         calculate D2E/DX2 analytically  !
 ! A35   A(7,6,25)             108.4787         calculate D2E/DX2 analytically  !
 ! A36   A(24,6,25)            106.9722         calculate D2E/DX2 analytically  !
 ! A37   A(6,7,8)              111.6325         calculate D2E/DX2 analytically  !
 ! A38   A(6,7,26)             109.0298         calculate D2E/DX2 analytically  !
 ! A39   A(6,7,27)             110.1811         calculate D2E/DX2 analytically  !
 ! A40   A(8,7,26)             108.8179         calculate D2E/DX2 analytically  !
 ! A41   A(8,7,27)             110.1249         calculate D2E/DX2 analytically  !
 ! A42   A(26,7,27)            106.923          calculate D2E/DX2 analytically  !
 ! A43   A(7,8,9)              111.247          calculate D2E/DX2 analytically  !
 ! A44   A(7,8,28)             109.2528         calculate D2E/DX2 analytically  !
 ! A45   A(9,8,28)             109.2489         calculate D2E/DX2 analytically  !
 ! A46   A(8,9,10)             111.3084         calculate D2E/DX2 analytically  !
 ! A47   A(8,9,29)             108.8429         calculate D2E/DX2 analytically  !
 ! A48   A(8,9,30)             110.2152         calculate D2E/DX2 analytically  !
 ! A49   A(10,9,29)            109.0851         calculate D2E/DX2 analytically  !
 ! A50   A(10,9,30)            110.2975         calculate D2E/DX2 analytically  !
 ! A51   A(29,9,30)            106.9748         calculate D2E/DX2 analytically  !
 ! A52   A(5,10,9)             111.6397         calculate D2E/DX2 analytically  !
 ! A53   A(5,10,31)            109.8925         calculate D2E/DX2 analytically  !
 ! A54   A(5,10,32)            109.8568         calculate D2E/DX2 analytically  !
 ! A55   A(9,10,31)            109.2149         calculate D2E/DX2 analytically  !
 ! A56   A(9,10,32)            109.3157         calculate D2E/DX2 analytically  !
 ! A57   A(31,10,32)           106.7968         calculate D2E/DX2 analytically  !
 ! A58   A(1,11,12)            112.4617         calculate D2E/DX2 analytically  !
 ! A59   A(1,11,33)            108.479          calculate D2E/DX2 analytically  !
 ! A60   A(1,11,34)            111.3937         calculate D2E/DX2 analytically  !
 ! A61   A(12,11,33)           108.6108         calculate D2E/DX2 analytically  !
 ! A62   A(12,11,34)           109.8279         calculate D2E/DX2 analytically  !
 ! A63   A(33,11,34)           105.8015         calculate D2E/DX2 analytically  !
 ! A64   A(11,12,13)           111.3641         calculate D2E/DX2 analytically  !
 ! A65   A(11,12,35)           108.8823         calculate D2E/DX2 analytically  !
 ! A66   A(11,12,36)           110.8213         calculate D2E/DX2 analytically  !
 ! A67   A(13,12,35)           108.5682         calculate D2E/DX2 analytically  !
 ! A68   A(13,12,36)           110.3445         calculate D2E/DX2 analytically  !
 ! A69   A(35,12,36)           106.7113         calculate D2E/DX2 analytically  !
 ! A70   A(12,13,14)           111.7889         calculate D2E/DX2 analytically  !
 ! A71   A(12,13,37)           109.334          calculate D2E/DX2 analytically  !
 ! A72   A(14,13,37)           109.3383         calculate D2E/DX2 analytically  !
 ! A73   A(13,14,15)           111.555          calculate D2E/DX2 analytically  !
 ! A74   A(13,14,38)           108.626          calculate D2E/DX2 analytically  !
 ! A75   A(13,14,39)           110.2132         calculate D2E/DX2 analytically  !
 ! A76   A(15,14,38)           108.8757         calculate D2E/DX2 analytically  !
 ! A77   A(15,14,39)           110.7504         calculate D2E/DX2 analytically  !
 ! A78   A(38,14,39)           106.6649         calculate D2E/DX2 analytically  !
 ! A79   A(1,15,14)            112.5356         calculate D2E/DX2 analytically  !
 ! A80   A(1,15,40)            110.4791         calculate D2E/DX2 analytically  !
 ! A81   A(1,15,41)            108.7292         calculate D2E/DX2 analytically  !
 ! A82   A(14,15,40)           109.7139         calculate D2E/DX2 analytically  !
 ! A83   A(14,15,41)           108.8318         calculate D2E/DX2 analytically  !
 ! A84   A(40,15,41)           106.3412         calculate D2E/DX2 analytically  !
 ! D1    D(11,1,2,3)            64.9474         calculate D2E/DX2 analytically  !
 ! D2    D(11,1,2,17)         -174.5759         calculate D2E/DX2 analytically  !
 ! D3    D(11,1,2,18)          -58.1501         calculate D2E/DX2 analytically  !
 ! D4    D(15,1,2,3)          -172.2813         calculate D2E/DX2 analytically  !
 ! D5    D(15,1,2,17)          -51.8045         calculate D2E/DX2 analytically  !
 ! D6    D(15,1,2,18)           64.6213         calculate D2E/DX2 analytically  !
 ! D7    D(16,1,2,3)           -54.7805         calculate D2E/DX2 analytically  !
 ! D8    D(16,1,2,17)           65.6963         calculate D2E/DX2 analytically  !
 ! D9    D(16,1,2,18)         -177.8779         calculate D2E/DX2 analytically  !
 ! D10   D(2,1,11,12)           72.3233         calculate D2E/DX2 analytically  !
 ! D11   D(2,1,11,33)         -167.5262         calculate D2E/DX2 analytically  !
 ! D12   D(2,1,11,34)          -51.4682         calculate D2E/DX2 analytically  !
 ! D13   D(15,1,11,12)         -51.6748         calculate D2E/DX2 analytically  !
 ! D14   D(15,1,11,33)          68.4758         calculate D2E/DX2 analytically  !
 ! D15   D(15,1,11,34)        -175.4663         calculate D2E/DX2 analytically  !
 ! D16   D(16,1,11,12)        -168.3815         calculate D2E/DX2 analytically  !
 ! D17   D(16,1,11,33)         -48.2309         calculate D2E/DX2 analytically  !
 ! D18   D(16,1,11,34)          67.827          calculate D2E/DX2 analytically  !
 ! D19   D(2,1,15,14)          -74.4721         calculate D2E/DX2 analytically  !
 ! D20   D(2,1,15,40)           48.54           calculate D2E/DX2 analytically  !
 ! D21   D(2,1,15,41)          164.8838         calculate D2E/DX2 analytically  !
 ! D22   D(11,1,15,14)          51.304          calculate D2E/DX2 analytically  !
 ! D23   D(11,1,15,40)         174.3161         calculate D2E/DX2 analytically  !
 ! D24   D(11,1,15,41)         -69.3401         calculate D2E/DX2 analytically  !
 ! D25   D(16,1,15,14)         168.2582         calculate D2E/DX2 analytically  !
 ! D26   D(16,1,15,40)         -68.7297         calculate D2E/DX2 analytically  !
 ! D27   D(16,1,15,41)          47.6141         calculate D2E/DX2 analytically  !
 ! D28   D(1,2,3,4)            174.4455         calculate D2E/DX2 analytically  !
 ! D29   D(1,2,3,19)            53.2388         calculate D2E/DX2 analytically  !
 ! D30   D(1,2,3,20)           -64.6181         calculate D2E/DX2 analytically  !
 ! D31   D(17,2,3,4)            53.988          calculate D2E/DX2 analytically  !
 ! D32   D(17,2,3,19)          -67.2187         calculate D2E/DX2 analytically  !
 ! D33   D(17,2,3,20)          174.9243         calculate D2E/DX2 analytically  !
 ! D34   D(18,2,3,4)           -61.4501         calculate D2E/DX2 analytically  !
 ! D35   D(18,2,3,19)          177.3432         calculate D2E/DX2 analytically  !
 ! D36   D(18,2,3,20)           59.4863         calculate D2E/DX2 analytically  !
 ! D37   D(2,3,4,5)           -175.2085         calculate D2E/DX2 analytically  !
 ! D38   D(2,3,4,21)            61.8733         calculate D2E/DX2 analytically  !
 ! D39   D(2,3,4,22)           -54.1792         calculate D2E/DX2 analytically  !
 ! D40   D(19,3,4,5)           -53.9633         calculate D2E/DX2 analytically  !
 ! D41   D(19,3,4,21)         -176.8816         calculate D2E/DX2 analytically  !
 ! D42   D(19,3,4,22)           67.066          calculate D2E/DX2 analytically  !
 ! D43   D(20,3,4,5)            63.7588         calculate D2E/DX2 analytically  !
 ! D44   D(20,3,4,21)          -59.1594         calculate D2E/DX2 analytically  !
 ! D45   D(20,3,4,22)         -175.2119         calculate D2E/DX2 analytically  !
 ! D46   D(3,4,5,6)            -63.5733         calculate D2E/DX2 analytically  !
 ! D47   D(3,4,5,10)           173.9828         calculate D2E/DX2 analytically  !
 ! D48   D(3,4,5,23)            56.2166         calculate D2E/DX2 analytically  !
 ! D49   D(21,4,5,6)            59.077          calculate D2E/DX2 analytically  !
 ! D50   D(21,4,5,10)          -63.3669         calculate D2E/DX2 analytically  !
 ! D51   D(21,4,5,23)          178.8669         calculate D2E/DX2 analytically  !
 ! D52   D(22,4,5,6)           175.3365         calculate D2E/DX2 analytically  !
 ! D53   D(22,4,5,10)           52.8926         calculate D2E/DX2 analytically  !
 ! D54   D(22,4,5,23)          -64.8736         calculate D2E/DX2 analytically  !
 ! D55   D(4,5,6,7)           -174.3451         calculate D2E/DX2 analytically  !
 ! D56   D(4,5,6,24)           -52.8255         calculate D2E/DX2 analytically  !
 ! D57   D(4,5,6,25)            64.9212         calculate D2E/DX2 analytically  !
 ! D58   D(10,5,6,7)           -51.595          calculate D2E/DX2 analytically  !
 ! D59   D(10,5,6,24)           69.9246         calculate D2E/DX2 analytically  !
 ! D60   D(10,5,6,25)         -172.3287         calculate D2E/DX2 analytically  !
 ! D61   D(23,5,6,7)            65.8281         calculate D2E/DX2 analytically  !
 ! D62   D(23,5,6,24)         -172.6522         calculate D2E/DX2 analytically  !
 ! D63   D(23,5,6,25)          -54.9056         calculate D2E/DX2 analytically  !
 ! D64   D(4,5,10,9)           176.4144         calculate D2E/DX2 analytically  !
 ! D65   D(4,5,10,31)          -62.2475         calculate D2E/DX2 analytically  !
 ! D66   D(4,5,10,32)           54.9732         calculate D2E/DX2 analytically  !
 ! D67   D(6,5,10,9)            52.0116         calculate D2E/DX2 analytically  !
 ! D68   D(6,5,10,31)          173.3498         calculate D2E/DX2 analytically  !
 ! D69   D(6,5,10,32)          -69.4295         calculate D2E/DX2 analytically  !
 ! D70   D(23,5,10,9)          -65.5969         calculate D2E/DX2 analytically  !
 ! D71   D(23,5,10,31)          55.7413         calculate D2E/DX2 analytically  !
 ! D72   D(23,5,10,32)         172.962          calculate D2E/DX2 analytically  !
 ! D73   D(5,6,7,8)             55.6747         calculate D2E/DX2 analytically  !
 ! D74   D(5,6,7,26)           175.9296         calculate D2E/DX2 analytically  !
 ! D75   D(5,6,7,27)           -67.0166         calculate D2E/DX2 analytically  !
 ! D76   D(24,6,7,8)           -66.0851         calculate D2E/DX2 analytically  !
 ! D77   D(24,6,7,26)           54.1698         calculate D2E/DX2 analytically  !
 ! D78   D(24,6,7,27)          171.2236         calculate D2E/DX2 analytically  !
 ! D79   D(25,6,7,8)           177.5443         calculate D2E/DX2 analytically  !
 ! D80   D(25,6,7,26)          -62.2008         calculate D2E/DX2 analytically  !
 ! D81   D(25,6,7,27)           54.853          calculate D2E/DX2 analytically  !
 ! D82   D(6,7,8,9)            -58.898          calculate D2E/DX2 analytically  !
 ! D83   D(6,7,8,28)          -179.5933         calculate D2E/DX2 analytically  !
 ! D84   D(26,7,8,9)          -179.2771         calculate D2E/DX2 analytically  !
 ! D85   D(26,7,8,28)           60.0276         calculate D2E/DX2 analytically  !
 ! D86   D(27,7,8,9)            63.8255         calculate D2E/DX2 analytically  !
 ! D87   D(27,7,8,28)          -56.8698         calculate D2E/DX2 analytically  !
 ! D88   D(7,8,9,10)            59.1079         calculate D2E/DX2 analytically  !
 ! D89   D(7,8,9,29)           179.3696         calculate D2E/DX2 analytically  !
 ! D90   D(7,8,9,30)           -63.6043         calculate D2E/DX2 analytically  !
 ! D91   D(28,8,9,10)          179.8055         calculate D2E/DX2 analytically  !
 ! D92   D(28,8,9,29)          -59.9328         calculate D2E/DX2 analytically  !
 ! D93   D(28,8,9,30)           57.0933         calculate D2E/DX2 analytically  !
 ! D94   D(8,9,10,5)           -56.2772         calculate D2E/DX2 analytically  !
 ! D95   D(8,9,10,31)         -178.0076         calculate D2E/DX2 analytically  !
 ! D96   D(8,9,10,32)           65.4769         calculate D2E/DX2 analytically  !
 ! D97   D(29,9,10,5)         -176.3958         calculate D2E/DX2 analytically  !
 ! D98   D(29,9,10,31)          61.8739         calculate D2E/DX2 analytically  !
 ! D99   D(29,9,10,32)         -54.6416         calculate D2E/DX2 analytically  !
 ! D100  D(30,9,10,5)           66.3877         calculate D2E/DX2 analytically  !
 ! D101  D(30,9,10,31)         -55.3427         calculate D2E/DX2 analytically  !
 ! D102  D(30,9,10,32)        -171.8582         calculate D2E/DX2 analytically  !
 ! D103  D(1,11,12,13)          55.8842         calculate D2E/DX2 analytically  !
 ! D104  D(1,11,12,35)         175.5652         calculate D2E/DX2 analytically  !
 ! D105  D(1,11,12,36)         -67.3565         calculate D2E/DX2 analytically  !
 ! D106  D(33,11,12,13)        -64.1901         calculate D2E/DX2 analytically  !
 ! D107  D(33,11,12,35)         55.4908         calculate D2E/DX2 analytically  !
 ! D108  D(33,11,12,36)        172.5692         calculate D2E/DX2 analytically  !
 ! D109  D(34,11,12,13)       -179.4585         calculate D2E/DX2 analytically  !
 ! D110  D(34,11,12,35)        -59.7776         calculate D2E/DX2 analytically  !
 ! D111  D(34,11,12,36)         57.3008         calculate D2E/DX2 analytically  !
 ! D112  D(11,12,13,14)        -57.9795         calculate D2E/DX2 analytically  !
 ! D113  D(11,12,13,37)       -179.1905         calculate D2E/DX2 analytically  !
 ! D114  D(35,12,13,14)       -177.8465         calculate D2E/DX2 analytically  !
 ! D115  D(35,12,13,37)         60.9425         calculate D2E/DX2 analytically  !
 ! D116  D(36,12,13,14)         65.533          calculate D2E/DX2 analytically  !
 ! D117  D(36,12,13,37)        -55.678          calculate D2E/DX2 analytically  !
 ! D118  D(12,13,14,15)         57.6629         calculate D2E/DX2 analytically  !
 ! D119  D(12,13,14,38)        177.6766         calculate D2E/DX2 analytically  !
 ! D120  D(12,13,14,39)        -65.7989         calculate D2E/DX2 analytically  !
 ! D121  D(37,13,14,15)        178.8714         calculate D2E/DX2 analytically  !
 ! D122  D(37,13,14,38)        -61.1149         calculate D2E/DX2 analytically  !
 ! D123  D(37,13,14,39)         55.4096         calculate D2E/DX2 analytically  !
 ! D124  D(13,14,15,1)         -55.1658         calculate D2E/DX2 analytically  !
 ! D125  D(13,14,15,40)       -178.6054         calculate D2E/DX2 analytically  !
 ! D126  D(13,14,15,41)         65.4193         calculate D2E/DX2 analytically  !
 ! D127  D(38,14,15,1)        -175.0324         calculate D2E/DX2 analytically  !
 ! D128  D(38,14,15,40)         61.528          calculate D2E/DX2 analytically  !
 ! D129  D(38,14,15,41)        -54.4473         calculate D2E/DX2 analytically  !
 ! D130  D(39,14,15,1)          67.9906         calculate D2E/DX2 analytically  !
 ! D131  D(39,14,15,40)        -55.449          calculate D2E/DX2 analytically  !
 ! D132  D(39,14,15,41)       -171.4243         calculate D2E/DX2 analytically  !
 --------------------------------------------------------------------------------
 Trust Radius=3.00D-01 FncErr=1.00D-07 GrdErr=1.00D-06 EigMax=2.50D+02 EigMin=1.00D-04
 Number of steps in this run=    246 maximum allowed number of steps=    246.
 GradGradGradGradGradGradGradGradGradGradGradGradGradGradGradGradGradGrad

                          Input orientation:                          
 ---------------------------------------------------------------------
 Center     Atomic      Atomic             Coordinates (Angstroms)
 Number     Number       Type             X           Y           Z
 ---------------------------------------------------------------------
      1          6           0       -2.518527    0.709732    1.193233
      2          6           0       -1.416877   -0.282980    0.761631
      3          6           0       -0.049751    0.378532    0.550568
      4          6           0        1.030579   -0.668870    0.258881
      5          6           0        2.447455   -0.075016    0.153383
      6          6           0        2.595814    0.904840   -1.020642
      7          6           0        4.042665    1.370426   -1.184913
      8          7           0        4.957982    0.241162   -1.338634
      9          6           0        4.892301   -0.654803   -0.185372
     10          6           0        3.481077   -1.204418    0.010696
     11          6           0       -2.857514    1.764351    0.127310
     12          6           0       -3.631600    1.175134   -1.051795
     13          7           0       -4.850816    0.501865   -0.605628
     14          6           0       -4.562283   -0.565560    0.351222
     15          6           0       -3.809992   -0.036582    1.573117
     16          1           0       -2.157297    1.232125    2.088948
     17          1           0       -1.315365   -1.048711    1.541685
     18          1           0       -1.703908   -0.811363   -0.154358
     19          1           0        0.224888    0.949422    1.445296
     20          1           0       -0.108690    1.081460   -0.285338
     21          1           0        0.780169   -1.200269   -0.668141
     22          1           0        1.022557   -1.417256    1.061795
     23          1           0        2.664664    0.467386    1.083853
     24          1           0        2.258395    0.426992   -1.949610
     25          1           0        1.963052    1.785653   -0.865980
     26          1           0        4.114365    2.006946   -2.073684
     27          1           0        4.342179    1.984967   -0.327029
     28          1           0        5.910370    0.591479   -1.438342
     29          1           0        5.582787   -1.489913   -0.346346
     30          1           0        5.226501   -0.132844    0.719618
     31          1           0        3.462745   -1.841914    0.902822
     32          1           0        3.218818   -1.844502   -0.842163
     33          1           0       -3.471790    2.546551    0.594300
     34          1           0       -1.956880    2.269422   -0.235121
     35          1           0       -3.910474    1.986144   -1.733675
     36          1           0       -3.002523    0.484113   -1.624543
     37          1           0       -5.334702    0.109901   -1.412936
     38          1           0       -5.510026   -1.005163    0.681391
     39          1           0       -3.996364   -1.368010   -0.135854
     40          1           0       -3.587790   -0.863921    2.257364
     41          1           0       -4.466195    0.651473    2.122992
 ---------------------------------------------------------------------
                    Distance matrix (angstroms):
                    1          2          3          4          5
     1  C    0.000000
     2  C    1.544471   0.000000
     3  C    2.572463   1.533355   0.000000
     4  C    3.920422   2.528183   1.532725   0.000000
     5  C    5.134013   3.917432   2.568949   1.539912   0.000000
     6  C    5.576360   4.548527   3.121653   2.561973   1.536379
     7  C    7.010088   6.027386   4.554517   3.913558   2.534765
     8  N    7.907471   6.732360   5.354004   4.336440   2.937487
     9  C    7.660475   6.390680   5.102281   3.887217   2.535386
    10  C    6.407621   5.040129   3.906909   2.520585   1.537622
    11  C    1.537311   2.582511   3.159616   4.588588   5.614859
    12  C    2.548662   3.212415   4.003971   5.182097   6.322201
    13  N    2.952741   3.778534   4.939861   6.058779   7.360275
    14  C    2.551919   3.184629   4.614541   5.594578   7.029665
    15  C    1.539214   2.538941   3.918844   5.055505   6.416601
    16  H    1.098038   2.146050   2.745356   4.138294   5.163213
    17  H    2.158967   1.097785   2.149677   2.700614   4.127260
    18  H    2.189368   1.095724   2.156155   2.769204   4.227378
    19  H    2.765377   2.163701   1.096303   2.162311   2.767367
    20  H    2.851608   2.160831   1.093764   2.158185   2.839681
    21  H    4.241959   2.777172   2.160240   1.097479   2.172771
    22  H    4.132872   2.706939   2.153150   1.097642   2.158044
    23  H    5.190006   4.162433   2.767732   2.154504   1.098706
    24  H    5.725067   4.621960   3.403055   2.754248   2.170330
    25  H    5.048020   4.283955   2.835132   2.856484   2.176197
    26  H    7.506714   6.624002   5.184428   4.702189   3.474619
    27  H    7.141898   6.284543   4.758136   4.284021   2.839772
    28  H    8.830939   7.700202   6.286824   5.318027   3.869055
    29  H    8.534637   7.188852   6.001752   4.665084   3.475913
    30  H    7.805108   6.645207   5.303671   4.255040   2.836735
    31  H    6.509290   5.124541   4.170383   2.775991   2.171268
    32  H    6.601824   5.147832   4.191077   2.717131   2.171910
    33  H    2.154375   3.500987   4.051242   5.542811   6.488796
    34  H    2.188212   2.792825   2.798198   4.219302   5.004547
    35  H    3.483322   4.194461   4.765224   5.952595   6.944971
    36  H    2.867929   2.965895   3.668940   4.598105   5.759853
    37  H    3.883652   4.498050   5.644308   6.627085   7.940372
    38  H    3.485959   4.157145   5.634388   6.562859   8.029039
    39  H    2.875324   2.938796   4.370050   5.090655   6.578624
    40  H    2.179927   2.699550   4.120019   5.036001   6.439975
    41  H    2.158994   3.467686   4.695954   5.952540   7.225351
                    6          7          8          9         10
     6  C    0.000000
     7  C    1.528768   0.000000
     8  N    2.474152   1.461737   0.000000
     9  C    2.898968   2.412990   1.461876   0.000000
    10  C    2.509246   2.893905   2.468125   1.527113   0.000000
    11  C    5.638736   7.034883   8.096362   8.124636   7.000351
    12  C    6.233355   7.677903   8.644970   8.761064   7.575046
    13  N    7.469065   8.954551   9.839604   9.820531   8.527115
    14  C    7.435216   8.952814   9.702673   9.470219   8.075873
    15  C    6.974827   8.441009   9.242987   8.899685   7.547495
    16  H    5.689352   7.012618   7.959744   7.643942   6.484375
    17  H    5.067465   6.480358   7.022457   6.455463   5.037264
    18  H    4.709927   6.232604   6.847708   6.598140   5.202481
    19  H    3.421130   4.655177   5.536613   5.197823   4.159311
    20  H    2.808240   4.257521   5.242777   5.294763   4.266064
    21  H    2.802197   4.185619   4.470057   4.176150   2.784912
    22  H    3.493395   4.684007   4.898978   4.136626   2.682243
    23  H    2.150582   2.803867   3.343491   2.798679   2.147818
    24  H    1.097803   2.158343   2.774093   3.349668   2.828294
    25  H    1.095509   2.144510   3.402714   3.872926   3.466047
    26  H    2.151635   1.095542   2.090451   3.354969   3.880535
    27  H    2.167387   1.096966   2.107942   2.700202   3.320803
    28  H    3.355436   2.039438   1.019660   2.039514   3.350585
    29  H    3.887354   3.355102   2.090846   1.095487   2.150854
    30  H    3.320513   2.699728   2.109120   1.096876   2.167336
    31  H    3.463515   3.874800   3.405740   2.153376   1.096643
    32  H    2.824689   3.336460   2.760646   2.155760   1.098115
    33  H    6.489920   7.811267   8.950537   8.989692   7.921661
    34  H    4.817277   6.140427   7.290192   7.447473   6.457504
    35  H    6.633960   7.995791   9.047129   9.319909   8.237569
    36  H    5.646511   7.114317   7.969342   8.105343   6.896536
    37  H    7.979907   9.464456  10.293790  10.328760   9.026191
    38  H    8.499981  10.019003  10.733733  10.444254   9.018285
    39  H    7.028905   8.557192   9.176951   8.917370   7.480665
    40  H    7.218780   8.664030   9.337164   8.827379   7.425115
    41  H    7.734248   9.157501  10.048200   9.727093   8.430021
                   11         12         13         14         15
    11  C    0.000000
    12  C    1.528618   0.000000
    13  N    2.470693   1.462479   0.000000
    14  C    2.895662   2.421702   1.462262   0.000000
    15  C    2.498186   2.896592   2.473898   1.529309   0.000000
    16  H    2.149789   3.470026   3.879313   3.469196   2.146416
    17  H    3.505994   4.127538   4.417539   3.491864   2.692315
    18  H    2.836273   2.909907   3.439657   2.913131   2.831968
    19  H    3.449985   4.599881   5.492665   5.138985   4.155574
    20  H    2.862281   3.606539   4.788139   4.790863   4.289931
    21  H    4.759670   5.025280   5.882956   5.475742   5.238988
    22  H    5.104002   5.731399   6.399988   5.693921   5.051856
    23  H    5.752525   6.686168   7.703115   7.337062   6.512644
    24  H    5.681079   6.004817   7.235523   7.266405   7.032058
    25  H    4.921883   5.630931   6.938638   7.042000   6.526697
    26  H    7.315075   7.857234   9.208416   9.369214   8.959386
    27  H    7.217387   8.047500   9.316028   9.287338   8.611336
    28  H    8.983468   9.567615  10.793729  10.687270  10.195528
    29  H    9.058326   9.617955  10.625181  10.210948   9.696433
    30  H    8.324751   9.127687  10.183882   9.805266   9.077221
    31  H    7.317940   7.953165   8.768354   8.144594   7.523379
    32  H    7.133408   7.489351   8.407163   7.975299   7.648943
    33  H    1.098749   2.148476   2.742678   3.306584   2.782991
    34  H    1.094346   2.160811   3.411216   3.894745   3.467189
    35  H    2.149693   1.095658   2.088017   3.358994   3.877678
    36  H    2.174633   1.096034   2.110614   2.727327   3.338886
    37  H    3.353509   2.041005   1.019572   2.040865   3.355996
    38  H    3.874666   3.359481   2.088566   1.095664   2.150219
    39  H    3.343340   2.727560   2.108841   1.096099   2.174401
    40  H    3.460960   3.887184   3.414283   2.161489   1.096384
    41  H    2.794476   3.324160   2.759653   2.151644   1.098355
                   16         17         18         19         20
    16  H    0.000000
    17  H    2.492099   0.000000
    18  H    3.068195   1.756092   0.000000
    19  H    2.483749   2.524719   3.062599   0.000000
    20  H    3.139542   3.054784   2.478841   1.767428   0.000000
    21  H    4.706037   3.049191   2.566294   3.065311   2.478487
    22  H    4.264473   2.414953   3.046268   2.526760   3.055826
    23  H    4.984611   4.283549   4.717286   2.513068   3.153294
    24  H    6.037924   5.209472   4.522865   3.991676   2.966686
    25  H    5.100516   4.957669   4.549450   3.010397   2.263879
    26  H    7.567139   7.203464   6.743810   5.350664   4.678557
    27  H    6.974733   6.686037   6.663666   4.600606   4.541839
    28  H    8.828332   7.986365   7.848173   6.384998   6.148056
    29  H    8.558565   7.165460   7.320739   6.153651   6.245686
    30  H    7.632737   6.656622   7.018176   5.168563   5.563159
    31  H    6.514713   4.885453   5.373451   4.309241   4.765815
    32  H    6.852712   5.184094   5.076780   4.690640   4.465828
    33  H    2.385284   4.298094   3.868007   4.115876   3.772359
    34  H    2.552929   3.818191   3.092208   3.053901   2.197631
    35  H    4.272542   5.164583   3.897335   5.318070   4.167697
    36  H    3.881230   3.901417   2.350767   4.478461   3.244159
    37  H    4.859885   5.121253   3.951634   6.307403   5.433839
    38  H    4.269364   4.282193   3.901610   6.106815   5.870518
    39  H    3.884921   3.178654   2.359142   5.068481   4.597418
    40  H    2.543242   2.389615   3.060747   4.299323   4.727999
    41  H    2.381034   3.627158   3.867355   4.749137   4.997278
                   21         22         23         24         25
    21  H    0.000000
    22  H    1.760260   0.000000
    23  H    3.066248   2.499775   0.000000
    24  H    2.544660   3.741271   3.060814   0.000000
    25  H    3.217776   3.854799   2.456000   1.762793   0.000000
    26  H    4.835146   5.578141   3.800252   2.440547   2.477028
    27  H    4.790616   4.952155   2.666026   3.066302   2.447538
    28  H    5.488400   5.846060   4.112356   3.691256   4.163529
    29  H    4.822093   4.773241   3.793669   4.158913   4.909362
    30  H    4.778612   4.409075   2.656304   4.030862   4.104249
    31  H    3.174247   2.481960   2.450015   3.838588   4.305460
    32  H    2.528305   2.937883   3.059649   2.703430   3.841294
    33  H    5.806167   6.010780   6.497588   6.618083   5.678810
    34  H    4.440462   4.914329   5.132806   4.909437   3.999735
    35  H    5.769812   6.613061   7.312833   6.366517   5.940656
    36  H    4.249778   5.199316   6.281138   5.271261   5.189061
    37  H    6.297850   6.990797   8.387587   7.618641   7.507630
    38  H    6.436292   6.556613   8.316004   8.325960   8.125878
    39  H    4.809027   5.160074   7.016100   6.755276   6.781837
    40  H    5.267901   4.794879   6.499437   7.317306   6.898359
    41  H    6.224445   5.960887   7.208526   7.864896   7.180217
                   26         27         28         29         30
    26  H    0.000000
    27  H    1.761586   0.000000
    28  H    2.373361   2.374037   0.000000
    29  H    4.167491   3.689753   2.373174   0.000000
    30  H    3.690269   2.522424   2.376786   1.762060   0.000000
    31  H    4.908963   4.114724   4.170530   2.485740   2.462786
    32  H    4.141533   4.023945   3.678843   2.441294   3.065897
    33  H    8.059717   7.888113   9.796880   9.958072   9.102479
    34  H    6.348954   6.306148   8.133687   8.425648   7.634355
    35  H    8.032066   8.371675   9.923775  10.204394   9.695003
    36  H    7.291834   7.607940   8.915485   8.901579   8.578611
    37  H    9.660240   9.916506  11.255408  11.085512  10.777093
    38  H   10.454288  10.345227  11.724674  11.150862  10.771973
    39  H    8.996079   8.989455  10.182311   9.582238   9.344448
    40  H    9.291019   8.813606  10.295216   9.553567   8.977241
    41  H    9.647559   9.239494  10.970861  10.567175   9.825119
                   31         32         33         34         35
    31  H    0.000000
    32  H    1.761954   0.000000
    33  H    8.212282   8.130744   0.000000
    34  H    6.897125   6.639331   1.749197   0.000000
    35  H    8.716049   8.142202   2.434330   2.478394   0.000000
    36  H    7.321043   6.688771   3.065473   2.492226   1.758517
    37  H    9.304160   8.792507   3.665611   4.178571   2.377306
    38  H    9.014422   8.900473   4.095933   4.918104   4.164015
    39  H    7.545975   7.265313   4.016478   4.171362   3.716283
    40  H    7.245778   7.543111   3.796124   4.323214   4.914812
    41  H    8.400826   8.607059   2.630030   3.804617   4.118743
                   36         37         38         39         40
    36  H    0.000000
    37  H    2.371470   0.000000
    38  H    3.717909   2.379141   0.000000
    39  H    2.575709   2.367764   1.758044   0.000000
    40  H    4.150775   4.179849   2.489705   2.479623   0.000000
    41  H    4.026707   3.681086   2.431510   3.066177   1.756722
                   41
    41  H    0.000000
 Stoichiometry    C13H26N2
 Framework group  C1[X(C13H26N2)]
 Deg. of freedom   117
 Full point group                 C1      NOp   1
 Largest Abelian subgroup         C1      NOp   1
 Largest concise Abelian subgroup C1      NOp   1
                         Standard orientation:                         
 ---------------------------------------------------------------------
 Center     Atomic      Atomic             Coordinates (Angstroms)
 Number     Number       Type             X           Y           Z
 ---------------------------------------------------------------------
      1          6           0       -2.646242   -0.347881    0.949887
      2          6           0       -1.458956   -0.860610    0.105583
      3          6           0       -0.109680   -0.267961    0.529139
      4          6           0        1.043903   -0.912296   -0.247600
      5          6           0        2.434368   -0.441283    0.217244
      6          6           0        2.662347    1.060142   -0.015590
      7          6           0        4.094959    1.470734    0.325246
      8          7           0        5.073633    0.680356   -0.419182
      9          6           0        4.926052   -0.746675   -0.138323
     10          6           0        3.529339   -1.243006   -0.505639
     11          6           0       -2.917407    1.157071    0.792055
     12          6           0       -3.531083    1.500753   -0.565132
     13          7           0       -4.758309    0.741544   -0.802542
     14          6           0       -4.524868   -0.700646   -0.740856
     15          6           0       -3.934621   -1.117130    0.607081
     16          1           0       -2.408808   -0.544276    2.003804
     17          1           0       -1.406341   -1.952292    0.208503
     18          1           0       -1.620236   -0.658178   -0.959134
     19          1           0        0.039590   -0.423857    1.603986
     20          1           0       -0.111033    0.810740    0.348245
     21          1           0        0.920322   -0.706264   -1.318459
     22          1           0        0.984462   -2.001843   -0.128554
     23          1           0        2.524090   -0.640042    1.294091
     24          1           0        2.450053    1.311152   -1.063014
     25          1           0        1.975849    1.651276    0.600382
     26          1           0        4.232168    2.528735    0.076209
     27          1           0        4.270855    1.371066    1.403421
     28          1           0        6.013676    0.978496   -0.160073
     29          1           0        5.668403   -1.300961   -0.722938
     30          1           0        5.135663   -0.948484    0.919256
     31          1           0        3.444811   -2.305768   -0.248698
     32          1           0        3.391099   -1.167303   -1.592384
     33          1           0       -3.614627    1.469983    1.581498
     34          1           0       -2.007674    1.745083    0.947691
     35          1           0       -3.772556    2.569292   -0.584730
     36          1           0       -2.812037    1.325257   -1.373503
     37          1           0       -5.133226    0.983976   -1.719162
     38          1           0       -5.480979   -1.216331   -0.883682
     39          1           0       -3.872546   -1.014253   -1.563997
     40          1           0       -3.748913   -2.197663    0.611500
     41          1           0       -4.677995   -0.928114    1.393244
 ---------------------------------------------------------------------
 Rotational constants (GHZ):           1.6317754           0.1871509           0.1781869
 Standard basis: 6-31G(d,p) (6D, 7F)
 There are   355 symmetry adapted cartesian basis functions of A   symmetry.
 There are   355 symmetry adapted basis functions of A   symmetry.
   355 basis functions,   602 primitive gaussians,   355 cartesian basis functions
    59 alpha electrons       59 beta electrons
       nuclear repulsion energy      1035.7058615859 Hartrees.
 NAtoms=   41 NActive=   41 NUniq=   41 SFac= 1.00D+00 NAtFMM=   60 NAOKFM=F Big=F
 Integral buffers will be    131072 words long.
 Raffenetti 2 integral format.
 Two-electron integral symmetry is turned on.
 Force inversion solution in PCM.
 ------------------------------------------------------------------------------
 Polarizable Continuum Model (PCM)
 =================================
 Model                : PCM.
 Atomic radii         : UFF (Universal Force Field).
 Polarization charges : Total charges.
 Charge compensation  : None.
 Solution method      : Matrix inversion.
 Cavity type          : Scaled VdW (van der Waals Surface) (Alpha=1.100).
 Cavity algorithm     : GePol (No added spheres)
                        Default sphere list used, NSphG=   41.
                        Lebedev-Laikov grids with approx.  5.0 points / Ang**2.
                        Smoothing algorithm: York/Karplus (Gamma=1.0000).
                        Polarization charges: spherical gaussians, with
                                              point-specific exponents (IZeta= 3).
                        Self-potential: point-specific (ISelfS= 7).
                        Self-field    : sphere-specific E.n sum rule (ISelfD= 2).
 1st derivatives      : Analytical E(r).r(x)/FMM algorithm (CHGder, D1EAlg=3).
                        Cavity 1st derivative terms included.
 2nd derivatives      : Analytical E(r).r(xy)/FMM algorithm (CHGder, D2EAlg=3).
                        Cavity 2nd derivative terms included.
 Solvent              : Water, Eps=  78.355300 Eps(inf)=   1.777849
 ------------------------------------------------------------------------------
 One-electron integrals computed using PRISM.
 NBasis=   355 RedAO= T EigKep=  2.21D-03  NBF=   355
 NBsUse=   355 1.00D-06 EigRej= -1.00D+00 NBFU=   355
 ExpMin= 1.61D-01 ExpMax= 4.17D+03 ExpMxC= 6.27D+02 IAcc=3 IRadAn=         5 AccDes= 0.00D+00
 Harris functional with IExCor=  402 and IRadAn=       5 diagonalized for initial guess.
 HarFok:  IExCor=  402 AccDes= 0.00D+00 IRadAn=         5 IDoV= 1 UseB2=F ITyADJ=14
 ICtDFT=  3500011 ScaDFX=  1.000000  1.000000  1.000000  1.000000
 FoFCou: FMM=F IPFlag=           0 FMFlag=      100000 FMFlg1=           0
         NFxFlg=           0 DoJE=T BraDBF=F KetDBF=T FulRan=T
         wScrn=  0.000000 ICntrl=       500 IOpCl=  0 I1Cent=   200000004 NGrid=           0
         NMat0=    1 NMatS0=      1 NMatT0=    0 NMatD0=    1 NMtDS0=    0 NMtDT0=    0
 Petite list used in FoFCou.
 Requested convergence on RMS density matrix=1.00D-08 within  32 cycles.
 Requested convergence on MAX density matrix=1.00D-06.
 Requested convergence on             energy=1.00D-06.
 No special actions if energy rises.
 Inv3:  Mode=1 IEnd=    18960588.
 Iteration    1 A*A^-1 deviation from unit magnitude is 3.55D-15 for    760.
 Iteration    1 A*A^-1 deviation from orthogonality  is 3.23D-15 for   1909    576.
 Iteration    1 A^-1*A deviation from unit magnitude is 3.11D-15 for    760.
 Iteration    1 A^-1*A deviation from orthogonality  is 4.60D-15 for   2107   2082.
 Error on total polarization charges =  0.01230
 SCF Done:  E(RB3LYP) =  -620.585076121     A.U. after   11 cycles
            NFock= 11  Conv=0.28D-08     -V/T= 2.0096
 QCSCF skips out because SCF is already converged.
 DoSCS=F DFT=T ScalE2(SS,OS)=  1.000000  1.000000
 Range of M.O.s used for correlation:     1   355
 NBasis=   355 NAE=    59 NBE=    59 NFC=     0 NFV=     0
 NROrb=    355 NOA=    59 NOB=    59 NVA=   296 NVB=   296
 Symmetrizing basis deriv contribution to polar:
 IMax=3 JMax=2 DiffMx= 0.00D+00
 G2DrvN: will do    42 centers at a time, making    1 passes.
 Calling FoFCou, ICntrl=  3107 FMM=F I1Cent=   0 AccDes= 0.00D+00.
 NEqPCM:  Using equilibrium solvation (IEInf=0, Eps=  78.3553, EpsInf=   1.7778)
 G2PCM: DoFxE=T DoFxN=T DoGrad=T DoDP/DQ/DG/TGxP=FFFF NFrqRd=   0 IEInf=0 SqF1=F DoCFld=F IF1Alg=4.
 End of G2Drv F.D. properties file   721 does not exist.
 End of G2Drv F.D. properties file   722 does not exist.
 End of G2Drv F.D. properties file   788 does not exist.
          IDoAtm=11111111111111111111111111111111111111111
 NEqPCM:  Using equilibrium solvation (IEInf=0, Eps=  78.3553, EpsInf=   1.7778)
          Differentiating once with respect to nuclear coordinates.
 CalDSu exits because no D1Ps are significant.
          There are   126 degrees of freedom in the 1st order CPHF.  IDoFFX=6 NUNeed=     0.
    120 vectors produced by pass  0 Test12= 1.75D-14 1.00D-09 XBig12= 8.08D-02 6.59D-02.
 AX will form   120 AO Fock derivatives at one time.
    120 vectors produced by pass  1 Test12= 1.75D-14 1.00D-09 XBig12= 4.86D-03 1.07D-02.
    120 vectors produced by pass  2 Test12= 1.75D-14 1.00D-09 XBig12= 3.79D-05 1.04D-03.
    120 vectors produced by pass  3 Test12= 1.75D-14 1.00D-09 XBig12= 6.91D-08 4.13D-05.
    120 vectors produced by pass  4 Test12= 1.75D-14 1.00D-09 XBig12= 8.19D-11 1.28D-06.
     47 vectors produced by pass  5 Test12= 1.75D-14 1.00D-09 XBig12= 5.47D-14 2.65D-08.
      1 vectors produced by pass  6 Test12= 1.75D-14 1.00D-09 XBig12= 2.76D-17 1.15D-09.
 InvSVY:  IOpt=1 It=  1 EMax= 4.16D-16
 Solved reduced A of dimension   648 with   126 vectors.
 End of Minotr F.D. properties file   721 does not exist.
 End of Minotr F.D. properties file   722 does not exist.
 End of Minotr F.D. properties file   788 does not exist.

 **********************************************************************

            Population analysis using the SCF density.

 **********************************************************************

 Orbital symmetries:
       Occupied  (A) (A) (A) (A) (A) (A) (A) (A) (A) (A) (A) (A)
                 (A) (A) (A) (A) (A) (A) (A) (A) (A) (A) (A) (A)
                 (A) (A) (A) (A) (A) (A) (A) (A) (A) (A) (A) (A)
                 (A) (A) (A) (A) (A) (A) (A) (A) (A) (A) (A) (A)
                 (A) (A) (A) (A) (A) (A) (A) (A) (A) (A) (A)
       Virtual   (A) (A) (A) (A) (A) (A) (A) (A) (A) (A) (A) (A)
                 (A) (A) (A) (A) (A) (A) (A) (A) (A) (A) (A) (A)
                 (A) (A) (A) (A) (A) (A) (A) (A) (A) (A) (A) (A)
                 (A) (A) (A) (A) (A) (A) (A) (A) (A) (A) (A) (A)
                 (A) (A) (A) (A) (A) (A) (A) (A) (A) (A) (A) (A)
                 (A) (A) (A) (A) (A) (A) (A) (A) (A) (A) (A) (A)
                 (A) (A) (A) (A) (A) (A) (A) (A) (A) (A) (A) (A)
                 (A) (A) (A) (A) (A) (A) (A) (A) (A) (A) (A) (A)
                 (A) (A) (A) (A) (A) (A) (A) (A) (A) (A) (A) (A)
                 (A) (A) (A) (A) (A) (A) (A) (A) (A) (A) (A) (A)
                 (A) (A) (A) (A) (A) (A) (A) (A) (A) (A) (A) (A)
                 (A) (A) (A) (A) (A) (A) (A) (A) (A) (A) (A) (A)
                 (A) (A) (A) (A) (A) (A) (A) (A) (A) (A) (A) (A)
                 (A) (A) (A) (A) (A) (A) (A) (A) (A) (A) (A) (A)
                 (A) (A) (A) (A) (A) (A) (A) (A) (A) (A) (A) (A)
                 (A) (A) (A) (A) (A) (A) (A) (A) (A) (A) (A) (A)
                 (A) (A) (A) (A) (A) (A) (A) (A) (A) (A) (A) (A)
                 (A) (A) (A) (A) (A) (A) (A) (A) (A) (A) (A) (A)
                 (A) (A) (A) (A) (A) (A) (A) (A) (A) (A) (A) (A)
                 (A) (A) (A) (A) (A) (A) (A) (A) (A) (A) (A) (A)
                 (A) (A) (A) (A) (A) (A) (A) (A) (A) (A) (A) (A)
                 (A) (A) (A) (A) (A) (A) (A) (A) (A) (A) (A) (A)
                 (A) (A) (A) (A) (A) (A) (A) (A) (A) (A) (A) (A)
                 (A) (A) (A) (A) (A) (A) (A) (A) (A) (A) (A) (A)
                 (A) (A) (A) (A) (A) (A) (A) (A)
 The electronic state is 1-A.
 Alpha  occ. eigenvalues --  -14.30870 -14.30826 -10.19713 -10.19688 -10.19671
 Alpha  occ. eigenvalues --  -10.19656 -10.17829 -10.17801 -10.17215 -10.17213
 Alpha  occ. eigenvalues --  -10.17191 -10.17163 -10.17053 -10.17003 -10.16963
 Alpha  occ. eigenvalues --   -0.90059  -0.89986  -0.81167  -0.79308  -0.74629
 Alpha  occ. eigenvalues --   -0.74298  -0.74209  -0.67946  -0.62883  -0.61451
 Alpha  occ. eigenvalues --   -0.61396  -0.59682  -0.57014  -0.54452  -0.51920
 Alpha  occ. eigenvalues --   -0.50101  -0.49821  -0.47079  -0.44706  -0.44120
 Alpha  occ. eigenvalues --   -0.43962  -0.43830  -0.42286  -0.41537  -0.41213
 Alpha  occ. eigenvalues --   -0.40009  -0.39213  -0.38769  -0.37491  -0.37163
 Alpha  occ. eigenvalues --   -0.35489  -0.35308  -0.34463  -0.33978  -0.33640
 Alpha  occ. eigenvalues --   -0.32890  -0.31510  -0.31113  -0.30085  -0.29819
 Alpha  occ. eigenvalues --   -0.29398  -0.27933  -0.21603  -0.21383
 Alpha virt. eigenvalues --    0.07839   0.08678   0.09939   0.10564   0.11513
 Alpha virt. eigenvalues --    0.11612   0.12979   0.13995   0.14164   0.14627
 Alpha virt. eigenvalues --    0.15166   0.15623   0.16674   0.16981   0.17564
 Alpha virt. eigenvalues --    0.17933   0.18288   0.18454   0.18608   0.18901
 Alpha virt. eigenvalues --    0.19389   0.19613   0.20315   0.20898   0.21117
 Alpha virt. eigenvalues --    0.22171   0.22404   0.23073   0.24345   0.24786
 Alpha virt. eigenvalues --    0.25401   0.26254   0.26889   0.27161   0.27923
 Alpha virt. eigenvalues --    0.28208   0.28855   0.29240   0.30056   0.30487
 Alpha virt. eigenvalues --    0.32729   0.33443   0.49293   0.49755   0.51483
 Alpha virt. eigenvalues --    0.52100   0.53212   0.53754   0.55347   0.55887
 Alpha virt. eigenvalues --    0.56606   0.57338   0.58101   0.58963   0.59459
 Alpha virt. eigenvalues --    0.60209   0.60702   0.62367   0.64349   0.65172
 Alpha virt. eigenvalues --    0.65764   0.66133   0.67594   0.69318   0.69611
 Alpha virt. eigenvalues --    0.69795   0.71156   0.74204   0.75207   0.75616
 Alpha virt. eigenvalues --    0.76769   0.77020   0.77631   0.78871   0.79890
 Alpha virt. eigenvalues --    0.81131   0.81617   0.82377   0.82724   0.83388
 Alpha virt. eigenvalues --    0.84210   0.85016   0.85620   0.86177   0.86930
 Alpha virt. eigenvalues --    0.87651   0.88121   0.88631   0.88943   0.89589
 Alpha virt. eigenvalues --    0.90335   0.91456   0.92307   0.92642   0.93256
 Alpha virt. eigenvalues --    0.93816   0.94189   0.94873   0.95260   0.95529
 Alpha virt. eigenvalues --    0.95880   0.96568   0.97001   0.99592   1.00535
 Alpha virt. eigenvalues --    1.01076   1.02206   1.05864   1.09134   1.14908
 Alpha virt. eigenvalues --    1.16352   1.18796   1.19013   1.20502   1.23479
 Alpha virt. eigenvalues --    1.25250   1.27905   1.28489   1.29427   1.34064
 Alpha virt. eigenvalues --    1.36518   1.37966   1.41321   1.42080   1.43352
 Alpha virt. eigenvalues --    1.46581   1.48300   1.48577   1.52913   1.55500
 Alpha virt. eigenvalues --    1.59036   1.59988   1.62375   1.63135   1.63824
 Alpha virt. eigenvalues --    1.64034   1.68485   1.69136   1.69376   1.70793
 Alpha virt. eigenvalues --    1.72832   1.73100   1.75665   1.78263   1.80908
 Alpha virt. eigenvalues --    1.81733   1.83131   1.84695   1.85829   1.86220
 Alpha virt. eigenvalues --    1.86772   1.88175   1.89489   1.89908   1.90682
 Alpha virt. eigenvalues --    1.91146   1.92845   1.93589   1.93995   1.94620
 Alpha virt. eigenvalues --    1.95286   1.96162   1.97675   1.98961   2.00026
 Alpha virt. eigenvalues --    2.01527   2.01962   2.03546   2.05280   2.08053
 Alpha virt. eigenvalues --    2.08989   2.10928   2.11820   2.12360   2.13501
 Alpha virt. eigenvalues --    2.14994   2.15574   2.16538   2.17153   2.18504
 Alpha virt. eigenvalues --    2.18737   2.19265   2.20878   2.21210   2.22653
 Alpha virt. eigenvalues --    2.24671   2.26146   2.26979   2.27770   2.29014
 Alpha virt. eigenvalues --    2.29737   2.31341   2.32761   2.32989   2.34470
 Alpha virt. eigenvalues --    2.35542   2.37684   2.38080   2.39169   2.39558
 Alpha virt. eigenvalues --    2.40193   2.41043   2.41891   2.42373   2.44077
 Alpha virt. eigenvalues --    2.44832   2.46253   2.48270   2.48946   2.53244
 Alpha virt. eigenvalues --    2.53653   2.54589   2.55116   2.56252   2.57590
 Alpha virt. eigenvalues --    2.57833   2.59823   2.62638   2.62835   2.64467
 Alpha virt. eigenvalues --    2.65777   2.67492   2.68027   2.69282   2.70211
 Alpha virt. eigenvalues --    2.71665   2.72133   2.73834   2.75280   2.76676
 Alpha virt. eigenvalues --    2.80106   2.80869   2.81789   2.82696   2.84209
 Alpha virt. eigenvalues --    2.84440   2.85708   2.86652   2.86898   2.88567
 Alpha virt. eigenvalues --    2.89081   2.90536   2.91153   2.91685   2.93073
 Alpha virt. eigenvalues --    2.93588   2.95027   2.95477   2.96074   2.97167
 Alpha virt. eigenvalues --    2.97540   2.97889   2.98986   2.99677   3.02089
 Alpha virt. eigenvalues --    3.22667   3.26053   3.29064   3.30167   3.30807
 Alpha virt. eigenvalues --    3.31101   3.31939   3.32864   3.34100   3.35135
 Alpha virt. eigenvalues --    3.35400   3.39109   3.41148   3.42253   3.43805
 Alpha virt. eigenvalues --    3.47748   3.47947   3.49909   3.50148   3.50846
 Alpha virt. eigenvalues --    3.52541   3.53139   3.55694   3.56594   3.57822
 Alpha virt. eigenvalues --    3.60396   4.09160   4.10027   4.27120   4.35265
 Alpha virt. eigenvalues --    4.41591   4.42861   4.44157   4.57034   4.61907
 Alpha virt. eigenvalues --    4.65849   4.70100   4.74687   4.75924   4.77496
 Alpha virt. eigenvalues --    4.84195
          Condensed to atoms (all electrons):
               1          2          3          4          5          6
     1  C    4.916029   0.368108  -0.034453   0.003446  -0.000130   0.000003
     2  C    0.368108   4.948692   0.366838  -0.035682   0.003699   0.000173
     3  C   -0.034453   0.366838   4.928954   0.364482  -0.034880  -0.004386
     4  C    0.003446  -0.035682   0.364482   4.942279   0.371605  -0.041871
     5  C   -0.000130   0.003699  -0.034880   0.371605   4.901125   0.384128
     6  C    0.000003   0.000173  -0.004386  -0.041871   0.384128   4.954722
     7  C   -0.000000  -0.000002   0.000196   0.004126  -0.033627   0.368304
     8  N    0.000000   0.000000   0.000000  -0.000026  -0.010941  -0.050469
     9  C   -0.000000   0.000001  -0.000157   0.003896  -0.032928  -0.015215
    10  C    0.000001  -0.000124   0.004101  -0.039588   0.377797  -0.046064
    11  C    0.378513  -0.048739  -0.004289   0.000205   0.000003  -0.000004
    12  C   -0.035213  -0.004916  -0.000533  -0.000008   0.000000   0.000000
    13  N   -0.009805  -0.000868   0.000014   0.000000  -0.000000  -0.000000
    14  C   -0.034129  -0.005563   0.000085   0.000002   0.000000   0.000000
    15  C    0.370618  -0.046709   0.004108  -0.000134   0.000001  -0.000000
    16  H    0.384126  -0.045736  -0.006877   0.000065   0.000000   0.000000
    17  H   -0.036056   0.377893  -0.041702  -0.005336   0.000035   0.000002
    18  H   -0.036696   0.379907  -0.038442  -0.003131   0.000095  -0.000019
    19  H   -0.003780  -0.041129   0.383820  -0.041077  -0.003541  -0.001163
    20  H   -0.004415  -0.036178   0.383214  -0.035573  -0.005366   0.002640
    21  H    0.000082  -0.003697  -0.038434   0.376282  -0.034046  -0.009398
    22  H    0.000062  -0.005334  -0.041938   0.376037  -0.036098   0.005375
    23  H    0.000000   0.000040  -0.006027  -0.044064   0.378626  -0.049400
    24  H    0.000000  -0.000043  -0.000850  -0.005849  -0.042155   0.369792
    25  H    0.000010  -0.000100   0.001782  -0.005026  -0.033786   0.371703
    26  H    0.000000   0.000000   0.000000  -0.000137   0.004670  -0.027379
    27  H   -0.000000  -0.000000  -0.000026  -0.000033  -0.011760  -0.046728
    28  H   -0.000000  -0.000000  -0.000000   0.000014   0.000479   0.005375
    29  H    0.000000  -0.000000   0.000002  -0.000128   0.004678   0.000147
    30  H    0.000000  -0.000000   0.000001  -0.000049  -0.011995  -0.000601
    31  H    0.000000  -0.000003   0.000011  -0.005255  -0.033542   0.005679
    32  H    0.000000  -0.000001   0.000102  -0.006566  -0.041135  -0.006342
    33  H   -0.037651   0.005723   0.000084  -0.000002  -0.000000   0.000000
    34  H   -0.035407  -0.007063   0.001699  -0.000162   0.000014  -0.000015
    35  H    0.004958   0.000030  -0.000002   0.000000   0.000000  -0.000000
    36  H   -0.011820   0.002626   0.000213  -0.000024  -0.000000  -0.000000
    37  H    0.000356  -0.000056   0.000000  -0.000000  -0.000000   0.000000
    38  H    0.004959   0.000027  -0.000000  -0.000000   0.000000  -0.000000
    39  H   -0.011600   0.002790  -0.000089   0.000005  -0.000000   0.000000
    40  H   -0.035287  -0.007628   0.000126  -0.000007   0.000000  -0.000000
    41  H   -0.036706   0.005511  -0.000153   0.000002  -0.000000   0.000000
               7          8          9         10         11         12
     1  C   -0.000000   0.000000  -0.000000   0.000001   0.378513  -0.035213
     2  C   -0.000002   0.000000   0.000001  -0.000124  -0.048739  -0.004916
     3  C    0.000196   0.000000  -0.000157   0.004101  -0.004289  -0.000533
     4  C    0.004126  -0.000026   0.003896  -0.039588   0.000205  -0.000008
     5  C   -0.033627  -0.010941  -0.032928   0.377797   0.000003   0.000000
     6  C    0.368304  -0.050469  -0.015215  -0.046064  -0.000004   0.000000
     7  C    4.824165   0.312680  -0.051504  -0.015615  -0.000000  -0.000000
     8  N    0.312680   6.854177   0.314539  -0.051626  -0.000000   0.000000
     9  C   -0.051504   0.314539   4.827350   0.363859  -0.000000  -0.000000
    10  C   -0.015615  -0.051626   0.363859   4.963144   0.000000  -0.000000
    11  C   -0.000000  -0.000000  -0.000000   0.000000   4.958948   0.374596
    12  C   -0.000000   0.000000  -0.000000  -0.000000   0.374596   4.812457
    13  N    0.000000  -0.000000   0.000000   0.000000  -0.050628   0.311658
    14  C    0.000000   0.000000  -0.000000   0.000000  -0.020087  -0.048759
    15  C   -0.000000   0.000000   0.000000  -0.000000  -0.042573  -0.019916
    16  H   -0.000000  -0.000000   0.000000   0.000000  -0.042780   0.005355
    17  H    0.000000  -0.000000   0.000000  -0.000008   0.005478  -0.000010
    18  H   -0.000000   0.000000   0.000000   0.000003  -0.008384   0.003085
    19  H   -0.000028   0.000000   0.000001   0.000104  -0.000835   0.000060
    20  H   -0.000096  -0.000001   0.000003   0.000039   0.000966   0.000248
    21  H    0.000077  -0.000020   0.000046  -0.005728  -0.000013   0.000001
    22  H   -0.000170  -0.000002   0.000122  -0.004755  -0.000001  -0.000000
    23  H   -0.003106  -0.001116  -0.002900  -0.046907   0.000000  -0.000000
    24  H   -0.037396   0.002638  -0.000409  -0.005919   0.000000  -0.000000
    25  H   -0.031145   0.003741   0.000110   0.005583  -0.000006   0.000000
    26  H    0.381437  -0.038635   0.005869   0.000165  -0.000000   0.000000
    27  H    0.368685  -0.058409  -0.006798  -0.000499   0.000000  -0.000000
    28  H   -0.034895   0.341266  -0.035042   0.005400   0.000000  -0.000000
    29  H    0.005838  -0.038325   0.379972  -0.026586  -0.000000   0.000000
    30  H   -0.006653  -0.058424   0.368425  -0.046314   0.000000  -0.000000
    31  H    0.000136   0.003830  -0.031372   0.370344  -0.000000  -0.000000
    32  H   -0.000429   0.002656  -0.037525   0.369728   0.000000  -0.000000
    33  H    0.000000  -0.000000  -0.000000   0.000000   0.368006  -0.038820
    34  H    0.000000   0.000000   0.000000  -0.000000   0.373129  -0.033086
    35  H   -0.000000  -0.000000  -0.000000   0.000000  -0.028100   0.383609
    36  H   -0.000000  -0.000000   0.000000  -0.000000  -0.046075   0.372527
    37  H    0.000000  -0.000000   0.000000  -0.000000   0.005372  -0.035187
    38  H   -0.000000   0.000000   0.000000  -0.000000   0.000149   0.005708
    39  H   -0.000000  -0.000000  -0.000000   0.000000   0.000297  -0.005907
    40  H    0.000000  -0.000000   0.000000  -0.000000   0.005565   0.000194
    41  H   -0.000000  -0.000000  -0.000000   0.000000  -0.003198  -0.000718
              13         14         15         16         17         18
     1  C   -0.009805  -0.034129   0.370618   0.384126  -0.036056  -0.036696
     2  C   -0.000868  -0.005563  -0.046709  -0.045736   0.377893   0.379907
     3  C    0.000014   0.000085   0.004108  -0.006877  -0.041702  -0.038442
     4  C    0.000000   0.000002  -0.000134   0.000065  -0.005336  -0.003131
     5  C   -0.000000   0.000000   0.000001   0.000000   0.000035   0.000095
     6  C   -0.000000   0.000000  -0.000000   0.000000   0.000002  -0.000019
     7  C    0.000000   0.000000  -0.000000  -0.000000   0.000000  -0.000000
     8  N   -0.000000   0.000000   0.000000  -0.000000  -0.000000   0.000000
     9  C    0.000000  -0.000000   0.000000   0.000000   0.000000   0.000000
    10  C    0.000000   0.000000  -0.000000   0.000000  -0.000008   0.000003
    11  C   -0.050628  -0.020087  -0.042573  -0.042780   0.005478  -0.008384
    12  C    0.311658  -0.048759  -0.019916   0.005355  -0.000010   0.003085
    13  N    6.857334   0.311083  -0.049812  -0.000073   0.000008  -0.000192
    14  C    0.311083   4.812181   0.374757   0.005216  -0.000503   0.001849
    15  C   -0.049812   0.374757   4.964381  -0.040408  -0.005396  -0.003687
    16  H   -0.000073   0.005216  -0.040408   0.674442  -0.004157   0.006255
    17  H    0.000008  -0.000503  -0.005396  -0.004157   0.649987  -0.039557
    18  H   -0.000192   0.001849  -0.003687   0.006255  -0.039557   0.638130
    19  H   -0.000000   0.000003   0.000093   0.006337  -0.005201   0.006048
    20  H   -0.000006  -0.000009   0.000036  -0.000296   0.005948  -0.006714
    21  H    0.000000  -0.000002   0.000005   0.000006  -0.000514   0.004627
    22  H   -0.000000   0.000000  -0.000008   0.000011   0.006433  -0.000562
    23  H    0.000000  -0.000000   0.000000  -0.000003   0.000008   0.000006
    24  H   -0.000000  -0.000000  -0.000000  -0.000000   0.000001   0.000000
    25  H    0.000000   0.000000  -0.000000   0.000001  -0.000001   0.000013
    26  H   -0.000000  -0.000000  -0.000000   0.000000   0.000000   0.000000
    27  H    0.000000   0.000000  -0.000000   0.000000   0.000000  -0.000000
    28  H    0.000000  -0.000000   0.000000  -0.000000   0.000000  -0.000000
    29  H   -0.000000  -0.000000  -0.000000   0.000000  -0.000000   0.000000
    30  H    0.000000   0.000000  -0.000000  -0.000000   0.000000  -0.000000
    31  H    0.000000  -0.000000  -0.000000   0.000000  -0.000002   0.000001
    32  H   -0.000000   0.000000   0.000000  -0.000000   0.000001  -0.000002
    33  H    0.002909  -0.000715  -0.003749  -0.007228  -0.000168  -0.000001
    34  H    0.003769   0.000197   0.005513  -0.002407   0.000062   0.000038
    35  H   -0.039179   0.005652   0.000159  -0.000155   0.000001  -0.000125
    36  H   -0.057493  -0.005861   0.000324  -0.000153  -0.000060   0.002529
    37  H    0.341786  -0.035097   0.005337   0.000022  -0.000000   0.000030
    38  H   -0.039212   0.382995  -0.027907  -0.000152  -0.000040  -0.000077
    39  H   -0.057694   0.373306  -0.046739  -0.000144   0.000672   0.002336
    40  H    0.003804  -0.032955   0.372223  -0.002515   0.006109  -0.000316
    41  H    0.002737  -0.038005   0.365805  -0.007206   0.000136  -0.000056
              19         20         21         22         23         24
     1  C   -0.003780  -0.004415   0.000082   0.000062   0.000000   0.000000
     2  C   -0.041129  -0.036178  -0.003697  -0.005334   0.000040  -0.000043
     3  C    0.383820   0.383214  -0.038434  -0.041938  -0.006027  -0.000850
     4  C   -0.041077  -0.035573   0.376282   0.376037  -0.044064  -0.005849
     5  C   -0.003541  -0.005366  -0.034046  -0.036098   0.378626  -0.042155
     6  C   -0.001163   0.002640  -0.009398   0.005375  -0.049400   0.369792
     7  C   -0.000028  -0.000096   0.000077  -0.000170  -0.003106  -0.037396
     8  N    0.000000  -0.000001  -0.000020  -0.000002  -0.001116   0.002638
     9  C    0.000001   0.000003   0.000046   0.000122  -0.002900  -0.000409
    10  C    0.000104   0.000039  -0.005728  -0.004755  -0.046907  -0.005919
    11  C   -0.000835   0.000966  -0.000013  -0.000001   0.000000   0.000000
    12  C    0.000060   0.000248   0.000001  -0.000000  -0.000000  -0.000000
    13  N   -0.000000  -0.000006   0.000000  -0.000000   0.000000  -0.000000
    14  C    0.000003  -0.000009  -0.000002   0.000000  -0.000000  -0.000000
    15  C    0.000093   0.000036   0.000005  -0.000008   0.000000  -0.000000
    16  H    0.006337  -0.000296   0.000006   0.000011  -0.000003  -0.000000
    17  H   -0.005201   0.005948  -0.000514   0.006433   0.000008   0.000001
    18  H    0.006048  -0.006714   0.004627  -0.000562   0.000006   0.000000
    19  H    0.644113  -0.040518   0.006072  -0.005144   0.005761   0.000095
    20  H   -0.040518   0.628551  -0.006542   0.005978  -0.000229   0.000752
    21  H    0.006072  -0.006542   0.646279  -0.039567   0.006289   0.005740
    22  H   -0.005144   0.005978  -0.039567   0.653828  -0.003980   0.000044
    23  H    0.005761  -0.000229   0.006289  -0.003980   0.673790   0.006893
    24  H    0.000095   0.000752   0.005740   0.000044   0.006893   0.646113
    25  H    0.000748   0.002105  -0.000096  -0.000072  -0.005509  -0.035437
    26  H    0.000000   0.000007  -0.000001   0.000003  -0.000117  -0.006916
    27  H   -0.000001   0.000011   0.000002   0.000004   0.005978   0.007158
    28  H   -0.000000   0.000000  -0.000000  -0.000000  -0.000054  -0.000118
    29  H    0.000000   0.000000   0.000003  -0.000005  -0.000112  -0.000049
    30  H   -0.000002   0.000000   0.000001   0.000002   0.006032   0.000325
    31  H   -0.000003  -0.000001  -0.000433   0.005321  -0.005685  -0.000014
    32  H    0.000009   0.000001   0.005192  -0.000362   0.006852   0.005291
    33  H   -0.000066  -0.000072  -0.000000   0.000000  -0.000000  -0.000000
    34  H    0.000572   0.003773   0.000016  -0.000000   0.000001  -0.000002
    35  H    0.000000  -0.000031   0.000000  -0.000000   0.000000  -0.000000
    36  H   -0.000016   0.000415  -0.000004   0.000001  -0.000000   0.000000
    37  H    0.000000   0.000000  -0.000000   0.000000  -0.000000   0.000000
    38  H    0.000000  -0.000000   0.000000  -0.000000   0.000000  -0.000000
    39  H   -0.000001   0.000018  -0.000002   0.000001  -0.000000   0.000000
    40  H   -0.000002   0.000002   0.000001  -0.000002   0.000000   0.000000
    41  H   -0.000010   0.000005  -0.000000   0.000000   0.000000   0.000000
              25         26         27         28         29         30
     1  C    0.000010   0.000000  -0.000000  -0.000000   0.000000   0.000000
     2  C   -0.000100   0.000000  -0.000000  -0.000000  -0.000000  -0.000000
     3  C    0.001782   0.000000  -0.000026  -0.000000   0.000002   0.000001
     4  C   -0.005026  -0.000137  -0.000033   0.000014  -0.000128  -0.000049
     5  C   -0.033786   0.004670  -0.011760   0.000479   0.004678  -0.011995
     6  C    0.371703  -0.027379  -0.046728   0.005375   0.000147  -0.000601
     7  C   -0.031145   0.381437   0.368685  -0.034895   0.005838  -0.006653
     8  N    0.003741  -0.038635  -0.058409   0.341266  -0.038325  -0.058424
     9  C    0.000110   0.005869  -0.006798  -0.035042   0.379972   0.368425
    10  C    0.005583   0.000165  -0.000499   0.005400  -0.026586  -0.046314
    11  C   -0.000006  -0.000000   0.000000   0.000000  -0.000000   0.000000
    12  C    0.000000   0.000000  -0.000000  -0.000000   0.000000  -0.000000
    13  N    0.000000  -0.000000   0.000000   0.000000  -0.000000   0.000000
    14  C    0.000000  -0.000000   0.000000  -0.000000  -0.000000   0.000000
    15  C   -0.000000  -0.000000  -0.000000   0.000000  -0.000000  -0.000000
    16  H    0.000001   0.000000   0.000000  -0.000000   0.000000  -0.000000
    17  H   -0.000001   0.000000   0.000000   0.000000  -0.000000   0.000000
    18  H    0.000013   0.000000  -0.000000  -0.000000   0.000000  -0.000000
    19  H    0.000748   0.000000  -0.000001  -0.000000   0.000000  -0.000002
    20  H    0.002105   0.000007   0.000011   0.000000   0.000000   0.000000
    21  H   -0.000096  -0.000001   0.000002  -0.000000   0.000003   0.000001
    22  H   -0.000072   0.000003   0.000004  -0.000000  -0.000005   0.000002
    23  H   -0.005509  -0.000117   0.005978  -0.000054  -0.000112   0.006032
    24  H   -0.035437  -0.006916   0.007158  -0.000118  -0.000049   0.000325
    25  H    0.634017  -0.002389  -0.001824  -0.000213   0.000012   0.000068
    26  H   -0.002389   0.641546  -0.046836  -0.003754  -0.000232  -0.000310
    27  H   -0.001824  -0.046836   0.707488  -0.004930  -0.000308   0.014114
    28  H   -0.000213  -0.003754  -0.004930   0.486534  -0.003893  -0.004838
    29  H    0.000012  -0.000232  -0.000308  -0.003893   0.643109  -0.046956
    30  H    0.000068  -0.000310   0.014114  -0.004838  -0.046956   0.707949
    31  H   -0.000178   0.000012   0.000066  -0.000214  -0.002425  -0.001687
    32  H   -0.000012  -0.000054   0.000336  -0.000115  -0.006841   0.007202
    33  H   -0.000000   0.000000   0.000000   0.000000   0.000000   0.000000
    34  H    0.000016  -0.000000  -0.000000   0.000000  -0.000000   0.000000
    35  H    0.000000  -0.000000   0.000000  -0.000000   0.000000  -0.000000
    36  H   -0.000001   0.000000   0.000000   0.000000  -0.000000   0.000000
    37  H   -0.000000  -0.000000   0.000000   0.000000  -0.000000  -0.000000
    38  H   -0.000000   0.000000  -0.000000  -0.000000  -0.000000  -0.000000
    39  H    0.000000   0.000000  -0.000000   0.000000   0.000000  -0.000000
    40  H   -0.000000  -0.000000  -0.000000   0.000000  -0.000000  -0.000000
    41  H    0.000000   0.000000   0.000000  -0.000000   0.000000  -0.000000
              31         32         33         34         35         36
     1  C    0.000000   0.000000  -0.037651  -0.035407   0.004958  -0.011820
     2  C   -0.000003  -0.000001   0.005723  -0.007063   0.000030   0.002626
     3  C    0.000011   0.000102   0.000084   0.001699  -0.000002   0.000213
     4  C   -0.005255  -0.006566  -0.000002  -0.000162   0.000000  -0.000024
     5  C   -0.033542  -0.041135  -0.000000   0.000014   0.000000  -0.000000
     6  C    0.005679  -0.006342   0.000000  -0.000015  -0.000000  -0.000000
     7  C    0.000136  -0.000429   0.000000   0.000000  -0.000000  -0.000000
     8  N    0.003830   0.002656  -0.000000   0.000000  -0.000000  -0.000000
     9  C   -0.031372  -0.037525  -0.000000   0.000000  -0.000000   0.000000
    10  C    0.370344   0.369728   0.000000  -0.000000   0.000000  -0.000000
    11  C   -0.000000   0.000000   0.368006   0.373129  -0.028100  -0.046075
    12  C   -0.000000  -0.000000  -0.038820  -0.033086   0.383609   0.372527
    13  N    0.000000  -0.000000   0.002909   0.003769  -0.039179  -0.057493
    14  C   -0.000000   0.000000  -0.000715   0.000197   0.005652  -0.005861
    15  C   -0.000000   0.000000  -0.003749   0.005513   0.000159   0.000324
    16  H    0.000000  -0.000000  -0.007228  -0.002407  -0.000155  -0.000153
    17  H   -0.000002   0.000001  -0.000168   0.000062   0.000001  -0.000060
    18  H    0.000001  -0.000002  -0.000001   0.000038  -0.000125   0.002529
    19  H   -0.000003   0.000009  -0.000066   0.000572   0.000000  -0.000016
    20  H   -0.000001   0.000001  -0.000072   0.003773  -0.000031   0.000415
    21  H   -0.000433   0.005192  -0.000000   0.000016   0.000000  -0.000004
    22  H    0.005321  -0.000362   0.000000  -0.000000  -0.000000   0.000001
    23  H   -0.005685   0.006852  -0.000000   0.000001   0.000000  -0.000000
    24  H   -0.000014   0.005291  -0.000000  -0.000002  -0.000000   0.000000
    25  H   -0.000178  -0.000012  -0.000000   0.000016   0.000000  -0.000001
    26  H    0.000012  -0.000054   0.000000  -0.000000  -0.000000   0.000000
    27  H    0.000066   0.000336   0.000000  -0.000000   0.000000   0.000000
[...]
   107    N    8  S      Val( 2S)     1.36197
   108    N    8  S      Ryd( 3S)     0.00079
   109    N    8  S      Ryd( 4S)     0.00001
   110    N    8  px     Val( 2p)     1.34416
   111    N    8  px     Ryd( 3p)     0.00248
   112    N    8  py     Val( 2p)     1.23827
   113    N    8  py     Ryd( 3p)     0.00197
   114    N    8  pz     Val( 2p)     1.76152
   115    N    8  pz     Ryd( 3p)     0.00573
   116    N    8  dxy    Ryd( 3d)     0.00034
   117    N    8  dxz    Ryd( 3d)     0.00108
   118    N    8  dyz    Ryd( 3d)     0.00105
   119    N    8  dx2y2  Ryd( 3d)     0.00068
   120    N    8  dz2    Ryd( 3d)     0.00126

   121    C    9  S      Cor( 1S)     1.99935
   122    C    9  S      Val( 2S)     1.01756
   123    C    9  S      Ryd( 3S)     0.00140
   124    C    9  S      Ryd( 4S)     0.00004
   125    C    9  px     Val( 2p)     1.11701
   126    C    9  px     Ryd( 3p)     0.00262
   127    C    9  py     Val( 2p)     0.90829
   128    C    9  py     Ryd( 3p)     0.00240
   129    C    9  pz     Val( 2p)     1.20788
   130    C    9  pz     Ryd( 3p)     0.00382
   131    C    9  dxy    Ryd( 3d)     0.00091
   132    C    9  dxz    Ryd( 3d)     0.00056
   133    C    9  dyz    Ryd( 3d)     0.00122
   134    C    9  dx2y2  Ryd( 3d)     0.00113
   135    C    9  dz2    Ryd( 3d)     0.00109

   136    C   10  S      Cor( 1S)     1.99930
   137    C   10  S      Val( 2S)     1.03296
   138    C   10  S      Ryd( 3S)     0.00086
   139    C   10  S      Ryd( 4S)     0.00002
   140    C   10  px     Val( 2p)     1.03792
   141    C   10  px     Ryd( 3p)     0.00187
   142    C   10  py     Val( 2p)     1.19124
   143    C   10  py     Ryd( 3p)     0.00406
   144    C   10  pz     Val( 2p)     1.19873
   145    C   10  pz     Ryd( 3p)     0.00210
   146    C   10  dxy    Ryd( 3d)     0.00045
   147    C   10  dxz    Ryd( 3d)     0.00045
   148    C   10  dyz    Ryd( 3d)     0.00027
   149    C   10  dx2y2  Ryd( 3d)     0.00092
   150    C   10  dz2    Ryd( 3d)     0.00108

   151    C   11  S      Cor( 1S)     1.99929
   152    C   11  S      Val( 2S)     1.03746
   153    C   11  S      Ryd( 3S)     0.00104
   154    C   11  S      Ryd( 4S)     0.00002
   155    C   11  px     Val( 2p)     1.22147
   156    C   11  px     Ryd( 3p)     0.00437
   157    C   11  py     Val( 2p)     1.10725
   158    C   11  py     Ryd( 3p)     0.00207
   159    C   11  pz     Val( 2p)     1.09878
   160    C   11  pz     Ryd( 3p)     0.00251
   161    C   11  dxy    Ryd( 3d)     0.00079
   162    C   11  dxz    Ryd( 3d)     0.00073
   163    C   11  dyz    Ryd( 3d)     0.00046
   164    C   11  dx2y2  Ryd( 3d)     0.00051
   165    C   11  dz2    Ryd( 3d)     0.00065

   166    C   12  S      Cor( 1S)     1.99928
   167    C   12  S      Val( 2S)     1.05765
   168    C   12  S      Ryd( 3S)     0.00165
   169    C   12  S      Ryd( 4S)     0.00004
   170    C   12  px     Val( 2p)     0.95967
   171    C   12  px     Ryd( 3p)     0.00622
   172    C   12  py     Val( 2p)     1.16186
   173    C   12  py     Ryd( 3p)     0.00494
   174    C   12  pz     Val( 2p)     1.13771
   175    C   12  pz     Ryd( 3p)     0.00089
   176    C   12  dxy    Ryd( 3d)     0.00117
   177    C   12  dxz    Ryd( 3d)     0.00077
   178    C   12  dyz    Ryd( 3d)     0.00048
   179    C   12  dx2y2  Ryd( 3d)     0.00100
   180    C   12  dz2    Ryd( 3d)     0.00096

   181    N   13  S      Cor( 1S)     1.99934
   182    N   13  S      Val( 2S)     1.41099
   183    N   13  S      Ryd( 3S)     0.00544
   184    N   13  S      Ryd( 4S)     0.00008
   185    N   13  px     Val( 2p)     1.25853
   186    N   13  px     Ryd( 3p)     0.00024
   187    N   13  py     Val( 2p)     1.26542
   188    N   13  py     Ryd( 3p)     0.00066
   189    N   13  pz     Val( 2p)     1.25296
   190    N   13  pz     Ryd( 3p)     0.00213
   191    N   13  dxy    Ryd( 3d)     0.00088
   192    N   13  dxz    Ryd( 3d)     0.00037
   193    N   13  dyz    Ryd( 3d)     0.00040
   194    N   13  dx2y2  Ryd( 3d)     0.00088
   195    N   13  dz2    Ryd( 3d)     0.00081

   196    C   14  S      Cor( 1S)     1.99928
   197    C   14  S      Val( 2S)     1.05265
   198    C   14  S      Ryd( 3S)     0.00147
   199    C   14  S      Ryd( 4S)     0.00003
   200    C   14  px     Val( 2p)     1.22604
   201    C   14  px     Ryd( 3p)     0.00538
   202    C   14  py     Val( 2p)     0.89636
   203    C   14  py     Ryd( 3p)     0.00608
   204    C   14  pz     Val( 2p)     1.14206
   205    C   14  pz     Ryd( 3p)     0.00106
   206    C   14  dxy    Ryd( 3d)     0.00095
   207    C   14  dxz    Ryd( 3d)     0.00081
   208    C   14  dyz    Ryd( 3d)     0.00047
   209    C   14  dx2y2  Ryd( 3d)     0.00124
   210    C   14  dz2    Ryd( 3d)     0.00095

   211    C   15  S      Cor( 1S)     1.99930
   212    C   15  S      Val( 2S)     1.03727
   213    C   15  S      Ryd( 3S)     0.00089
   214    C   15  S      Ryd( 4S)     0.00002
   215    C   15  px     Val( 2p)     1.11249
   216    C   15  px     Ryd( 3p)     0.00257
   217    C   15  py     Val( 2p)     1.21622
   218    C   15  py     Ryd( 3p)     0.00389
   219    C   15  pz     Val( 2p)     1.09426
   220    C   15  pz     Ryd( 3p)     0.00232
   221    C   15  dxy    Ryd( 3d)     0.00049
   222    C   15  dxz    Ryd( 3d)     0.00092
   223    C   15  dyz    Ryd( 3d)     0.00027
   224    C   15  dx2y2  Ryd( 3d)     0.00084
   225    C   15  dz2    Ryd( 3d)     0.00065

   226    H   16  S      Val( 1S)     0.76014
   227    H   16  S      Ryd( 2S)     0.01026
   228    H   16  px     Ryd( 2p)     0.00011
   229    H   16  py     Ryd( 2p)     0.00011
   230    H   16  pz     Ryd( 2p)     0.00036

   231    H   17  S      Val( 1S)     0.77636
   232    H   17  S      Ryd( 2S)     0.00929
   233    H   17  px     Ryd( 2p)     0.00009
   234    H   17  py     Ryd( 2p)     0.00035
   235    H   17  pz     Ryd( 2p)     0.00010

   236    H   18  S      Val( 1S)     0.79939
   237    H   18  S      Ryd( 2S)     0.02195
   238    H   18  px     Ryd( 2p)     0.00012
   239    H   18  py     Ryd( 2p)     0.00012
   240    H   18  pz     Ryd( 2p)     0.00034

   241    H   19  S      Val( 1S)     0.77276
   242    H   19  S      Ryd( 2S)     0.00408
   243    H   19  px     Ryd( 2p)     0.00011
   244    H   19  py     Ryd( 2p)     0.00010
   245    H   19  pz     Ryd( 2p)     0.00034

   246    H   20  S      Val( 1S)     0.78090
   247    H   20  S      Ryd( 2S)     0.00856
   248    H   20  px     Ryd( 2p)     0.00012
   249    H   20  py     Ryd( 2p)     0.00035
   250    H   20  pz     Ryd( 2p)     0.00010

   251    H   21  S      Val( 1S)     0.77164
   252    H   21  S      Ryd( 2S)     0.00298
   253    H   21  px     Ryd( 2p)     0.00010
   254    H   21  py     Ryd( 2p)     0.00011
   255    H   21  pz     Ryd( 2p)     0.00035

   256    H   22  S      Val( 1S)     0.76670
   257    H   22  S      Ryd( 2S)     0.00206
   258    H   22  px     Ryd( 2p)     0.00010
   259    H   22  py     Ryd( 2p)     0.00036
   260    H   22  pz     Ryd( 2p)     0.00010

   261    H   23  S      Val( 1S)     0.76352
   262    H   23  S      Ryd( 2S)     0.00260
   263    H   23  px     Ryd( 2p)     0.00010
   264    H   23  py     Ryd( 2p)     0.00012
   265    H   23  pz     Ryd( 2p)     0.00037

   266    H   24  S      Val( 1S)     0.76704
   267    H   24  S      Ryd( 2S)     0.00259
   268    H   24  px     Ryd( 2p)     0.00010
   269    H   24  py     Ryd( 2p)     0.00010
   270    H   24  pz     Ryd( 2p)     0.00034

   271    H   25  S      Val( 1S)     0.75676
   272    H   25  S      Ryd( 2S)     0.00138
   273    H   25  px     Ryd( 2p)     0.00022
   274    H   25  py     Ryd( 2p)     0.00017
   275    H   25  pz     Ryd( 2p)     0.00016

   276    H   26  S      Val( 1S)     0.76074
   277    H   26  S      Ryd( 2S)     0.00113
   278    H   26  px     Ryd( 2p)     0.00009
   279    H   26  py     Ryd( 2p)     0.00037
   280    H   26  pz     Ryd( 2p)     0.00009

   281    H   27  S      Val( 1S)     0.79935
   282    H   27  S      Ryd( 2S)     0.00310
   283    H   27  px     Ryd( 2p)     0.00010
   284    H   27  py     Ryd( 2p)     0.00008
   285    H   27  pz     Ryd( 2p)     0.00038

   286    H   28  S      Val( 1S)     0.60085
   287    H   28  S      Ryd( 2S)     0.00168
   288    H   28  px     Ryd( 2p)     0.00055
   289    H   28  py     Ryd( 2p)     0.00030
   290    H   28  pz     Ryd( 2p)     0.00054

   291    H   29  S      Val( 1S)     0.76077
   292    H   29  S      Ryd( 2S)     0.00113
   293    H   29  px     Ryd( 2p)     0.00024
   294    H   29  py     Ryd( 2p)     0.00014
   295    H   29  pz     Ryd( 2p)     0.00017

   296    H   30  S      Val( 1S)     0.79938
   297    H   30  S      Ryd( 2S)     0.00308
   298    H   30  px     Ryd( 2p)     0.00010
   299    H   30  py     Ryd( 2p)     0.00007
   300    H   30  pz     Ryd( 2p)     0.00038

   301    H   31  S      Val( 1S)     0.75694
   302    H   31  S      Ryd( 2S)     0.00127
   303    H   31  px     Ryd( 2p)     0.00010
   304    H   31  py     Ryd( 2p)     0.00035
   305    H   31  pz     Ryd( 2p)     0.00009

   306    H   32  S      Val( 1S)     0.76658
   307    H   32  S      Ryd( 2S)     0.00245
   308    H   32  px     Ryd( 2p)     0.00010
   309    H   32  py     Ryd( 2p)     0.00008
   310    H   32  pz     Ryd( 2p)     0.00036

   311    H   33  S      Val( 1S)     0.75463
   312    H   33  S      Ryd( 2S)     0.00577
   313    H   33  px     Ryd( 2p)     0.00018
   314    H   33  py     Ryd( 2p)     0.00011
   315    H   33  pz     Ryd( 2p)     0.00025

   316    H   34  S      Val( 1S)     0.77284
   317    H   34  S      Ryd( 2S)     0.01339
   318    H   34  px     Ryd( 2p)     0.00028
   319    H   34  py     Ryd( 2p)     0.00016
   320    H   34  pz     Ryd( 2p)     0.00009

   321    H   35  S      Val( 1S)     0.78860
   322    H   35  S      Ryd( 2S)     0.03326
   323    H   35  px     Ryd( 2p)     0.00007
   324    H   35  py     Ryd( 2p)     0.00037
   325    H   35  pz     Ryd( 2p)     0.00006

   326    H   36  S      Val( 1S)     0.73142
   327    H   36  S      Ryd( 2S)     0.03378
   328    H   36  px     Ryd( 2p)     0.00022
   329    H   36  py     Ryd( 2p)     0.00011
   330    H   36  pz     Ryd( 2p)     0.00023

   331    H   37  S      Val( 1S)     0.71235
   332    H   37  S      Ryd( 2S)     0.09122
   333    H   37  px     Ryd( 2p)     0.00027
   334    H   37  py     Ryd( 2p)     0.00024
   335    H   37  pz     Ryd( 2p)     0.00058

   336    H   38  S      Val( 1S)     0.78231
   337    H   38  S      Ryd( 2S)     0.02983
   338    H   38  px     Ryd( 2p)     0.00028
   339    H   38  py     Ryd( 2p)     0.00016
   340    H   38  pz     Ryd( 2p)     0.00007

   341    H   39  S      Val( 1S)     0.72016
   342    H   39  S      Ryd( 2S)     0.02412
   343    H   39  px     Ryd( 2p)     0.00021
   344    H   39  py     Ryd( 2p)     0.00012
   345    H   39  pz     Ryd( 2p)     0.00024

   346    H   40  S      Val( 1S)     0.77048
   347    H   40  S      Ryd( 2S)     0.01270
   348    H   40  px     Ryd( 2p)     0.00009
   349    H   40  py     Ryd( 2p)     0.00035
   350    H   40  pz     Ryd( 2p)     0.00009

   351    H   41  S      Val( 1S)     0.75171
   352    H   41  S      Ryd( 2S)     0.00417
   353    H   41  px     Ryd( 2p)     0.00021
   354    H   41  py     Ryd( 2p)     0.00009
   355    H   41  pz     Ryd( 2p)     0.00025


 Summary of Natural Population Analysis:                  
                                                          
                                       Natural Population 
                Natural  -----------------------------------------------
    Atom  No    Charge         Core      Valence    Rydberg      Total
 -----------------------------------------------------------------------
      C    1   -0.25785      1.99922     4.24376    0.01487     6.25785
      C    2   -0.46890      1.99930     4.45617    0.01343     6.46890
      C    3   -0.45931      1.99933     4.44771    0.01226     6.45931
      C    4   -0.45480      1.99931     4.44267    0.01282     6.45480
      C    5   -0.25379      1.99922     4.24146    0.01312     6.25379
      C    6   -0.47615      1.99930     4.46464    0.01221     6.47615
      C    7   -0.26494      1.99935     4.25040    0.01519     6.26494
      N    8   -0.72087      1.99956     5.70592    0.01539     7.72087
      C    9   -0.26527      1.99935     4.25073    0.01519     6.26527
      C   10   -0.47222      1.99930     4.46085    0.01207     6.47222
      C   11   -0.47741      1.99929     4.46497    0.01315     6.47741
      C   12   -0.33429      1.99928     4.31689    0.01812     6.33429
      N   13   -0.19911      1.99934     5.18790    0.01188     7.19911
      C   14   -0.33485      1.99928     4.31712    0.01846     6.33485
      C   15   -0.47238      1.99930     4.46024    0.01285     6.47238
      H   16    0.22901      0.00000     0.76014    0.01085     0.77099
      H   17    0.21380      0.00000     0.77636    0.00983     0.78620
      H   18    0.17808      0.00000     0.79939    0.02252     0.82192
      H   19    0.22261      0.00000     0.77276    0.00464     0.77739
      H   20    0.20998      0.00000     0.78090    0.00912     0.79002
      H   21    0.22482      0.00000     0.77164    0.00354     0.77518
      H   22    0.23068      0.00000     0.76670    0.00262     0.76932
      H   23    0.23329      0.00000     0.76352    0.00319     0.76671
      H   24    0.22983      0.00000     0.76704    0.00313     0.77017
      H   25    0.24130      0.00000     0.75676    0.00194     0.75870
      H   26    0.23758      0.00000     0.76074    0.00168     0.76242
      H   27    0.19699      0.00000     0.79935    0.00366     0.80301
      H   28    0.39608      0.00000     0.60085    0.00306     0.60392
      H   29    0.23755      0.00000     0.76077    0.00168     0.76245
      H   30    0.19698      0.00000     0.79938    0.00364     0.80302
      H   31    0.24125      0.00000     0.75694    0.00181     0.75875
      H   32    0.23042      0.00000     0.76658    0.00300     0.76958
      H   33    0.23905      0.00000     0.75463    0.00632     0.76095
      H   34    0.21324      0.00000     0.77284    0.01392     0.78676
      H   35    0.17764      0.00000     0.78860    0.03376     0.82236
      H   36    0.23425      0.00000     0.73142    0.03433     0.76575
      H   37    0.19535      0.00000     0.71235    0.09230     0.80465
      H   38    0.18736      0.00000     0.78231    0.03034     0.81264
      H   39    0.25516      0.00000     0.72016    0.02468     0.74484
      H   40    0.21629      0.00000     0.77048    0.01323     0.78371
      H   41    0.24357      0.00000     0.75171    0.00472     0.75643
 =======================================================================
   * Total *    0.00000     29.98972    87.45576    0.55452   118.00000

                                 Natural Population      
 --------------------------------------------------------
   Core                      29.98972 ( 99.9657% of  30)
   Valence                   87.45576 ( 99.3815% of  88)
   Natural Minimal Basis    117.44548 ( 99.5301% of 118)
   Natural Rydberg Basis      0.55452 (  0.4699% of 118)
 --------------------------------------------------------

    Atom  No          Natural Electron Configuration
 ----------------------------------------------------------------------------
      C    1      [core]2S( 0.97)2p( 3.27)3p( 0.01)
      C    2      [core]2S( 1.04)2p( 3.42)3p( 0.01)
      C    3      [core]2S( 1.03)2p( 3.42)3p( 0.01)
      C    4      [core]2S( 1.02)2p( 3.42)3p( 0.01)
      C    5      [core]2S( 0.96)2p( 3.28)3p( 0.01)
      C    6      [core]2S( 1.03)2p( 3.43)3p( 0.01)
      C    7      [core]2S( 1.02)2p( 3.23)3p( 0.01)
      N    8      [core]2S( 1.36)2p( 4.34)3p( 0.01)
      C    9      [core]2S( 1.02)2p( 3.23)3p( 0.01)
      C   10      [core]2S( 1.03)2p( 3.43)3p( 0.01)
      C   11      [core]2S( 1.04)2p( 3.43)3p( 0.01)
      C   12      [core]2S( 1.06)2p( 3.26)3p( 0.01)
      N   13      [core]2S( 1.41)2p( 3.78)3S( 0.01)
      C   14      [core]2S( 1.05)2p( 3.26)3p( 0.01)
      C   15      [core]2S( 1.04)2p( 3.42)3p( 0.01)
      H   16            1S( 0.76)2S( 0.01)
      H   17            1S( 0.78)2S( 0.01)
      H   18            1S( 0.80)2S( 0.02)
      H   19            1S( 0.77)
      H   20            1S( 0.78)2S( 0.01)
      H   21            1S( 0.77)
      H   22            1S( 0.77)
      H   23            1S( 0.76)
      H   24            1S( 0.77)
      H   25            1S( 0.76)
      H   26            1S( 0.76)
      H   27            1S( 0.80)
      H   28            1S( 0.60)
      H   29            1S( 0.76)
      H   30            1S( 0.80)
      H   31            1S( 0.76)
      H   32            1S( 0.77)
      H   33            1S( 0.75)2S( 0.01)
      H   34            1S( 0.77)2S( 0.01)
      H   35            1S( 0.79)2S( 0.03)
      H   36            1S( 0.73)2S( 0.03)
      H   37            1S( 0.71)2S( 0.09)
      H   38            1S( 0.78)2S( 0.03)
      H   39            1S( 0.72)2S( 0.02)
      H   40            1S( 0.77)2S( 0.01)
      H   41            1S( 0.75)


 NBO analysis skipped by request.
 1\1\GINC-DRG2-W014\SP\RB3LYP TD-FC\6-31G(d,p)\C13H26N2\QDUEZ\18-Jul-20
 24\0\\# TD(NStates=10, Root=1) B3LYP/6-31G** SCRF=(Solvent=water) volu
 me pop=NPA density=current Geom=AllCheck Guess=Read\\OXEZLYIDQPBCBB-UH
 FFFAOYSA-N_conf_1\\0,1\C,0,-2.5375595974,0.7134492923,1.1577809329\C,0
 ,-1.4229120357,-0.2667871385,0.7307978054\C,0,-0.0375956069,0.37348724
 79,0.5602174062\C,0,1.0526739509,-0.6534301914,0.2224773115\C,0,2.4797
 348932,-0.0869879209,0.1241198615\C,0,2.6601334391,0.9135368309,-1.034
 2624172\C,0,4.1131683779,1.3870586082,-1.1464921791\N,0,5.0044029673,0
 .2345823025,-1.3168505461\C,0,4.9404082378,-0.6641269307,-0.1591269211
 \C,0,3.5195701055,-1.2160768929,-0.0100884092\C,0,-2.9043728369,1.7551
 546984,0.0745322158\C,0,-3.7318023042,1.1475838645,-1.0644743545\N,0,-
 4.9457003399,0.5262255226,-0.519928896\C,0,-4.6194601327,-0.5703735894
 ,0.4003789146\C,0,-3.8262961673,-0.0220502037,1.5922784409\H,0,-2.1576
 771366,1.2601371626,2.032738313\H,0,-1.3505839067,-1.054018583,1.49455
 16454\H,0,-1.6968554881,-0.7799257083,-0.200015175\H,0,0.2344332625,0.
 8974064934,1.4881065837\H,0,-0.0769414863,1.1396910502,-0.222816105\H,
 0,0.8011671688,-1.153565786,-0.7245628024\H,0,1.0442019843,-1.43999909
 15,0.9905774712\H,0,2.6958509358,0.4498122253,1.0623457666\H,0,2.37010
 14888,0.4292465977,-1.9770575811\H,0,2.0075716045,1.7836644283,-0.9024
 067233\H,0,4.2305441218,2.050393024,-2.010804715\H,0,4.3641161415,1.98
 11014721,-0.2458907095\H,0,5.9595666894,0.5661565665,-1.4289373955\H,0
 ,5.6533841185,-1.4823016028,-0.3111439707\H,0,5.226126633,-0.155628563
 8,0.7824932183\H,0,3.470769683,-1.8792929665,0.8623934426\H,0,3.281458
 1848,-1.8244706801,-0.8933300452\H,0,-3.4993445148,2.5508662495,0.5404
 00458\H,0,-2.0059362419,2.2293956687,-0.3353071093\H,0,-4.0286241988,1
 .9333519699,-1.7683729952\H,0,-3.111779546,0.4289473085,-1.6326721432\
 H,0,-5.503726593,0.1600259314,-1.2877474415\H,0,-5.554992799,-1.021362
 3121,0.7503030801\H,0,-4.0420007856,-1.3748137683,-0.0923840681\H,0,-3
 .5838258198,-0.8386697585,2.283207312\H,0,-4.4713964509,0.6805900151,2
 .1349725236\\Version=ES64L-G16RevA.03\State=1-A\HF=-620.5879879\RMSD=1
 .117e-09\Dipole=-0.3827786,0.3286716,0.4199543\Quadrupole=6.2727942,-1
 .526411,-4.7463832,1.692731,0.8423987,-0.9938422\PG=C01 [X(C13H26N2)]\
 \@


 Mondays are the potholes in the road of life.
                                -- Tom Wilson
 Job cpu time:       0 days  1 hours  9 minutes 57.6 seconds.
 Elapsed time:       0 days  0 hours 46 minutes 45.6 seconds.
 File lengths (MBytes):  RWF=    998 Int=      0 D2E=      0 Chk=     65 Scr=      1
 Normal termination of Gaussian 16 at Thu Jul 18 18:26:11 2024.
