 Entering Gaussian System, Link 0=g16
 Initial command:
 /opt/sw/arch/manual/gaussian/G16_A03/g16/l1.exe "/scratch/1380943/Gau-161983.inp" -scrdir="/scratch/1380943/"
 Entering Link 1 = /opt/sw/arch/manual/gaussian/G16_A03/g16/l1.exe PID=    161984.
  
 Copyright (c) 1988,1990,1992,1993,1995,1998,2003,2009,2016,
            Gaussian, Inc.  All Rights Reserved.
  
 This is part of the Gaussian(R) 16 program.  It is based on
 the Gaussian(R) 09 system (copyright 2009, Gaussian, Inc.),
 the Gaussian(R) 03 system (copyright 2003, Gaussian, Inc.),
 the Gaussian(R) 98 system (copyright 1998, Gaussian, Inc.),
 the Gaussian(R) 94 system (copyright 1995, Gaussian, Inc.),
 the Gaussian 92(TM) system (copyright 1992, Gaussian, Inc.),
 the Gaussian 90(TM) system (copyright 1990, Gaussian, Inc.),
 the Gaussian 88(TM) system (copyright 1988, Gaussian, Inc.),
 the Gaussian 86(TM) system (copyright 1986, Carnegie Mellon
 University), and the Gaussian 82(TM) system (copyright 1983,
 Carnegie Mellon University). Gaussian is a federally registered
 trademark of Gaussian, Inc.
  
 This software contains proprietary and confidential information,
 including trade secrets, belonging to Gaussian, Inc.
  
 This software is provided under written license and may be
 used, copied, transmitted, or stored only in accord with that
 written license.
  
 The following legend is applicable only to US Government
 contracts under FAR:
  
                    RESTRICTED RIGHTS LEGEND
  
 Use, reproduction and disclosure by the US Government is
 subject to restrictions as set forth in subparagraphs (a)
 and (c) of the Commercial Computer Software - Restricted
 Rights clause in FAR 52.227-19.
  
 Gaussian, Inc.
 340 Quinnipiac St., Bldg. 40, Wallingford CT 06492
  
  
 ---------------------------------------------------------------
 Warning -- This program may not be used in any manner that
 competes with the business of Gaussian, Inc. or will provide
 assistance to any competitor of Gaussian, Inc.  The licensee
 of this program is prohibited from giving any competitor of
 Gaussian, Inc. access to this program.  By using this program,
 the user acknowledges that Gaussian, Inc. is engaged in the
 business of creating and licensing software in the field of
 computational chemistry and represents and warrants to the
 licensee that it is not a competitor of Gaussian, Inc. and that
 it will not use this program in any manner prohibited above.
 ---------------------------------------------------------------
  

 Cite this work as:
 Gaussian 16, Revision A.03,
 M. J. Frisch, G. W. Trucks, H. B. Schlegel, G. E. Scuseria, 
 M. A. Robb, J. R. Cheeseman, G. Scalmani, V. Barone, 
 G. A. Petersson, H. Nakatsuji, X. Li, M. Caricato, A. V. Marenich, 
 J. Bloino, B. G. Janesko, R. Gomperts, B. Mennucci, H. P. Hratchian, 
 J. V. Ortiz, A. F. Izmaylov, J. L. Sonnenberg, D. Williams-Young, 
 F. Ding, F. Lipparini, F. Egidi, J. Goings, B. Peng, A. Petrone, 
 T. Henderson, D. Ranasinghe, V. G. Zakrzewski, J. Gao, N. Rega, 
 G. Zheng, W. Liang, M. Hada, M. Ehara, K. Toyota, R. Fukuda, 
 J. Hasegawa, M. Ishida, T. Nakajima, Y. Honda, O. Kitao, H. Nakai, 
 T. Vreven, K. Throssell, J. A. Montgomery, Jr., J. E. Peralta, 
 F. Ogliaro, M. J. Bearpark, J. J. Heyd, E. N. Brothers, K. N. Kudin, 
 V. N. Staroverov, T. A. Keith, R. Kobayashi, J. Normand, 
 K. Raghavachari, A. P. Rendell, J. C. Burant, S. S. Iyengar, 
 J. Tomasi, M. Cossi, J. M. Millam, M. Klene, C. Adamo, R. Cammi, 
 J. W. Ochterski, R. L. Martin, K. Morokuma, O. Farkas, 
 J. B. Foresman, and D. J. Fox, Gaussian, Inc., Wallingford CT, 2016.
 
 ******************************************
 Gaussian 16:  ES64L-G16RevA.03 25-Dec-2016
                18-Jul-2024 
 ******************************************
 %nprocshared=4
 Will use up to    4 processors via shared memory.
 %mem=8GB
 %Chk=MQJKPEGWNLWLTK-UHFFFAOYSA-N_conf_1_0.chk
 -------------------------------------------------------
 # opt=CalcFc B3LYP/6-31G** SCRF=(Solvent=water) scf=xqc
 -------------------------------------------------------
 1/10=4,18=20,19=15,26=3,38=1/1,3;
 2/9=110,12=2,17=6,18=5,40=1/2;
 3/5=1,6=6,7=101,11=2,25=1,30=1,70=2201,71=2,72=1,74=-5,140=1/1,2,3;
 4//1;
 5/5=2,8=3,13=1,38=5,53=1/2,8;
 8/6=4,10=90,11=11/1;
 11/6=1,8=1,9=11,15=111,16=1/1,2,10;
 10/6=1,13=1/2;
 6/7=2,8=2,9=2,10=2,28=1/1;
 7/10=1,18=20,25=1/1,2,3,16;
 1/10=4,18=20,19=15,26=3/3(2);
 2/9=110/2;
 99//99;
 2/9=110/2;
 3/5=1,6=6,7=101,11=2,25=1,30=1,70=2205,71=1,72=1,74=-5/1,2,3;
 4/5=5,16=3,69=1/1;
 5/5=2,8=3,13=1,38=5,53=1/2,8;
 7//1,2,3,16;
 1/18=20,19=15,26=3/3(-5);
 2/9=110/2;
 6/7=2,8=2,9=2,10=2,19=2,28=1/1;
 99/9=1/99;
 ----------------------------------
 MQJKPEGWNLWLTK-UHFFFAOYSA-N_conf_1
 ----------------------------------
 Symbolic Z-matrix:
 Charge =  0 Multiplicity = 1
 O                    -0.07925   0.65294  -2.91959 
 S                    -0.02687   1.22332  -1.5855 
 C                    -1.43835   0.5875   -0.71245 
 C                    -1.6816   -0.78731  -0.72226 
 C                    -2.78251  -1.29278  -0.02648 
 C                    -3.6664   -0.43462   0.63627 
 N                    -4.69278  -0.9589    1.42927 
 C                    -3.37871   0.93392   0.67425 
 C                    -2.28145   1.45448  -0.01665 
 C                     1.41275   0.57766  -0.76735 
 C                     2.25639  -0.3132   -1.4316 
 C                     3.37621  -0.81975  -0.76699 
 C                     3.68491  -0.40819   0.53395 
 N                     4.73612  -1.01312   1.23122 
 C                     2.80105   0.44781   1.19951 
 C                     1.67772   0.96308   0.54818 
 O                     0.00642   2.66265  -1.39821 
 H                    -1.02424  -1.4688   -1.25683 
 H                    -2.94908  -2.3671   -0.00935 
 H                    -5.44998  -0.30636   1.60819 
 H                    -5.03298  -1.86382   1.11865 
 H                    -4.01339   1.6096    1.24249 
 H                    -2.09212   2.52522   0.00574 
 H                     2.05046  -0.62757  -2.45219 
 H                     4.01188  -1.53938  -1.27719 
 H                     5.08411  -0.46377   2.01111 
 H                     5.48638  -1.34979   0.63548 
 H                     2.98513   0.72476   2.2347 
 H                     1.02019   1.65153   1.07355 
 

 GradGradGradGradGradGradGradGradGradGradGradGradGradGradGradGradGradGrad
 Berny optimization.
 Initialization pass.
                           ----------------------------
                           !    Initial Parameters    !
                           ! (Angstroms and Degrees)  !
 --------------------------                            --------------------------
 ! Name  Definition              Value          Derivative Info.                !
 --------------------------------------------------------------------------------
 ! R1    R(1,2)                  1.4519         calculate D2E/DX2 analytically  !
 ! R2    R(2,3)                  1.7773         calculate D2E/DX2 analytically  !
 ! R3    R(2,10)                 1.7773         calculate D2E/DX2 analytically  !
 ! R4    R(2,17)                 1.4519         calculate D2E/DX2 analytically  !
 ! R5    R(3,4)                  1.3962         calculate D2E/DX2 analytically  !
 ! R6    R(3,9)                  1.3952         calculate D2E/DX2 analytically  !
 ! R7    R(4,5)                  1.397          calculate D2E/DX2 analytically  !
 ! R8    R(4,18)                 1.0873         calculate D2E/DX2 analytically  !
 ! R9    R(5,6)                  1.3989         calculate D2E/DX2 analytically  !
 ! R10   R(5,19)                 1.0873         calculate D2E/DX2 analytically  !
 ! R11   R(6,7)                  1.399          calculate D2E/DX2 analytically  !
 ! R12   R(6,8)                  1.399          calculate D2E/DX2 analytically  !
 ! R13   R(7,20)                 1.0155         calculate D2E/DX2 analytically  !
 ! R14   R(7,21)                 1.0154         calculate D2E/DX2 analytically  !
 ! R15   R(8,9)                  1.3972         calculate D2E/DX2 analytically  !
 ! R16   R(8,22)                 1.0873         calculate D2E/DX2 analytically  !
 ! R17   R(9,23)                 1.0876         calculate D2E/DX2 analytically  !
 ! R18   R(10,11)                1.3952         calculate D2E/DX2 analytically  !
 ! R19   R(10,16)                1.3962         calculate D2E/DX2 analytically  !
 ! R20   R(11,12)                1.3972         calculate D2E/DX2 analytically  !
 ! R21   R(11,24)                1.0876         calculate D2E/DX2 analytically  !
 ! R22   R(12,13)                1.399          calculate D2E/DX2 analytically  !
 ! R23   R(12,25)                1.0873         calculate D2E/DX2 analytically  !
 ! R24   R(13,14)                1.399          calculate D2E/DX2 analytically  !
 ! R25   R(13,15)                1.3989         calculate D2E/DX2 analytically  !
 ! R26   R(14,26)                1.0154         calculate D2E/DX2 analytically  !
 ! R27   R(14,27)                1.0155         calculate D2E/DX2 analytically  !
 ! R28   R(15,16)                1.397          calculate D2E/DX2 analytically  !
 ! R29   R(15,28)                1.0873         calculate D2E/DX2 analytically  !
 ! R30   R(16,29)                1.0873         calculate D2E/DX2 analytically  !
 ! A1    A(1,2,3)              106.3911         calculate D2E/DX2 analytically  !
 ! A2    A(1,2,10)             108.0291         calculate D2E/DX2 analytically  !
 ! A3    A(1,2,17)             120.5865         calculate D2E/DX2 analytically  !
 ! A4    A(3,2,10)             106.6903         calculate D2E/DX2 analytically  !
 ! A5    A(3,2,17)             108.0292         calculate D2E/DX2 analytically  !
 ! A6    A(10,2,17)            106.3911         calculate D2E/DX2 analytically  !
 ! A7    A(2,3,4)              119.1551         calculate D2E/DX2 analytically  !
 ! A8    A(2,3,9)              120.1712         calculate D2E/DX2 analytically  !
 ! A9    A(4,3,9)              120.6705         calculate D2E/DX2 analytically  !
 ! A10   A(3,4,5)              119.3457         calculate D2E/DX2 analytically  !
 ! A11   A(3,4,18)             121.0154         calculate D2E/DX2 analytically  !
 ! A12   A(5,4,18)             119.6376         calculate D2E/DX2 analytically  !
 ! A13   A(4,5,6)              120.7923         calculate D2E/DX2 analytically  !
 ! A14   A(4,5,19)             119.0831         calculate D2E/DX2 analytically  !
 ! A15   A(6,5,19)             120.1239         calculate D2E/DX2 analytically  !
 ! A16   A(5,6,7)              120.1465         calculate D2E/DX2 analytically  !
 ! A17   A(5,6,8)              118.8837         calculate D2E/DX2 analytically  !
 ! A18   A(7,6,8)              120.1383         calculate D2E/DX2 analytically  !
 ! A19   A(6,7,20)             113.9617         calculate D2E/DX2 analytically  !
 ! A20   A(6,7,21)             113.9772         calculate D2E/DX2 analytically  !
 ! A21   A(20,7,21)            112.1324         calculate D2E/DX2 analytically  !
 ! A22   A(6,8,9)              120.8321         calculate D2E/DX2 analytically  !
 ! A23   A(6,8,22)             120.1359         calculate D2E/DX2 analytically  !
 ! A24   A(9,8,22)             119.0315         calculate D2E/DX2 analytically  !
 ! A25   A(3,9,8)              119.3166         calculate D2E/DX2 analytically  !
 ! A26   A(3,9,23)             121.1205         calculate D2E/DX2 analytically  !
 ! A27   A(8,9,23)             119.5592         calculate D2E/DX2 analytically  !
 ! A28   A(2,10,11)            120.1712         calculate D2E/DX2 analytically  !
 ! A29   A(2,10,16)            119.1551         calculate D2E/DX2 analytically  !
 ! A30   A(11,10,16)           120.6705         calculate D2E/DX2 analytically  !
 ! A31   A(10,11,12)           119.3166         calculate D2E/DX2 analytically  !
 ! A32   A(10,11,24)           121.1205         calculate D2E/DX2 analytically  !
 ! A33   A(12,11,24)           119.5592         calculate D2E/DX2 analytically  !
 ! A34   A(11,12,13)           120.8321         calculate D2E/DX2 analytically  !
 ! A35   A(11,12,25)           119.0315         calculate D2E/DX2 analytically  !
 ! A36   A(13,12,25)           120.1359         calculate D2E/DX2 analytically  !
 ! A37   A(12,13,14)           120.1382         calculate D2E/DX2 analytically  !
 ! A38   A(12,13,15)           118.8837         calculate D2E/DX2 analytically  !
 ! A39   A(14,13,15)           120.1467         calculate D2E/DX2 analytically  !
 ! A40   A(13,14,26)           113.9775         calculate D2E/DX2 analytically  !
 ! A41   A(13,14,27)           113.9617         calculate D2E/DX2 analytically  !
 ! A42   A(26,14,27)           112.1324         calculate D2E/DX2 analytically  !
 ! A43   A(13,15,16)           120.7922         calculate D2E/DX2 analytically  !
 ! A44   A(13,15,28)           120.1239         calculate D2E/DX2 analytically  !
 ! A45   A(16,15,28)           119.0833         calculate D2E/DX2 analytically  !
 ! A46   A(10,16,15)           119.3457         calculate D2E/DX2 analytically  !
 ! A47   A(10,16,29)           121.0155         calculate D2E/DX2 analytically  !
 ! A48   A(15,16,29)           119.6376         calculate D2E/DX2 analytically  !
 ! D1    D(1,2,3,4)             50.1314         calculate D2E/DX2 analytically  !
 ! D2    D(1,2,3,9)           -130.5097         calculate D2E/DX2 analytically  !
 ! D3    D(10,2,3,4)           -65.019          calculate D2E/DX2 analytically  !
 ! D4    D(10,2,3,9)           114.3399         calculate D2E/DX2 analytically  !
 ! D5    D(17,2,3,4)          -179.0609         calculate D2E/DX2 analytically  !
 ! D6    D(17,2,3,9)             0.298          calculate D2E/DX2 analytically  !
 ! D7    D(1,2,10,11)            0.2991         calculate D2E/DX2 analytically  !
 ! D8    D(1,2,10,16)         -179.0598         calculate D2E/DX2 analytically  !
 ! D9    D(3,2,10,11)          114.3411         calculate D2E/DX2 analytically  !
 ! D10   D(3,2,10,16)          -65.0178         calculate D2E/DX2 analytically  !
 ! D11   D(17,2,10,11)        -130.5085         calculate D2E/DX2 analytically  !
 ! D12   D(17,2,10,16)          50.1326         calculate D2E/DX2 analytically  !
 ! D13   D(2,3,4,5)            179.3781         calculate D2E/DX2 analytically  !
 ! D14   D(2,3,4,18)            -0.2092         calculate D2E/DX2 analytically  !
 ! D15   D(9,3,4,5)              0.0225         calculate D2E/DX2 analytically  !
 ! D16   D(9,3,4,18)          -179.5649         calculate D2E/DX2 analytically  !
 ! D17   D(2,3,9,8)           -179.3869         calculate D2E/DX2 analytically  !
 ! D18   D(2,3,9,23)            -0.0869         calculate D2E/DX2 analytically  !
 ! D19   D(4,3,9,8)             -0.0378         calculate D2E/DX2 analytically  !
 ! D20   D(4,3,9,23)           179.2622         calculate D2E/DX2 analytically  !
 ! D21   D(3,4,5,6)              2.3222         calculate D2E/DX2 analytically  !
 ! D22   D(3,4,5,19)          -177.975          calculate D2E/DX2 analytically  !
 ! D23   D(18,4,5,6)          -178.0847         calculate D2E/DX2 analytically  !
 ! D24   D(18,4,5,19)            1.6181         calculate D2E/DX2 analytically  !
 ! D25   D(4,5,6,7)           -174.1531         calculate D2E/DX2 analytically  !
 ! D26   D(4,5,6,8)             -4.5776         calculate D2E/DX2 analytically  !
 ! D27   D(19,5,6,7)             6.1472         calculate D2E/DX2 analytically  !
 ! D28   D(19,5,6,8)           175.7226         calculate D2E/DX2 analytically  !
 ! D29   D(5,6,7,20)          -160.4937         calculate D2E/DX2 analytically  !
 ! D30   D(5,6,7,21)           -30.0367         calculate D2E/DX2 analytically  !
 ! D31   D(8,6,7,20)            30.0623         calculate D2E/DX2 analytically  !
 ! D32   D(8,6,7,21)           160.5193         calculate D2E/DX2 analytically  !
 ! D33   D(5,6,8,9)              4.5638         calculate D2E/DX2 analytically  !
 ! D34   D(5,6,8,22)          -175.688          calculate D2E/DX2 analytically  !
 ! D35   D(7,6,8,9)            174.1402         calculate D2E/DX2 analytically  !
 ! D36   D(7,6,8,22)            -6.1116         calculate D2E/DX2 analytically  !
 ! D37   D(6,8,9,3)             -2.292          calculate D2E/DX2 analytically  !
 ! D38   D(6,8,9,23)           178.3969         calculate D2E/DX2 analytically  !
 ! D39   D(22,8,9,3)           177.9571         calculate D2E/DX2 analytically  !
 ! D40   D(22,8,9,23)           -1.354          calculate D2E/DX2 analytically  !
 ! D41   D(2,10,11,12)        -179.3876         calculate D2E/DX2 analytically  !
 ! D42   D(2,10,11,24)          -0.0868         calculate D2E/DX2 analytically  !
 ! D43   D(16,10,11,12)         -0.0385         calculate D2E/DX2 analytically  !
 ! D44   D(16,10,11,24)        179.2623         calculate D2E/DX2 analytically  !
 ! D45   D(2,10,16,15)         179.3786         calculate D2E/DX2 analytically  !
 ! D46   D(2,10,16,29)          -0.2092         calculate D2E/DX2 analytically  !
 ! D47   D(11,10,16,15)          0.023          calculate D2E/DX2 analytically  !
 ! D48   D(11,10,16,29)       -179.5648         calculate D2E/DX2 analytically  !
 ! D49   D(10,11,12,13)         -2.2918         calculate D2E/DX2 analytically  !
 ! D50   D(10,11,12,25)        177.958          calculate D2E/DX2 analytically  !
 ! D51   D(24,11,12,13)        178.3964         calculate D2E/DX2 analytically  !
 ! D52   D(24,11,12,25)         -1.3538         calculate D2E/DX2 analytically  !
 ! D53   D(11,12,13,14)        174.1412         calculate D2E/DX2 analytically  !
 ! D54   D(11,12,13,15)          4.5642         calculate D2E/DX2 analytically  !
 ! D55   D(25,12,13,14)         -6.1113         calculate D2E/DX2 analytically  !
 ! D56   D(25,12,13,15)       -175.6883         calculate D2E/DX2 analytically  !
 ! D57   D(12,13,14,26)        160.5195         calculate D2E/DX2 analytically  !
 ! D58   D(12,13,14,27)         30.0622         calculate D2E/DX2 analytically  !
 ! D59   D(15,13,14,26)        -30.0359         calculate D2E/DX2 analytically  !
 ! D60   D(15,13,14,27)       -160.4932         calculate D2E/DX2 analytically  !
 ! D61   D(12,13,15,16)         -4.5782         calculate D2E/DX2 analytically  !
 ! D62   D(12,13,15,28)        175.7228         calculate D2E/DX2 analytically  !
 ! D63   D(14,13,15,16)       -174.1543         calculate D2E/DX2 analytically  !
 ! D64   D(14,13,15,28)          6.1467         calculate D2E/DX2 analytically  !
 ! D65   D(13,15,16,10)          2.3223         calculate D2E/DX2 analytically  !
 ! D66   D(13,15,16,29)       -178.0841         calculate D2E/DX2 analytically  !
 ! D67   D(28,15,16,10)       -177.9756         calculate D2E/DX2 analytically  !
 ! D68   D(28,15,16,29)          1.6179         calculate D2E/DX2 analytically  !
 --------------------------------------------------------------------------------
 Trust Radius=3.00D-01 FncErr=1.00D-07 GrdErr=1.00D-06 EigMax=2.50D+02 EigMin=1.00D-04
 Number of steps in this run=    156 maximum allowed number of steps=    174.
 GradGradGradGradGradGradGradGradGradGradGradGradGradGradGradGradGradGrad

                          Input orientation:                          
 ---------------------------------------------------------------------
 Center     Atomic      Atomic             Coordinates (Angstroms)
 Number     Number       Type             X           Y           Z
 ---------------------------------------------------------------------
      1          8           0       -0.079246    0.652943   -2.919594
      2         16           0       -0.026872    1.223317   -1.585501
      3          6           0       -1.438351    0.587502   -0.712446
      4          6           0       -1.681603   -0.787312   -0.722259
      5          6           0       -2.782509   -1.292777   -0.026478
      6          6           0       -3.666400   -0.434621    0.636275
      7          7           0       -4.692783   -0.958897    1.429268
      8          6           0       -3.378709    0.933922    0.674254
      9          6           0       -2.281452    1.454477   -0.016648
     10          6           0        1.412752    0.577660   -0.767349
     11          6           0        2.256390   -0.313205   -1.431602
     12          6           0        3.376211   -0.819750   -0.766991
     13          6           0        3.684909   -0.408192    0.533947
     14          7           0        4.736117   -1.013121    1.231223
     15          6           0        2.801047    0.447812    1.199512
     16          6           0        1.677719    0.963082    0.548182
     17          8           0        0.006419    2.662652   -1.398211
     18          1           0       -1.024238   -1.468799   -1.256831
     19          1           0       -2.949079   -2.367101   -0.009353
     20          1           0       -5.449980   -0.306361    1.608193
     21          1           0       -5.032979   -1.863825    1.118652
     22          1           0       -4.013395    1.609602    1.242487
     23          1           0       -2.092118    2.525216    0.005737
     24          1           0        2.050457   -0.627570   -2.452188
     25          1           0        4.011883   -1.539383   -1.277194
     26          1           0        5.084109   -0.463772    2.011113
     27          1           0        5.486385   -1.349794    0.635478
     28          1           0        2.985125    0.724760    2.234705
     29          1           0        1.020189    1.651534    1.073550
 ---------------------------------------------------------------------
                    Distance matrix (angstroms):
                    1          2          3          4          5
     1  O    0.000000
     2  S    1.451851   0.000000
     3  C    2.592865   1.777290   0.000000
     4  C    3.077364   2.743347   1.396202   0.000000
     5  C    4.411755   4.044110   2.410967   1.396997   0.000000
     6  C    5.166689   4.575064   2.797853   2.430930   1.398905
     7  N    6.541816   5.968385   4.191612   3.704823   2.424833
     8  C    4.886834   4.052784   2.409965   2.791605   2.409288
     9  C    3.730853   2.756423   1.395207   2.425556   2.792591
    10  C    2.619902   1.777291   2.851649   3.382339   4.652703
    11  C    2.933045   2.756423   3.870345   4.029359   5.322072
    12  C    4.329285   4.052783   5.016308   5.058116   6.221089
    13  C    5.217453   4.575063   5.365883   5.524603   6.551647
    14  N    6.572121   5.968388   6.668126   6.712243   7.628221
    15  C    5.030427   4.044110   4.652698   5.031191   5.975684
    16  C    3.899818   2.743348   3.382327   3.995365   5.031180
    17  O    2.522078   1.451851   2.619902   3.899818   5.030427
    18  H    2.856498   2.889680   2.167076   1.087347   2.153201
    19  H    5.081940   4.890260   3.392096   2.147199   1.087295
    20  H    7.089845   6.476859   4.719907   4.456791   3.280330
    21  H    6.868844   6.473330   4.720516   3.972348   2.588828
    22  H    5.806517   4.902968   3.390767   3.878488   3.398405
    23  H    4.014302   2.914142   2.167472   3.416334   3.880045
    24  H    2.528600   2.914142   4.083489   4.116606   5.448315
    25  H    4.923525   4.902969   5.877723   5.769692   6.912949
    26  H    7.226282   6.473332   7.146009   7.304167   8.168397
    27  H    6.901140   6.476855   7.315872   7.317096   8.295544
    28  H    5.996859   4.890262   5.317112   5.727857   6.515290
    29  H    4.260415   2.889681   3.219685   4.058642   4.933513
                    6          7          8          9         10
     6  C    0.000000
     7  N    1.398988   0.000000
     8  C    1.398970   2.424788   0.000000
     9  C    2.431682   3.705343   1.397246   0.000000
    10  C    5.365879   6.668110   5.016298   3.870337   0.000000
    11  C    6.274575   7.542712   6.143639   5.071372   1.395205
    12  C    7.191373   8.363706   7.126114   6.143637   2.409963
    13  C    7.352069   8.443376   7.191360   6.274565   2.797851
    14  N    8.443394   9.431135   8.363707   7.542712   4.191614
    15  C    6.551625   7.628178   6.221060   5.322050   2.410967
    16  C    5.524575   6.712198   5.058083   4.029334   1.396202
    17  O    5.217454   6.572120   4.329286   2.933046   2.592866
    18  H    3.410923   4.575298   3.878878   3.415287   3.219706
    19  H    2.160061   2.663301   3.398330   3.879463   5.317118
    20  H    2.035248   1.015463   2.588572   3.972433   7.315858
    21  H    2.035400   1.015436   3.280470   4.457683   7.145998
    22  H    2.160265   2.663390   1.087317   2.146883   5.877705
    23  H    3.411242   4.574816   2.152777   1.087579   4.083473
    24  H    6.500637   7.787603   6.456682   5.388155   2.167471
    25  H    7.989861   9.134172   8.034067   7.082248   3.390766
    26  H    8.857902   9.806697   8.681016   7.876737   4.720518
    27  H    9.198424  10.217552   9.154603   8.284232   4.719903
    28  H    6.938438   7.901500   6.555695   5.773899   3.392097
    29  H    5.148531   6.291179   4.474898   3.482556   2.167076
                   11         12         13         14         15
    11  C    0.000000
    12  C    1.397245   0.000000
    13  C    2.431681   1.398969   0.000000
    14  N    3.705343   2.424788   1.398989   0.000000
    15  C    2.792590   2.409286   1.398904   2.424836   0.000000
    16  C    2.425555   2.791603   2.430928   3.704824   1.396997
    17  O    3.730846   4.886825   5.166683   6.541810   4.411760
    18  H    3.482594   4.474948   5.148577   6.291243   4.933540
    19  H    5.773924   6.555731   6.938465   7.901552   6.515293
    20  H    8.284235   9.154601   9.198401  10.217543   8.295495
    21  H    7.876746   8.681026   8.857896   9.806712   8.168364
    22  H    7.082241   8.034054   7.989832   9.134154   6.912903
    23  H    5.388144   6.456665   6.500610   7.787582   5.448281
    24  H    1.087580   2.152776   3.411241   4.574815   3.880044
    25  H    2.146884   1.087317   2.160264   2.663386   3.398403
    26  H    4.457685   3.280472   2.035404   1.015436   2.588833
    27  H    3.972430   2.588571   2.035249   1.015462   3.280330
    28  H    3.879463   3.398328   2.160059   2.663302   1.087294
    29  H    3.415286   3.878875   3.410920   4.575300   2.153199
                   16         17         18         19         20
    16  C    0.000000
    17  O    3.077373   0.000000
    18  H    4.058656   4.260415   0.000000
    19  H    5.727846   5.996859   2.463364   0.000000
    20  H    7.317048   6.901144   5.398780   3.621824   0.000000
    21  H    7.304129   7.226280   4.676427   2.422461   1.685003
    22  H    5.769647   4.923525   4.965703   4.302794   2.422485
    23  H    4.116573   2.528600   4.322800   4.966827   4.675567
    24  H    3.416333   4.014290   3.404452   5.829989   8.535012
    25  H    3.878486   5.806504   5.036656   7.123730   9.968583
    26  H    3.972351   6.868839   7.000103   8.499238  10.542967
    27  H    4.456787   7.089826   6.781092   8.521020  11.029007
    28  H    2.147200   5.081948   5.751305   7.057632   8.520958
    29  H    1.087347   2.856517   4.398504   5.751278   6.781024
                   21         22         23         24         25
    21  H    0.000000
    22  H    3.622096   0.000000
    23  H    5.399159   2.461545   0.000000
    24  H    8.028343   7.444855   5.756942   0.000000
    25  H    9.362417   8.981647   7.444844   2.461545   0.000000
    26  H   10.252419   9.362385   8.028313   5.399160   3.622096
    27  H   10.542993   9.968566   8.534986   4.675563   2.422482
    28  H    8.499196   7.123674   5.829952   4.966826   4.302791
    29  H    7.000045   5.036593   3.404409   4.322799   4.965701
                   26         27         28         29
    26  H    0.000000
    27  H    1.685002   0.000000
    28  H    2.422465   3.621823   0.000000
    29  H    4.676429   5.398776   2.463365   0.000000
 Stoichiometry    C12H12N2O2S
 Framework group  C1[X(C12H12N2O2S)]
 Deg. of freedom    81
 Full point group                 C1      NOp   1
 Largest Abelian subgroup         C1      NOp   1
 Largest concise Abelian subgroup C1      NOp   1
                         Standard orientation:                         
 ---------------------------------------------------------------------
 Center     Atomic      Atomic             Coordinates (Angstroms)
 Number     Number       Type             X           Y           Z
 ---------------------------------------------------------------------
      1          8           0       -0.005372    2.308721    1.261011
      2         16           0       -0.000001    1.589229   -0.000010
      3          6           0        1.425421    0.528203    0.034006
      4          6           0        1.637265   -0.290964    1.144621
      5          6           0        2.749330   -1.136114    1.169821
      6          6           0        3.674072   -1.134363    0.120161
      7          7           0        4.714524   -2.069336    0.098873
      8          6           0        3.418632   -0.342020   -1.004143
      9          6           0        2.310716    0.508402   -1.044169
     10          6           0       -1.425417    0.528194   -0.034009
     11          6           0       -2.310725    0.508422    1.044155
     12          6           0       -3.418642   -0.341998    1.004137
     13          6           0       -3.674068   -1.134371   -0.120148
     14          7           0       -4.714539   -2.069324   -0.098854
     15          6           0       -2.749308   -1.136161   -1.169790
     16          6           0       -1.637244   -0.291012   -1.144600
     17          8           0        0.005364    2.308701   -1.261043
     18          1           0        0.947144   -0.285180    1.984872
     19          1           0        2.892211   -1.796308    2.021840
     20          1           0        5.491777   -1.807838   -0.500011
     21          1           0        5.023665   -2.363733    1.020215
     22          1           0        4.087094   -0.378438   -1.860934
     23          1           0        2.146338    1.134641   -1.918030
     24          1           0       -2.146363    1.134692    1.917997
     25          1           0       -4.087123   -0.378382    1.860914
     26          1           0       -5.023665   -2.363752   -1.020193
     27          1           0       -5.491800   -1.807795    0.500003
     28          1           0       -2.892182   -1.796379   -2.021793
     29          1           0       -0.947112   -0.285253   -1.984842
 ---------------------------------------------------------------------
 Rotational constants (GHZ):           0.7464345           0.2499110           0.2196715
 Standard basis: 6-31G(d,p) (6D, 7F)
 There are   319 symmetry adapted cartesian basis functions of A   symmetry.
 There are   319 symmetry adapted basis functions of A   symmetry.
   319 basis functions,   584 primitive gaussians,   319 cartesian basis functions
    65 alpha electrons       65 beta electrons
       nuclear repulsion energy      1298.7023344473 Hartrees.
 NAtoms=   29 NActive=   29 NUniq=   29 SFac= 1.00D+00 NAtFMM=   60 NAOKFM=F Big=F
 Integral buffers will be    131072 words long.
 Raffenetti 2 integral format.
 Two-electron integral symmetry is turned on.
 Force inversion solution in PCM.
 ------------------------------------------------------------------------------
 Polarizable Continuum Model (PCM)
 =================================
 Model                : PCM.
 Atomic radii         : UFF (Universal Force Field).
 Polarization charges : Total charges.
 Charge compensation  : None.
 Solution method      : Matrix inversion.
 Cavity type          : Scaled VdW (van der Waals Surface) (Alpha=1.100).
 Cavity algorithm     : GePol (No added spheres)
                        Default sphere list used, NSphG=   29.
                        Lebedev-Laikov grids with approx.  5.0 points / Ang**2.
                        Smoothing algorithm: York/Karplus (Gamma=1.0000).
                        Polarization charges: spherical gaussians, with
                                              point-specific exponents (IZeta= 3).
                        Self-potential: point-specific (ISelfS= 7).
                        Self-field    : sphere-specific E.n sum rule (ISelfD= 2).
 1st derivatives      : Analytical E(r).r(x)/FMM algorithm (CHGder, D1EAlg=3).
                        Cavity 1st derivative terms included.
 2nd derivatives      : Analytical E(r).r(xy)/FMM algorithm (CHGder, D2EAlg=3).
                        Cavity 2nd derivative terms included.
 Solvent              : Water, Eps=  78.355300 Eps(inf)=   1.777849
 ------------------------------------------------------------------------------
 One-electron integrals computed using PRISM.
 NBasis=   319 RedAO= T EigKep=  4.63D-04  NBF=   319
 NBsUse=   319 1.00D-06 EigRej= -1.00D+00 NBFU=   319
 ExpMin= 1.17D-01 ExpMax= 2.19D+04 ExpMxC= 3.30D+03 IAcc=3 IRadAn=         5 AccDes= 0.00D+00
 Harris functional with IExCor=  402 and IRadAn=       5 diagonalized for initial guess.
 HarFok:  IExCor=  402 AccDes= 0.00D+00 IRadAn=         5 IDoV= 1 UseB2=F ITyADJ=14
 ICtDFT=  3500011 ScaDFX=  1.000000  1.000000  1.000000  1.000000
 FoFCou: FMM=F IPFlag=           0 FMFlag=      100000 FMFlg1=           0
         NFxFlg=           0 DoJE=T BraDBF=F KetDBF=T FulRan=T
         wScrn=  0.000000 ICntrl=       500 IOpCl=  0 I1Cent=   200000004 NGrid=           0
         NMat0=    1 NMatS0=      1 NMatT0=    0 NMatD0=    1 NMtDS0=    0 NMtDT0=    0
 Petite list used in FoFCou.
 Requested convergence on RMS density matrix=1.00D-08 within  32 cycles.
 Requested convergence on MAX density matrix=1.00D-06.
 Requested convergence on             energy=1.00D-06.
 No special actions if energy rises.
 Inv3:  Mode=1 IEnd=    16161123.
 Iteration    1 A*A^-1 deviation from unit magnitude is 3.33D-15 for    747.
 Iteration    1 A*A^-1 deviation from orthogonality  is 2.74D-15 for   1677   1262.
 Iteration    1 A^-1*A deviation from unit magnitude is 2.89D-15 for    747.
 Iteration    1 A^-1*A deviation from orthogonality  is 2.07D-15 for   1869     49.
 Error on total polarization charges =  0.00831
 SCF Done:  E(RB3LYP) =  -1122.62357659     A.U. after   12 cycles
            NFock= 12  Conv=0.74D-08     -V/T= 2.0074
 QCSCF skips out because SCF is already converged.
 DoSCS=F DFT=T ScalE2(SS,OS)=  1.000000  1.000000
 Range of M.O.s used for correlation:     1   319
 NBasis=   319 NAE=    65 NBE=    65 NFC=     0 NFV=     0
 NROrb=    319 NOA=    65 NOB=    65 NVA=   254 NVB=   254
 Symmetrizing basis deriv contribution to polar:
 IMax=3 JMax=2 DiffMx= 0.00D+00
 G2DrvN: will do    30 centers at a time, making    1 passes.
 Calling FoFCou, ICntrl=  3107 FMM=F I1Cent=   0 AccDes= 0.00D+00.
 NEqPCM:  Using equilibrium solvation (IEInf=0, Eps=  78.3553, EpsInf=   1.7778)
 G2PCM: DoFxE=T DoFxN=T DoGrad=T DoDP/DQ/DG/TGxP=FFFF NFrqRd=   0 IEInf=0 SqF1=F DoCFld=F IF1Alg=4.
 End of G2Drv F.D. properties file   721 does not exist.
 End of G2Drv F.D. properties file   722 does not exist.
 End of G2Drv F.D. properties file   788 does not exist.
          IDoAtm=11111111111111111111111111111
 NEqPCM:  Using equilibrium solvation (IEInf=0, Eps=  78.3553, EpsInf=   1.7778)
          Differentiating once with respect to nuclear coordinates.
 CalDSu exits because no D1Ps are significant.
          There are    90 degrees of freedom in the 1st order CPHF.  IDoFFX=6 NUNeed=     0.
     84 vectors produced by pass  0 Test12= 1.83D-14 1.11D-09 XBig12= 1.65D-01 1.30D-01.
 AX will form    84 AO Fock derivatives at one time.
     84 vectors produced by pass  1 Test12= 1.83D-14 1.11D-09 XBig12= 3.07D-02 4.21D-02.
     84 vectors produced by pass  2 Test12= 1.83D-14 1.11D-09 XBig12= 3.98D-04 3.52D-03.
     84 vectors produced by pass  3 Test12= 1.83D-14 1.11D-09 XBig12= 2.44D-06 2.29D-04.
     84 vectors produced by pass  4 Test12= 1.83D-14 1.11D-09 XBig12= 6.56D-09 9.25D-06.
     70 vectors produced by pass  5 Test12= 1.83D-14 1.11D-09 XBig12= 8.72D-12 3.02D-07.
     18 vectors produced by pass  6 Test12= 1.83D-14 1.11D-09 XBig12= 8.13D-15 1.03D-08.
      1 vectors produced by pass  7 Test12= 1.83D-14 1.11D-09 XBig12= 1.51D-16 1.34D-09.
 InvSVY:  IOpt=1 It=  1 EMax= 5.55D-16
 Solved reduced A of dimension   509 with    90 vectors.
 End of Minotr F.D. properties file   721 does not exist.
 End of Minotr F.D. properties file   722 does not exist.
 End of Minotr F.D. properties file   788 does not exist.

 **********************************************************************

            Population analysis using the SCF density.

 **********************************************************************

 Orbital symmetries:
       Occupied  (A) (A) (A) (A) (A) (A) (A) (A) (A) (A) (A) (A)
                 (A) (A) (A) (A) (A) (A) (A) (A) (A) (A) (A) (A)
                 (A) (A) (A) (A) (A) (A) (A) (A) (A) (A) (A) (A)
                 (A) (A) (A) (A) (A) (A) (A) (A) (A) (A) (A) (A)
                 (A) (A) (A) (A) (A) (A) (A) (A) (A) (A) (A) (A)
                 (A) (A) (A) (A) (A)
       Virtual   (A) (A) (A) (A) (A) (A) (A) (A) (A) (A) (A) (A)
                 (A) (A) (A) (A) (A) (A) (A) (A) (A) (A) (A) (A)
                 (A) (A) (A) (A) (A) (A) (A) (A) (A) (A) (A) (A)
                 (A) (A) (A) (A) (A) (A) (A) (A) (A) (A) (A) (A)
                 (A) (A) (A) (A) (A) (A) (A) (A) (A) (A) (A) (A)
                 (A) (A) (A) (A) (A) (A) (A) (A) (A) (A) (A) (A)
                 (A) (A) (A) (A) (A) (A) (A) (A) (A) (A) (A) (A)
                 (A) (A) (A) (A) (A) (A) (A) (A) (A) (A) (A) (A)
                 (A) (A) (A) (A) (A) (A) (A) (A) (A) (A) (A) (A)
                 (A) (A) (A) (A) (A) (A) (A) (A) (A) (A) (A) (A)
                 (A) (A) (A) (A) (A) (A) (A) (A) (A) (A) (A) (A)
                 (A) (A) (A) (A) (A) (A) (A) (A) (A) (A) (A) (A)
                 (A) (A) (A) (A) (A) (A) (A) (A) (A) (A) (A) (A)
                 (A) (A) (A) (A) (A) (A) (A) (A) (A) (A) (A) (A)
                 (A) (A) (A) (A) (A) (A) (A) (A) (A) (A) (A) (A)
                 (A) (A) (A) (A) (A) (A) (A) (A) (A) (A) (A) (A)
                 (A) (A) (A) (A) (A) (A) (A) (A) (A) (A) (A) (A)
                 (A) (A) (A) (A) (A) (A) (A) (A) (A) (A) (A) (A)
                 (A) (A) (A) (A) (A) (A) (A) (A) (A) (A) (A) (A)
                 (A) (A) (A) (A) (A) (A) (A) (A) (A) (A) (A) (A)
                 (A) (A) (A) (A) (A) (A) (A) (A) (A) (A) (A) (A)
                 (A) (A)
 The electronic state is 1-A.
 Alpha  occ. eigenvalues --  -89.09366 -19.14033 -19.14032 -14.34743 -14.34743
 Alpha  occ. eigenvalues --  -10.24284 -10.24284 -10.21414 -10.21413 -10.21066
 Alpha  occ. eigenvalues --  -10.21066 -10.20915 -10.20915 -10.19723 -10.19723
 Alpha  occ. eigenvalues --  -10.19597 -10.19597  -8.12262  -6.08733  -6.08637
 Alpha  occ. eigenvalues --   -6.08544  -1.11193  -1.00701  -0.92543  -0.92535
 Alpha  occ. eigenvalues --   -0.85964  -0.85355  -0.77070  -0.75882  -0.75811
 Alpha  occ. eigenvalues --   -0.74484  -0.67013  -0.62982  -0.62714  -0.61624
 Alpha  occ. eigenvalues --   -0.57947  -0.54617  -0.52793  -0.51744  -0.51472
 Alpha  occ. eigenvalues --   -0.50660  -0.48667  -0.46035  -0.45316  -0.45220
 Alpha  occ. eigenvalues --   -0.44276  -0.43524  -0.42782  -0.42772  -0.40927
 Alpha  occ. eigenvalues --   -0.40244  -0.39222  -0.39213  -0.35785  -0.35717
 Alpha  occ. eigenvalues --   -0.34162  -0.33397  -0.32489  -0.31821  -0.30443
 Alpha  occ. eigenvalues --   -0.29109  -0.26425  -0.26337  -0.22837  -0.21522
 Alpha virt. eigenvalues --   -0.02911  -0.01949  -0.01512  -0.00311   0.07132
 Alpha virt. eigenvalues --    0.08591   0.09243   0.09968   0.10055   0.10892
 Alpha virt. eigenvalues --    0.12453   0.12774   0.13443   0.14339   0.15929
 Alpha virt. eigenvalues --    0.16445   0.17233   0.17632   0.17823   0.18553
 Alpha virt. eigenvalues --    0.20594   0.20668   0.23478   0.24733   0.28401
 Alpha virt. eigenvalues --    0.30207   0.30575   0.30817   0.32523   0.33216
 Alpha virt. eigenvalues --    0.33991   0.34410   0.35164   0.36534   0.42204
 Alpha virt. eigenvalues --    0.42687   0.46636   0.50948   0.51838   0.52520
 Alpha virt. eigenvalues --    0.52649   0.54074   0.54557   0.54659   0.55172
 Alpha virt. eigenvalues --    0.56985   0.57933   0.57981   0.58629   0.58731
 Alpha virt. eigenvalues --    0.58731   0.59321   0.60290   0.60588   0.61765
 Alpha virt. eigenvalues --    0.61886   0.62903   0.63691   0.65033   0.65731
 Alpha virt. eigenvalues --    0.68792   0.68860   0.70105   0.71362   0.73628
 Alpha virt. eigenvalues --    0.75088   0.76286   0.76405   0.76822   0.80134
 Alpha virt. eigenvalues --    0.80551   0.80716   0.81662   0.82867   0.83454
 Alpha virt. eigenvalues --    0.83777   0.84154   0.85134   0.85315   0.86304
 Alpha virt. eigenvalues --    0.87373   0.87664   0.88610   0.89061   0.89632
 Alpha virt. eigenvalues --    0.91066   0.93010   0.93699   0.93948   0.98551
 Alpha virt. eigenvalues --    0.99230   0.99616   0.99901   1.01071   1.02755
 Alpha virt. eigenvalues --    1.03394   1.05081   1.06042   1.09152   1.10453
 Alpha virt. eigenvalues --    1.13679   1.13973   1.14830   1.15369   1.16282
 Alpha virt. eigenvalues --    1.17658   1.19623   1.20954   1.23197   1.25865
 Alpha virt. eigenvalues --    1.26491   1.27701   1.27937   1.29534   1.31217
 Alpha virt. eigenvalues --    1.35693   1.35932   1.37720   1.38590   1.39261
 Alpha virt. eigenvalues --    1.39863   1.40689   1.41633   1.43380   1.46259
 Alpha virt. eigenvalues --    1.49458   1.49631   1.51236   1.57850   1.62663
 Alpha virt. eigenvalues --    1.71250   1.73295   1.73449   1.75359   1.75700
 Alpha virt. eigenvalues --    1.76504   1.77914   1.79425   1.80159   1.81038
 Alpha virt. eigenvalues --    1.81874   1.82635   1.85002   1.85419   1.86348
 Alpha virt. eigenvalues --    1.87790   1.88986   1.91211   1.91747   1.92706
 Alpha virt. eigenvalues --    1.94488   1.94650   1.96124   1.96320   1.96891
 Alpha virt. eigenvalues --    1.97865   1.98982   2.02325   2.04096   2.04503
 Alpha virt. eigenvalues --    2.05404   2.07302   2.07774   2.11065   2.11690
 Alpha virt. eigenvalues --    2.12230   2.13632   2.16160   2.16319   2.18738
 Alpha virt. eigenvalues --    2.22991   2.23490   2.25611   2.25910   2.29043
 Alpha virt. eigenvalues --    2.29594   2.29805   2.32515   2.32646   2.34354
 Alpha virt. eigenvalues --    2.34358   2.40162   2.40293   2.41031   2.41122
 Alpha virt. eigenvalues --    2.45031   2.45564   2.45649   2.46647   2.46939
 Alpha virt. eigenvalues --    2.47516   2.48426   2.48465   2.52098   2.52607
 Alpha virt. eigenvalues --    2.54591   2.56636   2.57928   2.58529   2.58529
 Alpha virt. eigenvalues --    2.59930   2.64308   2.64937   2.68126   2.68319
 Alpha virt. eigenvalues --    2.72562   2.73094   2.74569   2.75345   2.77356
 Alpha virt. eigenvalues --    2.78926   2.79104   2.84456   2.85290   2.88650
 Alpha virt. eigenvalues --    2.97434   2.97543   2.98991   2.99533   3.04863
 Alpha virt. eigenvalues --    3.04991   3.17457   3.17701   3.23937   3.24157
 Alpha virt. eigenvalues --    3.27253   3.27394   3.27424   3.27616   3.35292
 Alpha virt. eigenvalues --    3.35750   3.47538   3.47691   3.52437   3.52543
 Alpha virt. eigenvalues --    3.76519   3.79614   3.88262   4.02624   4.03254
 Alpha virt. eigenvalues --    4.07293   4.10211   4.12518   4.12942   4.14539
 Alpha virt. eigenvalues --    4.15397   4.20731   4.21027   4.40179   4.42150
 Alpha virt. eigenvalues --    4.43931   4.44729   4.78431   4.78856
          Condensed to atoms (all electrons):
               1          2          3          4          5          6
     1  O    8.286745   0.445103  -0.068374   0.003634   0.000394  -0.000016
     2  S    0.445103  13.765058   0.181245  -0.020896   0.001612  -0.000392
     3  C   -0.068374   0.181245   5.451577   0.468378  -0.043046  -0.036266
     4  C    0.003634  -0.020896   0.468378   4.860261   0.517324  -0.015809
     5  C    0.000394   0.001612  -0.043046   0.517324   4.940492   0.525158
     6  C   -0.000016  -0.000392  -0.036266  -0.015809   0.525158   4.568269
     7  N   -0.000000   0.000003   0.000454   0.004694  -0.069780   0.308530
     8  C   -0.000043   0.002442  -0.045659  -0.038290  -0.051457   0.526405
     9  C   -0.000439  -0.025714   0.502989  -0.026643  -0.039518  -0.016192
    10  C   -0.064628   0.181245  -0.070091  -0.003444  -0.000203   0.000022
    11  C    0.003501  -0.025714  -0.000399   0.000078   0.000016   0.000001
    12  C    0.000521   0.002442  -0.000158  -0.000018   0.000001   0.000000
    13  C   -0.000006  -0.000392   0.000022   0.000007   0.000000  -0.000000
    14  N    0.000000   0.000003   0.000000  -0.000000  -0.000000   0.000000
    15  C   -0.000042   0.001612  -0.000203  -0.000033  -0.000002   0.000000
    16  C    0.001615  -0.020896  -0.003444  -0.000047  -0.000033   0.000007
    17  O   -0.042970   0.445104  -0.064628   0.001615  -0.000042  -0.000006
    18  H    0.002685  -0.000065  -0.050434   0.371789  -0.028322   0.003568
    19  H    0.000002  -0.000040   0.005090  -0.034726   0.369797  -0.042340
    20  H   -0.000000  -0.000000   0.000003  -0.000179   0.005385  -0.023833
    21  H    0.000000  -0.000000  -0.000000  -0.000038  -0.009015  -0.023880
    22  H    0.000000  -0.000039   0.005039   0.000497   0.005012  -0.042910
    23  H    0.000041  -0.004523  -0.046444   0.004427   0.000492   0.003770
    24  H    0.010096  -0.004523   0.000248  -0.000062   0.000004   0.000000
    25  H    0.000002  -0.000039   0.000001   0.000000   0.000000  -0.000000
    26  H    0.000000  -0.000000   0.000000   0.000000   0.000000  -0.000000
    27  H    0.000000  -0.000000   0.000000   0.000000   0.000000  -0.000000
    28  H    0.000000  -0.000040   0.000001   0.000000   0.000000   0.000000
    29  H    0.000050  -0.000065   0.001035   0.000033  -0.000011  -0.000004
               7          8          9         10         11         12
     1  O   -0.000000  -0.000043  -0.000439  -0.064628   0.003501   0.000521
     2  S    0.000003   0.002442  -0.025714   0.181245  -0.025714   0.002442
     3  C    0.000454  -0.045659   0.502989  -0.070091  -0.000399  -0.000158
     4  C    0.004694  -0.038290  -0.026643  -0.003444   0.000078  -0.000018
     5  C   -0.069780  -0.051457  -0.039518  -0.000203   0.000016   0.000001
     6  C    0.308530   0.526405  -0.016192   0.000022   0.000001   0.000000
     7  N    6.806483  -0.069975   0.004469   0.000000  -0.000000   0.000000
     8  C   -0.069975   4.954838   0.505041  -0.000158   0.000002  -0.000000
     9  C    0.004469   0.505041   4.845366  -0.000399  -0.000069   0.000002
    10  C    0.000000  -0.000158  -0.000399   5.451576   0.502990  -0.045660
    11  C   -0.000000   0.000002  -0.000069   0.502990   4.845366   0.505041
    12  C    0.000000  -0.000000   0.000002  -0.045660   0.505041   4.954839
    13  C    0.000000   0.000000   0.000001  -0.036266  -0.016192   0.526405
    14  N   -0.000000   0.000000  -0.000000   0.000454   0.004469  -0.069975
    15  C   -0.000000   0.000001   0.000016  -0.043046  -0.039518  -0.051457
    16  C   -0.000000  -0.000018   0.000078   0.468377  -0.026642  -0.038291
    17  O    0.000000   0.000521   0.003501  -0.068374  -0.000439  -0.000043
    18  H   -0.000103   0.000591   0.004199   0.001035   0.000800   0.000071
    19  H   -0.007204   0.004985   0.000509   0.000001  -0.000001  -0.000000
    20  H    0.343829  -0.009036  -0.000071   0.000000   0.000000   0.000000
    21  H    0.343735   0.005389  -0.000183   0.000000   0.000000   0.000000
    22  H   -0.007252   0.370518  -0.035110   0.000001  -0.000000   0.000000
    23  H   -0.000100  -0.031478   0.372543   0.000248  -0.000004   0.000000
    24  H    0.000000   0.000000  -0.000004  -0.046444   0.372543  -0.031478
    25  H    0.000000   0.000000  -0.000000   0.005039  -0.035110   0.370518
    26  H    0.000000   0.000000   0.000000  -0.000000  -0.000183   0.005389
    27  H    0.000000   0.000000   0.000000   0.000003  -0.000071  -0.009037
    28  H    0.000000  -0.000000  -0.000001   0.005090   0.000509   0.004985
    29  H   -0.000000   0.000071   0.000801  -0.050434   0.004199   0.000591
              13         14         15         16         17         18
     1  O   -0.000006   0.000000  -0.000042   0.001615  -0.042970   0.002685
     2  S   -0.000392   0.000003   0.001612  -0.020896   0.445104  -0.000065
     3  C    0.000022   0.000000  -0.000203  -0.003444  -0.064628  -0.050434
     4  C    0.000007  -0.000000  -0.000033  -0.000047   0.001615   0.371789
     5  C    0.000000  -0.000000  -0.000002  -0.000033  -0.000042  -0.028322
     6  C   -0.000000   0.000000   0.000000   0.000007  -0.000006   0.003568
     7  N    0.000000  -0.000000  -0.000000  -0.000000   0.000000  -0.000103
     8  C    0.000000   0.000000   0.000001  -0.000018   0.000521   0.000591
     9  C    0.000001  -0.000000   0.000016   0.000078   0.003501   0.004199
    10  C   -0.036266   0.000454  -0.043046   0.468377  -0.068374   0.001035
    11  C   -0.016192   0.004469  -0.039518  -0.026642  -0.000439   0.000800
    12  C    0.526405  -0.069975  -0.051457  -0.038291  -0.000043   0.000071
    13  C    4.568266   0.308530   0.525159  -0.015809  -0.000016  -0.000004
    14  N    0.308530   6.806484  -0.069780   0.004694  -0.000000  -0.000000
    15  C    0.525159  -0.069780   4.940491   0.517324   0.000394  -0.000011
    16  C   -0.015809   0.004694   0.517324   4.860262   0.003634   0.000033
    17  O   -0.000016  -0.000000   0.000394   0.003634   8.286745   0.000050
    18  H   -0.000004  -0.000000  -0.000011   0.000033   0.000050   0.571480
    19  H    0.000000   0.000000   0.000000   0.000000   0.000000  -0.006022
    20  H   -0.000000   0.000000   0.000000   0.000000   0.000000   0.000003
    21  H   -0.000000   0.000000   0.000000   0.000000   0.000000  -0.000005
    22  H   -0.000000   0.000000   0.000000   0.000000   0.000002   0.000014
    23  H    0.000000   0.000000   0.000004  -0.000062   0.010096  -0.000154
    24  H    0.003770  -0.000100   0.000492   0.004427   0.000041   0.000111
    25  H   -0.042910  -0.007252   0.005012   0.000497   0.000000  -0.000001
    26  H   -0.023880   0.343735  -0.009015  -0.000038   0.000000   0.000000
    27  H   -0.023833   0.343830   0.005385  -0.000179  -0.000000  -0.000000
    28  H   -0.042340  -0.007204   0.369797  -0.034726   0.000002   0.000000
    29  H    0.003568  -0.000103  -0.028322   0.371789   0.002685  -0.000019
              19         20         21         22         23         24
     1  O    0.000002  -0.000000   0.000000   0.000000   0.000041   0.010096
     2  S   -0.000040  -0.000000  -0.000000  -0.000039  -0.004523  -0.004523
     3  C    0.005090   0.000003  -0.000000   0.005039  -0.046444   0.000248
     4  C   -0.034726  -0.000179  -0.000038   0.000497   0.004427  -0.000062
     5  C    0.369797   0.005385  -0.009015   0.005012   0.000492   0.000004
     6  C   -0.042340  -0.023833  -0.023880  -0.042910   0.003770   0.000000
     7  N   -0.007204   0.343829   0.343735  -0.007252  -0.000100   0.000000
     8  C    0.004985  -0.009036   0.005389   0.370518  -0.031478   0.000000
     9  C    0.000509  -0.000071  -0.000183  -0.035110   0.372543  -0.000004
    10  C    0.000001   0.000000   0.000000   0.000001   0.000248  -0.046444
    11  C   -0.000001   0.000000   0.000000  -0.000000  -0.000004   0.372543
    12  C   -0.000000   0.000000   0.000000   0.000000   0.000000  -0.031478
    13  C    0.000000  -0.000000  -0.000000  -0.000000   0.000000   0.003770
    14  N    0.000000   0.000000   0.000000   0.000000   0.000000  -0.000100
    15  C    0.000000   0.000000   0.000000   0.000000   0.000004   0.000492
    16  C    0.000000   0.000000   0.000000   0.000000  -0.000062   0.004427
    17  O    0.000000   0.000000   0.000000   0.000002   0.010096   0.000041
    18  H   -0.006022   0.000003  -0.000005   0.000014  -0.000154   0.000111
    19  H    0.592797  -0.000041   0.004310  -0.000167   0.000013  -0.000000
    20  H   -0.000041   0.421040  -0.027610   0.004323  -0.000004  -0.000000
    21  H    0.004310  -0.027610   0.421337  -0.000041   0.000003   0.000000
    22  H   -0.000167   0.004323  -0.000041   0.594399  -0.006032  -0.000000
    23  H    0.000013  -0.000004   0.000003  -0.006032   0.568131  -0.000000
    24  H   -0.000000  -0.000000   0.000000  -0.000000  -0.000000   0.568131
    25  H   -0.000000  -0.000000  -0.000000  -0.000000  -0.000000  -0.006032
    26  H   -0.000000  -0.000000  -0.000000  -0.000000   0.000000   0.000003
    27  H   -0.000000  -0.000000  -0.000000  -0.000000  -0.000000  -0.000004
    28  H   -0.000000  -0.000000  -0.000000  -0.000000  -0.000000   0.000013
    29  H    0.000000  -0.000000   0.000000  -0.000001   0.000111  -0.000154
              25         26         27         28         29
     1  O    0.000002   0.000000   0.000000   0.000000   0.000050
     2  S   -0.000039  -0.000000  -0.000000  -0.000040  -0.000065
     3  C    0.000001   0.000000   0.000000   0.000001   0.001035
     4  C    0.000000   0.000000   0.000000   0.000000   0.000033
     5  C    0.000000   0.000000   0.000000   0.000000  -0.000011
     6  C   -0.000000  -0.000000  -0.000000   0.000000  -0.000004
     7  N    0.000000   0.000000   0.000000   0.000000  -0.000000
     8  C    0.000000   0.000000   0.000000  -0.000000   0.000071
     9  C   -0.000000   0.000000   0.000000  -0.000001   0.000801
    10  C    0.005039  -0.000000   0.000003   0.005090  -0.050434
    11  C   -0.035110  -0.000183  -0.000071   0.000509   0.004199
    12  C    0.370518   0.005389  -0.009037   0.004985   0.000591
    13  C   -0.042910  -0.023880  -0.023833  -0.042340   0.003568
    14  N   -0.007252   0.343735   0.343830  -0.007204  -0.000103
    15  C    0.005012  -0.009015   0.005385   0.369797  -0.028322
    16  C    0.000497  -0.000038  -0.000179  -0.034726   0.371789
    17  O    0.000000   0.000000  -0.000000   0.000002   0.002685
    18  H   -0.000001   0.000000  -0.000000   0.000000  -0.000019
    19  H   -0.000000  -0.000000  -0.000000  -0.000000   0.000000
    20  H   -0.000000  -0.000000  -0.000000  -0.000000  -0.000000
    21  H   -0.000000  -0.000000  -0.000000  -0.000000   0.000000
    22  H   -0.000000  -0.000000  -0.000000  -0.000000  -0.000001
    23  H   -0.000000   0.000000  -0.000000  -0.000000   0.000111
    24  H   -0.006032   0.000003  -0.000004   0.000013  -0.000154
    25  H    0.594400  -0.000041   0.004323  -0.000167   0.000014
    26  H   -0.000041   0.421337  -0.027610   0.004310  -0.000005
    27  H    0.004323  -0.027610   0.421040  -0.000041   0.000003
    28  H   -0.000167   0.004310  -0.000041   0.592797  -0.006022
    29  H    0.000014  -0.000005   0.000003  -0.006022   0.571480
 Mulliken charges:
               1
     1  O   -0.577872
     2  S    1.077472
     3  C   -0.186936
     4  C   -0.092554
     5  C   -0.124257
     6  C    0.265920
     7  N   -0.657783
     8  C   -0.124688
     9  C   -0.095171
    10  C   -0.186934
    11  C   -0.095171
    12  C   -0.124688
    13  C    0.265921
    14  N   -0.657784
    15  C   -0.124257
    16  C   -0.092555
    17  O   -0.577872
    18  H    0.128710
    19  H    0.113038
    20  H    0.286192
    21  H    0.285998
    22  H    0.111747
    23  H    0.128920
    24  H    0.128920
    25  H    0.111746
    26  H    0.285998
    27  H    0.286192
    28  H    0.113037
    29  H    0.128710
 Sum of Mulliken charges =  -0.00000
 Mulliken charges with hydrogens summed into heavy atoms:
               1
     1  O   -0.577872
     2  S    1.077472
     3  C   -0.186936
     4  C    0.036156
     5  C   -0.011220
     6  C    0.265920
     7  N   -0.085592
     8  C   -0.012942
     9  C    0.033750
    10  C   -0.186934
    11  C    0.033749
    12  C   -0.012942
    13  C    0.265921
    14  N   -0.085594
    15  C   -0.011219
    16  C    0.036155
    17  O   -0.577872
 APT charges:
               1
     1  O   -0.172652
     2  S    0.023355
     3  C   -0.398352
     4  C   -0.662315
     5  C   -0.404899
     6  C    0.251592
     7  N   -1.562627
     8  C   -0.422141
     9  C   -0.579811
    10  C   -0.398349
    11  C   -0.579814
    12  C   -0.422145
    13  C    0.251591
    14  N   -1.562619
    15  C   -0.404907
    16  C   -0.662319
    17  O   -0.172654
    18  H    0.290549
    19  H    0.590865
    20  H    1.015262
    21  H    0.851468
    22  H    0.740211
    23  H    0.451175
    24  H    0.451180
    25  H    0.740217
    26  H    0.851466
    27  H    1.015264
    28  H    0.590865
    29  H    0.290545
 Sum of APT charges =  -0.00000
 APT charges with hydrogens summed into heavy atoms:
               1
     1  O   -0.172652
     2  S    0.023355
     3  C   -0.398352
     4  C   -0.371767
     5  C    0.185967
     6  C    0.251592
     7  N    0.304103
     8  C    0.318070
     9  C   -0.128636
    10  C   -0.398349
    11  C   -0.128634
    12  C    0.318072
    13  C    0.251591
    14  N    0.304110
    15  C    0.185958
    16  C   -0.371773
    17  O   -0.172654
 Electronic spatial extent (au):  <R**2>=           5072.2552
 Charge=             -0.0000 electrons
 Dipole moment (field-independent basis, Debye):
    X=              0.0000    Y=             -7.7475    Z=              0.0000  Tot=              7.7475
 Quadrupole moment (field-independent basis, Debye-Ang):
   XX=            -45.5489   YY=           -120.7196   ZZ=            -98.1859
   XY=             -0.0002   XZ=              1.3782   YZ=              0.0004
 Traceless Quadrupole moment (field-independent basis, Debye-Ang):
   XX=             42.6025   YY=            -32.5681   ZZ=            -10.0344
   XY=             -0.0002   XZ=              1.3782   YZ=              0.0004
 Octapole moment (field-independent basis, Debye-Ang**2):
  XXX=             -0.0005  YYY=            -24.1139  ZZZ=              0.0004  XYY=             -0.0002
  XXY=            -97.4282  XXZ=             -0.0002  XZZ=              0.0011  YZZ=            -23.9230
  YYZ=             -0.0007  XYZ=            -32.7349
 Hexadecapole moment (field-independent basis, Debye-Ang**3):
 XXXX=          -2809.5918 YYYY=          -1381.7550 ZZZZ=           -602.1460 XXXY=             -0.0091
 XXXZ=              4.8130 YYYX=              0.0013 YYYZ=              0.0020 ZZZX=             -0.8883
 ZZZY=              0.0006 XXYY=           -881.6445 XXZZ=           -753.5237 YYZZ=           -317.5944
 XXYZ=              0.0045 YYXZ=             75.7204 ZZXY=             -0.0020
 N-N= 1.298702334447D+03 E-N=-5.229067352439D+03  KE= 1.114414011313D+03
  Exact polarizability:   0.000   0.000   0.000   0.000   0.000   0.000
 Approx polarizability: 297.930  -0.001 225.243 -39.509   0.001 257.749
 D2PCM: PCM CHGder 2nd derivatives, FixD1E=F FixD2E=F DoIter=F DoCFld=F I1PDM=0
 Calling FoFJK, ICntrl=    100147 FMM=F ISym2X=0 I1Cent= 0 IOpClX= 0 NMat=1 NMatS=1 NMatT=0.
 ***** Axes restored to original set *****
 -------------------------------------------------------------------
 Center     Atomic                   Forces (Hartrees/Bohr)
 Number     Number              X              Y              Z
 -------------------------------------------------------------------
      1        8           0.002457995   -0.009359274   -0.032569170
      2       16           0.000395964   -0.018020698    0.023782701
      3        6           0.002457621    0.002509830    0.001484279
      4        6          -0.008401963   -0.005863139    0.004710228
      5        6           0.010558628   -0.005034738   -0.013424125
      6        6          -0.003551858   -0.005975730    0.021224154
      7        7           0.001165009    0.003118008   -0.009545736
      8        6           0.003406535    0.013055158   -0.006783298
      9        6          -0.006620145   -0.000983453    0.006613088
     10        6          -0.002466951   -0.002147079   -0.001961695
     11        6           0.006774273   -0.005993056    0.002592986
     12        6          -0.003757268    0.002941030   -0.014327989
     13        6           0.004097577   -0.018755157    0.011413624
     14        7          -0.001418141    0.008325614   -0.005556270
     15        6          -0.010757879    0.014114929    0.001441374
     16        6           0.008592096   -0.002811714    0.006738947
     17        8          -0.002995718    0.033842794    0.000257118
     18        1          -0.000520198    0.001330030    0.001231300
     19        1          -0.001188717    0.000946928   -0.000362398
     20        1           0.000711021   -0.003315763    0.000114676
     21        1          -0.001006476    0.002609442    0.002074097
     22        1          -0.000829796   -0.001178448   -0.001072117
     23        1           0.001647321   -0.002859759   -0.000757421
     24        1          -0.001617134    0.001476450    0.002582882
     25        1           0.000825409    0.001363992    0.000827014
     26        1           0.001007895   -0.002686262   -0.001972680
     27        1          -0.000654837    0.000775301    0.003237144
     28        1           0.001165143    0.000111649   -0.001034310
     29        1           0.000524593   -0.001536884   -0.000958404
 -------------------------------------------------------------------
 Cartesian Forces:  Max     0.033842794 RMS     0.008332578
 FormGI is forming the generalized inverse of G from B-inverse, IUseBI=4.

 GradGradGradGradGradGradGradGradGradGradGradGradGradGradGradGradGradGrad
 Berny optimization.
 Internal  Forces:  Max     0.033515718 RMS     0.004762634
 Search for a local minimum.
 Step number   1 out of a maximum of  156
 All quantities printed in internal units (Hartrees-Bohrs-Radians)
 Mixed Optimization -- RFO/linear search
 Second derivative matrix not updated -- analytic derivatives used.
 ITU=  0
     Eigenvalues ---    0.00038   0.00041   0.00653   0.00654   0.01158
     Eigenvalues ---    0.01179   0.01519   0.01533   0.01739   0.01743
     Eigenvalues ---    0.01853   0.01876   0.01948   0.01948   0.02118
     Eigenvalues ---    0.02125   0.02240   0.02245   0.02767   0.02781
     Eigenvalues ---    0.02820   0.02847   0.02966   0.02972   0.10993
     Eigenvalues ---    0.11129   0.11350   0.11458   0.11487   0.11814
     Eigenvalues ---    0.11827   0.12061   0.12638   0.12641   0.13477
     Eigenvalues ---    0.13509   0.15312   0.15331   0.16687   0.16855
     Eigenvalues ---    0.17346   0.17638   0.18237   0.18365   0.18651
     Eigenvalues ---    0.18651   0.19434   0.19596   0.21237   0.21685
     Eigenvalues ---    0.21739   0.24915   0.26575   0.31693   0.31703
     Eigenvalues ---    0.35579   0.35583   0.35758   0.35772   0.35925
     Eigenvalues ---    0.35926   0.36068   0.36072   0.37796   0.37926
     Eigenvalues ---    0.41259   0.41285   0.43970   0.44195   0.45501
     Eigenvalues ---    0.45506   0.45929   0.45930   0.47040   0.47096
     Eigenvalues ---    0.47557   0.47609   0.51357   0.51373   0.66511
     Eigenvalues ---    0.66973
 RFO step:  Lambda=-9.85711844D-03 EMin= 3.82515412D-04
 Linear search not attempted -- first point.
 Iteration  1 RMS(Cart)=  0.04318246 RMS(Int)=  0.00105004
 Iteration  2 RMS(Cart)=  0.00130815 RMS(Int)=  0.00044924
 Iteration  3 RMS(Cart)=  0.00000147 RMS(Int)=  0.00044923
 Iteration  4 RMS(Cart)=  0.00000000 RMS(Int)=  0.00044923
 Variable       Old X    -DE/DX   Delta X   Delta X   Delta X     New X
                                 (Linear)    (Quad)   (Total)
    R1        2.74360   0.03352   0.00000   0.04970   0.04970   2.79331
    R2        3.35859   0.00502   0.00000   0.01026   0.01026   3.36886
    R3        3.35859   0.00502   0.00000   0.01026   0.01026   3.36886
    R4        2.74360   0.03352   0.00000   0.04970   0.04970   2.79331
    R5        2.63844   0.00418   0.00000   0.00940   0.00932   2.64776
    R6        2.63656   0.00203   0.00000   0.00509   0.00501   2.64157
    R7        2.63994  -0.00725   0.00000  -0.02034  -0.02033   2.61961
    R8        2.05479  -0.00175   0.00000  -0.00380  -0.00380   2.05099
    R9        2.64355   0.00955   0.00000   0.02512   0.02520   2.66875
   R10        2.05469  -0.00076   0.00000  -0.00237  -0.00237   2.05232
   R11        2.64370  -0.00571   0.00000  -0.03389  -0.03389   2.60981
   R12        2.64367   0.00801   0.00000   0.02033   0.02040   2.66407
   R13        1.91895  -0.00264   0.00000  -0.00772  -0.00772   1.91122
   R14        1.91890  -0.00262   0.00000  -0.00776  -0.00776   1.91114
   R15        2.64041  -0.00547   0.00000  -0.01580  -0.01580   2.62461
   R16        2.05473  -0.00081   0.00000  -0.00240  -0.00240   2.05233
   R17        2.05523  -0.00255   0.00000  -0.00643  -0.00643   2.04879
   R18        2.63656   0.00203   0.00000   0.00509   0.00501   2.64157
   R19        2.63844   0.00418   0.00000   0.00940   0.00932   2.64776
   R20        2.64041  -0.00547   0.00000  -0.01580  -0.01580   2.62461
   R21        2.05523  -0.00255   0.00000  -0.00643  -0.00643   2.04879
   R22        2.64367   0.00801   0.00000   0.02033   0.02040   2.66407
   R23        2.05473  -0.00081   0.00000  -0.00240  -0.00240   2.05233
   R24        2.64371  -0.00571   0.00000  -0.03390  -0.03390   2.60981
   R25        2.64355   0.00955   0.00000   0.02512   0.02520   2.66874
   R26        1.91890  -0.00262   0.00000  -0.00776  -0.00776   1.91114
   R27        1.91895  -0.00264   0.00000  -0.00772  -0.00772   1.91122
   R28        2.63994  -0.00725   0.00000  -0.02034  -0.02033   2.61961
   R29        2.05469  -0.00076   0.00000  -0.00236  -0.00236   2.05232
   R30        2.05479  -0.00175   0.00000  -0.00380  -0.00380   2.05099
    A1        1.85688   0.00630   0.00000   0.03137   0.03141   1.88829
    A2        1.88546  -0.00176   0.00000  -0.01145  -0.01138   1.87408
    A3        2.10463  -0.00455   0.00000  -0.03072  -0.03060   2.07403
    A4        1.86210  -0.00507   0.00000  -0.00824  -0.00822   1.85388
    A5        1.88547  -0.00176   0.00000  -0.01145  -0.01138   1.87408
    A6        1.85687   0.00630   0.00000   0.03137   0.03141   1.88829
    A7        2.07965   0.00228   0.00000   0.01208   0.01210   2.09175
    A8        2.09738  -0.00122   0.00000  -0.00452  -0.00450   2.09288
    A9        2.10610  -0.00106   0.00000  -0.00738  -0.00756   2.09853
   A10        2.08297   0.00225   0.00000   0.00953   0.00946   2.09244
   A11        2.11212  -0.00151   0.00000  -0.00967  -0.00966   2.10246
   A12        2.08807  -0.00074   0.00000   0.00020   0.00021   2.08828
   A13        2.10822  -0.00093   0.00000  -0.00217  -0.00207   2.10615
   A14        2.07839   0.00138   0.00000   0.01204   0.01199   2.09038
   A15        2.09656  -0.00046   0.00000  -0.00987  -0.00992   2.08664
   A16        2.09695   0.00100   0.00000   0.00868   0.00722   2.10417
   A17        2.07491  -0.00150   0.00000  -0.00351  -0.00474   2.07018
   A18        2.09681   0.00106   0.00000   0.01030   0.00885   2.10565
   A19        1.98901   0.00217   0.00000   0.03431   0.03296   2.02197
   A20        1.98928   0.00247   0.00000   0.03588   0.03454   2.02382
   A21        1.95708  -0.00262   0.00000   0.00300   0.00113   1.95821
   A22        2.10892  -0.00085   0.00000  -0.00223  -0.00214   2.10678
   A23        2.09677  -0.00070   0.00000  -0.01084  -0.01089   2.08588
   A24        2.07749   0.00155   0.00000   0.01308   0.01303   2.09052
   A25        2.08247   0.00221   0.00000   0.00967   0.00958   2.09204
   A26        2.11395  -0.00330   0.00000  -0.02394  -0.02394   2.09001
   A27        2.08670   0.00109   0.00000   0.01442   0.01442   2.10113
   A28        2.09738  -0.00122   0.00000  -0.00453  -0.00450   2.09288
   A29        2.07965   0.00228   0.00000   0.01208   0.01210   2.09175
   A30        2.10610  -0.00106   0.00000  -0.00738  -0.00756   2.09853
   A31        2.08247   0.00221   0.00000   0.00967   0.00958   2.09204
   A32        2.11395  -0.00330   0.00000  -0.02394  -0.02394   2.09001
   A33        2.08670   0.00109   0.00000   0.01442   0.01442   2.10113
   A34        2.10892  -0.00085   0.00000  -0.00223  -0.00214   2.10678
   A35        2.07749   0.00155   0.00000   0.01308   0.01303   2.09052
   A36        2.09677  -0.00070   0.00000  -0.01084  -0.01089   2.08588
   A37        2.09681   0.00106   0.00000   0.01030   0.00885   2.10565
   A38        2.07491  -0.00150   0.00000  -0.00351  -0.00474   2.07018
   A39        2.09696   0.00100   0.00000   0.00867   0.00721   2.10417
   A40        1.98928   0.00247   0.00000   0.03588   0.03454   2.02382
   A41        1.98901   0.00217   0.00000   0.03431   0.03296   2.02197
   A42        1.95708  -0.00262   0.00000   0.00300   0.00114   1.95822
   A43        2.10822  -0.00093   0.00000  -0.00217  -0.00207   2.10615
   A44        2.09656  -0.00046   0.00000  -0.00987  -0.00992   2.08664
   A45        2.07839   0.00138   0.00000   0.01204   0.01199   2.09038
   A46        2.08298   0.00225   0.00000   0.00953   0.00946   2.09244
   A47        2.11212  -0.00151   0.00000  -0.00967  -0.00966   2.10246
   A48        2.08807  -0.00074   0.00000   0.00020   0.00021   2.08828
    D1        0.87496  -0.00043   0.00000  -0.04001  -0.04004   0.83492
    D2       -2.27782   0.00009   0.00000  -0.02182  -0.02177  -2.29960
    D3       -1.13480   0.00099   0.00000  -0.03781  -0.03782  -1.17262
    D4        1.99561   0.00150   0.00000  -0.01961  -0.01956   1.97605
    D5       -3.12520  -0.00297   0.00000  -0.06453  -0.06459   3.09339
    D6        0.00520  -0.00245   0.00000  -0.04633  -0.04633  -0.04113
    D7        0.00522  -0.00245   0.00000  -0.04633  -0.04632  -0.04110
    D8       -3.12518  -0.00297   0.00000  -0.06453  -0.06459   3.09341
    D9        1.99563   0.00150   0.00000  -0.01961  -0.01956   1.97607
   D10       -1.13478   0.00099   0.00000  -0.03781  -0.03782  -1.17259
   D11       -2.27780   0.00009   0.00000  -0.02181  -0.02177  -2.29958
   D12        0.87498  -0.00043   0.00000  -0.04001  -0.04004   0.83494
   D13        3.13074   0.00067   0.00000   0.01762   0.01761  -3.13484
   D14       -0.00365   0.00025   0.00000   0.00686   0.00690   0.00325
   D15        0.00039   0.00015   0.00000  -0.00069  -0.00073  -0.00034
   D16       -3.13400  -0.00027   0.00000  -0.01145  -0.01144   3.13774
   D17       -3.13089  -0.00087   0.00000  -0.02029  -0.02015   3.13214
   D18       -0.00152  -0.00024   0.00000  -0.00576  -0.00578  -0.00729
   D19       -0.00066  -0.00032   0.00000  -0.00169  -0.00169  -0.00235
   D20        3.12872   0.00031   0.00000   0.01284   0.01268   3.14140
   D21        0.04053  -0.00091   0.00000  -0.02642  -0.02642   0.01410
   D22       -3.10625  -0.00098   0.00000  -0.02613  -0.02613  -3.13238
   D23       -3.10816  -0.00049   0.00000  -0.01586  -0.01584  -3.12401
   D24        0.02824  -0.00056   0.00000  -0.01557  -0.01555   0.01269
   D25       -3.03954  -0.00171   0.00000  -0.04176  -0.04161  -3.08116
   D26       -0.07989   0.00188   0.00000   0.05529   0.05519  -0.02471
   D27        0.10729  -0.00164   0.00000  -0.04211  -0.04197   0.06531
   D28        3.06694   0.00195   0.00000   0.05494   0.05483   3.12176
   D29       -2.80114   0.00134   0.00000   0.01101   0.01069  -2.79045
   D30       -0.52424   0.00200   0.00000   0.08300   0.08384  -0.44039
   D31        0.52469  -0.00202   0.00000  -0.08582  -0.08666   0.43803
   D32        2.80159  -0.00137   0.00000  -0.01383  -0.01351   2.78808
   D33        0.07965  -0.00205   0.00000  -0.05775  -0.05765   0.02201
   D34       -3.06633  -0.00198   0.00000  -0.05586  -0.05578  -3.12211
   D35        3.03932   0.00153   0.00000   0.03912   0.03906   3.07838
   D36       -0.10667   0.00160   0.00000   0.04101   0.04093  -0.06574
   D37       -0.04000   0.00122   0.00000   0.03118   0.03126  -0.00874
   D38        3.11361   0.00063   0.00000   0.01715   0.01707   3.13068
   D39        3.10594   0.00116   0.00000   0.02936   0.02945   3.13538
   D40       -0.02363   0.00057   0.00000   0.01534   0.01525  -0.00838
   D41       -3.13090  -0.00087   0.00000  -0.02028  -0.02014   3.13214
   D42       -0.00151  -0.00024   0.00000  -0.00577  -0.00578  -0.00730
   D43       -0.00067  -0.00032   0.00000  -0.00168  -0.00168  -0.00235
   D44        3.12872   0.00031   0.00000   0.01284   0.01268   3.14140
   D45        3.13075   0.00067   0.00000   0.01761   0.01761  -3.13483
   D46       -0.00365   0.00025   0.00000   0.00687   0.00690   0.00325
   D47        0.00040   0.00015   0.00000  -0.00070  -0.00074  -0.00034
   D48       -3.13400  -0.00027   0.00000  -0.01145  -0.01144   3.13775
   D49       -0.04000   0.00122   0.00000   0.03118   0.03126  -0.00874
   D50        3.10595   0.00116   0.00000   0.02935   0.02944   3.13539
   D51        3.11360   0.00063   0.00000   0.01716   0.01708   3.13068
   D52       -0.02363   0.00057   0.00000   0.01534   0.01525  -0.00838
   D53        3.03934   0.00153   0.00000   0.03911   0.03905   3.07839
   D54        0.07966  -0.00205   0.00000  -0.05776  -0.05765   0.02201
   D55       -0.10666   0.00160   0.00000   0.04101   0.04093  -0.06573
   D56       -3.06634  -0.00198   0.00000  -0.05586  -0.05577  -3.12211
   D57        2.80159  -0.00137   0.00000  -0.01383  -0.01351   2.78808
   D58        0.52468  -0.00202   0.00000  -0.08582  -0.08666   0.43802
   D59       -0.52422   0.00200   0.00000   0.08300   0.08384  -0.44039
   D60       -2.80113   0.00134   0.00000   0.01100   0.01069  -2.79045
   D61       -0.07991   0.00188   0.00000   0.05530   0.05519  -0.02471
   D62        3.06694   0.00195   0.00000   0.05494   0.05482   3.12176
   D63       -3.03957  -0.00171   0.00000  -0.04174  -0.04160  -3.08117
   D64        0.10728  -0.00164   0.00000  -0.04211  -0.04197   0.06531
   D65        0.04053  -0.00091   0.00000  -0.02642  -0.02643   0.01411
   D66       -3.10815  -0.00049   0.00000  -0.01587  -0.01585  -3.12401
   D67       -3.10626  -0.00098   0.00000  -0.02612  -0.02612  -3.13238
   D68        0.02824  -0.00056   0.00000  -0.01557  -0.01555   0.01269
         Item               Value     Threshold  Converged?
 Maximum Force            0.033516     0.000450     NO 
 RMS     Force            0.004763     0.000300     NO 
 Maximum Displacement     0.141082     0.001800     NO 
 RMS     Displacement     0.042736     0.001200     NO 
 Predicted change in Energy=-5.531330D-03
 GradGradGradGradGradGradGradGradGradGradGradGradGradGradGradGradGradGrad

                          Input orientation:                          
 ---------------------------------------------------------------------
 Center     Atomic      Atomic             Coordinates (Angstroms)
 Number     Number       Type             X           Y           Z
 ---------------------------------------------------------------------
      1          8           0       -0.037794    0.652958   -2.939842
      2         16           0       -0.026647    1.213055   -1.571958
      3          6           0       -1.438041    0.567607   -0.694769
      4          6           0       -1.714360   -0.805493   -0.732466
      5          6           0       -2.816221   -1.307167   -0.057277
      6          6           0       -3.677087   -0.445387    0.657331
      7          7           0       -4.732839   -0.954809    1.387522
      8          6           0       -3.375478    0.931229    0.694721
      9          6           0       -2.269750    1.433634    0.020960
     10          6           0        1.413137    0.566030   -0.743418
     11          6           0        2.245826   -0.343943   -1.401133
     12          6           0        3.373461   -0.838769   -0.758805
     13          6           0        3.696215   -0.425371    0.549771
     14          7           0        4.775203   -0.973410    1.215160
     15          6           0        2.834332    0.481902    1.204320
     16          6           0        1.710545    0.978362    0.562227
     17          8           0       -0.035450    2.681474   -1.402823
     18          1           0       -1.073083   -1.480701   -1.289969
     19          1           0       -3.023737   -2.372944   -0.080683
     20          1           0       -5.474351   -0.302228    1.604731
     21          1           0       -5.089479   -1.851098    1.083768
     22          1           0       -4.017427    1.604533    1.255133
     23          1           0       -2.048420    2.494706    0.044945
     24          1           0        2.008093   -0.657749   -2.411303
     25          1           0        4.016260   -1.550121   -1.268987
     26          1           0        5.139640   -0.432741    1.988241
     27          1           0        5.510600   -1.347207    0.630055
     28          1           0        3.058344    0.796203    2.219467
     29          1           0        1.068511    1.687443    1.075013
 ---------------------------------------------------------------------
                    Distance matrix (angstroms):
                    1          2          3          4          5
     1  O    0.000000
     2  S    1.478154   0.000000
     3  C    2.647324   1.782722   0.000000
     4  C    3.132166   2.761822   1.401135   0.000000
     5  C    4.457682   4.053086   2.412583   1.386238   0.000000
     6  C    5.233589   4.587578   2.804934   2.431770   1.412239
     7  N    6.584409   5.967111   4.184422   3.691594   2.425907
     8  C    4.942430   4.053631   2.411756   2.795064   2.426662
     9  C    3.789119   2.759992   1.397859   2.426891   2.795844
    10  C    2.633825   1.782722   2.851593   3.415030   4.676230
    11  C    2.928542   2.759992   3.860149   4.042674   5.325229
    12  C    4.314955   4.053632   5.013237   5.087998   6.246895
    13  C    5.223314   4.587578   5.375451   5.573414   6.599840
    14  N    6.563082   5.967111   6.680341   6.777600   7.704557
    15  C    5.045042   4.053086   4.676223   5.108730   6.059798
    16  C    3.927730   2.761822   3.415019   4.072879   5.108722
    17  O    2.545056   1.478154   2.633825   3.927730   5.045041
    18  H    2.889014   2.903596   2.164030   1.085335   2.142003
    19  H    5.123155   4.905694   3.396818   2.143872   1.086043
    20  H    7.149942   6.485747   4.726109   4.455704   3.292085
    21  H    6.926705   6.486462   4.727190   3.972836   2.601066
    22  H    5.860101   4.906325   3.395669   3.881095   3.412231
    23  H    4.042722   2.888697   2.152545   3.406946   3.879975
    24  H    2.486556   2.888698   4.040276   4.086194   5.407143
    25  H    4.907206   4.906326   5.879107   5.803648   6.943347
    26  H    7.229839   6.486461   7.173920   7.383665   8.261022
    27  H    6.894164   6.485746   7.328389   7.372243   8.355236
    28  H    6.018726   4.905694   5.363069   5.835927   6.642157
    29  H    4.291052   2.903596   3.266338   4.150431   5.033975
                    6          7          8          9         10
     6  C    0.000000
     7  N    1.381052   0.000000
     8  C    1.409765   2.424777   0.000000
     9  C    2.432341   3.693097   1.388884   0.000000
    10  C    5.375447   6.680335   5.013227   3.860138   0.000000
    11  C    6.271240   7.539995   6.133328   5.056931   1.397859
    12  C    7.202111   8.386435   7.126977   6.133325   2.411755
    13  C    7.374113   8.487113   7.202097   6.271226   2.804934
    14  N    8.487118   9.509622   8.386423   7.539982   4.184422
    15  C    6.599821   7.704530   6.246865   5.325203   2.412583
    16  C    5.573390   6.777570   5.087966   4.042646   1.401135
    17  O    5.223314   6.563082   4.314954   2.928542   2.647325
    18  H    3.412432   4.565013   3.880390   3.412316   3.266361
    19  H    2.164950   2.662286   3.412116   3.881863   5.363080
    20  H    2.036718   1.011376   2.599000   3.973791   7.328380
    21  H    2.037824   1.011332   3.290973   4.457566   7.173920
    22  H    2.162261   2.660747   1.086048   2.146338   5.879092
[...]
    46    C    3  dxz    Ryd( 3d)     0.00057
    47    C    3  dyz    Ryd( 3d)     0.00065
    48    C    3  dx2y2  Ryd( 3d)     0.00073
    49    C    3  dz2    Ryd( 3d)     0.00069

    50    C    4  S      Cor( 1S)     1.99901
    51    C    4  S      Val( 2S)     0.95342
    52    C    4  S      Ryd( 3S)     0.00094
    53    C    4  S      Ryd( 4S)     0.00005
    54    C    4  px     Val( 2p)     1.06718
    55    C    4  px     Ryd( 3p)     0.00453
    56    C    4  py     Val( 2p)     1.03993
    57    C    4  py     Ryd( 3p)     0.00379
    58    C    4  pz     Val( 2p)     1.17403
    59    C    4  pz     Ryd( 3p)     0.00554
    60    C    4  dxy    Ryd( 3d)     0.00041
    61    C    4  dxz    Ryd( 3d)     0.00059
    62    C    4  dyz    Ryd( 3d)     0.00052
    63    C    4  dx2y2  Ryd( 3d)     0.00060
    64    C    4  dz2    Ryd( 3d)     0.00056

    65    C    5  S      Cor( 1S)     1.99906
    66    C    5  S      Val( 2S)     0.96139
    67    C    5  S      Ryd( 3S)     0.00070
    68    C    5  S      Ryd( 4S)     0.00004
    69    C    5  px     Val( 2p)     1.07384
    70    C    5  px     Ryd( 3p)     0.00329
    71    C    5  py     Val( 2p)     1.04323
    72    C    5  py     Ryd( 3p)     0.00210
    73    C    5  pz     Val( 2p)     1.15519
    74    C    5  pz     Ryd( 3p)     0.00453
    75    C    5  dxy    Ryd( 3d)     0.00038
    76    C    5  dxz    Ryd( 3d)     0.00064
    77    C    5  dyz    Ryd( 3d)     0.00052
    78    C    5  dx2y2  Ryd( 3d)     0.00060
    79    C    5  dz2    Ryd( 3d)     0.00054

    80    C    6  S      Cor( 1S)     1.99902
    81    C    6  S      Val( 2S)     0.84601
    82    C    6  S      Ryd( 3S)     0.00132
    83    C    6  S      Ryd( 4S)     0.00010
    84    C    6  px     Val( 2p)     0.94393
    85    C    6  px     Ryd( 3p)     0.00425
    86    C    6  py     Val( 2p)     0.95392
    87    C    6  py     Ryd( 3p)     0.00387
    88    C    6  pz     Val( 2p)     1.09209
    89    C    6  pz     Ryd( 3p)     0.00453
    90    C    6  dxy    Ryd( 3d)     0.00083
    91    C    6  dxz    Ryd( 3d)     0.00080
    92    C    6  dyz    Ryd( 3d)     0.00067
    93    C    6  dx2y2  Ryd( 3d)     0.00150
    94    C    6  dz2    Ryd( 3d)     0.00079

    95    N    7  S      Cor( 1S)     1.99948
    96    N    7  S      Val( 2S)     1.34605
    97    N    7  S      Ryd( 3S)     0.00016
    98    N    7  S      Ryd( 4S)     0.00001
    99    N    7  px     Val( 2p)     1.39275
   100    N    7  px     Ryd( 3p)     0.00258
   101    N    7  py     Val( 2p)     1.58089
   102    N    7  py     Ryd( 3p)     0.00432
   103    N    7  pz     Val( 2p)     1.43073
   104    N    7  pz     Ryd( 3p)     0.00195
   105    N    7  dxy    Ryd( 3d)     0.00062
   106    N    7  dxz    Ryd( 3d)     0.00074
   107    N    7  dyz    Ryd( 3d)     0.00024
   108    N    7  dx2y2  Ryd( 3d)     0.00083
   109    N    7  dz2    Ryd( 3d)     0.00042

   110    C    8  S      Cor( 1S)     1.99906
   111    C    8  S      Val( 2S)     0.96139
   112    C    8  S      Ryd( 3S)     0.00070
   113    C    8  S      Ryd( 4S)     0.00004
   114    C    8  px     Val( 2p)     1.07384
   115    C    8  px     Ryd( 3p)     0.00329
   116    C    8  py     Val( 2p)     1.04323
   117    C    8  py     Ryd( 3p)     0.00210
   118    C    8  pz     Val( 2p)     1.15519
   119    C    8  pz     Ryd( 3p)     0.00453
   120    C    8  dxy    Ryd( 3d)     0.00038
   121    C    8  dxz    Ryd( 3d)     0.00064
   122    C    8  dyz    Ryd( 3d)     0.00052
   123    C    8  dx2y2  Ryd( 3d)     0.00060
   124    C    8  dz2    Ryd( 3d)     0.00054

   125    C    9  S      Cor( 1S)     1.99901
   126    C    9  S      Val( 2S)     0.95342
   127    C    9  S      Ryd( 3S)     0.00094
   128    C    9  S      Ryd( 4S)     0.00005
   129    C    9  px     Val( 2p)     1.06718
   130    C    9  px     Ryd( 3p)     0.00453
   131    C    9  py     Val( 2p)     1.03993
   132    C    9  py     Ryd( 3p)     0.00379
   133    C    9  pz     Val( 2p)     1.17403
   134    C    9  pz     Ryd( 3p)     0.00554
   135    C    9  dxy    Ryd( 3d)     0.00041
   136    C    9  dxz    Ryd( 3d)     0.00059
   137    C    9  dyz    Ryd( 3d)     0.00052
   138    C    9  dx2y2  Ryd( 3d)     0.00060
   139    C    9  dz2    Ryd( 3d)     0.00056

   140    C   10  S      Cor( 1S)     1.99872
   141    C   10  S      Val( 2S)     0.97516
   142    C   10  S      Ryd( 3S)     0.00325
   143    C   10  S      Ryd( 4S)     0.00007
   144    C   10  px     Val( 2p)     1.08670
   145    C   10  px     Ryd( 3p)     0.00689
   146    C   10  py     Val( 2p)     1.16801
   147    C   10  py     Ryd( 3p)     0.00698
   148    C   10  pz     Val( 2p)     1.10779
   149    C   10  pz     Ryd( 3p)     0.01021
   150    C   10  dxy    Ryd( 3d)     0.00058
   151    C   10  dxz    Ryd( 3d)     0.00057
   152    C   10  dyz    Ryd( 3d)     0.00065
   153    C   10  dx2y2  Ryd( 3d)     0.00073
   154    C   10  dz2    Ryd( 3d)     0.00069

   155    C   11  S      Cor( 1S)     1.99901
   156    C   11  S      Val( 2S)     0.95342
   157    C   11  S      Ryd( 3S)     0.00094
   158    C   11  S      Ryd( 4S)     0.00005
   159    C   11  px     Val( 2p)     1.06718
   160    C   11  px     Ryd( 3p)     0.00453
   161    C   11  py     Val( 2p)     1.03993
   162    C   11  py     Ryd( 3p)     0.00379
   163    C   11  pz     Val( 2p)     1.17403
   164    C   11  pz     Ryd( 3p)     0.00554
   165    C   11  dxy    Ryd( 3d)     0.00041
   166    C   11  dxz    Ryd( 3d)     0.00059
   167    C   11  dyz    Ryd( 3d)     0.00052
   168    C   11  dx2y2  Ryd( 3d)     0.00060
   169    C   11  dz2    Ryd( 3d)     0.00056

   170    C   12  S      Cor( 1S)     1.99906
   171    C   12  S      Val( 2S)     0.96139
   172    C   12  S      Ryd( 3S)     0.00070
   173    C   12  S      Ryd( 4S)     0.00004
   174    C   12  px     Val( 2p)     1.07384
   175    C   12  px     Ryd( 3p)     0.00329
   176    C   12  py     Val( 2p)     1.04324
   177    C   12  py     Ryd( 3p)     0.00210
   178    C   12  pz     Val( 2p)     1.15519
   179    C   12  pz     Ryd( 3p)     0.00453
   180    C   12  dxy    Ryd( 3d)     0.00038
   181    C   12  dxz    Ryd( 3d)     0.00064
   182    C   12  dyz    Ryd( 3d)     0.00052
   183    C   12  dx2y2  Ryd( 3d)     0.00060
   184    C   12  dz2    Ryd( 3d)     0.00054

   185    C   13  S      Cor( 1S)     1.99902
   186    C   13  S      Val( 2S)     0.84601
   187    C   13  S      Ryd( 3S)     0.00132
   188    C   13  S      Ryd( 4S)     0.00010
   189    C   13  px     Val( 2p)     0.94393
   190    C   13  px     Ryd( 3p)     0.00425
   191    C   13  py     Val( 2p)     0.95392
   192    C   13  py     Ryd( 3p)     0.00387
   193    C   13  pz     Val( 2p)     1.09209
   194    C   13  pz     Ryd( 3p)     0.00453
   195    C   13  dxy    Ryd( 3d)     0.00083
   196    C   13  dxz    Ryd( 3d)     0.00080
   197    C   13  dyz    Ryd( 3d)     0.00067
   198    C   13  dx2y2  Ryd( 3d)     0.00150
   199    C   13  dz2    Ryd( 3d)     0.00079

   200    N   14  S      Cor( 1S)     1.99948
   201    N   14  S      Val( 2S)     1.34605
   202    N   14  S      Ryd( 3S)     0.00016
   203    N   14  S      Ryd( 4S)     0.00001
   204    N   14  px     Val( 2p)     1.39275
   205    N   14  px     Ryd( 3p)     0.00258
   206    N   14  py     Val( 2p)     1.58089
   207    N   14  py     Ryd( 3p)     0.00432
   208    N   14  pz     Val( 2p)     1.43073
   209    N   14  pz     Ryd( 3p)     0.00195
   210    N   14  dxy    Ryd( 3d)     0.00062
   211    N   14  dxz    Ryd( 3d)     0.00074
   212    N   14  dyz    Ryd( 3d)     0.00024
   213    N   14  dx2y2  Ryd( 3d)     0.00083
   214    N   14  dz2    Ryd( 3d)     0.00042

   215    C   15  S      Cor( 1S)     1.99906
   216    C   15  S      Val( 2S)     0.96139
   217    C   15  S      Ryd( 3S)     0.00070
   218    C   15  S      Ryd( 4S)     0.00004
   219    C   15  px     Val( 2p)     1.07385
   220    C   15  px     Ryd( 3p)     0.00329
   221    C   15  py     Val( 2p)     1.04323
   222    C   15  py     Ryd( 3p)     0.00210
   223    C   15  pz     Val( 2p)     1.15519
   224    C   15  pz     Ryd( 3p)     0.00453
   225    C   15  dxy    Ryd( 3d)     0.00038
   226    C   15  dxz    Ryd( 3d)     0.00064
   227    C   15  dyz    Ryd( 3d)     0.00052
   228    C   15  dx2y2  Ryd( 3d)     0.00060
   229    C   15  dz2    Ryd( 3d)     0.00054

   230    C   16  S      Cor( 1S)     1.99901
   231    C   16  S      Val( 2S)     0.95342
   232    C   16  S      Ryd( 3S)     0.00094
   233    C   16  S      Ryd( 4S)     0.00005
   234    C   16  px     Val( 2p)     1.06718
   235    C   16  px     Ryd( 3p)     0.00453
   236    C   16  py     Val( 2p)     1.03994
   237    C   16  py     Ryd( 3p)     0.00379
   238    C   16  pz     Val( 2p)     1.17403
   239    C   16  pz     Ryd( 3p)     0.00554
   240    C   16  dxy    Ryd( 3d)     0.00041
   241    C   16  dxz    Ryd( 3d)     0.00059
   242    C   16  dyz    Ryd( 3d)     0.00052
   243    C   16  dx2y2  Ryd( 3d)     0.00060
   244    C   16  dz2    Ryd( 3d)     0.00056

   245    O   17  S      Cor( 1S)     1.99989
   246    O   17  S      Val( 2S)     1.82659
   247    O   17  S      Ryd( 3S)     0.00119
   248    O   17  S      Ryd( 4S)     0.00005
   249    O   17  px     Val( 2p)     1.83008
   250    O   17  px     Ryd( 3p)     0.00075
   251    O   17  py     Val( 2p)     1.72927
   252    O   17  py     Ryd( 3p)     0.00071
   253    O   17  pz     Val( 2p)     1.60178
   254    O   17  pz     Ryd( 3p)     0.00067
   255    O   17  dxy    Ryd( 3d)     0.00119
   256    O   17  dxz    Ryd( 3d)     0.00328
   257    O   17  dyz    Ryd( 3d)     0.00438
   258    O   17  dx2y2  Ryd( 3d)     0.00145
   259    O   17  dz2    Ryd( 3d)     0.00470

   260    H   18  S      Val( 1S)     0.73613
   261    H   18  S      Ryd( 2S)     0.00134
   262    H   18  px     Ryd( 2p)     0.00014
   263    H   18  py     Ryd( 2p)     0.00015
   264    H   18  pz     Ryd( 2p)     0.00032

   265    H   19  S      Val( 1S)     0.74535
   266    H   19  S      Ryd( 2S)     0.00090
   267    H   19  px     Ryd( 2p)     0.00013
   268    H   19  py     Ryd( 2p)     0.00012
   269    H   19  pz     Ryd( 2p)     0.00034

   270    H   20  S      Val( 1S)     0.56773
   271    H   20  S      Ryd( 2S)     0.00146
   272    H   20  px     Ryd( 2p)     0.00036
   273    H   20  py     Ryd( 2p)     0.00038
   274    H   20  pz     Ryd( 2p)     0.00046

   275    H   21  S      Val( 1S)     0.56773
   276    H   21  S      Ryd( 2S)     0.00146
   277    H   21  px     Ryd( 2p)     0.00036
   278    H   21  py     Ryd( 2p)     0.00038
   279    H   21  pz     Ryd( 2p)     0.00046

   280    H   22  S      Val( 1S)     0.74535
   281    H   22  S      Ryd( 2S)     0.00090
   282    H   22  px     Ryd( 2p)     0.00013
   283    H   22  py     Ryd( 2p)     0.00012
   284    H   22  pz     Ryd( 2p)     0.00034

   285    H   23  S      Val( 1S)     0.73612
   286    H   23  S      Ryd( 2S)     0.00134
   287    H   23  px     Ryd( 2p)     0.00014
   288    H   23  py     Ryd( 2p)     0.00015
   289    H   23  pz     Ryd( 2p)     0.00032

   290    H   24  S      Val( 1S)     0.73613
   291    H   24  S      Ryd( 2S)     0.00134
   292    H   24  px     Ryd( 2p)     0.00014
   293    H   24  py     Ryd( 2p)     0.00015
   294    H   24  pz     Ryd( 2p)     0.00032

   295    H   25  S      Val( 1S)     0.74535
   296    H   25  S      Ryd( 2S)     0.00090
   297    H   25  px     Ryd( 2p)     0.00013
   298    H   25  py     Ryd( 2p)     0.00012
   299    H   25  pz     Ryd( 2p)     0.00034

   300    H   26  S      Val( 1S)     0.56773
   301    H   26  S      Ryd( 2S)     0.00146
   302    H   26  px     Ryd( 2p)     0.00036
   303    H   26  py     Ryd( 2p)     0.00038
   304    H   26  pz     Ryd( 2p)     0.00046

   305    H   27  S      Val( 1S)     0.56773
   306    H   27  S      Ryd( 2S)     0.00146
   307    H   27  px     Ryd( 2p)     0.00036
   308    H   27  py     Ryd( 2p)     0.00038
   309    H   27  pz     Ryd( 2p)     0.00046

   310    H   28  S      Val( 1S)     0.74535
   311    H   28  S      Ryd( 2S)     0.00090
   312    H   28  px     Ryd( 2p)     0.00013
   313    H   28  py     Ryd( 2p)     0.00012
   314    H   28  pz     Ryd( 2p)     0.00034

   315    H   29  S      Val( 1S)     0.73612
   316    H   29  S      Ryd( 2S)     0.00134
   317    H   29  px     Ryd( 2p)     0.00014
   318    H   29  py     Ryd( 2p)     0.00015
   319    H   29  pz     Ryd( 2p)     0.00032

 WARNING:  1 low occupancy (<1.9990e) core orbital  found on  S    2
           1 low occupancy (<1.9990e) core orbital  found on  C    3
           1 low occupancy (<1.9990e) core orbital  found on  C   10


 Summary of Natural Population Analysis:                  
                                                          
                                       Natural Population 
                Natural  -----------------------------------------------
    Atom  No    Charge         Core      Valence    Rydberg      Total
 -----------------------------------------------------------------------
      O    1   -1.00598      1.99989     6.98772    0.01838     9.00598
      S    2    2.18671      9.99833     3.61045    0.20451    13.81329
      C    3   -0.36700      1.99872     4.33767    0.03061     6.36700
      C    4   -0.25113      1.99901     4.23457    0.01755     6.25113
      C    5   -0.24605      1.99906     4.23365    0.01334     6.24605
      C    6    0.14638      1.99902     3.83595    0.01865     5.85362
      N    7   -0.76178      1.99948     5.75042    0.01188     7.76178
      C    8   -0.24605      1.99906     4.23365    0.01334     6.24605
      C    9   -0.25112      1.99901     4.23456    0.01755     6.25112
      C   10   -0.36700      1.99872     4.33767    0.03061     6.36700
      C   11   -0.25113      1.99901     4.23456    0.01755     6.25113
      C   12   -0.24605      1.99906     4.23365    0.01334     6.24605
      C   13    0.14638      1.99902     3.83595    0.01865     5.85362
      N   14   -0.76178      1.99948     5.75042    0.01188     7.76178
      C   15   -0.24605      1.99906     4.23365    0.01334     6.24605
      C   16   -0.25113      1.99901     4.23456    0.01755     6.25113
      O   17   -1.00598      1.99989     6.98772    0.01838     9.00598
      H   18    0.26192      0.00000     0.73613    0.00195     0.73808
      H   19    0.25316      0.00000     0.74535    0.00149     0.74684
      H   20    0.42960      0.00000     0.56773    0.00266     0.57040
      H   21    0.42960      0.00000     0.56773    0.00266     0.57040
      H   22    0.25316      0.00000     0.74535    0.00149     0.74684
      H   23    0.26192      0.00000     0.73612    0.00195     0.73808
      H   24    0.26192      0.00000     0.73613    0.00195     0.73808
      H   25    0.25316      0.00000     0.74535    0.00149     0.74684
      H   26    0.42960      0.00000     0.56773    0.00266     0.57040
      H   27    0.42960      0.00000     0.56773    0.00266     0.57040
      H   28    0.25316      0.00000     0.74535    0.00149     0.74684
      H   29    0.26192      0.00000     0.73612    0.00195     0.73808
 =======================================================================
   * Total *    0.00000     41.98482    87.50366    0.51151   130.00000

                                 Natural Population      
 --------------------------------------------------------
   Core                      41.98482 ( 99.9639% of  42)
   Valence                   87.50366 ( 99.4360% of  88)
   Natural Minimal Basis    129.48849 ( 99.6065% of 130)
   Natural Rydberg Basis      0.51151 (  0.3935% of 130)
 --------------------------------------------------------

    Atom  No          Natural Electron Configuration
 ----------------------------------------------------------------------------
      O    1      [core]2S( 1.83)2p( 5.16)3d( 0.01)
      S    2      [core]3S( 1.06)3p( 2.55)4S( 0.01)3d( 0.15)4p( 0.04)
      C    3      [core]2S( 0.98)2p( 3.36)3p( 0.02)
      C    4      [core]2S( 0.95)2p( 3.28)3p( 0.01)
      C    5      [core]2S( 0.96)2p( 3.27)3p( 0.01)
      C    6      [core]2S( 0.85)2p( 2.99)3p( 0.01)
      N    7      [core]2S( 1.35)2p( 4.40)3p( 0.01)
      C    8      [core]2S( 0.96)2p( 3.27)3p( 0.01)
      C    9      [core]2S( 0.95)2p( 3.28)3p( 0.01)
      C   10      [core]2S( 0.98)2p( 3.36)3p( 0.02)
      C   11      [core]2S( 0.95)2p( 3.28)3p( 0.01)
      C   12      [core]2S( 0.96)2p( 3.27)3p( 0.01)
      C   13      [core]2S( 0.85)2p( 2.99)3p( 0.01)
      N   14      [core]2S( 1.35)2p( 4.40)3p( 0.01)
      C   15      [core]2S( 0.96)2p( 3.27)3p( 0.01)
      C   16      [core]2S( 0.95)2p( 3.28)3p( 0.01)
      O   17      [core]2S( 1.83)2p( 5.16)3d( 0.01)
      H   18            1S( 0.74)
      H   19            1S( 0.75)
      H   20            1S( 0.57)
      H   21            1S( 0.57)
      H   22            1S( 0.75)
      H   23            1S( 0.74)
      H   24            1S( 0.74)
      H   25            1S( 0.75)
      H   26            1S( 0.57)
      H   27            1S( 0.57)
      H   28            1S( 0.75)
      H   29            1S( 0.74)


 NBO analysis skipped by request.
 1\1\GINC-DRG2-W002\SP\RB3LYP TD-FC\6-31G(d,p)\C12H12N2O2S1\QDUEZ\18-Ju
 l-2024\0\\# TD(NStates=10, Root=1) B3LYP/6-31G** SCRF=(Solvent=water) 
 volume pop=NPA density=current Geom=AllCheck Guess=Read\\MQJKPEGWNLWLT
 K-UHFFFAOYSA-N_conf_1\\0,1\O,0,0.0052956779,0.6456128511,-2.9378588614
 \S,0,-0.0266037704,1.211044914,-1.5692713966\C,0,-1.447425386,0.524272
 4803,-0.7407520842\C,0,-1.9601508462,-0.7147199557,-1.1442397313\C,0,-
 3.0585749416,-1.2554254988,-0.4921567639\C,0,-3.6674595263,-0.57100737
 33,0.5830711044\N,0,-4.7237041315,-1.1320711667,1.265592662\C,0,-3.138
 0779732,0.678658219,0.9747047521\C,0,-2.039602549,1.2180998115,0.32166
 17166\C,0,1.4222420844,0.6221908175,-0.7143269842\C,0,2.025539424,-0.5
 787391245,-1.1075102023\C,0,3.1460785329,-1.0437296346,-0.4349876566\C
 ,0,3.6870332585,-0.3200554483,0.6508068635\N,0,4.7663262123,-0.8082438
 896,1.3530028867\C,0,3.0666129234,0.8903944654,1.0318227592\C,0,1.9461
 250468,1.3541195257,0.358342234\O,0,-0.0783724933,2.6808924619,-1.3942
 548538\H,0,-1.5099390815,-1.2420121789,-1.978132091\H,0,-3.4598131594,
 -2.2125375345,-0.8121552855\H,0,-5.3022816722,-0.5092487483,1.81144636
 47\H,0,-5.2469819573,-1.8544142752,0.7912331356\H,0,-3.6010088179,1.22
 23562496,1.7929604547\H,0,-1.6508195774,2.1851881635,0.6211489632\H,0,
 1.6277174046,-1.134984546,-1.9491950335\H,0,3.6174222106,-1.9710819381
 ,-0.7469295857\H,0,5.2909755628,-0.1477665013,1.9089964515\H,0,5.34625
 0807,-1.4929619527,0.8888211973\H,0,3.4762932578,1.463882961,1.8580960
 038\H,0,1.4869034803,2.2922868457,0.6499957331\\Version=ES64L-G16RevA.
 03\State=1-A\HF=-1122.6304655\RMSD=8.108e-09\Dipole=0.0580005,-2.64025
 99,3.484389\Quadrupole=40.6640538,-17.7901372,-22.8739166,1.9144098,0.
 2800535,8.9622764\PG=C01 [X(C12H12N2O2S1)]\\@


 FROM WHENCE IT HAPPENS, THAT THEY WHICH TRUST TO BOOKS, DO AS THEY THAT CAST UP MANY LITTLE SUMMS INTO GREATER,
 WITHOUT CONSIDERING WETHER THOSE LITTLE SUMMES WERE RIGHTLY CAST UP OR NOT...
 AND AT LAST FINDING THE ERROUR VISIBLE, AND NOT MISTRUSTING THEIR FIRST GROUNDS,
 KNOW NOT WHICH WAY TO CLEERE THEMSELVES...
 BUT SPEND TIME IN FLUTTERING OVER THEIR BOOKES....
 AS BIRDS THAT ENTERING BY THE CHIMNEY, AND FINDING THEMSELVES INCLOSED IN A CHAMBER,
 FLUTTER AT THE FALSE LIGHT OF A GLASSE WINDOW,
 FOR WANT OF WIT TO CONSIDER WHICH WAY THEY CAME IN....
           LEVIATHAN
 Job cpu time:       0 days  0 hours 52 minutes 23.7 seconds.
 Elapsed time:       0 days  0 hours 17 minutes 45.2 seconds.
 File lengths (MBytes):  RWF=    867 Int=      0 D2E=      0 Chk=     53 Scr=      1
 Normal termination of Gaussian 16 at Thu Jul 18 15:20:39 2024.
